<event>
 8    1  0.1135368E+005  0.1043930E+01  0.7957747E-01            NaN
         13   -1    0    0    0    0  0.00000000000E+00  0.00000000000E+00  0.74505805969E-08  0.10566000000E+00  0.10566000000E+00 0. -1.
     999900   -1    0    0    0    0 -0.00000000000E+00 -0.00000000000E+00 -0.74505805969E-08  0.93827000000E+00  0.93827000000E+00 0. -1.
     999902    2    1    2    0    0  0.16048287056E-01 -0.14354070909E-01  0.10289723878E-01  0.10200665282E+01  0.10197873585E+01 0.  0.
     999903    2    3    3    0    0 -0.79103835891E-01  0.40314718470E-02 -0.98552356655E-01  0.12808079222E+00  0.20456116842E-01 0.  0.
         14    1    1    2    0    0 -0.16048287056E-01  0.14354070909E-01 -0.10289723878E-01  0.23863471805E-01  0.00000000000E+00 0.  1.
     999901    1    3    3    0    0  0.95152122947E-01 -0.18385542756E-01  0.10884208053E+00  0.89198573597E+00  0.88000000000E+00 0.  1.
        -11    1    4    4    0    0 -0.38271028243E-01 -0.74379507124E-02 -0.40912399724E-01  0.56516194897E-01  0.51100000000E-03 0. -1.
         11    1    4    4    0    0 -0.40832807648E-01  0.11469422559E-01 -0.57639956931E-01  0.71564597325E-01  0.51100000000E-03 0.  1.
</event>
<event>
 8    1  0.1135368E+005  0.1043930E+01  0.7957747E-01            NaN
         13   -1    0    0    0    0  0.00000000000E+00  0.00000000000E+00  0.74505805969E-08  0.10566000000E+00  0.10566000000E+00 0.  1.
     999900   -1    0    0    0    0 -0.00000000000E+00 -0.00000000000E+00 -0.74505805969E-08  0.93827000000E+00  0.93827000000E+00 0. -1.
     999902    2    1    2    0    0  0.77013891773E-02 -0.18472327873E-01  0.12772170962E-01  0.10201883353E+01  0.10199120417E+01 0.  0.
     999903    2    3    3    0    0 -0.93851514157E-01 -0.69315276866E-01 -0.54425883302E-01  0.13034926212E+00  0.20397035205E-01 0.  0.
         14    1    1    2    0    0 -0.77013891773E-02  0.18472327873E-01 -0.12772170962E-01  0.23741664714E-01  0.00000000000E+00 0.  1.
     999901    1    3    3    0    0  0.10155290333E+00  0.50842948993E-01  0.67198054264E-01  0.88983907317E+00  0.88000000000E+00 0.  1.
        -11    1    4    4    0    0 -0.15627949706E-01 -0.20052148305E-01 -0.17156449127E-01  0.30674522512E-01  0.51100000000E-03 0. -1.
         11    1    4    4    0    0 -0.78223564452E-01 -0.49263128561E-01 -0.37269434175E-01  0.99674739608E-01  0.51100000000E-03 0.  1.
</event>
<event>
 8    1  0.1135368E+005  0.1043930E+01  0.7957747E-01            NaN
         13   -1    0    0    0    0  0.00000000000E+00  0.00000000000E+00  0.74505805969E-08  0.10566000000E+00  0.10566000000E+00 0.  1.
     999900   -1    0    0    0    0 -0.00000000000E+00 -0.00000000000E+00 -0.74505805969E-08  0.93827000000E+00  0.93827000000E+00 0.  1.
     999902    2    1    2    0    0 -0.10871560742E-01 -0.16866397103E-01 -0.12048901655E-01  0.10205239705E+01  0.10202555230E+01 0.  0.
     999903    2    3    3    0    0 -0.85272196586E-01  0.25834136514E-01  0.92709026544E-01  0.13016841588E+00  0.20250994295E-01 0.  0.
         14    1    1    2    0    0  0.10871560742E-01  0.16866397103E-01  0.12048901655E-01  0.23406029465E-01  0.00000000000E+00 0.  1.
     999901    1    3    3    0    0  0.74400635844E-01 -0.42700533617E-01 -0.10475792820E+00  0.89035555466E+00  0.88000000000E+00 0.  1.
        -11    1    4    4    0    0 -0.20361366356E-01 -0.21946208610E-02  0.24345727088E-01  0.31817874678E-01  0.51100000000E-03 0.  1.
         11    1    4    4    0    0 -0.64910830230E-01  0.28028757375E-01  0.68363299456E-01  0.98350541202E-01  0.51100000000E-03 0. -1.
</event>
<event>
 8    1  0.1135368E+005  0.1043930E+01  0.7957747E-01            NaN
         13   -1    0    0    0    0  0.00000000000E+00  0.00000000000E+00  0.74505805969E-08  0.10566000000E+00  0.10566000000E+00 0.  1.
     999900   -1    0    0    0    0 -0.00000000000E+00 -0.00000000000E+00 -0.74505805969E-08  0.93827000000E+00  0.93827000000E+00 0.  1.
     999902    2    1    2    0    0  0.82749742578E-02  0.19889464846E-01 -0.19588946823E-01  0.10148131175E+01  0.10143953226E+01 0.  0.
     999903    2    3    3    0    0 -0.65947402673E-01  0.10346971656E+00 -0.29142236499E-01  0.12769086825E+00  0.20016136505E-01 0.  0.
         14    1    1    2    0    0 -0.82749742578E-02 -0.19889464846E-01  0.19588946823E-01  0.29116882534E-01  0.00000000000E+00 0.  1.
     999901    1    3    3    0    0  0.74222376930E-01 -0.83580251718E-01  0.95532896757E-02  0.88712224922E+00  0.88000000000E+00 0.  1.
        -11    1    4    4    0    0 -0.22454381352E-01  0.27823254941E-01 -0.16990953227E-01  0.39588967781E-01  0.51100000000E-03 0. -1.
         11    1    4    4    0    0 -0.43493021321E-01  0.75646461624E-01 -0.12151283272E-01  0.88101900467E-01  0.51100000000E-03 0.  1.
</event>
<event>
 8    1  0.1135368E+005  0.1043930E+01  0.7957747E-01            NaN
         13   -1    0    0    0    0  0.00000000000E+00  0.00000000000E+00  0.74505805969E-08  0.10566000000E+00  0.10566000000E+00 0. -1.
     999900   -1    0    0    0    0 -0.00000000000E+00 -0.00000000000E+00 -0.74505805969E-08  0.93827000000E+00  0.93827000000E+00 0. -1.
     999902    2    1    2    0    0  0.12793225523E-01  0.15705140448E-01 -0.12220416432E-01  0.10202729369E+01  0.10199986319E+01 0.  0.
     999903    2    3    3    0    0 -0.50813067749E-01 -0.93808296405E-01  0.67240318552E-01  0.12766274103E+00  0.19863299855E-01 0.  0.
         14    1    1    2    0    0 -0.12793225523E-01 -0.15705140448E-01  0.12220416432E-01  0.23657063080E-01  0.00000000000E+00 0. -1.
     999901    1    3    3    0    0  0.63606293271E-01  0.10951343685E+00 -0.79460734984E-01  0.89261019589E+00  0.88000000000E+00 0. -1.
        -11    1    4    4    0    0 -0.38018244140E-01 -0.61185491607E-01  0.54661303088E-01  0.90427708403E-01  0.51100000000E-03 0.  1.
         11    1    4    4    0    0 -0.12794823608E-01 -0.32622804798E-01  0.12579015463E-01  0.37235032632E-01  0.51100000000E-03 0. -1.
</event>
<event>
 8    1  0.1135368E+005  0.1043930E+01  0.7957747E-01            NaN
         13   -1    0    0    0    0  0.00000000000E+00  0.00000000000E+00  0.74505805969E-08  0.10566000000E+00  0.10566000000E+00 0.  1.
     999900   -1    0    0    0    0 -0.00000000000E+00 -0.00000000000E+00 -0.74505805969E-08  0.93827000000E+00  0.93827000000E+00 0.  1.
     999902    2    1    2    0    0 -0.22519613740E-01 -0.89634528383E-02  0.31916906029E-02  0.10194828452E+01  0.10191896822E+01 0.  0.
     999903    2    3    3    0    0 -0.64739121407E-02 -0.40135069745E-01  0.12265070749E+00  0.13071988975E+00  0.19792881702E-01 0.  0.
         14    1    1    2    0    0  0.22519613740E-01  0.89634528383E-02 -0.31916906029E-02  0.24447154818E-01  0.00000000000E+00 0. -1.
     999901    1    3    3    0    0 -0.16045701600E-01  0.31171616907E-01 -0.11945901688E+00  0.88876295544E+00  0.88000000000E+00 0.  1.
        -11    1    4    4    0    0 -0.53723987997E-02 -0.20691046306E-01  0.91605819193E-01  0.94068428801E-01  0.51100000000E-03 0. -1.
         11    1    4    4    0    0 -0.11015133410E-02 -0.19444023439E-01  0.31044888295E-01  0.36651460945E-01  0.51100000000E-03 0.  1.
</event>
<event>
 8    1  0.1135368E+005  0.1043930E+01  0.7957747E-01            NaN
         13   -1    0    0    0    0  0.00000000000E+00  0.00000000000E+00  0.74505805969E-08  0.10566000000E+00  0.10566000000E+00 0. -1.
     999900   -1    0    0    0    0 -0.00000000000E+00 -0.00000000000E+00 -0.74505805969E-08  0.93827000000E+00  0.93827000000E+00 0. -1.
     999902    2    1    2    0    0 -0.20664322301E-01  0.16360901777E-02 -0.12856815114E-01  0.10195376097E+01  0.10192457746E+01 0.  0.
     999903    2    3    3    0    0 -0.81637814979E-01  0.10129330848E+00 -0.33206054282E-02  0.13176496585E+00  0.20637650728E-01 0.  0.
         14    1    1    2    0    0  0.20664322301E-01 -0.16360901777E-02  0.12856815114E-01  0.24392390250E-01  0.00000000000E+00 0. -1.
     999901    1    3    3    0    0  0.60973492678E-01 -0.99657218298E-01 -0.95362096855E-02  0.88777264390E+00  0.88000000000E+00 0.  1.
        -11    1    4    4    0    0 -0.19676605265E-01  0.25376506406E-01  0.80629232869E-02  0.33112048035E-01  0.51100000000E-03 0. -1.
         11    1    4    4    0    0 -0.61961209714E-01  0.75916802070E-01 -0.11383528715E-01  0.98652917812E-01  0.51100000000E-03 0.  1.
</event>
<event>
 8    1  0.1135368E+005  0.1043930E+01  0.7957747E-01            NaN
         13   -1    0    0    0    0  0.00000000000E+00  0.00000000000E+00  0.74505805969E-08  0.10566000000E+00  0.10566000000E+00 0. -1.
     999900   -1    0    0    0    0 -0.00000000000E+00 -0.00000000000E+00 -0.74505805969E-08  0.93827000000E+00  0.93827000000E+00 0.  1.
     999902    2    1    2    0    0 -0.10298886776E-01 -0.11075061201E-01 -0.17096901201E-01  0.10211039605E+01  0.10208487988E+01 0.  0.
     999903    2    3    3    0    0 -0.81550768822E-01  0.48279786076E-01 -0.90189213638E-01  0.13321752927E+00  0.25126683218E-01 0.  0.
         14    1    1    2    0    0  0.10298886776E-01  0.11075061201E-01  0.17096901201E-01  0.22826039519E-01  0.00000000000E+00 0. -1.
     999901    1    3    3    0    0  0.71251882045E-01 -0.59354847276E-01  0.73092312437E-01  0.88788643121E+00  0.88000000000E+00 0. -1.
        -11    1    4    4    0    0 -0.58527685800E-01  0.46750425757E-01 -0.66999635686E-01  0.10050027172E+00  0.51100000000E-03 0. -1.
         11    1    4    4    0    0 -0.23023083022E-01  0.15293603190E-02 -0.23189577952E-01  0.32717257547E-01  0.51100000000E-03 0.  1.
</event>
<event>
 8    1  0.1135368E+005  0.1043930E+01  0.7957747E-01            NaN
         13   -1    0    0    0    0  0.00000000000E+00  0.00000000000E+00  0.74505805969E-08  0.10566000000E+00  0.10566000000E+00 0. -1.
     999900   -1    0    0    0    0 -0.00000000000E+00 -0.00000000000E+00 -0.74505805969E-08  0.93827000000E+00  0.93827000000E+00 0.  1.
     999902    2    1    2    0    0  0.22233212540E-01  0.72221379526E-02  0.12473977916E-02  0.10205199377E+01  0.10202513966E+01 0.  0.
     999903    2    3    3    0    0  0.74729644887E-01 -0.68955987357E-01 -0.81475105846E-01  0.13181188956E+00  0.19918166084E-01 0.  0.
         14    1    1    2    0    0 -0.22233212540E-01 -0.72221379526E-02 -0.12473977916E-02  0.23410062317E-01  0.00000000000E+00 0.  1.
     999901    1    3    3    0    0 -0.52496432347E-01  0.76178125310E-01  0.82722503638E-01  0.88870804812E+00  0.88000000000E+00 0. -1.
        -11    1    4    4    0    0  0.17609314608E-01 -0.26162736159E-01 -0.18120256382E-01  0.36375562355E-01  0.51100000000E-03 0. -1.
         11    1    4    4    0    0  0.57120330279E-01 -0.42793251198E-01 -0.63354849464E-01  0.95436327208E-01  0.51100000000E-03 0.  1.
</event>
<event>
 8    1  0.1135368E+005  0.1043930E+01  0.7957747E-01            NaN
         13   -1    0    0    0    0  0.00000000000E+00  0.00000000000E+00  0.74505805969E-08  0.10566000000E+00  0.10566000000E+00 0.  1.
     999900   -1    0    0    0    0 -0.00000000000E+00 -0.00000000000E+00 -0.74505805969E-08  0.93827000000E+00  0.93827000000E+00 0. -1.
     999902    2    1    2    0    0  0.68305729217E-03  0.16219622657E-01  0.17883235467E-01  0.10197773017E+01  0.10194912418E+01 0.  0.
     999903    2    3    3    0    0 -0.10476627636E+00 -0.71725657843E-01 -0.77221391061E-02  0.12876126951E+00  0.19982253089E-01 0.  0.
         14    1    1    2    0    0 -0.68305729217E-03 -0.16219622657E-01 -0.17883235467E-01  0.24152698341E-01  0.00000000000E+00 0. -1.
     999901    1    3    3    0    0  0.10544933366E+00  0.87945280499E-01  0.25605374573E-01  0.89101603214E+00  0.88000000000E+00 0. -1.
        -11    1    4    4    0    0 -0.18768240149E-01 -0.11446333332E-01 -0.89286104622E-02  0.23732816749E-01  0.51100000000E-03 0.  1.
         11    1    4    4    0    0 -0.85998036215E-01 -0.60279324510E-01  0.12064713561E-02  0.10502845277E+00  0.51100000000E-03 0. -1.
</event>
<event>
 8    1  0.1135368E+005  0.1043930E+01  0.7957747E-01            NaN
         13   -1    0    0    0    0  0.00000000000E+00  0.00000000000E+00  0.74505805969E-08  0.10566000000E+00  0.10566000000E+00 0.  1.
     999900   -1    0    0    0    0 -0.00000000000E+00 -0.00000000000E+00 -0.74505805969E-08  0.93827000000E+00  0.93827000000E+00 0.  1.
     999902    2    1    2    0    0  0.20359872165E-01  0.11994742504E-01 -0.16219516553E-02  0.10202439499E+01  0.10199689644E+01 0.  0.
     999903    2    3    3    0    0 -0.24304886374E-01 -0.11793579632E-01 -0.12579028241E+00  0.13008744720E+00  0.19228435921E-01 0.  0.
         14    1    1    2    0    0 -0.20359872165E-01 -0.11994742504E-01  0.16219516553E-02  0.23686050103E-01  0.00000000000E+00 0.  1.
     999901    1    3    3    0    0  0.44664758538E-01  0.23788322137E-01  0.12416833076E+00  0.89015650269E+00  0.88000000000E+00 0. -1.
        -11    1    4    4    0    0 -0.11260900904E-01  0.24050563892E-02 -0.72576863874E-01  0.73486423754E-01  0.51100000000E-03 0.  1.
         11    1    4    4    0    0 -0.13043985469E-01 -0.14198636021E-01 -0.53213418540E-01  0.56601023449E-01  0.51100000000E-03 0. -1.
</event>
<event>
 8    1  0.1135368E+005  0.1043930E+01  0.7957747E-01            NaN
         13   -1    0    0    0    0  0.00000000000E+00  0.00000000000E+00  0.74505805969E-08  0.10566000000E+00  0.10566000000E+00 0.  1.
     999900   -1    0    0    0    0 -0.00000000000E+00 -0.00000000000E+00 -0.74505805969E-08  0.93827000000E+00  0.93827000000E+00 0. -1.
     999902    2    1    2    0    0  0.20441978360E-01 -0.11753550016E-01 -0.21373528909E-02  0.10202532457E+01  0.10199784785E+01 0.  0.
     999903    2    3    3    0    0  0.89338180817E-01 -0.54131472306E-02  0.95290997997E-01  0.13217713917E+00  0.19488691710E-01 0.  0.
         14    1    1    2    0    0 -0.20441978360E-01  0.11753550016E-01  0.21373528909E-02  0.23676754309E-01  0.00000000000E+00 0.  1.
     999901    1    3    3    0    0 -0.68896202457E-01 -0.63404027853E-02 -0.97428350888E-01  0.88807610652E+00  0.88000000000E+00 0. -1.
        -11    1    4    4    0    0  0.56499110929E-01 -0.12274103323E-01  0.64730105978E-01  0.86793150012E-01  0.51100000000E-03 0.  1.
         11    1    4    4    0    0  0.32839069889E-01  0.68609560927E-02  0.30560892019E-01  0.45383989156E-01  0.51100000000E-03 0. -1.
</event>
<event>
 8    1  0.1135368E+005  0.1043930E+01  0.7957747E-01            NaN
         13   -1    0    0    0    0  0.00000000000E+00  0.00000000000E+00  0.74505805969E-08  0.10566000000E+00  0.10566000000E+00 0.  1.
     999900   -1    0    0    0    0 -0.00000000000E+00 -0.00000000000E+00 -0.74505805969E-08  0.93827000000E+00  0.93827000000E+00 0.  1.
     999902    2    1    2    0    0  0.15805684230E-01 -0.17214419961E-01 -0.27188717904E-02  0.10204023955E+01  0.10201311193E+01 0.  0.
     999903    2    3    3    0    0 -0.11078735596E+00 -0.45541149141E-01  0.44881212679E-01  0.12961961086E+00  0.20954373340E-01 0.  0.
         14    1    1    2    0    0 -0.15805684230E-01  0.17214419961E-01  0.27188717904E-02  0.23527604476E-01  0.00000000000E+00 0.  1.
     999901    1    3    3    0    0  0.12659304019E+00  0.28326729181E-01 -0.47600084469E-01  0.89078278466E+00  0.88000000000E+00 0.  1.
        -11    1    4    4    0    0 -0.12086699855E-01  0.16172918470E-02  0.49294355920E-02  0.13162993677E-01  0.51100000000E-03 0. -1.
         11    1    4    4    0    0 -0.98700656107E-01 -0.47158440988E-01  0.39951777087E-01  0.11645661718E+00  0.51100000000E-03 0.  1.
</event>
<event>
 8    1  0.1135368E+005  0.1043930E+01  0.7957747E-01            NaN
         13   -1    0    0    0    0  0.00000000000E+00  0.00000000000E+00  0.74505805969E-08  0.10566000000E+00  0.10566000000E+00 0.  1.
     999900   -1    0    0    0    0 -0.00000000000E+00 -0.00000000000E+00 -0.74505805969E-08  0.93827000000E+00  0.93827000000E+00 0.  1.
     999902    2    1    2    0    0 -0.14364286751E-01  0.16084743712E-01 -0.19114921323E-01  0.10151127841E+01  0.10147036674E+01 0.  0.
     999903    2    3    3    0    0  0.32703491709E-01  0.37623202482E-01  0.11156338413E+00  0.12395842011E+00  0.20839325868E-01 0.  0.
         14    1    1    2    0    0  0.14364286751E-01 -0.16084743712E-01  0.19114921323E-01  0.28817215885E-01  0.00000000000E+00 0.  1.
     999901    1    3    3    0    0 -0.47067778460E-01 -0.21538458770E-01 -0.13067830545E+00  0.89115436401E+00  0.88000000000E+00 0.  1.
        -11    1    4    4    0    0  0.11738441541E-01  0.63963050985E-02  0.13854210014E-01  0.19258867693E-01  0.51100000000E-03 0.  1.
         11    1    4    4    0    0  0.20965050168E-01  0.31226897383E-01  0.97709174114E-01  0.10469955241E+00  0.51100000000E-03 0. -1.
</event>
<event>
 8    1  0.1135368E+005  0.1043930E+01  0.7957747E-01            NaN
         13   -1    0    0    0    0  0.00000000000E+00  0.00000000000E+00  0.74505805969E-08  0.10566000000E+00  0.10566000000E+00 0. -1.
     999900   -1    0    0    0    0 -0.00000000000E+00 -0.00000000000E+00 -0.74505805969E-08  0.93827000000E+00  0.93827000000E+00 0. -1.
     999902    2    1    2    0    0 -0.93313508638E-02 -0.14935970989E-01 -0.12188555209E-01  0.10225122920E+01  0.10222879580E+01 0.  0.
     999903    2    3    3    0    0 -0.41201558876E-01  0.12291233703E+00  0.61170835812E-02  0.13102310945E+00  0.18017365248E-01 0.  0.
         14    1    1    2    0    0  0.93313508638E-02  0.14935970989E-01  0.12188555209E-01  0.21417708010E-01  0.00000000000E+00 0. -1.
     999901    1    3    3    0    0  0.31870208012E-01 -0.13784830801E+00 -0.18305638790E-01  0.89148918254E+00  0.88000000000E+00 0.  1.
        -11    1    4    4    0    0 -0.28334945119E-02  0.31935172594E-01  0.34402051674E-02  0.32248722027E-01  0.51100000000E-03 0. -1.
         11    1    4    4    0    0 -0.38368064364E-01  0.90977164431E-01  0.26768784138E-02  0.98774387419E-01  0.51100000000E-03 0.  1.
</event>
<event>
 8    1  0.1135368E+005  0.1043930E+01  0.7957747E-01            NaN
         13   -1    0    0    0    0  0.00000000000E+00  0.00000000000E+00  0.74505805969E-08  0.10566000000E+00  0.10566000000E+00 0. -1.
     999900   -1    0    0    0    0 -0.00000000000E+00 -0.00000000000E+00 -0.74505805969E-08  0.93827000000E+00  0.93827000000E+00 0. -1.
     999902    2    1    2    0    0  0.11014314188E-01 -0.20193728656E-01  0.49633913021E-02  0.10203983820E+01  0.10201270121E+01 0.  0.
     999903    2    3    3    0    0 -0.12151983447E+00  0.26614137649E-01 -0.28634720217E-01  0.12861078954E+00  0.15665423432E-01 0.  0.
         14    1    1    2    0    0 -0.11014314188E-01  0.20193728656E-01 -0.49633913021E-02  0.23531618034E-01  0.00000000000E+00 0.  1.
     999901    1    3    3    0    0  0.13253414866E+00 -0.46807866306E-01  0.33598111519E-01  0.89178759243E+00  0.88000000000E+00 0.  1.
        -11    1    4    4    0    0 -0.48935450579E-01  0.12876814486E-01 -0.19253429859E-01  0.54142832924E-01  0.51100000000E-03 0.  1.
         11    1    4    4    0    0 -0.72584383892E-01  0.13737323163E-01 -0.93812903574E-02  0.74467956616E-01  0.51100000000E-03 0. -1.
</event>
<event>
 8    1  0.1135368E+005  0.1043930E+01  0.7957747E-01            NaN
         13   -1    0    0    0    0  0.00000000000E+00  0.00000000000E+00  0.74505805969E-08  0.10566000000E+00  0.10566000000E+00 0. -1.
     999900   -1    0    0    0    0 -0.00000000000E+00 -0.00000000000E+00 -0.74505805969E-08  0.93827000000E+00  0.93827000000E+00 0. -1.
     999902    2    1    2    0    0 -0.20872145595E-01 -0.70084282882E-02  0.81971212395E-02  0.10204362279E+01  0.10201657404E+01 0.  0.
     999903    2    3    3    0    0 -0.23208972919E-01 -0.11419476030E+00  0.59984067912E-01  0.13241806463E+00  0.18903854943E-01 0.  0.
         14    1    1    2    0    0  0.20872145595E-01  0.70084282882E-02 -0.81971212395E-02  0.23493772056E-01  0.00000000000E+00 0.  1.
     999901    1    3    3    0    0  0.23368273239E-02  0.10718633202E+00 -0.51786946672E-01  0.88801816332E+00  0.88000000000E+00 0. -1.
        -11    1    4    4    0    0 -0.10721917362E-01 -0.77121720524E-01  0.31364991097E-01  0.83944881179E-01  0.51100000000E-03 0.  1.
         11    1    4    4    0    0 -0.12487055557E-01 -0.37073039780E-01  0.28619076815E-01  0.48473183449E-01  0.51100000000E-03 0. -1.
</event>
<event>
 8    1  0.1135368E+005  0.1043930E+01  0.7957747E-01            NaN
         13   -1    0    0    0    0  0.00000000000E+00  0.00000000000E+00  0.74505805969E-08  0.10566000000E+00  0.10566000000E+00 0.  1.
     999900   -1    0    0    0    0 -0.00000000000E+00 -0.00000000000E+00 -0.74505805969E-08  0.93827000000E+00  0.93827000000E+00 0.  1.
     999902    2    1    2    0    0  0.16071685784E-01  0.99539341731E-02  0.14111678968E-01  0.10203393372E+01  0.10200665878E+01 0.  0.
     999903    2    3    3    0    0 -0.26527355841E-01  0.10854955735E-01  0.12730476020E+00  0.13206676424E+00  0.20337098447E-01 0.  0.
         14    1    1    2    0    0 -0.16071685784E-01 -0.99539341731E-02 -0.14111678968E-01  0.23590662830E-01  0.00000000000E+00 0. -1.
     999901    1    3    3    0    0  0.42599041625E-01 -0.90102156156E-03 -0.11319308124E+00  0.88827257293E+00  0.88000000000E+00 0.  1.
        -11    1    4    4    0    0 -0.90366524037E-02  0.52582428511E-02  0.88678285576E-01  0.89293950849E-01  0.51100000000E-03 0.  1.
         11    1    4    4    0    0 -0.17490703438E-01  0.55967128836E-02  0.38626474628E-01  0.42772813387E-01  0.51100000000E-03 0. -1.
</event>
<event>
 8    1  0.1135368E+005  0.1043930E+01  0.7957747E-01            NaN
         13   -1    0    0    0    0  0.00000000000E+00  0.00000000000E+00  0.74505805969E-08  0.10566000000E+00  0.10566000000E+00 0. -1.
     999900   -1    0    0    0    0 -0.00000000000E+00 -0.00000000000E+00 -0.74505805969E-08  0.93827000000E+00  0.93827000000E+00 0.  1.
     999902    2    1    2    0    0 -0.18818396319E-01 -0.19105593988E-01 -0.14271118646E-01  0.10135520378E+01  0.10130966946E+01 0.  0.
     999903    2    3    3    0    0 -0.10856193544E+00 -0.62096409201E-01  0.14529640432E-01  0.12747551922E+00  0.19930872733E-01 0.  0.
         14    1    1    2    0    0  0.18818396319E-01  0.19105593988E-01  0.14271118646E-01  0.30377962227E-01  0.00000000000E+00 0. -1.
     999901    1    3    3    0    0  0.89743539119E-01  0.42990815213E-01 -0.28800759079E-01  0.88607651855E+00  0.88000000000E+00 0.  1.
        -11    1    4    4    0    0 -0.51888575943E-01 -0.37619296875E-01  0.17452499350E-03  0.64093115002E-01  0.51100000000E-03 0.  1.
         11    1    4    4    0    0 -0.56673359495E-01 -0.24477112326E-01  0.14355115439E-01  0.63382404218E-01  0.51100000000E-03 0. -1.
</event>
<event>
 8    1  0.1135368E+005  0.1043930E+01  0.7957747E-01            NaN
         13   -1    0    0    0    0  0.00000000000E+00  0.00000000000E+00  0.74505805969E-08  0.10566000000E+00  0.10566000000E+00 0. -1.
     999900   -1    0    0    0    0 -0.00000000000E+00 -0.00000000000E+00 -0.74505805969E-08  0.93827000000E+00  0.93827000000E+00 0. -1.
     999902    2    1    2    0    0  0.13483674789E-01  0.64823994387E-02  0.18214284270E-01  0.10203590191E+01  0.10200867300E+01 0.  0.
     999903    2    3    3    0    0  0.55203127986E-01 -0.10537956873E+00 -0.47885797060E-01  0.12984072428E+00  0.20330402743E-01 0.  0.
         14    1    1    2    0    0 -0.13483674789E-01 -0.64823994387E-02 -0.18214284270E-01  0.23570980883E-01  0.00000000000E+00 0.  1.
     999901    1    3    3    0    0 -0.41719453197E-01  0.11186196817E+00  0.66100081330E-01  0.89051829484E+00  0.88000000000E+00 0.  1.
        -11    1    4    4    0    0  0.14080195735E-01 -0.46441470224E-01 -0.23721062517E-01  0.54018626384E-01  0.51100000000E-03 0.  1.
         11    1    4    4    0    0  0.41122932250E-01 -0.58938098503E-01 -0.24164734543E-01  0.75822097891E-01  0.51100000000E-03 0. -1.
</event>
<event>
 8    1  0.1135368E+005  0.1043930E+01  0.7957747E-01            NaN
         13   -1    0    0    0    0  0.00000000000E+00  0.00000000000E+00  0.74505805969E-08  0.10566000000E+00  0.10566000000E+00 0.  1.
     999900   -1    0    0    0    0 -0.00000000000E+00 -0.00000000000E+00 -0.74505805969E-08  0.93827000000E+00  0.93827000000E+00 0.  1.
     999902    2    1    2    0    0  0.43398357737E-02 -0.22042657505E-01 -0.11942210806E-01  0.10184873326E+01  0.10181694934E+01 0.  0.
     999903    2    3    3    0    0  0.47545099981E-02  0.31371592829E-01  0.12125092128E+00  0.12686316038E+00  0.19639077082E-01 0.  0.
         14    1    1    2    0    0 -0.43398357737E-02  0.22042657505E-01  0.11942210806E-01  0.25442667379E-01  0.00000000000E+00 0.  1.
     999901    1    3    3    0    0 -0.41467422440E-03 -0.53414250334E-01 -0.13319313208E+00  0.89162417224E+00  0.88000000000E+00 0.  1.
        -11    1    4    4    0    0  0.28608776571E-02  0.12891222826E-01  0.20344018347E-01  0.24259193112E-01  0.51100000000E-03 0. -1.
         11    1    4    4    0    0  0.18936323411E-02  0.18480370003E-01  0.10090690293E+00  0.10260396727E+00  0.51100000000E-03 0.  1.
</event>
<event>
 8    1  0.1135368E+005  0.1043930E+01  0.7957747E-01            NaN
         13   -1    0    0    0    0  0.00000000000E+00  0.00000000000E+00  0.74505805969E-08  0.10566000000E+00  0.10566000000E+00 0.  1.
     999900   -1    0    0    0    0 -0.00000000000E+00 -0.00000000000E+00 -0.74505805969E-08  0.93827000000E+00  0.93827000000E+00 0. -1.
     999902    2    1    2    0    0 -0.62497633224E-02 -0.17028742977E-01  0.47652496710E-02  0.10251751277E+01  0.10250035597E+01 0.  0.
     999903    2    3    3    0    0 -0.33550647300E-01  0.12711974686E+00 -0.80464538118E-03  0.13301194249E+00  0.20160689861E-01 0.  0.
         14    1    1    2    0    0  0.62497633224E-02  0.17028742977E-01 -0.47652496710E-02  0.18754872257E-01  0.00000000000E+00 0. -1.
     999901    1    3    3    0    0  0.27300883978E-01 -0.14414848983E+00  0.55698950521E-02  0.89216318525E+00  0.88000000000E+00 0. -1.
        -11    1    4    4    0    0 -0.22794581135E-01  0.10548977321E+00 -0.67252194445E-02  0.10813498452E+00  0.51100000000E-03 0.  1.
         11    1    4    4    0    0 -0.10756066165E-01  0.21629973652E-01  0.59205740633E-02  0.24876957969E-01  0.51100000000E-03 0. -1.
</event>
<event>
 8    1  0.1135368E+005  0.1043930E+01  0.7957747E-01            NaN
         13   -1    0    0    0    0  0.00000000000E+00  0.00000000000E+00  0.74505805969E-08  0.10566000000E+00  0.10566000000E+00 0. -1.
     999900   -1    0    0    0    0 -0.00000000000E+00 -0.00000000000E+00 -0.74505805969E-08  0.93827000000E+00  0.93827000000E+00 0.  1.
     999902    2    1    2    0    0  0.19190013393E-01  0.86859651563E-03  0.14929645072E-01  0.10196008945E+01  0.10193105899E+01 0.  0.
     999903    2    3    3    0    0  0.70704796708E-02  0.93142274920E-01  0.90789265875E-01  0.13144775627E+00  0.17616661734E-01 0.  0.
         14    1    1    2    0    0 -0.19190013393E-01 -0.86859651563E-03 -0.14929645072E-01  0.24329105530E-01  0.00000000000E+00 0.  1.
     999901    1    3    3    0    0  0.12119533722E-01 -0.92273678404E-01 -0.75859620803E-01  0.88815313820E+00  0.88000000000E+00 0.  1.
        -11    1    4    4    0    0  0.22024782120E-03  0.81252837214E-01  0.79404288208E-01  0.11361062526E+00  0.51100000000E-03 0.  1.
         11    1    4    4    0    0  0.68502318496E-02  0.11889437706E-01  0.11384977667E-01  0.17837131015E-01  0.51100000000E-03 0. -1.
</event>
<event>
 8    1  0.1135368E+005  0.1043930E+01  0.7957747E-01            NaN
         13   -1    0    0    0    0  0.00000000000E+00  0.00000000000E+00  0.74505805969E-08  0.10566000000E+00  0.10566000000E+00 0. -1.
     999900   -1    0    0    0    0 -0.00000000000E+00 -0.00000000000E+00 -0.74505805969E-08  0.93827000000E+00  0.93827000000E+00 0. -1.
     999902    2    1    2    0    0 -0.15860964823E-02  0.92367949550E-02 -0.20828439334E-01  0.10210901671E+01  0.10208346934E+01 0.  0.
     999903    2    3    3    0    0  0.58234924129E-01 -0.62505540487E-01  0.94320404422E-01  0.12868623755E+00  0.19119625142E-01 0.  0.
         14    1    1    2    0    0  0.15860964823E-02 -0.92367949550E-02  0.20828439334E-01  0.22839832928E-01  0.00000000000E+00 0. -1.
     999901    1    3    3    0    0 -0.59821020611E-01  0.71742335442E-01 -0.11514884376E+00  0.89240392952E+00  0.88000000000E+00 0. -1.
        -11    1    4    4    0    0  0.27085800478E-01 -0.35675233930E-01  0.61466642504E-01  0.76057689718E-01  0.51100000000E-03 0. -1.
         11    1    4    4    0    0  0.31149123651E-01 -0.26830306557E-01  0.32853761917E-01  0.52628547835E-01  0.51100000000E-03 0.  1.
</event>
<event>
 8    1  0.1135368E+005  0.1043930E+01  0.7957747E-01            NaN
         13   -1    0    0    0    0  0.00000000000E+00  0.00000000000E+00  0.74505805969E-08  0.10566000000E+00  0.10566000000E+00 0.  1.
     999900   -1    0    0    0    0 -0.00000000000E+00 -0.00000000000E+00 -0.74505805969E-08  0.93827000000E+00  0.93827000000E+00 0.  1.
     999902    2    1    2    0    0 -0.32706642885E-02  0.21919774337E-01  0.66306214943E-02  0.10207969307E+01  0.10205347789E+01 0.  0.
     999903    2    3    3    0    0 -0.33489627884E-01  0.12193139540E+00 -0.38129926437E-01  0.13348694164E+00  0.19392058625E-01 0.  0.
         14    1    1    2    0    0  0.32706642885E-02 -0.21919774337E-01 -0.66306214943E-02  0.23133069257E-01  0.00000000000E+00 0.  1.
     999901    1    3    3    0    0  0.30218963596E-01 -0.10001162107E+00  0.44760547932E-01  0.88730998910E+00  0.88000000000E+00 0. -1.
        -11    1    4    4    0    0 -0.24574734089E-01  0.54542079412E-01 -0.14942446788E-01  0.61662742553E-01  0.51100000000E-03 0. -1.
         11    1    4    4    0    0 -0.89148937950E-02  0.67389315991E-01 -0.23187479649E-01  0.71824199088E-01  0.51100000000E-03 0.  1.
</event>
<event>
 8    1  0.1255454E+005  0.1043930E+01  0.7957747E-01            NaN
         13   -1    0    0    0    0  0.00000000000E+00  0.00000000000E+00  0.74505805969E-08  0.10566000000E+00  0.10566000000E+00 0. -1.
     999900   -1    0    0    0    0 -0.00000000000E+00 -0.00000000000E+00 -0.74505805969E-08  0.93827000000E+00  0.93827000000E+00 0. -1.
     999902    2    1    2    0    0  0.22367519430E-01  0.29095697036E-03  0.83705635574E-02  0.10200457601E+01  0.10197660986E+01 0.  0.
     999903    2    3    3    0    0  0.97269295486E-01 -0.82843866817E-01 -0.26341932162E-01  0.13228079552E+00  0.21906377119E-01 0.  0.
         14    1    1    2    0    0 -0.22367519430E-01 -0.29095697036E-03 -0.83705635574E-02  0.23884239901E-01  0.00000000000E+00 0.  1.
     999901    1    3    3    0    0 -0.74901776056E-01  0.83134823788E-01  0.34712495720E-01  0.88776496458E+00  0.88000000000E+00 0.  1.
        -11    1    4    4    0    0  0.44778986725E-01 -0.29970308230E-01 -0.20847827593E-02  0.53925731036E-01  0.51100000000E-03 0. -1.
         11    1    4    4    0    0  0.52490308761E-01 -0.52873558587E-01 -0.24257149403E-01  0.78355064480E-01  0.51100000000E-03 0.  1.
</event>
<event>
 8    1  0.1135368E+005  0.1043930E+01  0.7957747E-01            NaN
         13   -1    0    0    0    0  0.00000000000E+00  0.00000000000E+00  0.74505805969E-08  0.10566000000E+00  0.10566000000E+00 0. -1.
     999900   -1    0    0    0    0 -0.00000000000E+00 -0.00000000000E+00 -0.74505805969E-08  0.93827000000E+00  0.93827000000E+00 0. -1.
     999902    2    1    2    0    0 -0.34269399263E-02  0.19455292593E-01 -0.10663076203E-01  0.10214810909E+01  0.10212343832E+01 0.  0.
     999903    2    3    3    0    0  0.55295106475E-01 -0.11308112844E+00 -0.23260675679E-01  0.12953216792E+00  0.19814971175E-01 0.  0.
         14    1    1    2    0    0  0.34269399263E-02 -0.19455292593E-01  0.10663076203E-01  0.22448909132E-01  0.00000000000E+00 0. -1.
     999901    1    3    3    0    0 -0.58722046401E-01  0.13253642104E+00  0.12597599476E-01  0.89194892295E+00  0.88000000000E+00 0.  1.
        -11    1    4    4    0    0  0.19380285015E-01 -0.21779950576E-01 -0.80350482443E-02  0.30245409827E-01  0.51100000000E-03 0.  1.
         11    1    4    4    0    0  0.35914821460E-01 -0.91301177869E-01 -0.15225627435E-01  0.99286758092E-01  0.51100000000E-03 0. -1.
</event>
<event>
 8    1  0.1135368E+005  0.1043930E+01  0.7957747E-01            NaN
         13   -1    0    0    0    0  0.00000000000E+00  0.00000000000E+00  0.74505805969E-08  0.10566000000E+00  0.10566000000E+00 0.  1.
     999900   -1    0    0    0    0 -0.00000000000E+00 -0.00000000000E+00 -0.74505805969E-08  0.93827000000E+00  0.93827000000E+00 0.  1.
     999902    2    1    2    0    0 -0.15395774336E-01  0.16803864658E-01 -0.73568773942E-02  0.10199816518E+01  0.10197004691E+01 0.  0.
     999903    2    3    3    0    0  0.70312518669E-01 -0.11712525115E-01  0.10484084107E+00  0.12827125938E+00  0.19516159994E-01 0.  0.
         14    1    1    2    0    0  0.15395774336E-01 -0.16803864658E-01  0.73568773942E-02  0.23948348165E-01  0.00000000000E+00 0. -1.
     999901    1    3    3    0    0 -0.85708293005E-01  0.28516389773E-01 -0.11219771847E+00  0.89171039245E+00  0.88000000000E+00 0.  1.
        -11    1    4    4    0    0  0.33571622232E-01  0.39088403188E-02  0.52485713432E-01  0.62428712043E-01  0.51100000000E-03 0. -1.
         11    1    4    4    0    0  0.36740896437E-01 -0.15621365433E-01  0.52355127641E-01  0.65842547341E-01  0.51100000000E-03 0.  1.
</event>
<event>
 8    1  0.1135368E+005  0.1043930E+01  0.7957747E-01            NaN
         13   -1    0    0    0    0  0.00000000000E+00  0.00000000000E+00  0.74505805969E-08  0.10566000000E+00  0.10566000000E+00 0. -1.
     999900   -1    0    0    0    0 -0.00000000000E+00 -0.00000000000E+00 -0.74505805969E-08  0.93827000000E+00  0.93827000000E+00 0. -1.
     999902    2    1    2    0    0 -0.18869303327E-01 -0.22454048477E-02  0.14245762058E-01  0.10201805961E+01  0.10199041202E+01 0.  0.
     999903    2    3    3    0    0 -0.56948881831E-01 -0.16297855157E-03 -0.11499959701E+00  0.12992290660E+00  0.20294152932E-01 0.  0.
         14    1    1    2    0    0  0.18869303327E-01  0.22454048477E-02 -0.14245762058E-01  0.23749403942E-01  0.00000000000E+00 0.  1.
     999901    1    3    3    0    0  0.38079578503E-01 -0.20824262961E-02  0.12924535907E+00  0.89025768946E+00  0.88000000000E+00 0.  1.
        -11    1    4    4    0    0 -0.36919690840E-01  0.58864543257E-02 -0.56123460957E-01  0.67437511127E-01  0.51100000000E-03 0. -1.
         11    1    4    4    0    0 -0.20029190991E-01 -0.60494328773E-02 -0.58876136053E-01  0.62485395473E-01  0.51100000000E-03 0.  1.
</event>
<event>
 8    1  0.1135368E+005  0.1043930E+01  0.7957747E-01            NaN
         13   -1    0    0    0    0  0.00000000000E+00  0.00000000000E+00  0.74505805969E-08  0.10566000000E+00  0.10566000000E+00 0.  1.
     999900   -1    0    0    0    0 -0.00000000000E+00 -0.00000000000E+00 -0.74505805969E-08  0.93827000000E+00  0.93827000000E+00 0. -1.
     999902    2    1    2    0    0 -0.22227331057E-01 -0.45937058900E-02 -0.83227735986E-02  0.10197551176E+01  0.10194685257E+01 0.  0.
     999903    2    3    3    0    0  0.51592573095E-01  0.20488695614E-01  0.11357786694E+00  0.12793771963E+00  0.19660824013E-01 0.  0.
         14    1    1    2    0    0  0.22227331057E-01  0.45937058900E-02  0.83227735986E-02  0.24174882422E-01  0.00000000000E+00 0.  1.
     999901    1    3    3    0    0 -0.73819904152E-01 -0.25082401504E-01 -0.12190064053E+00  0.89181739794E+00  0.88000000000E+00 0. -1.
        -11    1    4    4    0    0  0.55977348740E-02  0.49312139695E-02  0.49957460637E-02  0.89927808083E-02  0.51100000000E-03 0.  1.
         11    1    4    4    0    0  0.45994838220E-01  0.15557481645E-01  0.10858212087E+00  0.11894493883E+00  0.51100000000E-03 0. -1.
</event>
<event>
 8    1  0.1135368E+005  0.1043930E+01  0.7957747E-01            NaN
         13   -1    0    0    0    0  0.00000000000E+00  0.00000000000E+00  0.74505805969E-08  0.10566000000E+00  0.10566000000E+00 0. -1.
     999900   -1    0    0    0    0 -0.00000000000E+00 -0.00000000000E+00 -0.74505805969E-08  0.93827000000E+00  0.93827000000E+00 0.  1.
     999902    2    1    2    0    0 -0.22670603172E-01 -0.76378320683E-02 -0.32642275013E-02  0.10197856858E+01  0.10194998269E+01 0.  0.
     999903    2    3    3    0    0  0.94356258927E-01 -0.40871607600E-02 -0.83848856568E-01  0.12838130161E+00  0.23050366006E-01 0.  0.
         14    1    1    2    0    0  0.22670603172E-01  0.76378320683E-02  0.32642275013E-02  0.24144314197E-01  0.00000000000E+00 0.  1.
     999901    1    3    3    0    0 -0.11702686210E+00 -0.35506713083E-02  0.80584629067E-01  0.89140438419E+00  0.88000000000E+00 0.  1.
        -11    1    4    4    0    0  0.56876366722E-01 -0.13350625654E-01 -0.46616323783E-01  0.74742913115E-01  0.51100000000E-03 0. -1.
         11    1    4    4    0    0  0.37479892206E-01  0.92634648942E-02 -0.37232532785E-01  0.53638388493E-01  0.51100000000E-03 0.  1.
</event>
<event>
 8    1  0.1135368E+005  0.1043930E+01  0.7957747E-01            NaN
         13   -1    0    0    0    0  0.00000000000E+00  0.00000000000E+00  0.74505805969E-08  0.10566000000E+00  0.10566000000E+00 0.  1.
     999900   -1    0    0    0    0 -0.00000000000E+00 -0.00000000000E+00 -0.74505805969E-08  0.93827000000E+00  0.93827000000E+00 0. -1.
     999902    2    1    2    0    0  0.29403513661E-01  0.22192093952E-02  0.62272192637E-03  0.10144362839E+01  0.10140074432E+01 0.  0.
     999903    2    3    3    0    0  0.51788080652E-03  0.80739902726E-01 -0.94023924417E-01  0.12541554921E+00  0.19218780618E-01 0.  0.
         14    1    1    2    0    0 -0.29403513661E-01 -0.22192093952E-02 -0.62272192637E-03  0.29493716086E-01  0.00000000000E+00 0.  1.
     999901    1    3    3    0    0  0.28885632855E-01 -0.78520693331E-01  0.94646646343E-01  0.88902073470E+00  0.88000000000E+00 0. -1.
        -11    1    4    4    0    0 -0.12787881356E-02  0.70840969596E-01 -0.71105513486E-01  0.10038094162E+00  0.51100000000E-03 0. -1.
         11    1    4    4    0    0  0.17966689422E-02  0.98989331303E-02 -0.22918410931E-01  0.25034607587E-01  0.51100000000E-03 0.  1.
</event>
<event>
 8    1  0.1135368E+005  0.1043930E+01  0.7957747E-01            NaN
         13   -1    0    0    0    0  0.00000000000E+00  0.00000000000E+00  0.74505805969E-08  0.10566000000E+00  0.10566000000E+00 0.  1.
     999900   -1    0    0    0    0 -0.00000000000E+00 -0.00000000000E+00 -0.74505805969E-08  0.93827000000E+00  0.93827000000E+00 0. -1.
     999902    2    1    2    0    0  0.48693438432E-02  0.22862301630E-01 -0.18449019167E-03  0.10205541710E+01  0.10202864238E+01 0.  0.
     999903    2    3    3    0    0 -0.43310080122E-01 -0.72566626991E-01  0.94927178868E-01  0.12899701247E+00  0.22076719552E-01 0.  0.
         14    1    1    2    0    0 -0.48693438432E-02 -0.22862301630E-01  0.18449019167E-03  0.23375829010E-01  0.00000000000E+00 0.  1.
     999901    1    3    3    0    0  0.48179423965E-01  0.95428928620E-01 -0.95111669060E-01  0.89155715852E+00  0.88000000000E+00 0.  1.
        -11    1    4    4    0    0 -0.19347115263E-01 -0.46732060626E-01  0.67458375432E-01  0.84315419090E-01  0.51100000000E-03 0.  1.
         11    1    4    4    0    0 -0.23962964859E-01 -0.25834566365E-01  0.27468803436E-01  0.44681593384E-01  0.51100000000E-03 0. -1.
</event>
<event>
 8    1  0.1135368E+005  0.1043930E+01  0.7957747E-01            NaN
         13   -1    0    0    0    0  0.00000000000E+00  0.00000000000E+00  0.74505805969E-08  0.10566000000E+00  0.10566000000E+00 0. -1.
     999900   -1    0    0    0    0 -0.00000000000E+00 -0.00000000000E+00 -0.74505805969E-08  0.93827000000E+00  0.93827000000E+00 0. -1.
     999902    2    1    2    0    0  0.21030626344E-01 -0.54929540043E-02  0.90381195320E-02  0.10203896646E+01  0.10201180913E+01 0.  0.
     999903    2    3    3    0    0  0.37514023432E-01 -0.11435173532E+00  0.51725388830E-01  0.13250220569E+00  0.19942350368E-01 0.  0.
         14    1    1    2    0    0 -0.21030626344E-01  0.54929540043E-02 -0.90381195320E-02  0.23540335444E-01  0.00000000000E+00 0.  1.
     999901    1    3    3    0    0 -0.16483397088E-01  0.10885878132E+00 -0.42687269298E-01  0.88788745886E+00  0.88000000000E+00 0. -1.
        -11    1    4    4    0    0  0.75279223354E-02 -0.53908560744E-01  0.25492561205E-01  0.60107689475E-01  0.51100000000E-03 0. -1.
         11    1    4    4    0    0  0.29986101097E-01 -0.60443174578E-01  0.26232827625E-01  0.72394516217E-01  0.51100000000E-03 0.  1.
</event>
<event>
 8    1  0.1135368E+005  0.1043930E+01  0.7957747E-01            NaN
         13   -1    0    0    0    0  0.00000000000E+00  0.00000000000E+00  0.74505805969E-08  0.10566000000E+00  0.10566000000E+00 0.  1.
     999900   -1    0    0    0    0 -0.00000000000E+00 -0.00000000000E+00 -0.74505805969E-08  0.93827000000E+00  0.93827000000E+00 0.  1.
     999902    2    1    2    0    0  0.97591801428E-03  0.10816472710E-01 -0.16635904537E-01  0.10240628961E+01  0.10238701643E+01 0.  0.
     999903    2    3    3    0    0 -0.77502411697E-01  0.10316778763E+00 -0.36132452702E-01  0.13554293065E+00  0.20398913865E-01 0.  0.
         14    1    1    2    0    0 -0.97591801428E-03 -0.10816472710E-01  0.16635904537E-01  0.19867103906E-01  0.00000000000E+00 0.  1.
     999901    1    3    3    0    0  0.78478329711E-01 -0.92351314924E-01  0.19496548164E-01  0.88851996544E+00  0.88000000000E+00 0.  1.
        -11    1    4    4    0    0 -0.29670600225E-01  0.39254730130E-01 -0.36104666801E-02  0.49341412079E-01  0.51100000000E-03 0.  1.
         11    1    4    4    0    0 -0.47831811472E-01  0.63913057503E-01 -0.32521986022E-01  0.86201518571E-01  0.51100000000E-03 0. -1.
</event>
<event>
 8    1  0.1135368E+005  0.1043930E+01  0.7957747E-01            NaN
         13   -1    0    0    0    0  0.00000000000E+00  0.00000000000E+00  0.74505805969E-08  0.10566000000E+00  0.10566000000E+00 0. -1.
     999900   -1    0    0    0    0 -0.00000000000E+00 -0.00000000000E+00 -0.74505805969E-08  0.93827000000E+00  0.93827000000E+00 0.  1.
     999902    2    1    2    0    0 -0.13705835212E-01 -0.15681512149E-01  0.11256206390E-01  0.10202559229E+01  0.10199812186E+01 0.  0.
     999903    2    3    3    0    0 -0.82972453432E-01  0.83076341242E-01 -0.51548225991E-01  0.12980919532E+00  0.20176746140E-01 0.  0.
         14    1    1    2    0    0  0.13705835212E-01  0.15681512149E-01 -0.11256206390E-01  0.23674077055E-01  0.00000000000E+00 0. -1.
     999901    1    3    3    0    0  0.69266618221E-01 -0.98757853391E-01  0.62804432381E-01  0.89044672762E+00  0.88000000000E+00 0.  1.
        -11    1    4    4    0    0 -0.53735659437E-01  0.45917782760E-01 -0.21901381759E-01  0.73999294001E-01  0.51100000000E-03 0.  1.
         11    1    4    4    0    0 -0.29236793995E-01  0.37158558482E-01 -0.29646844233E-01  0.55809901322E-01  0.51100000000E-03 0. -1.
</event>
<event>
 8    1  0.1135368E+005  0.1043930E+01  0.7957747E-01            NaN
         13   -1    0    0    0    0  0.00000000000E+00  0.00000000000E+00  0.74505805969E-08  0.10566000000E+00  0.10566000000E+00 0.  1.
     999900   -1    0    0    0    0 -0.00000000000E+00 -0.00000000000E+00 -0.74505805969E-08  0.93827000000E+00  0.93827000000E+00 0.  1.
     999902    2    1    2    0    0  0.76169988934E-02 -0.15211244176E-01  0.15459259206E-01  0.10209432796E+01  0.10206844717E+01 0.  0.
     999903    2    3    3    0    0  0.98964830069E-01 -0.80736075510E-01  0.34008830951E-01  0.13359779081E+00  0.19478645951E-01 0.  0.
         14    1    1    2    0    0 -0.76169988934E-02  0.15211244176E-01 -0.15459259206E-01  0.22986720443E-01  0.00000000000E+00 0. -1.
     999901    1    3    3    0    0 -0.91347831176E-01  0.65524831334E-01 -0.18549571745E-01  0.88734548874E+00  0.88000000000E+00 0.  1.
        -11    1    4    4    0    0  0.17421335433E-01 -0.20110687961E-01  0.13867918409E-01  0.30008715077E-01  0.51100000000E-03 0. -1.
         11    1    4    4    0    0  0.81543494636E-01 -0.60625387549E-01  0.20140912542E-01  0.10358907574E+00  0.51100000000E-03 0.  1.
</event>
<event>
 8    1  0.1135368E+005  0.1043930E+01  0.7957747E-01            NaN
         13   -1    0    0    0    0  0.00000000000E+00  0.00000000000E+00  0.74505805969E-08  0.10566000000E+00  0.10566000000E+00 0. -1.
     999900   -1    0    0    0    0 -0.00000000000E+00 -0.00000000000E+00 -0.74505805969E-08  0.93827000000E+00  0.93827000000E+00 0. -1.
     999902    2    1    2    0    0  0.12437890187E-01  0.87450022827E-02  0.20543243907E-01  0.10183722018E+01  0.10180514429E+01 0.  0.
     999903    2    3    3    0    0  0.81618175987E-01  0.95867610615E-01 -0.26631217797E-01  0.13011453050E+00  0.19194891783E-01 0.  0.
         14    1    1    2    0    0 -0.12437890187E-01 -0.87450022827E-02 -0.20543243907E-01  0.25557798173E-01  0.00000000000E+00 0.  1.
     999901    1    3    3    0    0 -0.69180285801E-01 -0.87122608332E-01  0.47174461704E-01  0.88825767132E+00  0.88000000000E+00 0. -1.
        -11    1    4    4    0    0  0.75012281140E-01  0.79209867300E-01 -0.19505225919E-01  0.11082310390E+00  0.51100000000E-03 0. -1.
         11    1    4    4    0    0  0.66058948474E-02  0.16657743315E-01 -0.71259918782E-02  0.19291426602E-01  0.51100000000E-03 0.  1.
</event>
<event>
 8    1  0.1135368E+005  0.1043930E+01  0.7957747E-01            NaN
         13   -1    0    0    0    0  0.00000000000E+00  0.00000000000E+00  0.74505805969E-08  0.10566000000E+00  0.10566000000E+00 0.  1.
     999900   -1    0    0    0    0 -0.00000000000E+00 -0.00000000000E+00 -0.74505805969E-08  0.93827000000E+00  0.93827000000E+00 0.  1.
     999902    2    1    2    0    0  0.19095076980E-01 -0.13114794316E-01 -0.47953097813E-02  0.10202738213E+01  0.10199995371E+01 0.  0.
     999903    2    3    3    0    0  0.27164703127E-01 -0.12417925520E+00  0.31678560101E-01  0.13250652267E+00  0.19900725110E-01 0.  0.
         14    1    1    2    0    0 -0.19095076980E-01  0.13114794316E-01  0.47953097813E-02  0.23656178701E-01  0.00000000000E+00 0. -1.
     999901    1    3    3    0    0 -0.80696261475E-02  0.11106446089E+00 -0.36473869883E-01  0.88776729863E+00  0.88000000000E+00 0. -1.
        -11    1    4    4    0    0  0.13015353670E-01 -0.70455902683E-01  0.79351520017E-02  0.72087872852E-01  0.51100000000E-03 0.  1.
         11    1    4    4    0    0  0.14149349457E-01 -0.53723352521E-01  0.23743408100E-01  0.60418649814E-01  0.51100000000E-03 0. -1.
</event>
<event>
 8    1  0.1135368E+005  0.1043930E+01  0.7957747E-01            NaN
         13   -1    0    0    0    0  0.00000000000E+00  0.00000000000E+00  0.74505805969E-08  0.10566000000E+00  0.10566000000E+00 0. -1.
     999900   -1    0    0    0    0 -0.00000000000E+00 -0.00000000000E+00 -0.74505805969E-08  0.93827000000E+00  0.93827000000E+00 0. -1.
     999902    2    1    2    0    0 -0.55469959718E-02 -0.64837008374E-02  0.21918062368E-01  0.10204096046E+01  0.10201384966E+01 0.  0.
     999903    2    3    3    0    0 -0.70920217622E-01  0.94487258645E-01  0.53727216712E-01  0.13165732470E+00  0.22125054055E-01 0.  0.
         14    1    1    2    0    0  0.55469959718E-02  0.64837008374E-02 -0.21918062368E-01  0.23520395380E-01  0.00000000000E+00 0.  1.
     999901    1    3    3    0    0  0.65373221650E-01 -0.10097095948E+00 -0.31809154344E-01  0.88875227992E+00  0.88000000000E+00 0. -1.
        -11    1    4    4    0    0 -0.20559710548E-01  0.16513984542E-01  0.19183788693E-01  0.32614295223E-01  0.51100000000E-03 0.  1.
         11    1    4    4    0    0 -0.50360507074E-01  0.77973274103E-01  0.34543428019E-01  0.99043029474E-01  0.51100000000E-03 0. -1.
</event>
<event>
 8    1  0.1135368E+005  0.1043930E+01  0.7957747E-01            NaN
         13   -1    0    0    0    0  0.00000000000E+00  0.00000000000E+00  0.74505805969E-08  0.10566000000E+00  0.10566000000E+00 0.  1.
     999900   -1    0    0    0    0 -0.00000000000E+00 -0.00000000000E+00 -0.74505805969E-08  0.93827000000E+00  0.93827000000E+00 0. -1.
     999902    2    1    2    0    0  0.17312444747E-01  0.17087656248E-01  0.42419917913E-02  0.10192378305E+01  0.10189386890E+01 0.  0.
     999903    2    3    3    0    0  0.51806754366E-01 -0.74669705306E-01  0.90199927559E-01  0.12963227888E+00  0.20223652171E-01 0.  0.
         14    1    1    2    0    0 -0.17312444747E-01 -0.17087656248E-01 -0.42419917913E-02  0.24692169478E-01  0.00000000000E+00 0. -1.
     999901    1    3    3    0    0 -0.34494309618E-01  0.91757361553E-01 -0.85957935767E-01  0.88960555164E+00  0.88000000000E+00 0. -1.
        -11    1    4    4    0    0  0.82878816002E-02 -0.22796219524E-02  0.92901100825E-02  0.12667001382E-01  0.51100000000E-03 0.  1.
         11    1    4    4    0    0  0.43518872766E-01 -0.72390083353E-01  0.80909817476E-01  0.11696527750E+00  0.51100000000E-03 0. -1.
</event>
<event>
 8    1  0.1135368E+005  0.1043930E+01  0.7957747E-01            NaN
         13   -1    0    0    0    0  0.00000000000E+00  0.00000000000E+00  0.74505805969E-08  0.10566000000E+00  0.10566000000E+00 0. -1.
     999900   -1    0    0    0    0 -0.00000000000E+00 -0.00000000000E+00 -0.74505805969E-08  0.93827000000E+00  0.93827000000E+00 0. -1.
     999902    2    1    2    0    0 -0.74872179727E-02 -0.22760446380E-01  0.11964564120E-01  0.10171485298E+01  0.10167958913E+01 0.  0.
     999903    2    3    3    0    0 -0.87464892248E-01  0.14213453068E-01 -0.88765982170E-01  0.12703048111E+00  0.20129925872E-01 0.  0.
         14    1    1    2    0    0  0.74872179727E-02  0.22760446380E-01 -0.11964564120E-01  0.26781470217E-01  0.00000000000E+00 0. -1.
     999901    1    3    3    0    0  0.79977674276E-01 -0.36973899448E-01  0.10073054629E+00  0.89011804868E+00  0.88000000000E+00 0.  1.
        -11    1    4    4    0    0 -0.40430186995E-01  0.15265115450E-01 -0.35234223961E-01  0.55761415237E-01  0.51100000000E-03 0.  1.
         11    1    4    4    0    0 -0.47034705254E-01 -0.10516623819E-02 -0.53531758208E-01  0.71269065870E-01  0.51100000000E-03 0. -1.
</event>
<event>
 8    1  0.1135368E+005  0.1043930E+01  0.7957747E-01            NaN
         13   -1    0    0    0    0  0.00000000000E+00  0.00000000000E+00  0.74505805969E-08  0.10566000000E+00  0.10566000000E+00 0.  1.
     999900   -1    0    0    0    0 -0.00000000000E+00 -0.00000000000E+00 -0.74505805969E-08  0.93827000000E+00  0.93827000000E+00 0. -1.
     999902    2    1    2    0    0 -0.10973686129E-01 -0.16084352974E-01 -0.11608948623E-01  0.10212607282E+01  0.10210090984E+01 0.  0.
     999903    2    3    3    0    0  0.33636897115E-01 -0.12083528979E+00  0.38086636201E-01  0.13253550962E+00  0.19556619032E-01 0.  0.
         14    1    1    2    0    0  0.10973686129E-01  0.16084352974E-01  0.11608948623E-01  0.22669271845E-01  0.00000000000E+00 0.  1.
     999901    1    3    3    0    0 -0.44610583245E-01  0.10475093682E+00 -0.49695584825E-01  0.88872521853E+00  0.88000000000E+00 0. -1.
        -11    1    4    4    0    0  0.25727807213E-01 -0.56472552792E-01  0.20228269828E-01  0.65272607609E-01  0.51100000000E-03 0.  1.
         11    1    4    4    0    0  0.79090899020E-02 -0.64362736998E-01  0.17858366374E-01  0.67262902015E-01  0.51100000000E-03 0. -1.
</event>
<event>
 8    1  0.1135368E+005  0.1043930E+01  0.7957747E-01            NaN
         13   -1    0    0    0    0  0.00000000000E+00  0.00000000000E+00  0.74505805969E-08  0.10566000000E+00  0.10566000000E+00 0. -1.
     999900   -1    0    0    0    0 -0.00000000000E+00 -0.00000000000E+00 -0.74505805969E-08  0.93827000000E+00  0.93827000000E+00 0. -1.
     999902    2    1    2    0    0  0.18136640020E-01 -0.86897067295E-02  0.10340428219E-01  0.10213164384E+01  0.10210660577E+01 0.  0.
     999903    2    3    3    0    0 -0.81717617024E-01 -0.15684936387E-01  0.99443293415E-01  0.13117087359E+00  0.19825319986E-01 0.  0.
         14    1    1    2    0    0 -0.18136640020E-01  0.86897067295E-02 -0.10340428219E-01  0.22613561639E-01  0.00000000000E+00 0.  1.
     999901    1    3    3    0    0  0.99854257044E-01  0.69952296571E-02 -0.89102865196E-01  0.89014556477E+00  0.88000000000E+00 0. -1.
        -11    1    4    4    0    0 -0.60789995024E-01 -0.20287637756E-01  0.75629884207E-01  0.99131994063E-01  0.51100000000E-03 0.  1.
         11    1    4    4    0    0 -0.20927622001E-01  0.46027013691E-02  0.23813409209E-01  0.32038879531E-01  0.51100000000E-03 0. -1.
</event>
<event>
 8    1  0.1135368E+005  0.1043930E+01  0.7957747E-01            NaN
         13   -1    0    0    0    0  0.00000000000E+00  0.00000000000E+00  0.74505805969E-08  0.10566000000E+00  0.10566000000E+00 0. -1.
     999900   -1    0    0    0    0 -0.00000000000E+00 -0.00000000000E+00 -0.74505805969E-08  0.93827000000E+00  0.93827000000E+00 0. -1.
     999902    2    1    2    0    0  0.12027624196E-01 -0.21343193468E-01 -0.47999921771E-02  0.10189653134E+01  0.10186594497E+01 0.  0.
     999903    2    3    3    0    0  0.95018668195E-01  0.42513412817E-01  0.73500008333E-01  0.12930466484E+00  0.21943280282E-01 0.  0.
         14    1    1    2    0    0 -0.12027624196E-01  0.21343193468E-01  0.47999921771E-02  0.24964686581E-01  0.00000000000E+00 0. -1.
     999901    1    3    3    0    0 -0.82991043999E-01 -0.63856606284E-01 -0.78300000510E-01  0.88966064858E+00  0.88000000000E+00 0. -1.
        -11    1    4    4    0    0  0.40958499854E-01  0.14829883070E-01  0.18373050074E-01  0.47279532910E-01  0.51100000000E-03 0.  1.
         11    1    4    4    0    0  0.54060168342E-01  0.27683529746E-01  0.55126958258E-01  0.82025131930E-01  0.51100000000E-03 0. -1.
</event>
<event>
 8    1  0.1135368E+005  0.1043930E+01  0.7957747E-01            NaN
         13   -1    0    0    0    0  0.00000000000E+00  0.00000000000E+00  0.74505805969E-08  0.10566000000E+00  0.10566000000E+00 0. -1.
     999900   -1    0    0    0    0 -0.00000000000E+00 -0.00000000000E+00 -0.74505805969E-08  0.93827000000E+00  0.93827000000E+00 0. -1.
     999902    2    1    2    0    0  0.17542063434E-01 -0.48552427077E-02 -0.18190277964E-01  0.10181970720E+01  0.10178718455E+01 0.  0.
     999903    2    3    3    0    0 -0.99078675752E-01  0.75499425654E-01  0.92153490359E-02  0.12645252453E+00  0.19712205364E-01 0.  0.
         14    1    1    2    0    0 -0.17542063434E-01  0.48552427077E-02  0.18190277964E-01  0.25732928004E-01  0.00000000000E+00 0. -1.
     999901    1    3    3    0    0  0.11662073919E+00 -0.80354668362E-01 -0.27405627000E-01  0.89174454746E+00  0.88000000000E+00 0.  1.
        -11    1    4    4    0    0 -0.26270892184E-01  0.31393568938E-01  0.46754481293E-02  0.41204816260E-01  0.51100000000E-03 0. -1.
         11    1    4    4    0    0 -0.72807783568E-01  0.44105856716E-01  0.45399009066E-02  0.85247708274E-01  0.51100000000E-03 0.  1.
</event>
<event>
 8    1  0.1135368E+005  0.1043930E+01  0.7957747E-01            NaN
         13   -1    0    0    0    0  0.00000000000E+00  0.00000000000E+00  0.74505805969E-08  0.10566000000E+00  0.10566000000E+00 0. -1.
     999900   -1    0    0    0    0 -0.00000000000E+00 -0.00000000000E+00 -0.74505805969E-08  0.93827000000E+00  0.93827000000E+00 0. -1.
     999902    2    1    2    0    0  0.80691985719E-02  0.23794302787E-01  0.17036681015E-02  0.10187470038E+01  0.10184356998E+01 0.  0.
     999903    2    3    3    0    0 -0.79940449390E-01 -0.93411493069E-01  0.22153722270E-01  0.12638995566E+00  0.19169011331E-01 0.  0.
         14    1    1    2    0    0 -0.80691985719E-02 -0.23794302787E-01 -0.17036681015E-02  0.25182996162E-01  0.00000000000E+00 0.  1.
     999901    1    3    3    0    0  0.88009647962E-01  0.11720579586E+00 -0.20450054169E-01  0.89235704818E+00  0.88000000000E+00 0. -1.
        -11    1    4    4    0    0 -0.54054480716E-01 -0.48907780653E-01  0.14713040872E-01  0.74367954029E-01  0.51100000000E-03 0. -1.
         11    1    4    4    0    0 -0.25885968674E-01 -0.44503712416E-01  0.74406813986E-02  0.52022001631E-01  0.51100000000E-03 0.  1.
</event>
<event>
 8    1  0.1135368E+005  0.1043930E+01  0.7957747E-01            NaN
         13   -1    0    0    0    0  0.00000000000E+00  0.00000000000E+00  0.74505805969E-08  0.10566000000E+00  0.10566000000E+00 0.  1.
     999900   -1    0    0    0    0 -0.00000000000E+00 -0.00000000000E+00 -0.74505805969E-08  0.93827000000E+00  0.93827000000E+00 0. -1.
     999902    2    1    2    0    0  0.20893831561E-01  0.10466482426E-01  0.56351594852E-02  0.10198913962E+01  0.10196080647E+01 0.  0.
     999903    2    3    3    0    0 -0.72059138574E-01 -0.30781806225E-01 -0.99162875166E-01  0.12785759410E+00  0.19345529470E-01 0.  0.
         14    1    1    2    0    0 -0.20893831561E-01 -0.10466482426E-01 -0.56351594852E-02  0.24038603830E-01  0.00000000000E+00 0. -1.
     999901    1    3    3    0    0  0.92952970136E-01  0.41248288652E-01  0.10479803465E+00  0.89203380207E+00  0.88000000000E+00 0.  1.
        -11    1    4    4    0    0 -0.34980943591E-01 -0.15375631176E-01 -0.63708203063E-01  0.74290461750E-01  0.51100000000E-03 0.  1.
         11    1    4    4    0    0 -0.37078194984E-01 -0.15406175050E-01 -0.35454672103E-01  0.53567132347E-01  0.51100000000E-03 0. -1.
</event>
<event>
 8    1  0.1135368E+005  0.1043930E+01  0.7957747E-01            NaN
         13   -1    0    0    0    0  0.00000000000E+00  0.00000000000E+00  0.74505805969E-08  0.10566000000E+00  0.10566000000E+00 0.  1.
     999900   -1    0    0    0    0 -0.00000000000E+00 -0.00000000000E+00 -0.74505805969E-08  0.93827000000E+00  0.93827000000E+00 0.  1.
     999902    2    1    2    0    0 -0.17269635913E-01 -0.76004956211E-02 -0.14233337203E-01  0.10202953698E+01  0.10200215909E+01 0.  0.
     999903    2    3    3    0    0  0.50133810001E-02  0.12249450891E+00 -0.38939548549E-01  0.13010907470E+00  0.19545950398E-01 0.  0.
         14    1    1    2    0    0  0.17269635913E-01  0.76004956211E-02  0.14233337203E-01  0.23634630232E-01  0.00000000000E+00 0. -1.
     999901    1    3    3    0    0 -0.22283016913E-01 -0.13009500453E+00  0.24706211346E-01  0.89018629507E+00  0.88000000000E+00 0. -1.
        -11    1    4    4    0    0 -0.18065384403E-02  0.47916895170E-01 -0.24459932586E-01  0.53831606394E-01  0.51100000000E-03 0.  1.
         11    1    4    4    0    0  0.68199194404E-02  0.74577613737E-01 -0.14479615963E-01  0.76277468307E-01  0.51100000000E-03 0. -1.
</event>
<event>
 8    1  0.1135368E+005  0.1043930E+01  0.7957747E-01            NaN
         13   -1    0    0    0    0  0.00000000000E+00  0.00000000000E+00  0.74505805969E-08  0.10566000000E+00  0.10566000000E+00 0.  1.
     999900   -1    0    0    0    0 -0.00000000000E+00 -0.00000000000E+00 -0.74505805969E-08  0.93827000000E+00  0.93827000000E+00 0.  1.
     999902    2    1    2    0    0 -0.18014320784E-01  0.34559537442E-02 -0.13501884079E-01  0.10211536912E+01  0.10208996526E+01 0.  0.
     999903    2    3    3    0    0  0.66764700753E-01  0.69297537295E-01 -0.84363095633E-01  0.13180341828E+00  0.31548933783E-01 0.  0.
         14    1    1    2    0    0  0.18014320784E-01 -0.34559537442E-02  0.13501884079E-01  0.22776308816E-01  0.00000000000E+00 0.  1.
     999901    1    3    3    0    0 -0.84779021538E-01 -0.65841583551E-01  0.70861211554E-01  0.88935027291E+00  0.88000000000E+00 0. -1.
        -11    1    4    4    0    0  0.10391937016E-01  0.59294740095E-02 -0.26643102000E-01  0.29210734707E-01  0.51100000000E-03 0. -1.
         11    1    4    4    0    0  0.56372763737E-01  0.63368063285E-01 -0.57719993633E-01  0.10259268357E+00  0.51100000000E-03 0.  1.
</event>
<event>
 8    1  0.1135368E+005  0.1043930E+01  0.7957747E-01            NaN
         13   -1    0    0    0    0  0.00000000000E+00  0.00000000000E+00  0.74505805969E-08  0.10566000000E+00  0.10566000000E+00 0.  1.
     999900   -1    0    0    0    0 -0.00000000000E+00 -0.00000000000E+00 -0.74505805969E-08  0.93827000000E+00  0.93827000000E+00 0. -1.
     999902    2    1    2    0    0 -0.18921372370E-01  0.11006007681E-01  0.73913912166E-02  0.10208262514E+01  0.10205647712E+01 0.  0.
     999903    2    3    3    0    0 -0.10212219337E+00 -0.14767106610E-01  0.82029801100E-01  0.13338187435E+00  0.20367285567E-01 0.  0.
         14    1    1    2    0    0  0.18921372370E-01 -0.11006007681E-01 -0.73913912166E-02  0.23103748647E-01  0.00000000000E+00 0. -1.
     999901    1    3    3    0    0  0.83200821000E-01  0.25773114291E-01 -0.74638409884E-01  0.88744437700E+00  0.88000000000E+00 0. -1.
        -11    1    4    4    0    0 -0.21293500402E-01  0.44970191746E-02  0.21340521969E-01  0.30484673850E-01  0.51100000000E-03 0. -1.
         11    1    4    4    0    0 -0.80828692969E-01 -0.19264125785E-01  0.60689279131E-01  0.10289720050E+00  0.51100000000E-03 0.  1.
</event>
<event>
 8    1  0.1135368E+005  0.1043930E+01  0.7957747E-01            NaN
         13   -1    0    0    0    0  0.00000000000E+00  0.00000000000E+00  0.74505805969E-08  0.10566000000E+00  0.10566000000E+00 0. -1.
     999900   -1    0    0    0    0 -0.00000000000E+00 -0.00000000000E+00 -0.74505805969E-08  0.93827000000E+00  0.93827000000E+00 0. -1.
     999902    2    1    2    0    0  0.20999323502E-01  0.13488803566E-01 -0.31366603792E-02  0.10187753176E+01  0.10184647219E+01 0.  0.
     999903    2    3    3    0    0 -0.69936969649E-01 -0.10328521342E+00  0.22451128095E-02  0.12639953130E+00  0.20317134325E-01 0.  0.
         14    1    1    2    0    0 -0.20999323502E-01 -0.13488803566E-01  0.31366603792E-02  0.25154682418E-01  0.00000000000E+00 0. -1.
     999901    1    3    3    0    0  0.90936293151E-01  0.11677401699E+00 -0.53817731887E-02  0.89237578628E+00  0.88000000000E+00 0. -1.
        -11    1    4    4    0    0 -0.66705931671E-01 -0.86430692270E-01  0.28970140354E-02  0.10921812898E+00  0.51100000000E-03 0. -1.
         11    1    4    4    0    0 -0.32310379782E-02 -0.16854521150E-01 -0.65190122590E-03  0.17181402324E-01  0.51100000000E-03 0.  1.
</event>
<event>
 8    1  0.1135368E+005  0.1043930E+01  0.7957747E-01            NaN
         13   -1    0    0    0    0  0.00000000000E+00  0.00000000000E+00  0.74505805969E-08  0.10566000000E+00  0.10566000000E+00 0. -1.
     999900   -1    0    0    0    0 -0.00000000000E+00 -0.00000000000E+00 -0.74505805969E-08  0.93827000000E+00  0.93827000000E+00 0.  1.
     999902    2    1    2    0    0  0.19343539300E-01 -0.87809628585E-02 -0.16242846337E-01  0.10171884989E+01  0.10168369262E+01 0.  0.
     999903    2    3    3    0    0 -0.74454372405E-01  0.40880914630E-02  0.98167452867E-01  0.12474613254E+00  0.19094049302E-01 0.  0.
         14    1    1    2    0    0 -0.19343539300E-01  0.87809628585E-02  0.16242846337E-01  0.26741501052E-01  0.00000000000E+00 0. -1.
     999901    1    3    3    0    0  0.93797911705E-01 -0.12869054321E-01 -0.11441029920E+00  0.89244236641E+00  0.88000000000E+00 0.  1.
        -11    1    4    4    0    0 -0.39240371163E-01  0.85417383612E-02  0.63451928649E-01  0.75094449818E-01  0.51100000000E-03 0.  1.
         11    1    4    4    0    0 -0.35214001242E-01 -0.44536468982E-02  0.34715524218E-01  0.49651682720E-01  0.51100000000E-03 0. -1.
</event>
<event>
 8    1  0.1135368E+005  0.1043930E+01  0.7957747E-01            NaN
         13   -1    0    0    0    0  0.00000000000E+00  0.00000000000E+00  0.74505805969E-08  0.10566000000E+00  0.10566000000E+00 0.  1.
     999900   -1    0    0    0    0 -0.00000000000E+00 -0.00000000000E+00 -0.74505805969E-08  0.93827000000E+00  0.93827000000E+00 0. -1.
     999902    2    1    2    0    0  0.91326815678E-03  0.52823733412E-03  0.24239785440E-01  0.10196672654E+01  0.10193785616E+01 0.  0.
     999903    2    3    3    0    0 -0.35938555976E-01 -0.65898919509E-01  0.10715504901E+00  0.13251137995E+00  0.21043143519E-01 0.  0.
         14    1    1    2    0    0 -0.91326815678E-03 -0.52823733412E-03 -0.24239785440E-01  0.24262734627E-01  0.00000000000E+00 0. -1.
     999901    1    3    3    0    0  0.36851824133E-01  0.66427156843E-01 -0.82915263572E-01  0.88715588542E+00  0.88000000000E+00 0. -1.
        -11    1    4    4    0    0 -0.26028024618E-01 -0.34043283139E-01  0.46163515753E-01  0.62989955549E-01  0.51100000000E-03 0. -1.
         11    1    4    4    0    0 -0.99105313581E-02 -0.31855636370E-01  0.60991533259E-01  0.69521424401E-01  0.51100000000E-03 0.  1.
</event>
<event>
 8    1  0.1135368E+005  0.1043930E+01  0.7957747E-01            NaN
         13   -1    0    0    0    0  0.00000000000E+00  0.00000000000E+00  0.74505805969E-08  0.10566000000E+00  0.10566000000E+00 0.  1.
     999900   -1    0    0    0    0 -0.00000000000E+00 -0.00000000000E+00 -0.74505805969E-08  0.93827000000E+00  0.93827000000E+00 0. -1.
     999902    2    1    2    0    0 -0.15678324157E-01  0.32869137079E-02  0.17071436461E-01  0.10205195837E+01  0.10202510343E+01 0.  0.
     999903    2    3    3    0    0  0.96205571915E-01  0.12624251567E-04 -0.82032342887E-01  0.12791088650E+00  0.19400447918E-01 0.  0.
         14    1    1    2    0    0  0.15678324157E-01 -0.32869137079E-02 -0.17071436461E-01  0.23410416334E-01  0.00000000000E+00 0. -1.
     999901    1    3    3    0    0 -0.11188389607E+00  0.32742894563E-02  0.99103779348E-01  0.89260869716E+00  0.88000000000E+00 0. -1.
        -11    1    4    4    0    0  0.48868046544E-01  0.49361000334E-02 -0.30777699938E-01  0.57965325765E-01  0.51100000000E-03 0. -1.
         11    1    4    4    0    0  0.47337525371E-01 -0.49234757818E-02 -0.51254642950E-01  0.69945560738E-01  0.51100000000E-03 0.  1.
</event>
<event>
 8    1  0.1135368E+005  0.1043930E+01  0.7957747E-01            NaN
         13   -1    0    0    0    0  0.00000000000E+00  0.00000000000E+00  0.74505805969E-08  0.10566000000E+00  0.10566000000E+00 0. -1.
     999900   -1    0    0    0    0 -0.00000000000E+00 -0.00000000000E+00 -0.74505805969E-08  0.93827000000E+00  0.93827000000E+00 0. -1.
     999902    2    1    2    0    0 -0.67112251516E-02 -0.31114148410E-01  0.64066821573E-02  0.10114619180E+01  0.10109406685E+01 0.  0.
     999903    2    3    3    0    0  0.99798854840E-01 -0.53259955067E-01  0.46894720643E-01  0.12383918553E+00  0.18455210832E-01 0.  0.
         14    1    1    2    0    0  0.67112251516E-02  0.31114148410E-01 -0.64066821573E-02  0.32468082028E-01  0.00000000000E+00 0. -1.
     999901    1    3    3    0    0 -0.10651007999E+00  0.22145806657E-01 -0.40488038485E-01  0.88762273244E+00  0.88000000000E+00 0. -1.
        -11    1    4    4    0    0  0.72755972800E-01 -0.34118843222E-01  0.25142146007E-01  0.84201636966E-01  0.51100000000E-03 0.  1.
         11    1    4    4    0    0  0.27042882040E-01 -0.19141111845E-01  0.21752574636E-01  0.39637548561E-01  0.51100000000E-03 0. -1.
</event>
<event>
 8    1  0.1135368E+005  0.1043930E+01  0.7957747E-01            NaN
         13   -1    0    0    0    0  0.00000000000E+00  0.00000000000E+00  0.74505805969E-08  0.10566000000E+00  0.10566000000E+00 0. -1.
     999900   -1    0    0    0    0 -0.00000000000E+00 -0.00000000000E+00 -0.74505805969E-08  0.93827000000E+00  0.93827000000E+00 0.  1.
     999902    2    1    2    0    0 -0.24803426796E-01  0.77465962441E-03  0.32499244006E-02  0.10189025733E+01  0.10185951511E+01 0.  0.
     999903    2    3    3    0    0  0.11644777463E+00  0.40308101849E-01  0.21720980236E-01  0.12657081053E+00  0.19066772267E-01 0.  0.
         14    1    1    2    0    0  0.24803426796E-01 -0.77465962441E-03 -0.32499244006E-02  0.25027426695E-01  0.00000000000E+00 0.  1.
     999901    1    3    3    0    0 -0.14125120142E+00 -0.39533442224E-01 -0.18471055835E-01  0.89233176278E+00  0.88000000000E+00 0.  1.
        -11    1    4    4    0    0  0.67032458308E-01  0.15471524918E-01  0.18133991328E-01  0.71146477865E-01  0.51100000000E-03 0. -1.
         11    1    4    4    0    0  0.49415316320E-01  0.24836576931E-01  0.35869889077E-02  0.55424332662E-01  0.51100000000E-03 0.  1.
</event>
<event>
 7    1  0.1805635E+005  0.1043930E+01  0.7957747E-01            NaN
         13   -1    0    0    0    0  0.00000000000E+00  0.00000000000E+00  0.74505805969E-08  0.10566000000E+00  0.10566000000E+00 0.  1.
     999900   -1    0    0    0    0 -0.00000000000E+00 -0.00000000000E+00 -0.74505805969E-08  0.93827000000E+00  0.93827000000E+00 0.  1.
     999903    2    1    2    0    0 -0.10412213756E+00  0.39206275179E-01 -0.57026016249E-02  0.11312196119E+00  0.19634329503E-01 0.  0.
         14    1    1    2    0    0  0.12824664767E-02 -0.39205197044E-01  0.21392679673E-01  0.44680408896E-01  0.00000000000E+00 0.  1.
     999901    1    1    2    0    0  0.10283967108E+00 -0.10781346775E-05 -0.15690078048E-01  0.88612762991E+00  0.88000000000E+00 0.  1.
        -11    1    3    3    0    0 -0.49877517782E-01  0.29105148279E-01 -0.12676014710E-02  0.57764559817E-01  0.51100000000E-03 0.  1.
         11    1    3    3    0    0 -0.54244619776E-01  0.10101126900E-01 -0.44350001539E-02  0.55357401372E-01  0.51100000000E-03 0. -1.
</event>
<event>
 8    1  0.1135368E+005  0.1043930E+01  0.7957747E-01            NaN
         13   -1    0    0    0    0  0.00000000000E+00  0.00000000000E+00  0.74505805969E-08  0.10566000000E+00  0.10566000000E+00 0.  1.
     999900   -1    0    0    0    0 -0.00000000000E+00 -0.00000000000E+00 -0.74505805969E-08  0.93827000000E+00  0.93827000000E+00 0.  1.
     999902    2    1    2    0    0  0.18828013802E-01  0.62381313266E-02 -0.12773794404E-01  0.10203380902E+01  0.10200653117E+01 0.  0.
     999903    2    3    3    0    0  0.10897397227E-01  0.88408074992E-02 -0.13014395735E+00  0.13250622334E+00  0.20580001078E-01 0.  0.
         14    1    1    2    0    0 -0.18828013802E-01 -0.62381313266E-02  0.12773794404E-01  0.23591909834E-01  0.00000000000E+00 0. -1.
     999901    1    3    3    0    0  0.79306165754E-02 -0.26026761725E-02  0.11737016295E+00  0.88783186683E+00  0.88000000000E+00 0. -1.
        -11    1    4    4    0    0  0.13366253789E-01 -0.19419294773E-02 -0.60852962175E-01  0.62335960384E-01  0.51100000000E-03 0. -1.
         11    1    4    4    0    0 -0.24688565624E-02  0.10782736977E-01 -0.69290995178E-01  0.70170262955E-01  0.51100000000E-03 0.  1.
</event>
<event>
 8    1  0.1135368E+005  0.1043930E+01  0.7957747E-01            NaN
         13   -1    0    0    0    0  0.00000000000E+00  0.00000000000E+00  0.74505805969E-08  0.10566000000E+00  0.10566000000E+00 0.  1.
     999900   -1    0    0    0    0 -0.00000000000E+00 -0.00000000000E+00 -0.74505805969E-08  0.93827000000E+00  0.93827000000E+00 0.  1.
     999902    2    1    2    0    0  0.77277380766E-02 -0.32380694283E-01 -0.42416252543E-02  0.10103708182E+01  0.10098133350E+01 0.  0.
     999903    2    3    3    0    0  0.62833603866E-01  0.98989767945E-01 -0.11820573996E-01  0.11888200994E+00  0.15689817903E-01 0.  0.
         14    1    1    2    0    0 -0.77277380766E-02  0.32380694283E-01  0.42416252543E-02  0.33559181796E-01  0.00000000000E+00 0.  1.
     999901    1    3    3    0    0 -0.55105865790E-01 -0.13137046223E+00  0.75789487419E-02  0.89148880826E+00  0.88000000000E+00 0. -1.
        -11    1    4    4    0    0  0.30930643121E-01  0.38172585990E-01 -0.10215627065E-01  0.50184371694E-01  0.51100000000E-03 0.  1.
         11    1    4    4    0    0  0.31902960746E-01  0.60817181956E-01 -0.16049469314E-02  0.68697638249E-01  0.51100000000E-03 0. -1.
</event>
<event>
 8    1  0.1135368E+005  0.1043930E+01  0.7957747E-01            NaN
         13   -1    0    0    0    0  0.00000000000E+00  0.00000000000E+00  0.74505805969E-08  0.10566000000E+00  0.10566000000E+00 0.  1.
     999900   -1    0    0    0    0 -0.00000000000E+00 -0.00000000000E+00 -0.74505805969E-08  0.93827000000E+00  0.93827000000E+00 0.  1.
     999902    2    1    2    0    0 -0.88553217795E-02 -0.66543985004E-02  0.21133110790E-01  0.10200698635E+01  0.10197907728E+01 0.  0.
     999903    2    3    3    0    0  0.77705867498E-01  0.99897685312E-01  0.18136002234E-01  0.12942112873E+00  0.20078959372E-01 0.  0.
         14    1    1    2    0    0  0.88553217795E-02  0.66543985004E-02 -0.21133110790E-01  0.23860136522E-01  0.00000000000E+00 0. -1.
     999901    1    3    3    0    0 -0.86561189278E-01 -0.10655208381E+00  0.29971085553E-02  0.89064873475E+00  0.88000000000E+00 0.  1.
        -11    1    4    4    0    0  0.46568969779E-01  0.46538413889E-01  0.35132761341E-02  0.65932519623E-01  0.51100000000E-03 0.  1.
         11    1    4    4    0    0  0.31136897719E-01  0.53359271423E-01  0.14622726100E-01  0.63488609104E-01  0.51100000000E-03 0. -1.
</event>
<event>
 8    1  0.1135368E+005  0.1043930E+01  0.7957747E-01            NaN
         13   -1    0    0    0    0  0.00000000000E+00  0.00000000000E+00  0.74505805969E-08  0.10566000000E+00  0.10566000000E+00 0.  1.
     999900   -1    0    0    0    0 -0.00000000000E+00 -0.00000000000E+00 -0.74505805969E-08  0.93827000000E+00  0.93827000000E+00 0.  1.
     999902    2    1    2    0    0  0.16545694742E-01  0.68812207963E-03  0.17129679150E-01  0.10201043954E+01  0.10198261215E+01 0.  0.
     999903    2    3    3    0    0  0.67962735533E-01 -0.10017495495E+00 -0.44337228997E-01  0.13072525624E+00  0.21664434528E-01 0.  0.
         14    1    1    2    0    0 -0.16545694742E-01 -0.68812207963E-03 -0.17129679150E-01  0.23825604594E-01  0.00000000000E+00 0. -1.
     999901    1    3    3    0    0 -0.51417040791E-01  0.10086307703E+00  0.61466908147E-01  0.88937913917E+00  0.88000000000E+00 0.  1.
        -11    1    4    4    0    0  0.41052724437E-01 -0.62167987744E-01 -0.38282220874E-01  0.83761413789E-01  0.51100000000E-03 0. -1.
         11    1    4    4    0    0  0.26910011095E-01 -0.38006967203E-01 -0.60550081223E-02  0.46963842448E-01  0.51100000000E-03 0.  1.
</event>
<event>
 8    1  0.1135368E+005  0.1043930E+01  0.7957747E-01            NaN
         13   -1    0    0    0    0  0.00000000000E+00  0.00000000000E+00  0.74505805969E-08  0.10566000000E+00  0.10566000000E+00 0. -1.
     999900   -1    0    0    0    0 -0.00000000000E+00 -0.00000000000E+00 -0.74505805969E-08  0.93827000000E+00  0.93827000000E+00 0. -1.
     999902    2    1    2    0    0 -0.83145575499E-02 -0.20528733948E-01 -0.69132287144E-02  0.10207275537E+01  0.10204638089E+01 0.  0.
     999903    2    3    3    0    0  0.10369885083E+00  0.71483503070E-01  0.16029290996E-01  0.12857307454E+00  0.20267078030E-01 0.  0.
         14    1    1    2    0    0  0.83145575499E-02  0.20528733948E-01  0.69132287144E-02  0.23202446337E-01  0.00000000000E+00 0. -1.
     999901    1    3    3    0    0 -0.11201340838E+00 -0.92012237018E-01 -0.22942519710E-01  0.89215447913E+00  0.88000000000E+00 0.  1.
        -11    1    4    4    0    0  0.48636200958E-01  0.45678699956E-01  0.69259931051E-02  0.67083933806E-01  0.51100000000E-03 0. -1.
         11    1    4    4    0    0  0.55062649868E-01  0.25804803114E-01  0.91032978905E-02  0.61489140729E-01  0.51100000000E-03 0.  1.
</event>
<event>
 8    1  0.1135368E+005  0.1043930E+01  0.7957747E-01            NaN
         13   -1    0    0    0    0  0.00000000000E+00  0.00000000000E+00  0.74505805969E-08  0.10566000000E+00  0.10566000000E+00 0.  1.
     999900   -1    0    0    0    0 -0.00000000000E+00 -0.00000000000E+00 -0.74505805969E-08  0.93827000000E+00  0.93827000000E+00 0.  1.
     999902    2    1    2    0    0 -0.16770299156E-01  0.70313155992E-03 -0.17035241813E-01  0.10200148000E+01  0.10197344043E+01 0.  0.
     999903    2    3    3    0    0  0.52501026322E-01  0.77734392806E-01 -0.89310259966E-01  0.13099510955E+00  0.19606187835E-01 0.  0.
         14    1    1    2    0    0  0.16770299156E-01 -0.70313155992E-03  0.17035241813E-01  0.23915200007E-01  0.00000000000E+00 0.  1.
     999901    1    3    3    0    0 -0.69271325478E-01 -0.77031261246E-01  0.72275018154E-01  0.88901969044E+00  0.88000000000E+00 0.  1.
        -11    1    4    4    0    0  0.12733098488E-01  0.18332975723E-01 -0.33704159861E-01  0.40428471513E-01  0.51100000000E-03 0.  1.
         11    1    4    4    0    0  0.39767927833E-01  0.59401417083E-01 -0.55606100106E-01  0.90566638039E-01  0.51100000000E-03 0. -1.
</event>
<event>
 8    1  0.1135368E+005  0.1043930E+01  0.7957747E-01            NaN
         13   -1    0    0    0    0  0.00000000000E+00  0.00000000000E+00  0.74505805969E-08  0.10566000000E+00  0.10566000000E+00 0.  1.
     999900   -1    0    0    0    0 -0.00000000000E+00 -0.00000000000E+00 -0.74505805969E-08  0.93827000000E+00  0.93827000000E+00 0.  1.
     999902    2    1    2    0    0 -0.10720271211E-01  0.17524087319E-01 -0.12098243675E-01  0.10200891663E+01  0.10198105323E+01 0.  0.
     999903    2    3    3    0    0  0.75182453204E-01 -0.87242892129E-01  0.50528744348E-01  0.12752122062E+00  0.21089907665E-01 0.  0.
         14    1    1    2    0    0  0.10720271211E-01 -0.17524087319E-01  0.12098243675E-01  0.23840833694E-01  0.00000000000E+00 0.  1.
     999901    1    3    3    0    0 -0.85902724415E-01  0.10476697945E+00 -0.62626988023E-01  0.89256794569E+00  0.88000000000E+00 0.  1.
        -11    1    4    4    0    0  0.98480349708E-02 -0.21586820107E-01  0.47629836492E-02  0.24205820155E-01  0.51100000000E-03 0. -1.
         11    1    4    4    0    0  0.65334418233E-01 -0.65656072022E-01  0.45765760698E-01  0.10331540046E+00  0.51100000000E-03 0.  1.
</event>
<event>
 8    1  0.1135368E+005  0.1043930E+01  0.7957747E-01            NaN
         13   -1    0    0    0    0  0.00000000000E+00  0.00000000000E+00  0.74505805969E-08  0.10566000000E+00  0.10566000000E+00 0. -1.
     999900   -1    0    0    0    0 -0.00000000000E+00 -0.00000000000E+00 -0.74505805969E-08  0.93827000000E+00  0.93827000000E+00 0. -1.
     999902    2    1    2    0    0 -0.20895532622E-01 -0.50688452382E-02  0.13349831380E-01  0.10186212175E+01  0.10183067564E+01 0.  0.
     999903    2    3    3    0    0  0.12156350418E+00  0.21138248262E-01 -0.17534733773E-01  0.12624503822E+00  0.20145264909E-01 0.  0.
         14    1    1    2    0    0  0.20895532622E-01  0.50688452382E-02 -0.13349831380E-01  0.25308782536E-01  0.00000000000E+00 0.  1.
     999901    1    3    3    0    0 -0.14245903680E+00 -0.26207093500E-01  0.30884565153E-01  0.89237617924E+00  0.88000000000E+00 0. -1.
        -11    1    4    4    0    0  0.21080428941E-01  0.11247288159E-01 -0.58248094713E-02  0.24598282493E-01  0.51100000000E-03 0. -1.
         11    1    4    4    0    0  0.10048307524E+00  0.98909601030E-02 -0.11709924301E-01  0.10164675573E+00  0.51100000000E-03 0.  1.
</event>
<event>
 8    1  0.1135368E+005  0.1043930E+01  0.7957747E-01            NaN
         13   -1    0    0    0    0  0.00000000000E+00  0.00000000000E+00  0.74505805969E-08  0.10566000000E+00  0.10566000000E+00 0. -1.
     999900   -1    0    0    0    0 -0.00000000000E+00 -0.00000000000E+00 -0.74505805969E-08  0.93827000000E+00  0.93827000000E+00 0. -1.
     999902    2    1    2    0    0 -0.22782525243E-01 -0.39129584654E-02 -0.12410589313E-02  0.10207805955E+01  0.10205180691E+01 0.  0.
     999903    2    3    3    0    0 -0.10815824269E+00  0.58100338788E-01  0.47890906130E-01  0.13311589973E+00  0.18773626237E-01 0.  0.
         14    1    1    2    0    0  0.22782525243E-01  0.39129584654E-02  0.12410589313E-02  0.23149404477E-01  0.00000000000E+00 0.  1.
     999901    1    3    3    0    0  0.85375717447E-01 -0.62013297253E-01 -0.49131965061E-01  0.88766469579E+00  0.88000000000E+00 0. -1.
        -11    1    4    4    0    0 -0.31447847741E-01  0.92475140008E-02  0.76500415209E-02  0.33664044603E-01  0.51100000000E-03 0.  1.
         11    1    4    4    0    0 -0.76710394948E-01  0.48852824787E-01  0.40240864609E-01  0.99451855127E-01  0.51100000000E-03 0. -1.
</event>
<event>
 8    1  0.1135368E+005  0.1043930E+01  0.7957747E-01            NaN
         13   -1    0    0    0    0  0.00000000000E+00  0.00000000000E+00  0.74505805969E-08  0.10566000000E+00  0.10566000000E+00 0.  1.
     999900   -1    0    0    0    0 -0.00000000000E+00 -0.00000000000E+00 -0.74505805969E-08  0.93827000000E+00  0.93827000000E+00 0.  1.
     999902    2    1    2    0    0  0.40840501540E-03 -0.10059171777E-01 -0.21508290787E-01  0.10201821516E+01  0.10199057124E+01 0.  0.
     999903    2    3    3    0    0  0.87050706851E-01 -0.94682001893E-01  0.16194336319E-01  0.13108744351E+00  0.19471884140E-01 0.  0.
         14    1    1    2    0    0 -0.40840501540E-03  0.10059171777E-01  0.21508290787E-01  0.23747848409E-01  0.00000000000E+00 0.  1.
     999901    1    3    3    0    0 -0.86642301835E-01  0.84622830116E-01 -0.37702627105E-01  0.88909470808E+00  0.88000000000E+00 0. -1.
        -11    1    4    4    0    0  0.38709258085E-01 -0.38296361897E-01 -0.24517780850E-02  0.54509543502E-01  0.51100000000E-03 0. -1.
         11    1    4    4    0    0  0.48341448766E-01 -0.56385639995E-01  0.18646114404E-01  0.76577900009E-01  0.51100000000E-03 0.  1.
</event>
<event>
 8    1  0.1135368E+005  0.1043930E+01  0.7957747E-01            NaN
         13   -1    0    0    0    0  0.00000000000E+00  0.00000000000E+00  0.74505805969E-08  0.10566000000E+00  0.10566000000E+00 0.  1.
     999900   -1    0    0    0    0 -0.00000000000E+00 -0.00000000000E+00 -0.74505805969E-08  0.93827000000E+00  0.93827000000E+00 0.  1.
     999902    2    1    2    0    0  0.71519293577E-02 -0.21546929995E-01 -0.45585826757E-03  0.10212225542E+01  0.10209700668E+01 0.  0.
     999903    2    3    3    0    0  0.10081502197E-01  0.65939122143E-01  0.10990818515E+00  0.13001965154E+00  0.19382881851E-01 0.  0.
         14    1    1    2    0    0 -0.71519293577E-02  0.21546929995E-01  0.45585826757E-03  0.22707445750E-01  0.00000000000E+00 0. -1.
     999901    1    3    3    0    0 -0.29295728395E-02 -0.87486052137E-01 -0.11036404342E+00  0.89120290271E+00  0.88000000000E+00 0.  1.
        -11    1    4    4    0    0  0.93702103355E-02  0.50146210992E-01  0.66469214868E-01  0.83790578019E-01  0.51100000000E-03 0. -1.
         11    1    4    4    0    0  0.71129186163E-03  0.15792911151E-01  0.43438970281E-01  0.46229073523E-01  0.51100000000E-03 0.  1.
</event>
<event>
 8    1  0.1135368E+005  0.1043930E+01  0.7957747E-01            NaN
         13   -1    0    0    0    0  0.00000000000E+00  0.00000000000E+00  0.74505805969E-08  0.10566000000E+00  0.10566000000E+00 0.  1.
     999900   -1    0    0    0    0 -0.00000000000E+00 -0.00000000000E+00 -0.74505805969E-08  0.93827000000E+00  0.93827000000E+00 0.  1.
     999902    2    1    2    0    0 -0.49545540351E-02  0.12712301198E-01 -0.19425419221E-01  0.10201919057E+01  0.10199156962E+01 0.  0.
     999903    2    3    3    0    0 -0.12666760120E+00 -0.20491521137E-01 -0.19653139371E-01  0.13119437395E+00  0.19003532207E-01 0.  0.
         14    1    1    2    0    0  0.49545540351E-02 -0.12712301198E-01  0.19425419221E-01  0.23738094265E-01  0.00000000000E+00 0.  1.
     999901    1    3    3    0    0  0.12171304716E+00  0.33203822335E-01  0.22772014994E-03  0.88899753179E+00  0.88000000000E+00 0. -1.
        -11    1    4    4    0    0 -0.10077477810E+00 -0.95429866325E-02 -0.11259471373E-01  0.10185117236E+00  0.51100000000E-03 0.  1.
         11    1    4    4    0    0 -0.25892823103E-01 -0.10948534504E-01 -0.83936679982E-02  0.29343201589E-01  0.51100000000E-03 0. -1.
</event>
<event>
 8    1  0.1135368E+005  0.1043930E+01  0.7957747E-01            NaN
         13   -1    0    0    0    0  0.00000000000E+00  0.00000000000E+00  0.74505805969E-08  0.10566000000E+00  0.10566000000E+00 0.  1.
     999900   -1    0    0    0    0 -0.00000000000E+00 -0.00000000000E+00 -0.74505805969E-08  0.93827000000E+00  0.93827000000E+00 0. -1.
     999902    2    1    2    0    0 -0.69557007796E-02  0.21881155776E-01 -0.10735157412E-01  0.10185841846E+01  0.10182687911E+01 0.  0.
     999903    2    3    3    0    0  0.18100558195E-01 -0.11506219205E+00  0.42467579851E-01  0.12605304912E+00  0.22780202123E-01 0.  0.
         14    1    1    2    0    0  0.69557007796E-02 -0.21881155776E-01  0.10735157412E-01  0.25345815357E-01  0.00000000000E+00 0.  1.
     999901    1    3    3    0    0 -0.25056258975E-01  0.13694334782E+00 -0.53202737263E-01  0.89253113552E+00  0.88000000000E+00 0.  1.
        -11    1    4    4    0    0  0.81846307959E-03 -0.68484524429E-01  0.30344389264E-01  0.74912235642E-01  0.51100000000E-03 0.  1.
         11    1    4    4    0    0  0.17282095115E-01 -0.46577667616E-01  0.12123190587E-01  0.51140813478E-01  0.51100000000E-03 0. -1.
</event>
<event>
 8    1  0.1135368E+005  0.1043930E+01  0.7957747E-01            NaN
         13   -1    0    0    0    0  0.00000000000E+00  0.00000000000E+00  0.74505805969E-08  0.10566000000E+00  0.10566000000E+00 0. -1.
     999900   -1    0    0    0    0 -0.00000000000E+00 -0.00000000000E+00 -0.74505805969E-08  0.93827000000E+00  0.93827000000E+00 0.  1.
     999902    2    1    2    0    0  0.17548883371E-01 -0.13782808008E-01 -0.74589791989E-02  0.10204020278E+01  0.10201307430E+01 0.  0.
     999903    2    3    3    0    0  0.76719961494E-01  0.62526214943E-01 -0.84613299647E-01  0.13176426549E+00  0.20172534232E-01 0.  0.
         14    1    1    2    0    0 -0.17548883371E-01  0.13782808008E-01  0.74589791989E-02  0.23527972179E-01  0.00000000000E+00 0. -1.
     999901    1    3    3    0    0 -0.59171078122E-01 -0.76309022951E-01  0.77154320448E-01  0.88863776233E+00  0.88000000000E+00 0. -1.
        -11    1    4    4    0    0  0.31124507923E-01  0.20554592929E-01 -0.20376574398E-01  0.42505201907E-01  0.51100000000E-03 0.  1.
         11    1    4    4    0    0  0.45595453571E-01  0.41971622014E-01 -0.64236725249E-01  0.89259063587E-01  0.51100000000E-03 0. -1.
</event>
<event>
 8    1  0.1135368E+005  0.1043930E+01  0.7957747E-01            NaN
         13   -1    0    0    0    0  0.00000000000E+00  0.00000000000E+00  0.74505805969E-08  0.10566000000E+00  0.10566000000E+00 0.  1.
     999900   -1    0    0    0    0 -0.00000000000E+00 -0.00000000000E+00 -0.74505805969E-08  0.93827000000E+00  0.93827000000E+00 0. -1.
     999902    2    1    2    0    0 -0.10848583373E-01 -0.80119338685E-02 -0.20600538675E-01  0.10193075501E+01  0.10190101161E+01 0.  0.
     999903    2    3    3    0    0  0.32943340537E-01  0.78698304909E-01 -0.96837461687E-01  0.13068588339E+00  0.20557705381E-01 0.  0.
         14    1    1    2    0    0  0.10848583373E-01  0.80119338685E-02  0.20600538675E-01  0.24622449903E-01  0.00000000000E+00 0.  1.
     999901    1    3    3    0    0 -0.43791923910E-01 -0.86710238778E-01  0.76236923012E-01  0.88862166671E+00  0.88000000000E+00 0.  1.
        -11    1    4    4    0    0  0.59819369039E-02  0.27340153440E-01 -0.19960178056E-01  0.34379316286E-01  0.51100000000E-03 0. -1.
         11    1    4    4    0    0  0.26961403633E-01  0.51358151469E-01 -0.76877283631E-01  0.96306567106E-01  0.51100000000E-03 0.  1.
</event>
<event>
 8    1  0.1135368E+005  0.1043930E+01  0.7957747E-01            NaN
         13   -1    0    0    0    0  0.00000000000E+00  0.00000000000E+00  0.74505805969E-08  0.10566000000E+00  0.10566000000E+00 0. -1.
     999900   -1    0    0    0    0 -0.00000000000E+00 -0.00000000000E+00 -0.74505805969E-08  0.93827000000E+00  0.93827000000E+00 0.  1.
     999902    2    1    2    0    0 -0.18501225346E-01  0.11823355578E-01  0.94487311594E-02  0.10200267451E+01  0.10197466328E+01 0.  0.
     999903    2    3    3    0    0 -0.10645071784E+00  0.57990334105E-01  0.51912043527E-01  0.13342106267E+00  0.20290035049E-01 0.  0.
         14    1    1    2    0    0  0.18501225346E-01 -0.11823355578E-01 -0.94487311594E-02  0.23903254945E-01  0.00000000000E+00 0.  1.
     999901    1    3    3    0    0  0.87949492498E-01 -0.46166978527E-01 -0.42463312368E-01  0.88660568238E+00  0.88000000000E+00 0.  1.
        -11    1    4    4    0    0 -0.29129316118E-01  0.61407522497E-02  0.13967364375E-01  0.32887296701E-01  0.51100000000E-03 0.  1.
         11    1    4    4    0    0 -0.77321401726E-01  0.51849581855E-01  0.37944679152E-01  0.10053376597E+00  0.51100000000E-03 0. -1.
</event>
<event>
 8    1  0.1135368E+005  0.1043930E+01  0.7957747E-01            NaN
         13   -1    0    0    0    0  0.00000000000E+00  0.00000000000E+00  0.74505805969E-08  0.10566000000E+00  0.10566000000E+00 0. -1.
     999900   -1    0    0    0    0 -0.00000000000E+00 -0.00000000000E+00 -0.74505805969E-08  0.93827000000E+00  0.93827000000E+00 0. -1.
     999902    2    1    2    0    0 -0.11780417866E-01  0.11259961186E-01  0.29846393192E-01  0.10099245275E+01  0.10093518609E+01 0.  0.
     999903    2    3    3    0    0 -0.33089660706E-01 -0.33276317048E-01 -0.10644975736E+00  0.11806455839E+00  0.20135793581E-01 0.  0.
         14    1    1    2    0    0  0.11780417866E-01 -0.11259961186E-01 -0.29846393192E-01  0.34005472465E-01  0.00000000000E+00 0.  1.
     999901    1    3    3    0    0  0.21309242840E-01  0.44536278234E-01  0.13629615055E+00  0.89185996915E+00  0.88000000000E+00 0. -1.
        -11    1    4    4    0    0 -0.71913637980E-02 -0.16281754025E-01 -0.56952532616E-01  0.59671293934E-01  0.51100000000E-03 0. -1.
         11    1    4    4    0    0 -0.25898296908E-01 -0.16994563023E-01 -0.49497224746E-01  0.58393264455E-01  0.51100000000E-03 0.  1.
</event>
<event>
 8    1  0.1135368E+005  0.1043930E+01  0.7957747E-01            NaN
         13   -1    0    0    0    0  0.00000000000E+00  0.00000000000E+00  0.74505805969E-08  0.10566000000E+00  0.10566000000E+00 0.  1.
     999900   -1    0    0    0    0 -0.00000000000E+00 -0.00000000000E+00 -0.74505805969E-08  0.93827000000E+00  0.93827000000E+00 0. -1.
     999902    2    1    2    0    0 -0.25951142870E-02  0.10444559724E-01  0.21157986162E-01  0.10201921858E+01  0.10199159829E+01 0.  0.
     999903    2    3    3    0    0 -0.25498312230E-02 -0.12760265958E+00 -0.27567625692E-02  0.12910916381E+00  0.19303783794E-01 0.  0.
         14    1    1    2    0    0  0.25951142870E-02 -0.10444559724E-01 -0.21157986162E-01  0.23737814230E-01  0.00000000000E+00 0. -1.
     999901    1    3    3    0    0 -0.45283063976E-04  0.13804721931E+00  0.23914748731E-01  0.89108302195E+00  0.88000000000E+00 0.  1.
        -11    1    4    4    0    0  0.16683623412E-02 -0.75751250116E-01  0.72953392752E-02  0.76121734237E-01  0.51100000000E-03 0. -1.
         11    1    4    4    0    0 -0.42181935642E-02 -0.51851409468E-01 -0.10052101844E-01  0.52987429578E-01  0.51100000000E-03 0.  1.
</event>
<event>
 8    1  0.1135368E+005  0.1043930E+01  0.7957747E-01            NaN
         13   -1    0    0    0    0  0.00000000000E+00  0.00000000000E+00  0.74505805969E-08  0.10566000000E+00  0.10566000000E+00 0. -1.
     999900   -1    0    0    0    0 -0.00000000000E+00 -0.00000000000E+00 -0.74505805969E-08  0.93827000000E+00  0.93827000000E+00 0. -1.
     999902    2    1    2    0    0  0.18025147085E-01 -0.12303193532E-01 -0.92469303931E-02  0.10202280967E+01  0.10199527386E+01 0.  0.
     999903    2    3    3    0    0  0.33285042688E-01  0.12270613067E+00  0.14720939970E-01  0.12947850178E+00  0.19577736810E-01 0.  0.
         14    1    1    2    0    0 -0.18025147085E-01  0.12303193532E-01  0.92469303931E-02  0.23701903303E-01  0.00000000000E+00 0. -1.
     999901    1    3    3    0    0 -0.15259895603E-01 -0.13500932420E+00 -0.23967870363E-01  0.89074959492E+00  0.88000000000E+00 0.  1.
        -11    1    4    4    0    0  0.27696683593E-01  0.92840926798E-01  0.30714613392E-02  0.96934199159E-01  0.51100000000E-03 0.  1.
         11    1    4    4    0    0  0.55883590956E-02  0.29865203872E-01  0.11649478631E-01  0.32544302621E-01  0.51100000000E-03 0. -1.
</event>
<event>
 8    1  0.1135368E+005  0.1043930E+01  0.7957747E-01            NaN
         13   -1    0    0    0    0  0.00000000000E+00  0.00000000000E+00  0.74505805969E-08  0.10566000000E+00  0.10566000000E+00 0.  1.
     999900   -1    0    0    0    0 -0.00000000000E+00 -0.00000000000E+00 -0.74505805969E-08  0.93827000000E+00  0.93827000000E+00 0. -1.
     999902    2    1    2    0    0  0.14128595688E-01  0.81081305101E-03 -0.15961978066E-01  0.10225978792E+01  0.10223753534E+01 0.  0.
     999903    2    3    3    0    0  0.18546127334E-01 -0.12131941137E+00  0.44828450756E-01  0.13207512119E+00  0.19284429606E-01 0.  0.
         14    1    1    2    0    0 -0.14128595688E-01 -0.81081305101E-03  0.15961978066E-01  0.21332120797E-01  0.00000000000E+00 0.  1.
     999901    1    3    3    0    0 -0.44175316461E-02  0.12213022442E+00 -0.60790428822E-01  0.89052275801E+00  0.88000000000E+00 0. -1.
        -11    1    4    4    0    0  0.19888174231E-01 -0.67732029504E-01  0.27022479787E-01  0.75588642201E-01  0.51100000000E-03 0. -1.
         11    1    4    4    0    0 -0.13420468966E-02 -0.53587381869E-01  0.17805970969E-01  0.56486478989E-01  0.51100000000E-03 0.  1.
</event>
<event>
 8    1  0.1135368E+005  0.1043930E+01  0.7957747E-01            NaN
         13   -1    0    0    0    0  0.00000000000E+00  0.00000000000E+00  0.74505805969E-08  0.10566000000E+00  0.10566000000E+00 0.  1.
     999900   -1    0    0    0    0 -0.00000000000E+00 -0.00000000000E+00 -0.74505805969E-08  0.93827000000E+00  0.93827000000E+00 0.  1.
     999902    2    1    2    0    0 -0.85248676215E-02  0.22076980496E-02  0.21651019363E-01  0.10205566404E+01  0.10202889504E+01 0.  0.
     999903    2    3    3    0    0 -0.54388825769E-01  0.11001656200E+00 -0.39906560357E-01  0.13066024790E+00  0.20439631536E-01 0.  0.
         14    1    1    2    0    0  0.85248676215E-02 -0.22076980496E-02 -0.21651019363E-01  0.23373359581E-01  0.00000000000E+00 0. -1.
     999901    1    3    3    0    0  0.45863958148E-01 -0.10780886395E+00  0.61557579720E-01  0.88989639252E+00  0.88000000000E+00 0. -1.
        -11    1    4    4    0    0 -0.31277559788E-01  0.51460715264E-01 -0.10319047906E-01  0.61100203211E-01  0.51100000000E-03 0.  1.
         11    1    4    4    0    0 -0.23111265982E-01  0.58555846739E-01 -0.29587512452E-01  0.69560044686E-01  0.51100000000E-03 0. -1.
</event>
<event>
 8    1  0.1135368E+005  0.1043930E+01  0.7957747E-01            NaN
         13   -1    0    0    0    0  0.00000000000E+00  0.00000000000E+00  0.74505805969E-08  0.10566000000E+00  0.10566000000E+00 0.  1.
     999900   -1    0    0    0    0 -0.00000000000E+00 -0.00000000000E+00 -0.74505805969E-08  0.93827000000E+00  0.93827000000E+00 0.  1.
     999902    2    1    2    0    0 -0.21959511516E-01  0.46859928065E-02 -0.57111222314E-02  0.10207611504E+01  0.10204981776E+01 0.  0.
     999903    2    3    3    0    0  0.11129940679E+00  0.60348459073E-01  0.12537666847E-01  0.12880304165E+00  0.20088205124E-01 0.  0.
         14    1    1    2    0    0  0.21959511516E-01 -0.46859928065E-02  0.57111222314E-02  0.23168849599E-01  0.00000000000E+00 0. -1.
     999901    1    3    3    0    0 -0.13325891830E+00 -0.55662466266E-01 -0.18248789079E-01  0.89195810875E+00  0.88000000000E+00 0. -1.
        -11    1    4    4    0    0  0.29815482568E-01  0.10581575610E-01 -0.40232377474E-02  0.31896399579E-01  0.51100000000E-03 0. -1.
         11    1    4    4    0    0  0.81483924221E-01  0.49766883463E-01  0.16560904595E-01  0.96906642074E-01  0.51100000000E-03 0.  1.
</event>
<event>
 8    1  0.1135368E+005  0.1043930E+01  0.7957747E-01            NaN
         13   -1    0    0    0    0  0.00000000000E+00  0.00000000000E+00  0.74505805969E-08  0.10566000000E+00  0.10566000000E+00 0. -1.
     999900   -1    0    0    0    0 -0.00000000000E+00 -0.00000000000E+00 -0.74505805969E-08  0.93827000000E+00  0.93827000000E+00 0.  1.
     999902    2    1    2    0    0  0.14957349157E-01  0.13388794089E-01 -0.12151769453E-01  0.10204641183E+01  0.10201942801E+01 0.  0.
     999903    2    3    3    0    0  0.92197157176E-01  0.73872852314E-01 -0.57124922939E-01  0.13387126152E+00  0.26471564734E-01 0.  0.
         14    1    1    2    0    0 -0.14957349157E-01 -0.13388794089E-01  0.12151769453E-01  0.23465881654E-01  0.00000000000E+00 0. -1.
     999901    1    3    3    0    0 -0.77239808018E-01 -0.60484058225E-01  0.44973153486E-01  0.88659285683E+00  0.88000000000E+00 0. -1.
        -11    1    4    4    0    0  0.45617944344E-01  0.20309871094E-01 -0.26870122220E-01  0.56707603540E-01  0.51100000000E-03 0.  1.
         11    1    4    4    0    0  0.46579212831E-01  0.53562981220E-01 -0.30254800719E-01  0.77163657979E-01  0.51100000000E-03 0. -1.
</event>
<event>
 8    1  0.1135368E+005  0.1043930E+01  0.7957747E-01            NaN
         13   -1    0    0    0    0  0.00000000000E+00  0.00000000000E+00  0.74505805969E-08  0.10566000000E+00  0.10566000000E+00 0.  1.
     999900   -1    0    0    0    0 -0.00000000000E+00 -0.00000000000E+00 -0.74505805969E-08  0.93827000000E+00  0.93827000000E+00 0. -1.
     999902    2    1    2    0    0  0.14856089276E-01 -0.30078621326E-02 -0.19629539832E-01  0.10191294061E+01  0.10188275992E+01 0.  0.
     999903    2    3    3    0    0  0.12551188175E+00 -0.33612741836E-01 -0.37316421598E-02  0.13152921108E+00  0.20073847162E-01 0.  0.
         14    1    1    2    0    0 -0.14856089276E-01  0.30078621326E-02  0.19629539832E-01  0.24800593888E-01  0.00000000000E+00 0.  1.
     999901    1    3    3    0    0 -0.11065579248E+00  0.30604879703E-01 -0.15897897672E-01  0.88760019503E+00  0.88000000000E+00 0.  1.
        -11    1    4    4    0    0  0.91476352312E-01 -0.30482226980E-01  0.39117345799E-02  0.96502082788E-01  0.51100000000E-03 0.  1.
         11    1    4    4    0    0  0.34035529439E-01 -0.31305148559E-02 -0.76433767397E-02  0.35027128293E-01  0.51100000000E-03 0. -1.
</event>
<event>
 8    1  0.1135368E+005  0.1043930E+01  0.7957747E-01            NaN
         13   -1    0    0    0    0  0.00000000000E+00  0.00000000000E+00  0.74505805969E-08  0.10566000000E+00  0.10566000000E+00 0.  1.
     999900   -1    0    0    0    0 -0.00000000000E+00 -0.00000000000E+00 -0.74505805969E-08  0.93827000000E+00  0.93827000000E+00 0. -1.
     999902    2    1    2    0    0  0.20986785122E-01  0.96640148156E-02  0.75469390031E-02  0.10196237329E+01  0.10193339796E+01 0.  0.
     999903    2    3    3    0    0  0.43825340565E-01 -0.54190844665E-01 -0.10728351689E+00  0.12957593851E+00  0.20563626248E-01 0.  0.
         14    1    1    2    0    0 -0.20986785122E-01 -0.96640148156E-02 -0.75469390031E-02  0.24306267102E-01  0.00000000000E+00 0. -1.
     999901    1    3    3    0    0 -0.22838555443E-01  0.63854859481E-01  0.11483045589E+00  0.89004779439E+00  0.88000000000E+00 0.  1.
        -11    1    4    4    0    0  0.27793639000E-01 -0.47983695794E-01 -0.80899266121E-01  0.98080955393E-01  0.51100000000E-03 0. -1.
         11    1    4    4    0    0  0.16031701565E-01 -0.62071488714E-02 -0.26384250764E-01  0.31494983118E-01  0.51100000000E-03 0.  1.
</event>
<event>
 8    1  0.1135368E+005  0.1043930E+01  0.7957747E-01            NaN
         13   -1    0    0    0    0  0.00000000000E+00  0.00000000000E+00  0.74505805969E-08  0.10566000000E+00  0.10566000000E+00 0. -1.
     999900   -1    0    0    0    0 -0.00000000000E+00 -0.00000000000E+00 -0.74505805969E-08  0.93827000000E+00  0.93827000000E+00 0. -1.
     999902    2    1    2    0    0  0.12725644933E-01  0.17269711587E-01  0.10031636260E-01  0.10202483889E+01  0.10199735077E+01 0.  0.
     999903    2    3    3    0    0 -0.31122729907E-01 -0.93326087439E-02  0.12609923326E+00  0.13114656658E+00  0.15578298764E-01 0.  0.
         14    1    1    2    0    0 -0.12725644933E-01 -0.17269711587E-01 -0.10031636260E-01  0.23681611079E-01  0.00000000000E+00 0.  1.
     999901    1    3    3    0    0  0.43848374840E-01  0.26602320331E-01 -0.11606759700E+00  0.88910182234E+00  0.88000000000E+00 0. -1.
        -11    1    4    4    0    0 -0.55854904204E-02 -0.83835588269E-02  0.27613767516E-01  0.29398350962E-01  0.51100000000E-03 0.  1.
         11    1    4    4    0    0 -0.25537239487E-01 -0.94904991701E-03  0.98485465746E-01  0.10174821561E+00  0.51100000000E-03 0. -1.
</event>
<event>
 8    1  0.1135368E+005  0.1043930E+01  0.7957747E-01            NaN
         13   -1    0    0    0    0  0.00000000000E+00  0.00000000000E+00  0.74505805969E-08  0.10566000000E+00  0.10566000000E+00 0. -1.
     999900   -1    0    0    0    0 -0.00000000000E+00 -0.00000000000E+00 -0.74505805969E-08  0.93827000000E+00  0.93827000000E+00 0.  1.
     999902    2    1    2    0    0  0.15348751727E-01 -0.63876885389E-02  0.17429388567E-01  0.10198432748E+01  0.10195587942E+01 0.  0.
     999903    2    3    3    0    0  0.39903647076E-01  0.11734703452E+00 -0.31606281253E-01  0.12949630790E+00  0.20191809856E-01 0.  0.
         14    1    1    2    0    0 -0.15348751727E-01  0.63876885389E-02 -0.17429388567E-01  0.24086725187E-01  0.00000000000E+00 0. -1.
     999901    1    3    3    0    0 -0.24554895349E-01 -0.12373472306E+00  0.49035669820E-01  0.89034696691E+00  0.88000000000E+00 0.  1.
        -11    1    4    4    0    0  0.18809269973E-01  0.27756034187E-01 -0.89488926260E-02  0.34706337619E-01  0.51100000000E-03 0. -1.
         11    1    4    4    0    0  0.21094377103E-01  0.89591000330E-01 -0.22657388627E-01  0.94789970281E-01  0.51100000000E-03 0.  1.
</event>
<event>
 8    1  0.1135368E+005  0.1043930E+01  0.7957747E-01            NaN
         13   -1    0    0    0    0  0.00000000000E+00  0.00000000000E+00  0.74505805969E-08  0.10566000000E+00  0.10566000000E+00 0. -1.
     999900   -1    0    0    0    0 -0.00000000000E+00 -0.00000000000E+00 -0.74505805969E-08  0.93827000000E+00  0.93827000000E+00 0.  1.
     999902    2    1    2    0    0  0.20945512154E-02 -0.21000255547E-01  0.15132622052E-01  0.10179609005E+01  0.10176295990E+01 0.  0.
     999903    2    3    3    0    0  0.56491398425E-01  0.98147404111E-01  0.54429074113E-01  0.12739962080E+00  0.21070079284E-01 0.  0.
         14    1    1    2    0    0 -0.20945512154E-02  0.21000255547E-01 -0.15132622052E-01  0.25969099484E-01  0.00000000000E+00 0. -1.
     999901    1    3    3    0    0 -0.54396847210E-01 -0.11914765966E+00 -0.39296452060E-01  0.89056127972E+00  0.88000000000E+00 0.  1.
        -11    1    4    4    0    0  0.47046009323E-01  0.69476469368E-01  0.47513511589E-01  0.96426664848E-01  0.51100000000E-03 0. -1.
         11    1    4    4    0    0  0.94453891019E-02  0.28670934742E-01  0.69155625234E-02  0.30972955950E-01  0.51100000000E-03 0.  1.
</event>
<event>
 8    1  0.1135368E+005  0.1043930E+01  0.7957747E-01            NaN
         13   -1    0    0    0    0  0.00000000000E+00  0.00000000000E+00  0.74505805969E-08  0.10566000000E+00  0.10566000000E+00 0. -1.
     999900   -1    0    0    0    0 -0.00000000000E+00 -0.00000000000E+00 -0.74505805969E-08  0.93827000000E+00  0.93827000000E+00 0.  1.
     999902    2    1    2    0    0 -0.15423063408E-01 -0.16160846033E-01  0.64851885487E-02  0.10206684115E+01  0.10204033049E+01 0.  0.
     999903    2    3    3    0    0  0.12248097486E+00  0.25956399895E-01  0.22535912940E-01  0.12878892864E+00  0.20084742219E-01 0.  0.
         14    1    1    2    0    0  0.15423063408E-01  0.16160846033E-01 -0.64851885487E-02  0.23261588508E-01  0.00000000000E+00 0.  1.
     999901    1    3    3    0    0 -0.13790403827E+00 -0.42117245928E-01 -0.16050724391E-01  0.89187948285E+00  0.88000000000E+00 0. -1.
        -11    1    4    4    0    0  0.48062725625E-01  0.36142895872E-03  0.70437134382E-02  0.48580152793E-01  0.51100000000E-03 0. -1.
         11    1    4    4    0    0  0.74418249237E-01  0.25594970936E-01  0.15492199502E-01  0.80208775848E-01  0.51100000000E-03 0.  1.
</event>
<event>
 8    1  0.1135368E+005  0.1043930E+01  0.7957747E-01            NaN
         13   -1    0    0    0    0  0.00000000000E+00  0.00000000000E+00  0.74505805969E-08  0.10566000000E+00  0.10566000000E+00 0. -1.
     999900   -1    0    0    0    0 -0.00000000000E+00 -0.00000000000E+00 -0.74505805969E-08  0.93827000000E+00  0.93827000000E+00 0.  1.
     999902    2    1    2    0    0 -0.11281498513E-01  0.21955410609E-01  0.82239837932E-02  0.10179118107E+01  0.10175792393E+01 0.  0.
     999903    2    3    3    0    0  0.78971982504E-01  0.38426673719E-01 -0.90167403666E-01  0.12768832279E+00  0.21470067993E-01 0.  0.
         14    1    1    2    0    0  0.11281498513E-01 -0.21955410609E-01 -0.82239837932E-02  0.26018189275E-01  0.00000000000E+00 0.  1.
     999901    1    3    3    0    0 -0.90253481017E-01 -0.16471263110E-01  0.98391387459E-01  0.89022348793E+00  0.88000000000E+00 0. -1.
        -11    1    4    4    0    0  0.49851347995E-01  0.30047098230E-01 -0.46334714478E-01  0.74398601436E-01  0.51100000000E-03 0. -1.
         11    1    4    4    0    0  0.29120634509E-01  0.83795754889E-02 -0.43832689189E-01  0.53289721355E-01  0.51100000000E-03 0.  1.
</event>
<event>
 8    1  0.1135368E+005  0.1043930E+01  0.7957747E-01            NaN
         13   -1    0    0    0    0  0.00000000000E+00  0.00000000000E+00  0.74505805969E-08  0.10566000000E+00  0.10566000000E+00 0.  1.
     999900   -1    0    0    0    0 -0.00000000000E+00 -0.00000000000E+00 -0.74505805969E-08  0.93827000000E+00  0.93827000000E+00 0.  1.
     999902    2    1    2    0    0  0.11962897466E-02  0.16878109323E-02 -0.25732858038E-01  0.10181141173E+01  0.10177867636E+01 0.  0.
     999903    2    3    3    0    0  0.10478290825E+00  0.72870511470E-01  0.70246649928E-02  0.12858040819E+00  0.13928608998E-01 0.  0.
         14    1    1    2    0    0 -0.11962897466E-02 -0.16878109323E-02  0.25732858038E-01  0.25815882664E-01  0.00000000000E+00 0.  1.
     999901    1    3    3    0    0 -0.10358661851E+00 -0.71182700538E-01 -0.32757523031E-01  0.88953370914E+00  0.88000000000E+00 0.  1.
        -11    1    4    4    0    0  0.57649622110E-01  0.31751687217E-01  0.24496123820E-02  0.65862814185E-01  0.51100000000E-03 0.  1.
         11    1    4    4    0    0  0.47133286143E-01  0.41118824253E-01  0.45750526108E-02  0.62717594007E-01  0.51100000000E-03 0. -1.
</event>
<event>
 8    1  0.1135368E+005  0.1043930E+01  0.7957747E-01            NaN
         13   -1    0    0    0    0  0.00000000000E+00  0.00000000000E+00  0.74505805969E-08  0.10566000000E+00  0.10566000000E+00 0. -1.
     999900   -1    0    0    0    0 -0.00000000000E+00 -0.00000000000E+00 -0.74505805969E-08  0.93827000000E+00  0.93827000000E+00 0. -1.
     999902    2    1    2    0    0 -0.81818223630E-02  0.43070035274E-02 -0.22332929270E-01  0.10197586900E+01  0.10194721838E+01 0.  0.
     999903    2    3    3    0    0  0.92112689393E-01 -0.67600437784E-01 -0.61272145016E-01  0.13029484492E+00  0.12957782336E-01 0.  0.
         14    1    1    2    0    0  0.81818223630E-02 -0.43070035274E-02  0.22332929270E-01  0.24171309984E-01  0.00000000000E+00 0. -1.
     999901    1    3    3    0    0 -0.10029451176E+00  0.71907441311E-01  0.38939215746E-01  0.88946384509E+00  0.88000000000E+00 0. -1.
        -11    1    4    4    0    0  0.46881501155E-01 -0.41284948770E-01 -0.37026966485E-01  0.72619415542E-01  0.51100000000E-03 0. -1.
         11    1    4    4    0    0  0.45231188237E-01 -0.26315489014E-01 -0.24245178531E-01  0.57675429382E-01  0.51100000000E-03 0.  1.
</event>
<event>
 8    1  0.1135368E+005  0.1043930E+01  0.7957747E-01            NaN
         13   -1    0    0    0    0  0.00000000000E+00  0.00000000000E+00  0.74505805969E-08  0.10566000000E+00  0.10566000000E+00 0.  1.
     999900   -1    0    0    0    0 -0.00000000000E+00 -0.00000000000E+00 -0.74505805969E-08  0.93827000000E+00  0.93827000000E+00 0. -1.
     999902    2    1    2    0    0  0.10750557876E-01 -0.34045804766E-02  0.21341182839E-01  0.10197926483E+01  0.10195069562E+01 0.  0.
     999903    2    3    3    0    0 -0.10162836780E+00  0.40509297809E-01  0.68011283073E-01  0.13033463922E+00  0.19805433706E-01 0.  0.
         14    1    1    2    0    0 -0.10750557876E-01  0.34045804766E-02 -0.21341182839E-01  0.24137351715E-01  0.00000000000E+00 0. -1.
     999901    1    3    3    0    0  0.11237892567E+00 -0.43913878286E-01 -0.46670100234E-01  0.88945800907E+00  0.88000000000E+00 0. -1.
        -11    1    4    4    0    0 -0.97969486250E-02  0.82087592673E-02  0.14169529812E-01  0.19089280426E-01  0.51100000000E-03 0. -1.
         11    1    4    4    0    0 -0.91831419171E-01  0.32300538542E-01  0.53841753261E-01  0.11124535879E+00  0.51100000000E-03 0.  1.
</event>
<event>
 8    1  0.1135368E+005  0.1043930E+01  0.7957747E-01            NaN
         13   -1    0    0    0    0  0.00000000000E+00  0.00000000000E+00  0.74505805969E-08  0.10566000000E+00  0.10566000000E+00 0.  1.
     999900   -1    0    0    0    0 -0.00000000000E+00 -0.00000000000E+00 -0.74505805969E-08  0.93827000000E+00  0.93827000000E+00 0. -1.
     999902    2    1    2    0    0  0.13895539201E-01 -0.16296427939E-01  0.12520705268E-01  0.10191221860E+01  0.10188202012E+01 0.  0.
     999903    2    3    3    0    0 -0.20077551886E-01 -0.41073001798E-02  0.12780163914E+00  0.13086972223E+00  0.19329956663E-01 0.  0.
         14    1    1    2    0    0 -0.13895539201E-01  0.16296427939E-01 -0.12520705268E-01  0.24807813963E-01  0.00000000000E+00 0. -1.
     999901    1    3    3    0    0  0.33973091086E-01 -0.12189127759E-01 -0.11528093387E+00  0.88825246381E+00  0.88000000000E+00 0. -1.
        -11    1    4    4    0    0 -0.16024081617E-01 -0.48672669405E-02  0.45894279167E-01  0.48857010350E-01  0.51100000000E-03 0.  1.
         11    1    4    4    0    0 -0.40534702686E-02  0.75996676067E-03  0.81907359971E-01  0.82012711875E-01  0.51100000000E-03 0. -1.
</event>
<event>
 8    1  0.1135368E+005  0.1043930E+01  0.7957747E-01            NaN
         13   -1    0    0    0    0  0.00000000000E+00  0.00000000000E+00  0.74505805969E-08  0.10566000000E+00  0.10566000000E+00 0.  1.
     999900   -1    0    0    0    0 -0.00000000000E+00 -0.00000000000E+00 -0.74505805969E-08  0.93827000000E+00  0.93827000000E+00 0. -1.
     999902    2    1    2    0    0  0.11668035061E-01  0.12068346095E-01  0.16979494655E-01  0.10200534161E+01  0.10197739360E+01 0.  0.
     999903    2    3    3    0    0  0.22526225886E-02  0.29499347077E-01  0.12790151747E+00  0.13286900183E+00  0.20496040859E-01 0.  0.
         14    1    1    2    0    0 -0.11668035061E-01 -0.12068346095E-01 -0.16979494655E-01  0.23876583893E-01  0.00000000000E+00 0. -1.
     999901    1    3    3    0    0  0.94154124725E-02 -0.17431000982E-01 -0.11092202281E+00  0.88718441427E+00  0.88000000000E+00 0. -1.
        -11    1    4    4    0    0  0.69789872488E-02  0.45379463052E-02  0.15193498763E-01  0.17332130433E-01  0.51100000000E-03 0. -1.
         11    1    4    4    0    0 -0.47263646602E-02  0.24961400772E-01  0.11270801870E+00  0.11553687140E+00  0.51100000000E-03 0.  1.
</event>
<event>
 8    1  0.1135368E+005  0.1043930E+01  0.7957747E-01            NaN
         13   -1    0    0    0    0  0.00000000000E+00  0.00000000000E+00  0.74505805969E-08  0.10566000000E+00  0.10566000000E+00 0. -1.
     999900   -1    0    0    0    0 -0.00000000000E+00 -0.00000000000E+00 -0.74505805969E-08  0.93827000000E+00  0.93827000000E+00 0. -1.
     999902    2    1    2    0    0  0.13844963528E-01  0.10777119720E-01 -0.14777223503E-01  0.10209910449E+01  0.10207333237E+01 0.  0.
     999903    2    3    3    0    0 -0.58621734793E-01  0.11162569774E+00 -0.33833291017E-01  0.13206754331E+00  0.20008503890E-01 0.  0.
         14    1    1    2    0    0 -0.13844963528E-01 -0.10777119720E-01  0.14777223503E-01  0.22938955055E-01  0.00000000000E+00 0. -1.
     999901    1    3    3    0    0  0.72466698321E-01 -0.10084857802E+00  0.19056067513E-01  0.88892350164E+00  0.88000000000E+00 0.  1.
        -11    1    4    4    0    0 -0.36157334766E-02  0.20492873369E-01 -0.94633711203E-02  0.22865867608E-01  0.51100000000E-03 0.  1.
         11    1    4    4    0    0 -0.55006001317E-01  0.91132824372E-01 -0.24369919896E-01  0.10920167570E+00  0.51100000000E-03 0. -1.
</event>
<event>
 8    1  0.1135368E+005  0.1043930E+01  0.7957747E-01            NaN
         13   -1    0    0    0    0  0.00000000000E+00  0.00000000000E+00  0.74505805969E-08  0.10566000000E+00  0.10566000000E+00 0. -1.
     999900   -1    0    0    0    0 -0.00000000000E+00 -0.00000000000E+00 -0.74505805969E-08  0.93827000000E+00  0.93827000000E+00 0. -1.
     999902    2    1    2    0    0 -0.10540813295E-01  0.21457182407E-01  0.39717236833E-02  0.10196958503E+01  0.10194078346E+01 0.  0.
     999903    2    3    3    0    0 -0.90336382222E-01 -0.49254216826E-01  0.77320323302E-01  0.13023115070E+00  0.19876629214E-01 0.  0.
         14    1    1    2    0    0  0.10540813295E-01 -0.21457182407E-01 -0.39717236833E-02  0.24234149682E-01  0.00000000000E+00 0. -1.
     999901    1    3    3    0    0  0.79795568927E-01  0.70711399233E-01 -0.73348599619E-01  0.88946469962E+00  0.88000000000E+00 0. -1.
        -11    1    4    4    0    0 -0.54242978779E-01 -0.27804073545E-01  0.33558809773E-01  0.69583202620E-01  0.51100000000E-03 0. -1.
         11    1    4    4    0    0 -0.36093403443E-01 -0.21450143282E-01  0.43761513530E-01  0.60647948080E-01  0.51100000000E-03 0.  1.
</event>
<event>
 7    1  0.1135368E+005  0.1043930E+01  0.7957747E-01            NaN
         13   -1    0    0    0    0  0.00000000000E+00  0.00000000000E+00  0.74505805969E-08  0.10566000000E+00  0.10566000000E+00 0.  1.
     999900   -1    0    0    0    0 -0.00000000000E+00 -0.00000000000E+00 -0.74505805969E-08  0.93827000000E+00  0.93827000000E+00 0.  1.
     999903    2    1    2    0    0 -0.31324069053E-01 -0.10039312377E+00  0.42054777793E-01  0.11549186682E+00  0.22578537657E-01 0.  0.
         14    1    1    2    0    0 -0.32833064469E-01  0.26099380493E-01 -0.45124568481E-02  0.42184713479E-01  0.00000000000E+00 0.  1.
     999901    1    1    2    0    0  0.64157133522E-01  0.74293743282E-01 -0.37542320945E-01  0.88625341970E+00  0.88000000000E+00 0. -1.
        -11    1    3    3    0    0 -0.21225336755E-01 -0.39851936411E-01  0.25760369503E-01  0.51986051149E-01  0.51100000000E-03 0. -1.
         11    1    3    3    0    0 -0.10098732299E-01 -0.60541187363E-01  0.16294408290E-01  0.63505815670E-01  0.51100000000E-03 0.  1.
</event>
<event>
 8    1  0.1135368E+005  0.1043930E+01  0.7957747E-01            NaN
         13   -1    0    0    0    0  0.00000000000E+00  0.00000000000E+00  0.74505805969E-08  0.10566000000E+00  0.10566000000E+00 0.  1.
     999900   -1    0    0    0    0 -0.00000000000E+00 -0.00000000000E+00 -0.74505805969E-08  0.93827000000E+00  0.93827000000E+00 0.  1.
     999902    2    1    2    0    0  0.70838938048E-02  0.78706905080E-02 -0.21434415788E-01  0.10200226057E+01  0.10197423953E+01 0.  0.
     999903    2    3    3    0    0  0.68531418031E-01 -0.75445051011E-01  0.75061477471E-01  0.12871526904E+00  0.23342752744E-01 0.  0.
         14    1    1    2    0    0 -0.70838938048E-02 -0.78706905080E-02  0.21434415788E-01  0.23907394268E-01  0.00000000000E+00 0.  1.
     999901    1    3    3    0    0 -0.61447524227E-01  0.83315741519E-01 -0.96495893258E-01  0.89130733669E+00  0.88000000000E+00 0.  1.
        -11    1    4    4    0    0 -0.13832055045E-02 -0.51454319997E-02  0.29038427654E-02  0.60895116173E-02  0.51100000000E-03 0. -1.
         11    1    4    4    0    0  0.69914623536E-01 -0.70299619011E-01  0.72157634705E-01  0.12262575743E+00  0.51100000000E-03 0.  1.
</event>
<event>
 8    1  0.1135368E+005  0.1043930E+01  0.7957747E-01            NaN
         13   -1    0    0    0    0  0.00000000000E+00  0.00000000000E+00  0.74505805969E-08  0.10566000000E+00  0.10566000000E+00 0. -1.
     999900   -1    0    0    0    0 -0.00000000000E+00 -0.00000000000E+00 -0.74505805969E-08  0.93827000000E+00  0.93827000000E+00 0. -1.
     999902    2    1    2    0    0  0.51556434873E-02 -0.21407685403E-01 -0.66141692179E-02  0.10209383300E+01  0.10206794094E+01 0.  0.
     999903    2    3    3    0    0  0.41872327120E-01  0.50193105040E-01  0.11011686356E+00  0.12959051796E+00  0.19883136925E-01 0.  0.
         14    1    1    2    0    0 -0.51556434873E-02  0.21407685403E-01  0.66141692179E-02  0.22991669981E-01  0.00000000000E+00 0. -1.
     999901    1    3    3    0    0 -0.36716683633E-01 -0.71600790442E-01 -0.11673103277E+00  0.89134781206E+00  0.88000000000E+00 0. -1.
        -11    1    4    4    0    0  0.19752594225E-01  0.13875685418E-01  0.54241891240E-01  0.59372919002E-01  0.51100000000E-03 0.  1.
         11    1    4    4    0    0  0.22119732895E-01  0.36317419622E-01  0.55874972315E-01  0.70217598959E-01  0.51100000000E-03 0. -1.
</event>
<event>
 8    1  0.1135368E+005  0.1043930E+01  0.7957747E-01            NaN
         13   -1    0    0    0    0  0.00000000000E+00  0.00000000000E+00  0.74505805969E-08  0.10566000000E+00  0.10566000000E+00 0. -1.
     999900   -1    0    0    0    0 -0.00000000000E+00 -0.00000000000E+00 -0.74505805969E-08  0.93827000000E+00  0.93827000000E+00 0. -1.
     999902    2    1    2    0    0 -0.22690149486E-01  0.49524487426E-02 -0.46877225141E-02  0.10202372928E+01  0.10199621509E+01 0.  0.
     999903    2    3    3    0    0 -0.10441187534E-01 -0.10252988922E+00 -0.77645452148E-01  0.13061640705E+00  0.20259145370E-01 0.  0.
         14    1    1    2    0    0  0.22690149486E-01 -0.49524487426E-02  0.46877225141E-02  0.23692707204E-01  0.00000000000E+00 0.  1.
     999901    1    3    3    0    0 -0.12248961953E-01  0.10748233796E+00  0.72957729634E-01  0.88962088575E+00  0.88000000000E+00 0.  1.
        -11    1    4    4    0    0 -0.39529310215E-02 -0.69231016432E-01 -0.62896259707E-01  0.93620296443E-01  0.51100000000E-03 0.  1.
         11    1    4    4    0    0 -0.64882565122E-02 -0.33298872786E-01 -0.14749192441E-01  0.36996110607E-01  0.51100000000E-03 0. -1.
</event>
<event>
 8    1  0.1135368E+005  0.1043930E+01  0.7957747E-01            NaN
         13   -1    0    0    0    0  0.00000000000E+00  0.00000000000E+00  0.74505805969E-08  0.10566000000E+00  0.10566000000E+00 0. -1.
     999900   -1    0    0    0    0 -0.00000000000E+00 -0.00000000000E+00 -0.74505805969E-08  0.93827000000E+00  0.93827000000E+00 0. -1.
     999902    2    1    2    0    0  0.65369508096E-02 -0.64288911965E-02 -0.21701018987E-01  0.10203716343E+01  0.10200996400E+01 0.  0.
     999903    2    3    3    0    0  0.87513507195E-01 -0.42757737251E-01  0.83405937217E-01  0.12968400111E+00  0.19353339329E-01 0.  0.
         14    1    1    2    0    0 -0.65369508096E-02  0.64288911965E-02  0.21701018987E-01  0.23558365668E-01  0.00000000000E+00 0. -1.
     999901    1    3    3    0    0 -0.80976556386E-01  0.36328846055E-01 -0.10510695620E+00  0.89068763323E+00  0.88000000000E+00 0. -1.
        -11    1    4    4    0    0  0.16111621656E-01 -0.16553608656E-01  0.22395025255E-01  0.32177703291E-01  0.51100000000E-03 0. -1.
         11    1    4    4    0    0  0.71401885539E-01 -0.26204128595E-01  0.61010911962E-01  0.97506297814E-01  0.51100000000E-03 0.  1.
</event>
<event>
 8    1  0.1135368E+005  0.1043930E+01  0.7957747E-01            NaN
         13   -1    0    0    0    0  0.00000000000E+00  0.00000000000E+00  0.74505805969E-08  0.10566000000E+00  0.10566000000E+00 0. -1.
     999900   -1    0    0    0    0 -0.00000000000E+00 -0.00000000000E+00 -0.74505805969E-08  0.93827000000E+00  0.93827000000E+00 0. -1.
     999902    2    1    2    0    0 -0.18425888729E-01  0.88510363770E-02 -0.11294313085E-01  0.10205758627E+01  0.10203086179E+01 0.  0.
     999903    2    3    3    0    0  0.69470496759E-01  0.10843356498E+00  0.31708586143E-02  0.13049064445E+00  0.20827049972E-01 0.  0.
         14    1    1    2    0    0  0.18425888729E-01 -0.88510363770E-02  0.11294313085E-01  0.23354137287E-01  0.00000000000E+00 0. -1.
     999901    1    3    3    0    0 -0.87896385488E-01 -0.99582528598E-01 -0.14465171699E-01  0.89008521827E+00  0.88000000000E+00 0. -1.
        -11    1    4    4    0    0  0.21401517568E-01  0.31946850559E-01 -0.85480546378E-02  0.39394880047E-01  0.51100000000E-03 0.  1.
         11    1    4    4    0    0  0.48068979191E-01  0.76486714416E-01  0.11718913252E-01  0.91095764399E-01  0.51100000000E-03 0. -1.
</event>
<event>
 8    1  0.1135368E+005  0.1043930E+01  0.7957747E-01            NaN
         13   -1    0    0    0    0  0.00000000000E+00  0.00000000000E+00  0.74505805969E-08  0.10566000000E+00  0.10566000000E+00 0. -1.
     999900   -1    0    0    0    0 -0.00000000000E+00 -0.00000000000E+00 -0.74505805969E-08  0.93827000000E+00  0.93827000000E+00 0.  1.
     999902    2    1    2    0    0  0.18970761644E-01  0.10768823923E-01  0.64790651479E-02  0.10211739975E+01  0.10209204168E+01 0.  0.
     999903    2    3    3    0    0  0.12000419268E+00 -0.51599146678E-01  0.15997945199E-01  0.13314915152E+00  0.20230771180E-01 0.  0.
         14    1    1    2    0    0 -0.18970761644E-01 -0.10768823923E-01 -0.64790651479E-02  0.22756002532E-01  0.00000000000E+00 0. -1.
     999901    1    3    3    0    0 -0.10103343103E+00  0.62367970601E-01 -0.95188800512E-02  0.88802484595E+00  0.88000000000E+00 0. -1.
        -11    1    4    4    0    0  0.93429596708E-02 -0.11520906011E-02  0.58787976014E-02  0.11110337097E-01  0.51100000000E-03 0.  1.
         11    1    4    4    0    0  0.11066123300E+00 -0.50447056077E-01  0.10119147598E-01  0.12203881442E+00  0.51100000000E-03 0. -1.
</event>
<event>
 8    1  0.1135368E+005  0.1043930E+01  0.7957747E-01            NaN
         13   -1    0    0    0    0  0.00000000000E+00  0.00000000000E+00  0.74505805969E-08  0.10566000000E+00  0.10566000000E+00 0. -1.
     999900   -1    0    0    0    0 -0.00000000000E+00 -0.00000000000E+00 -0.74505805969E-08  0.93827000000E+00  0.93827000000E+00 0. -1.
     999902    2    1    2    0    0  0.78642698622E-02  0.96110468308E-02  0.19238645890E-01  0.10210314311E+01  0.10207746269E+01 0.  0.
     999903    2    3    3    0    0 -0.11633742332E+00  0.19378348855E-01  0.54869354655E-01  0.13154224726E+00  0.19565282110E-01 0.  0.
         14    1    1    2    0    0 -0.78642698622E-02 -0.96110468308E-02 -0.19238645890E-01  0.22898568893E-01  0.00000000000E+00 0.  1.
     999901    1    3    3    0    0  0.12420169318E+00 -0.97673020246E-02 -0.35630708765E-01  0.88948918385E+00  0.88000000000E+00 0. -1.
        -11    1    4    4    0    0 -0.72178066464E-01  0.18938101846E-01  0.27197562474E-01  0.79424766324E-01  0.51100000000E-03 0. -1.
         11    1    4    4    0    0 -0.44159356857E-01  0.44024700955E-03  0.27671792180E-01  0.52117480934E-01  0.51100000000E-03 0.  1.
</event>
<event>
 8    1  0.1135368E+005  0.1043930E+01  0.7957747E-01            NaN
         13   -1    0    0    0    0  0.00000000000E+00  0.00000000000E+00  0.74505805969E-08  0.10566000000E+00  0.10566000000E+00 0.  1.
     999900   -1    0    0    0    0 -0.00000000000E+00 -0.00000000000E+00 -0.74505805969E-08  0.93827000000E+00  0.93827000000E+00 0. -1.
     999902    2    1    2    0    0  0.27251848911E-02  0.14013411480E-01 -0.20845992213E-01  0.10186642579E+01  0.10183508789E+01 0.  0.
     999903    2    3    3    0    0 -0.14865928873E-01 -0.10838715116E+00  0.59979112859E-01  0.12635038785E+00  0.19953850586E-01 0.  0.
         14    1    1    2    0    0 -0.27251848911E-02 -0.14013411480E-01  0.20845992213E-01  0.25265742130E-01  0.00000000000E+00 0.  1.
     999901    1    3    3    0    0  0.17591113764E-01  0.12240056264E+00 -0.80825105072E-01  0.89231387002E+00  0.88000000000E+00 0. -1.
        -11    1    4    4    0    0  0.34052470015E-02 -0.21111829391E-01  0.64227912166E-02  0.22334243112E-01  0.51100000000E-03 0.  1.
         11    1    4    4    0    0 -0.18271175875E-01 -0.87275321768E-01  0.53556321642E-01  0.10401614474E+00  0.51100000000E-03 0. -1.
</event>
<event>
 8    1  0.1135368E+005  0.1043930E+01  0.7957747E-01            NaN
         13   -1    0    0    0    0  0.00000000000E+00  0.00000000000E+00  0.74505805969E-08  0.10566000000E+00  0.10566000000E+00 0. -1.
     999900   -1    0    0    0    0 -0.00000000000E+00 -0.00000000000E+00 -0.74505805969E-08  0.93827000000E+00  0.93827000000E+00 0.  1.
     999902    2    1    2    0    0 -0.23303395612E-01 -0.51319027439E-02 -0.26717163815E-02  0.10199191120E+01  0.10196364413E+01 0.  0.
     999903    2    3    3    0    0 -0.11513989367E+00  0.29074596716E-01 -0.56137564665E-01  0.13286633800E+00  0.19987754173E-01 0.  0.
         14    1    1    2    0    0  0.23303395612E-01  0.51319027439E-02  0.26717163815E-02  0.24010887973E-01  0.00000000000E+00 0. -1.
     999901    1    3    3    0    0  0.91836498061E-01 -0.34206499460E-01  0.53465848283E-01  0.88705277403E+00  0.88000000000E+00 0. -1.
        -11    1    4    4    0    0 -0.34039019317E-01  0.17000819274E-01 -0.22743803853E-01  0.44330851861E-01  0.51100000000E-03 0. -1.
         11    1    4    4    0    0 -0.81100874357E-01  0.12073777442E-01 -0.33393760812E-01  0.88535486136E-01  0.51100000000E-03 0.  1.
</event>
<event>
 8    1  0.1135368E+005  0.1043930E+01  0.7957747E-01            NaN
         13   -1    0    0    0    0  0.00000000000E+00  0.00000000000E+00  0.74505805969E-08  0.10566000000E+00  0.10566000000E+00 0. -1.
     999900   -1    0    0    0    0 -0.00000000000E+00 -0.00000000000E+00 -0.74505805969E-08  0.93827000000E+00  0.93827000000E+00 0. -1.
     999902    2    1    2    0    0  0.40352366432E-02 -0.20304430439E-01 -0.10913171829E-01  0.10205280695E+01  0.10202597171E+01 0.  0.
     999903    2    3    3    0    0  0.84836163372E-01  0.73327681344E-01  0.60707453093E-01  0.12899833025E+00  0.19520524542E-01 0.  0.
         14    1    1    2    0    0 -0.40352366432E-02  0.20304430439E-01  0.10913171829E-01  0.23401930467E-01  0.00000000000E+00 0. -1.
     999901    1    3    3    0    0 -0.80800926729E-01 -0.93632111783E-01 -0.71620624923E-01  0.89152973929E+00  0.88000000000E+00 0. -1.
        -11    1    4    4    0    0  0.27201359619E-01  0.17263256537E-01  0.92001143146E-02  0.33508763269E-01  0.51100000000E-03 0.  1.
         11    1    4    4    0    0  0.57634803753E-01  0.56064424808E-01  0.51507338779E-01  0.95489566978E-01  0.51100000000E-03 0. -1.
</event>
<event>
 8    1  0.1135368E+005  0.1043930E+01  0.7957747E-01            NaN
         13   -1    0    0    0    0  0.00000000000E+00  0.00000000000E+00  0.74505805969E-08  0.10566000000E+00  0.10566000000E+00 0. -1.
     999900   -1    0    0    0    0 -0.00000000000E+00 -0.00000000000E+00 -0.74505805969E-08  0.93827000000E+00  0.93827000000E+00 0. -1.
     999902    2    1    2    0    0  0.95841829513E-02  0.29461826469E-02 -0.22167219606E-01  0.10196005491E+01  0.10193102362E+01 0.  0.
     999903    2    3    3    0    0  0.12865534105E+00  0.24164926250E-02 -0.19040792835E-01  0.13157577705E+00  0.19788812439E-01 0.  0.
         14    1    1    2    0    0 -0.95841829513E-02 -0.29461826469E-02  0.22167219606E-01  0.24329450879E-01  0.00000000000E+00 0. -1.
     999901    1    3    3    0    0 -0.11907115810E+00  0.52969002188E-03 -0.31264267706E-02  0.88802477207E+00  0.88000000000E+00 0. -1.
        -11    1    4    4    0    0  0.52158388199E-01 -0.63019433569E-02 -0.12593238403E-02  0.52555294377E-01  0.51100000000E-03 0. -1.
         11    1    4    4    0    0  0.76496952852E-01  0.87184359819E-02 -0.17781468995E-01  0.79020482675E-01  0.51100000000E-03 0.  1.
</event>
<event>
 8    1  0.1135368E+005  0.1043930E+01  0.7957747E-01            NaN
         13   -1    0    0    0    0  0.00000000000E+00  0.00000000000E+00  0.74505805969E-08  0.10566000000E+00  0.10566000000E+00 0. -1.
     999900   -1    0    0    0    0 -0.00000000000E+00 -0.00000000000E+00 -0.74505805969E-08  0.93827000000E+00  0.93827000000E+00 0.  1.
     999902    2    1    2    0    0 -0.85515890761E-02  0.18252476861E-01 -0.14066342290E-01  0.10193506474E+01  0.10190542664E+01 0.  0.
     999903    2    3    3    0    0 -0.85838673861E-01  0.91964724054E-01  0.33181229162E-01  0.13163497118E+00  0.20024566594E-01 0.  0.
         14    1    1    2    0    0  0.85515890761E-02 -0.18252476861E-01  0.14066342290E-01  0.24579352569E-01  0.00000000000E+00 0. -1.
     999901    1    3    3    0    0  0.77287084785E-01 -0.73712247193E-01 -0.47247571451E-01  0.88771567625E+00  0.88000000000E+00 0.  1.
        -11    1    4    4    0    0 -0.68200200585E-01  0.64114477961E-01  0.17929342041E-01  0.95308216178E-01  0.51100000000E-03 0. -1.
         11    1    4    4    0    0 -0.17638473277E-01  0.27850246093E-01  0.15251887120E-01  0.36326754998E-01  0.51100000000E-03 0.  1.
</event>
<event>
 8    1  0.1135368E+005  0.1043930E+01  0.7957747E-01            NaN
         13   -1    0    0    0    0  0.00000000000E+00  0.00000000000E+00  0.74505805969E-08  0.10566000000E+00  0.10566000000E+00 0.  1.
     999900   -1    0    0    0    0 -0.00000000000E+00 -0.00000000000E+00 -0.74505805969E-08  0.93827000000E+00  0.93827000000E+00 0. -1.
     999902    2    1    2    0    0 -0.22929230972E-01 -0.24246815941E-03  0.56862692963E-02  0.10203049692E+01  0.10200314152E+01 0.  0.
     999903    2    3    3    0    0 -0.10464452752E+00  0.48534393059E-03  0.80797843610E-01  0.13333277794E+00  0.17280782483E-01 0.  0.
         14    1    1    2    0    0  0.22929230972E-01  0.24246815941E-03 -0.56862692963E-02  0.23625030842E-01  0.00000000000E+00 0. -1.
     999901    1    3    3    0    0  0.81715296544E-01 -0.72781209000E-03 -0.75111574314E-01  0.88697219122E+00  0.88000000000E+00 0. -1.
        -11    1    4    4    0    0 -0.80893311517E-01  0.68036682461E-02  0.57659744779E-01  0.99573716606E-01  0.51100000000E-03 0. -1.
         11    1    4    4    0    0 -0.23751215999E-01 -0.63183243155E-02  0.23138098831E-01  0.33759061333E-01  0.51100000000E-03 0.  1.
</event>
<event>
 8    1  0.1135368E+005  0.1043930E+01  0.7957747E-01            NaN
         13   -1    0    0    0    0  0.00000000000E+00  0.00000000000E+00  0.74505805969E-08  0.10566000000E+00  0.10566000000E+00 0.  1.
     999900   -1    0    0    0    0 -0.00000000000E+00 -0.00000000000E+00 -0.74505805969E-08  0.93827000000E+00  0.93827000000E+00 0. -1.
     999902    2    1    2    0    0 -0.21721132104E-01 -0.67670332533E-02 -0.99266420097E-02  0.10191078619E+01  0.10188055239E+01 0.  0.
     999903    2    3    3    0    0  0.49130781522E-01  0.10951475668E+00  0.38128524876E-01  0.12733953581E+00  0.18821725390E-01 0.  0.
         14    1    1    2    0    0  0.21721132104E-01  0.67670332533E-02  0.99266420097E-02  0.24822138113E-01  0.00000000000E+00 0.  1.
     999901    1    3    3    0    0 -0.70851913626E-01 -0.11628178993E+00 -0.48055166886E-01  0.89176832608E+00  0.88000000000E+00 0.  1.
        -11    1    4    4    0    0  0.11686216292E-01  0.10941265184E-01  0.40272576519E-02  0.16515412809E-01  0.51100000000E-03 0.  1.
         11    1    4    4    0    0  0.37444565230E-01  0.98573491496E-01  0.34101267224E-01  0.11082412300E+00  0.51100000000E-03 0. -1.
</event>
<event>
 8    1  0.1135368E+005  0.1043930E+01  0.7957747E-01            NaN
         13   -1    0    0    0    0  0.00000000000E+00  0.00000000000E+00  0.74505805969E-08  0.10566000000E+00  0.10566000000E+00 0.  1.
     999900   -1    0    0    0    0 -0.00000000000E+00 -0.00000000000E+00 -0.74505805969E-08  0.93827000000E+00  0.93827000000E+00 0. -1.
     999902    2    1    2    0    0  0.13001193236E-01 -0.90679397255E-02 -0.18015323910E-01  0.10199339492E+01  0.10196516319E+01 0.  0.
     999903    2    3    3    0    0  0.34073218540E-01 -0.10500012754E-01  0.12204147189E+00  0.12860797793E+00  0.19356049122E-01 0.  0.
         14    1    1    2    0    0 -0.13001193236E-01  0.90679397255E-02  0.18015323910E-01  0.23996050759E-01  0.00000000000E+00 0.  1.
     999901    1    3    3    0    0 -0.21072025303E-01  0.14320730286E-02 -0.14005679580E+00  0.89132597131E+00  0.88000000000E+00 0. -1.
        -11    1    4    4    0    0  0.10885815325E-01  0.21280551167E-02  0.17054080240E-01  0.20350242448E-01  0.51100000000E-03 0.  1.
         11    1    4    4    0    0  0.23187403215E-01 -0.12628067871E-01  0.10498739165E+00  0.10825773548E+00  0.51100000000E-03 0. -1.
</event>
<event>
 8    1  0.1135368E+005  0.1043930E+01  0.7957747E-01            NaN
         13   -1    0    0    0    0  0.00000000000E+00  0.00000000000E+00  0.74505805969E-08  0.10566000000E+00  0.10566000000E+00 0. -1.
     999900   -1    0    0    0    0 -0.00000000000E+00 -0.00000000000E+00 -0.74505805969E-08  0.93827000000E+00  0.93827000000E+00 0.  1.
     999902    2    1    2    0    0  0.22837272123E-01 -0.56037219770E-02 -0.25911599347E-02  0.10202729332E+01  0.10199986282E+01 0.  0.
     999903    2    3    3    0    0  0.61082688056E-01 -0.12790909561E-01  0.11418933155E+00  0.13170551841E+00  0.20308569406E-01 0.  0.
         14    1    1    2    0    0 -0.22837272123E-01  0.56037219770E-02  0.25911599347E-02  0.23657066763E-01  0.00000000000E+00 0.  1.
     999901    1    3    3    0    0 -0.38245415933E-01  0.71871875839E-02 -0.11678049149E+00  0.88856741483E+00  0.88000000000E+00 0.  1.
        -11    1    4    4    0    0  0.32726385713E-01 -0.11749948872E-01  0.44626182185E-01  0.56575921360E-01  0.51100000000E-03 0.  1.
         11    1    4    4    0    0  0.28356302342E-01 -0.10409606886E-02  0.69563149367E-01  0.75129597047E-01  0.51100000000E-03 0. -1.
</event>
<event>
 8    1  0.1135368E+005  0.1043930E+01  0.7957747E-01            NaN
         13   -1    0    0    0    0  0.00000000000E+00  0.00000000000E+00  0.74505805969E-08  0.10566000000E+00  0.10566000000E+00 0. -1.
     999900   -1    0    0    0    0 -0.00000000000E+00 -0.00000000000E+00 -0.74505805969E-08  0.93827000000E+00  0.93827000000E+00 0. -1.
     999902    2    1    2    0    0  0.96068152216E-02  0.17596242179E-01 -0.12126526770E-01  0.10204998637E+01  0.10202308564E+01 0.  0.
     999903    2    3    3    0    0  0.30440515757E-02 -0.12677035332E+00 -0.10210890950E-01  0.12871039667E+00  0.19547766803E-01 0.  0.
         14    1    1    2    0    0 -0.96068152216E-02 -0.17596242179E-01  0.12126526770E-01  0.23430136342E-01  0.00000000000E+00 0.  1.
     999901    1    3    3    0    0  0.65627636459E-02  0.14436659550E+00 -0.19156358201E-02  0.89178946698E+00  0.88000000000E+00 0. -1.
        -11    1    4    4    0    0 -0.14994706643E-03 -0.59544825883E-01  0.48438278570E-02  0.59743891427E-01  0.51100000000E-03 0.  1.
         11    1    4    4    0    0  0.31939986421E-02 -0.67225527438E-01 -0.15054718807E-01  0.68966505247E-01  0.51100000000E-03 0. -1.
</event>
<event>
 8    1  0.1135368E+005  0.1043930E+01  0.7957747E-01            NaN
         13   -1    0    0    0    0  0.00000000000E+00  0.00000000000E+00  0.74505805969E-08  0.10566000000E+00  0.10566000000E+00 0.  1.
     999900   -1    0    0    0    0 -0.00000000000E+00 -0.00000000000E+00 -0.74505805969E-08  0.93827000000E+00  0.93827000000E+00 0.  1.
     999902    2    1    2    0    0 -0.21585933614E-01  0.52330811154E-02  0.82491251747E-02  0.10202364200E+01  0.10199612576E+01 0.  0.
     999903    2    3    3    0    0  0.83360262300E-01 -0.92861259399E-01 -0.20853423101E-01  0.12811357979E+00  0.20151358355E-01 0.  0.
         14    1    1    2    0    0  0.21585933614E-01 -0.52330811154E-02 -0.82491251747E-02  0.23693580018E-01  0.00000000000E+00 0. -1.
     999901    1    3    3    0    0 -0.10494619591E+00  0.98094340514E-01  0.29102548276E-01  0.89212284019E+00  0.88000000000E+00 0. -1.
        -11    1    4    4    0    0  0.19255938937E-01 -0.10930001384E-01 -0.66067272519E-02  0.23112033242E-01  0.51100000000E-03 0. -1.
         11    1    4    4    0    0  0.64104323362E-01 -0.81931258014E-01 -0.14246695849E-01  0.10500154655E+00  0.51100000000E-03 0.  1.
</event>
<event>
 8    1  0.1135368E+005  0.1043930E+01  0.7957747E-01            NaN
         13   -1    0    0    0    0  0.00000000000E+00  0.00000000000E+00  0.74505805969E-08  0.10566000000E+00  0.10566000000E+00 0.  1.
     999900   -1    0    0    0    0 -0.00000000000E+00 -0.00000000000E+00 -0.74505805969E-08  0.93827000000E+00  0.93827000000E+00 0.  1.
     999902    2    1    2    0    0 -0.14045294743E-01 -0.32674079251E-02 -0.17204298589E-01  0.10214815223E+01  0.10212348243E+01 0.  0.
     999903    2    3    3    0    0  0.65988898688E-01  0.81139951281E-01 -0.78319136799E-01  0.13172588294E+00  0.16721082612E-01 0.  0.
         14    1    1    2    0    0  0.14045294743E-01  0.32674079251E-02  0.17204298589E-01  0.22448477652E-01  0.00000000000E+00 0.  1.
     999901    1    3    3    0    0 -0.80034193431E-01 -0.84407359206E-01  0.61114838210E-01  0.88975563941E+00  0.88000000000E+00 0. -1.
        -11    1    4    4    0    0  0.17909888828E-01  0.26441988180E-01 -0.33123772944E-01  0.46015087871E-01  0.51100000000E-03 0. -1.
         11    1    4    4    0    0  0.48079009860E-01  0.54697963101E-01 -0.45195363855E-01  0.85710795070E-01  0.51100000000E-03 0.  1.
</event>
<event>
 8    1  0.1135368E+005  0.1043930E+01  0.7957747E-01            NaN
         13   -1    0    0    0    0  0.00000000000E+00  0.00000000000E+00  0.74505805969E-08  0.10566000000E+00  0.10566000000E+00 0. -1.
     999900   -1    0    0    0    0 -0.00000000000E+00 -0.00000000000E+00 -0.74505805969E-08  0.93827000000E+00  0.93827000000E+00 0.  1.
     999902    2    1    2    0    0  0.22630526880E-02 -0.27380708005E-01 -0.72577572508E-02  0.10155134622E+01  0.10151158024E+01 0.  0.
     999903    2    3    3    0    0  0.10019202007E+00 -0.71659707285E-02  0.73615156987E-01  0.12616586623E+00  0.20219852661E-01 0.  0.
         14    1    1    2    0    0 -0.22630526880E-02  0.27380708005E-01  0.72577572508E-02  0.28416537766E-01  0.00000000000E+00 0. -1.
     999901    1    3    3    0    0 -0.97928967383E-01 -0.20214737276E-01 -0.80872914238E-01  0.88934759600E+00  0.88000000000E+00 0.  1.
        -11    1    4    4    0    0  0.58468688807E-01 -0.85346824185E-02  0.53962027310E-01  0.80022433650E-01  0.51100000000E-03 0. -1.
         11    1    4    4    0    0  0.41723331264E-01  0.13687116900E-02  0.19653129677E-01  0.46143432583E-01  0.51100000000E-03 0.  1.
</event>
<event>
 8    1  0.1135368E+005  0.1043930E+01  0.7957747E-01            NaN
         13   -1    0    0    0    0  0.00000000000E+00  0.00000000000E+00  0.74505805969E-08  0.10566000000E+00  0.10566000000E+00 0. -1.
     999900   -1    0    0    0    0 -0.00000000000E+00 -0.00000000000E+00 -0.74505805969E-08  0.93827000000E+00  0.93827000000E+00 0. -1.
     999902    2    1    2    0    0  0.22867638890E-01  0.45083100164E-02  0.48793259243E-02  0.10201169450E+01  0.10198389676E+01 0.  0.
     999903    2    3    3    0    0  0.10360720005E+00  0.77454361330E-01  0.24919693103E-01  0.13318875203E+00  0.19611796796E-01 0.  0.
         14    1    1    2    0    0 -0.22867638890E-01 -0.45083100164E-02 -0.48793259243E-02  0.23813055014E-01  0.00000000000E+00 0. -1.
     999901    1    3    3    0    0 -0.80739561156E-01 -0.72946051314E-01 -0.20040367179E-01  0.88692819295E+00  0.88000000000E+00 0. -1.
        -11    1    4    4    0    0  0.31579416424E-01  0.12913276500E-01  0.65932452763E-02  0.34752615095E-01  0.51100000000E-03 0.  1.
         11    1    4    4    0    0  0.72027783621E-01  0.64541084830E-01  0.18326447827E-01  0.98436136939E-01  0.51100000000E-03 0. -1.
</event>
<event>
 8    1  0.1135368E+005  0.1043930E+01  0.7957747E-01            NaN
         13   -1    0    0    0    0  0.00000000000E+00  0.00000000000E+00  0.74505805969E-08  0.10566000000E+00  0.10566000000E+00 0.  1.
     999900   -1    0    0    0    0 -0.00000000000E+00 -0.00000000000E+00 -0.74505805969E-08  0.93827000000E+00  0.93827000000E+00 0. -1.
     999902    2    1    2    0    0 -0.11888694237E-01 -0.20037911297E-01 -0.73764984725E-02  0.10194908578E+01  0.10191978893E+01 0.  0.
     999903    2    3    3    0    0  0.10971650342E+00 -0.46477794544E-01  0.45734368559E-01  0.12914954367E+00  0.19750333030E-01 0.  0.
         14    1    1    2    0    0  0.11888694237E-01  0.20037911297E-01  0.73764984725E-02  0.24439142160E-01  0.00000000000E+00 0.  1.
     999901    1    3    3    0    0 -0.12160519765E+00  0.26439883247E-01 -0.53110867032E-01  0.89034131417E+00  0.88000000000E+00 0. -1.
        -11    1    4    4    0    0  0.79230020490E-01 -0.29885433536E-01  0.23334530645E-01  0.87836761814E-01  0.51100000000E-03 0. -1.
         11    1    4    4    0    0  0.30486482927E-01 -0.16592361007E-01  0.22399837915E-01  0.41312781856E-01  0.51100000000E-03 0.  1.
</event>
<event>
 8    1  0.1135368E+005  0.1043930E+01  0.7957747E-01            NaN
         13   -1    0    0    0    0  0.00000000000E+00  0.00000000000E+00  0.74505805969E-08  0.10566000000E+00  0.10566000000E+00 0. -1.
     999900   -1    0    0    0    0 -0.00000000000E+00 -0.00000000000E+00 -0.74505805969E-08  0.93827000000E+00  0.93827000000E+00 0. -1.
     999902    2    1    2    0    0 -0.18764893064E-01  0.61790326016E-02  0.10876574537E-01  0.10213778043E+01  0.10211287958E+01 0.  0.
     999903    2    3    3    0    0  0.11801741545E+00  0.48305830706E-01 -0.11311448612E-01  0.12953904345E+00  0.19769959025E-01 0.  0.
         14    1    1    2    0    0  0.18764893064E-01 -0.61790326016E-02 -0.10876574537E-01  0.22552195663E-01  0.00000000000E+00 0.  1.
     999901    1    3    3    0    0 -0.13678230851E+00 -0.42126798104E-01  0.22188023149E-01  0.89183876088E+00  0.88000000000E+00 0.  1.
        -11    1    4    4    0    0  0.22857283832E-01  0.14827528685E-01 -0.87760566147E-02  0.28628505405E-01  0.51100000000E-03 0. -1.
         11    1    4    4    0    0  0.95160131618E-01  0.33478302021E-01 -0.25353919973E-02  0.10091053805E+00  0.51100000000E-03 0.  1.
</event>
<event>
 8    1  0.1135368E+005  0.1043930E+01  0.7957747E-01            NaN
         13   -1    0    0    0    0  0.00000000000E+00  0.00000000000E+00  0.74505805969E-08  0.10566000000E+00  0.10566000000E+00 0.  1.
     999900   -1    0    0    0    0 -0.00000000000E+00 -0.00000000000E+00 -0.74505805969E-08  0.93827000000E+00  0.93827000000E+00 0. -1.
     999902    2    1    2    0    0  0.49109726235E-02 -0.13315282161E-01 -0.19012885996E-01  0.10202043973E+01  0.10199284818E+01 0.  0.
     999903    2    3    3    0    0  0.11910887003E+00  0.39676158416E-01  0.27140462004E-01  0.13004745376E+00  0.20362099239E-01 0.  0.
         14    1    1    2    0    0 -0.49109726235E-02  0.13315282161E-01  0.19012885996E-01  0.23725602732E-01  0.00000000000E+00 0.  1.
     999901    1    3    3    0    0 -0.11419789740E+00 -0.52991440577E-01 -0.46153348000E-01  0.89015694351E+00  0.88000000000E+00 0.  1.
        -11    1    4    4    0    0  0.80351721220E-01  0.36210123736E-01  0.21561524010E-01  0.90734406940E-01  0.51100000000E-03 0. -1.
         11    1    4    4    0    0  0.38757148807E-01  0.34660346805E-02  0.55789379939E-02  0.39313046819E-01  0.51100000000E-03 0.  1.
</event>
<event>
 8    1  0.1135368E+005  0.1043930E+01  0.7957747E-01            NaN
         13   -1    0    0    0    0  0.00000000000E+00  0.00000000000E+00  0.74505805969E-08  0.10566000000E+00  0.10566000000E+00 0. -1.
     999900   -1    0    0    0    0 -0.00000000000E+00 -0.00000000000E+00 -0.74505805969E-08  0.93827000000E+00  0.93827000000E+00 0.  1.
     999902    2    1    2    0    0  0.19768560025E-01 -0.35549090421E-02  0.89850574337E-02  0.10219262594E+01  0.10216893437E+01 0.  0.
     999903    2    3    3    0    0 -0.31802781937E-01  0.11486990922E+00  0.51826676286E-01  0.13146601592E+00  0.19768560479E-01 0.  0.
         14    1    1    2    0    0 -0.19768560025E-01  0.35549090421E-02 -0.89850574337E-02  0.22003740611E-01  0.00000000000E+00 0.  1.
     999901    1    3    3    0    0  0.51571341962E-01 -0.11842481826E+00 -0.42841618853E-01  0.89046024347E+00  0.88000000000E+00 0.  1.
        -11    1    4    4    0    0 -0.25723562752E-01  0.74671063971E-01  0.25357360511E-01  0.82950143631E-01  0.51100000000E-03 0.  1.
         11    1    4    4    0    0 -0.60792191851E-02  0.40198845251E-01  0.26469315776E-01  0.48515872290E-01  0.51100000000E-03 0. -1.
</event>
<event>
 8    1  0.1135368E+005  0.1043930E+01  0.7957747E-01            NaN
         13   -1    0    0    0    0  0.00000000000E+00  0.00000000000E+00  0.74505805969E-08  0.10566000000E+00  0.10566000000E+00 0.  1.
     999900   -1    0    0    0    0 -0.00000000000E+00 -0.00000000000E+00 -0.74505805969E-08  0.93827000000E+00  0.93827000000E+00 0. -1.
     999902    2    1    2    0    0  0.13747988888E-01 -0.10024087272E-01 -0.16849458632E-01  0.10199843578E+01  0.10197032394E+01 0.  0.
     999903    2    3    3    0    0  0.20318367312E-01 -0.35880735284E-01 -0.12483912176E+00  0.13298181921E+00  0.19977354814E-01 0.  0.
         14    1    1    2    0    0 -0.13747988888E-01  0.10024087272E-01  0.16849458632E-01  0.23945642198E-01  0.00000000000E+00 0.  1.
     999901    1    3    3    0    0 -0.65703784243E-02  0.25856648012E-01  0.10798966313E+00  0.88700253859E+00  0.88000000000E+00 0.  1.
        -11    1    4    4    0    0 -0.34076493451E-02 -0.48186452713E-02 -0.26590405431E-01  0.27242286950E-01  0.51100000000E-03 0. -1.
         11    1    4    4    0    0  0.23726016657E-01 -0.31062090013E-01 -0.98248716328E-01  0.10573953226E+00  0.51100000000E-03 0.  1.
</event>
<event>
 8    1  0.1135368E+005  0.1043930E+01  0.7957747E-01            NaN
         13   -1    0    0    0    0  0.00000000000E+00  0.00000000000E+00  0.74505805969E-08  0.10566000000E+00  0.10566000000E+00 0.  1.
     999900   -1    0    0    0    0 -0.00000000000E+00 -0.00000000000E+00 -0.74505805969E-08  0.93827000000E+00  0.93827000000E+00 0.  1.
     999902    2    1    2    0    0 -0.18807749334E-01  0.14314080447E-02 -0.12529768327E-01  0.10212854541E+01  0.10210343791E+01 0.  0.
     999903    2    3    3    0    0 -0.10619529498E+00  0.14555989106E-01  0.75376018871E-01  0.13250186674E+00  0.19643904241E-01 0.  0.
         14    1    1    2    0    0  0.18807749334E-01 -0.14314080447E-02  0.12529768327E-01  0.22644545885E-01  0.00000000000E+00 0.  1.
     999901    1    3    3    0    0  0.87387545649E-01 -0.13124581062E-01 -0.87905787197E-01  0.88878358737E+00  0.88000000000E+00 0.  1.
        -11    1    4    4    0    0 -0.82405224685E-01  0.10630074978E-01  0.47762010426E-01  0.95838876821E-01  0.51100000000E-03 0.  1.
         11    1    4    4    0    0 -0.23790070298E-01  0.39259141280E-02  0.27614008444E-01  0.36662989920E-01  0.51100000000E-03 0. -1.
</event>
<event>
 8    1  0.1135368E+005  0.1043930E+01  0.7957747E-01            NaN
         13   -1    0    0    0    0  0.00000000000E+00  0.00000000000E+00  0.74505805969E-08  0.10566000000E+00  0.10566000000E+00 0. -1.
     999900   -1    0    0    0    0 -0.00000000000E+00 -0.00000000000E+00 -0.74505805969E-08  0.93827000000E+00  0.93827000000E+00 0. -1.
     999902    2    1    2    0    0 -0.18999123137E-01  0.16625267994E-01  0.56833117452E-03  0.10186774909E+01  0.10183644442E+01 0.  0.
     999903    2    3    3    0    0  0.11181207548E+00  0.43854564921E-01  0.38358385784E-01  0.12778967948E+00  0.20824824960E-01 0.  0.
         14    1    1    2    0    0  0.18999123137E-01 -0.16625267994E-01 -0.56833117452E-03  0.25252509107E-01  0.00000000000E+00 0.  1.
     999901    1    3    3    0    0 -0.13081119862E+00 -0.27229296927E-01 -0.37790054609E-01  0.89088781141E+00  0.88000000000E+00 0.  1.
        -11    1    4    4    0    0  0.66446564420E-01  0.36578654792E-01  0.26357415667E-01  0.80300176782E-01  0.51100000000E-03 0.  1.
         11    1    4    4    0    0  0.45365511060E-01  0.72759101293E-02  0.12000970117E-01  0.47489502700E-01  0.51100000000E-03 0. -1.
</event>
<event>
 8    1  0.1135368E+005  0.1043930E+01  0.7957747E-01            NaN
         13   -1    0    0    0    0  0.00000000000E+00  0.00000000000E+00  0.74505805969E-08  0.10566000000E+00  0.10566000000E+00 0. -1.
     999900   -1    0    0    0    0 -0.00000000000E+00 -0.00000000000E+00 -0.74505805969E-08  0.93827000000E+00  0.93827000000E+00 0.  1.
     999902    2    1    2    0    0  0.53183337980E-02 -0.22661349647E-01  0.31762217623E-02  0.10204372388E+01  0.10201667749E+01 0.  0.
     999903    2    3    3    0    0  0.12541096171E+00  0.10171986260E-01 -0.30647409317E-01  0.13103052353E+00  0.19958852113E-01 0.  0.
         14    1    1    2    0    0 -0.53183337980E-02  0.22661349647E-01 -0.31762217623E-02  0.23492761160E-01  0.00000000000E+00 0.  1.
     999901    1    3    3    0    0 -0.12009262791E+00 -0.32833335908E-01  0.33823631079E-01  0.88940671531E+00  0.88000000000E+00 0.  1.
        -11    1    4    4    0    0  0.82534934566E-01  0.68878771478E-02 -0.10320679552E-01  0.83463979193E-01  0.51100000000E-03 0.  1.
         11    1    4    4    0    0  0.42876027140E-01  0.32841091126E-02 -0.20326729765E-01  0.47566544334E-01  0.51100000000E-03 0. -1.
</event>
<event>
 8    1  0.1135368E+005  0.1043930E+01  0.7957747E-01            NaN
         13   -1    0    0    0    0  0.00000000000E+00  0.00000000000E+00  0.74505805969E-08  0.10566000000E+00  0.10566000000E+00 0. -1.
     999900   -1    0    0    0    0 -0.00000000000E+00 -0.00000000000E+00 -0.74505805969E-08  0.93827000000E+00  0.93827000000E+00 0.  1.
     999902    2    1    2    0    0  0.11985975868E-01 -0.22723070452E-03  0.20648758650E-01  0.10200535161E+01  0.10197740383E+01 0.  0.
     999903    2    3    3    0    0 -0.67771148607E-01  0.76360199623E-01  0.79890933438E-01  0.13115730803E+00  0.19896470383E-01 0.  0.
         14    1    1    2    0    0 -0.11985975868E-01  0.22723070452E-03 -0.20648758650E-01  0.23876483935E-01  0.00000000000E+00 0. -1.
     999901    1    3    3    0    0  0.79757124475E-01 -0.76587430328E-01 -0.59242174788E-01  0.88889620804E+00  0.88000000000E+00 0.  1.
        -11    1    4    4    0    0 -0.46153288099E-02  0.15024674814E-01  0.15523292949E-01  0.22096964911E-01  0.51100000000E-03 0. -1.
         11    1    4    4    0    0 -0.63155819797E-01  0.61335524809E-01  0.64367640489E-01  0.10906034312E+00  0.51100000000E-03 0.  1.
</event>
<event>
 8    1  0.1135368E+005  0.1043930E+01  0.7957747E-01            NaN
         13   -1    0    0    0    0  0.00000000000E+00  0.00000000000E+00  0.74505805969E-08  0.10566000000E+00  0.10566000000E+00 0.  1.
     999900   -1    0    0    0    0 -0.00000000000E+00 -0.00000000000E+00 -0.74505805969E-08  0.93827000000E+00  0.93827000000E+00 0.  1.
     999902    2    1    2    0    0  0.20673875618E-01 -0.84360057492E-02 -0.66491568737E-02  0.10206322187E+01  0.10203662770E+01 0.  0.
     999903    2    3    3    0    0  0.61614444225E-01  0.90595837593E-01  0.63861513293E-01  0.13133182471E+00  0.34143956646E-01 0.  0.
         14    1    1    2    0    0 -0.20673875618E-01  0.84360057492E-02  0.66491568737E-02  0.23297781294E-01  0.00000000000E+00 0.  1.
     999901    1    3    3    0    0 -0.40940568606E-01 -0.99031843343E-01 -0.70510670167E-01  0.88930039400E+00  0.88000000000E+00 0.  1.
        -11    1    4    4    0    0  0.35041383518E-03  0.16963217807E-01  0.19249496763E-01  0.25664718873E-01  0.51100000000E-03 0.  1.
         11    1    4    4    0    0  0.61264030389E-01  0.73632619786E-01  0.44612016530E-01  0.10566710584E+00  0.51100000000E-03 0. -1.
</event>
<event>
 8    1  0.1135368E+005  0.1043930E+01  0.7957747E-01            NaN
         13   -1    0    0    0    0  0.00000000000E+00  0.00000000000E+00  0.74505805969E-08  0.10566000000E+00  0.10566000000E+00 0.  1.
     999900   -1    0    0    0    0 -0.00000000000E+00 -0.00000000000E+00 -0.74505805969E-08  0.93827000000E+00  0.93827000000E+00 0.  1.
     999902    2    1    2    0    0 -0.18287042148E-01 -0.74024571377E-02 -0.48927818611E-02  0.10236038691E+01  0.10234020370E+01 0.  0.
     999903    2    3    3    0    0  0.83012778413E-01 -0.50042500007E-01  0.87317674248E-01  0.13198590434E+00  0.20013233670E-01 0.  0.
         14    1    1    2    0    0  0.18287042148E-01  0.74024571377E-02  0.48927818611E-02  0.20326130879E-01  0.00000000000E+00 0. -1.
     999901    1    3    3    0    0 -0.10129982056E+00  0.42640042870E-01 -0.92210456109E-01  0.89161796478E+00  0.88000000000E+00 0.  1.
        -11    1    4    4    0    0  0.15902968562E-01 -0.62818664992E-02  0.68287982493E-02  0.18419008180E-01  0.51100000000E-03 0. -1.
         11    1    4    4    0    0  0.67109809851E-01 -0.43760633508E-01  0.80488875999E-01  0.11356689616E+00  0.51100000000E-03 0.  1.
</event>
<event>
 8    1  0.1135368E+005  0.1043930E+01  0.7957747E-01            NaN
         13   -1    0    0    0    0  0.00000000000E+00  0.00000000000E+00  0.74505805969E-08  0.10566000000E+00  0.10566000000E+00 0. -1.
     999900   -1    0    0    0    0 -0.00000000000E+00 -0.00000000000E+00 -0.74505805969E-08  0.93827000000E+00  0.93827000000E+00 0. -1.
     999902    2    1    2    0    0 -0.18340665042E-01  0.81495837555E-02  0.10573948453E-01  0.10212451131E+01  0.10209931326E+01 0.  0.
     999903    2    3    3    0    0 -0.60055837338E-01 -0.11327760602E-01  0.11686438656E+00  0.13365445303E+00  0.21707284744E-01 0.  0.
         14    1    1    2    0    0  0.18340665042E-01 -0.81495837555E-02 -0.10573948453E-01  0.22684886939E-01  0.00000000000E+00 0.  1.
     999901    1    3    3    0    0  0.41715172297E-01  0.19477344357E-01 -0.10629043810E+00  0.88759066003E+00  0.88000000000E+00 0. -1.
        -11    1    4    4    0    0 -0.39049951836E-01 -0.17681894189E-01  0.75222920038E-01  0.86581158115E-01  0.51100000000E-03 0. -1.
         11    1    4    4    0    0 -0.21005885502E-01  0.63541335869E-02  0.41641466517E-01  0.47073294914E-01  0.51100000000E-03 0.  1.
</event>
<event>
 8    1  0.1135368E+005  0.1043930E+01  0.7957747E-01            NaN
         13   -1    0    0    0    0  0.00000000000E+00  0.00000000000E+00  0.74505805969E-08  0.10566000000E+00  0.10566000000E+00 0.  1.
     999900   -1    0    0    0    0 -0.00000000000E+00 -0.00000000000E+00 -0.74505805969E-08  0.93827000000E+00  0.93827000000E+00 0. -1.
     999902    2    1    2    0    0  0.96515421813E-02  0.23430495272E-01  0.26684332984E-02  0.10184494013E+01  0.10181306017E+01 0.  0.
     999903    2    3    3    0    0 -0.12517168979E+00  0.20399231288E-01  0.70921033295E-03  0.12817397704E+00  0.18546828503E-01 0.  0.
         14    1    1    2    0    0 -0.96515421813E-02 -0.23430495272E-01 -0.26684332984E-02  0.25480598726E-01  0.00000000000E+00 0.  1.
     999901    1    3    3    0    0  0.13482323198E+00  0.30312639839E-02  0.19592229654E-02  0.89027542423E+00  0.88000000000E+00 0. -1.
        -11    1    4    4    0    0 -0.65253150470E-01  0.29993168567E-02  0.57390661696E-02  0.65575662782E-01  0.51100000000E-03 0.  1.
         11    1    4    4    0    0 -0.59918539325E-01  0.17399914431E-01 -0.50298558366E-02  0.62598314257E-01  0.51100000000E-03 0. -1.
</event>
<event>
 8    1  0.1135368E+005  0.1043930E+01  0.7957747E-01            NaN
         13   -1    0    0    0    0  0.00000000000E+00  0.00000000000E+00  0.74505805969E-08  0.10566000000E+00  0.10566000000E+00 0.  1.
     999900   -1    0    0    0    0 -0.00000000000E+00 -0.00000000000E+00 -0.74505805969E-08  0.93827000000E+00  0.93827000000E+00 0.  1.
     999902    2    1    2    0    0  0.13141952485E-01  0.18261331665E-01  0.64518927218E-02  0.10205245718E+01  0.10202561382E+01 0.  0.
     999903    2    3    3    0    0  0.41829673801E-01 -0.11411020068E+00 -0.38293616914E-01  0.12903852673E+00  0.20339143913E-01 0.  0.
         14    1    1    2    0    0 -0.13141952485E-01 -0.18261331665E-01 -0.64518927218E-02  0.23405428195E-01  0.00000000000E+00 0. -1.
     999901    1    3    3    0    0 -0.28687721315E-01  0.13237153234E+00  0.44745509636E-01  0.89148604507E+00  0.88000000000E+00 0. -1.
        -11    1    4    4    0    0  0.26061276588E-01 -0.93946294075E-01 -0.32690672032E-01  0.10283013890E+00  0.51100000000E-03 0.  1.
         11    1    4    4    0    0  0.15768397212E-01 -0.20163906605E-01 -0.56029448821E-02  0.26208387828E-01  0.51100000000E-03 0. -1.
</event>
<event>
 8    1  0.1135368E+005  0.1043930E+01  0.7957747E-01            NaN
         13   -1    0    0    0    0  0.00000000000E+00  0.00000000000E+00  0.74505805969E-08  0.10566000000E+00  0.10566000000E+00 0.  1.
     999900   -1    0    0    0    0 -0.00000000000E+00 -0.00000000000E+00 -0.74505805969E-08  0.93827000000E+00  0.93827000000E+00 0.  1.
     999902    2    1    2    0    0  0.12873447788E-02 -0.18443934871E-01  0.15357232897E-01  0.10198950132E+01  0.10196117679E+01 0.  0.
     999903    2    3    3    0    0 -0.20935570423E-01  0.12441000821E+00 -0.58890828012E-02  0.12784539966E+00  0.19839774829E-01 0.  0.
         14    1    1    2    0    0 -0.12873447788E-02  0.18443934871E-01 -0.15357232897E-01  0.24034986839E-01  0.00000000000E+00 0. -1.
     999901    1    3    3    0    0  0.22222915202E-01 -0.14285394309E+00  0.21246315698E-01  0.89204961350E+00  0.88000000000E+00 0.  1.
        -11    1    4    4    0    0  0.46161418177E-03  0.38451388196E-01  0.42147805310E-02  0.38687825446E-01  0.51100000000E-03 0.  1.
         11    1    4    4    0    0 -0.21397184605E-01  0.85958620019E-01 -0.10103863332E-01  0.89157574215E-01  0.51100000000E-03 0. -1.
</event>
<event>
 8    1  0.1135368E+005  0.1043930E+01  0.7957747E-01            NaN
         13   -1    0    0    0    0  0.00000000000E+00  0.00000000000E+00  0.74505805969E-08  0.10566000000E+00  0.10566000000E+00 0. -1.
     999900   -1    0    0    0    0 -0.00000000000E+00 -0.00000000000E+00 -0.74505805969E-08  0.93827000000E+00  0.93827000000E+00 0.  1.
     999902    2    1    2    0    0 -0.56602485446E-02  0.23860740326E-01  0.54831151828E-02  0.10188015720E+01  0.10184916324E+01 0.  0.
     999903    2    3    3    0    0 -0.88799711417E-01  0.90535276826E-01 -0.29700412603E-01  0.13167387840E+00  0.19335734925E-01 0.  0.
         14    1    1    2    0    0  0.56602485446E-02 -0.23860740326E-01 -0.54831151828E-02  0.25128428016E-01  0.00000000000E+00 0.  1.
     999901    1    3    3    0    0  0.83139462873E-01 -0.66674536500E-01  0.35183527785E-01  0.88712769359E+00  0.88000000000E+00 0. -1.
        -11    1    4    4    0    0 -0.64885445433E-01  0.64759476363E-01 -0.30154818889E-01  0.96506398912E-01  0.51100000000E-03 0.  1.
         11    1    4    4    0    0 -0.23914265984E-01  0.25775800463E-01  0.45440628664E-03  0.35167479483E-01  0.51100000000E-03 0. -1.
</event>
<event>
 8    1  0.1135368E+005  0.1043930E+01  0.7957747E-01            NaN
         13   -1    0    0    0    0  0.00000000000E+00  0.00000000000E+00  0.74505805969E-08  0.10566000000E+00  0.10566000000E+00 0.  1.
     999900   -1    0    0    0    0 -0.00000000000E+00 -0.00000000000E+00 -0.74505805969E-08  0.93827000000E+00  0.93827000000E+00 0. -1.
     999902    2    1    2    0    0  0.17332665153E-01  0.62299349102E-02 -0.15523467273E-01  0.10198424222E+01  0.10195579212E+01 0.  0.
     999903    2    3    3    0    0  0.17169302704E-01  0.12684067604E+00 -0.22157718532E-01  0.13159077377E+00  0.21019638413E-01 0.  0.
         14    1    1    2    0    0 -0.17332665153E-01 -0.62299349102E-02  0.15523467273E-01  0.24087577846E-01  0.00000000000E+00 0.  1.
     999901    1    3    3    0    0  0.16336244860E-03 -0.12061074113E+00  0.66342512582E-02  0.88825164838E+00  0.88000000000E+00 0.  1.
        -11    1    4    4    0    0  0.51503470140E-02  0.93998002605E-01 -0.10507331241E-01  0.94724947606E-01  0.51100000000E-03 0.  1.
         11    1    4    4    0    0  0.12018955690E-01  0.32842673431E-01 -0.11650387290E-01  0.36865826167E-01  0.51100000000E-03 0. -1.
</event>
<event>
 8    1  0.1135368E+005  0.1043930E+01  0.7957747E-01            NaN
         13   -1    0    0    0    0  0.00000000000E+00  0.00000000000E+00  0.74505805969E-08  0.10566000000E+00  0.10566000000E+00 0. -1.
     999900   -1    0    0    0    0 -0.00000000000E+00 -0.00000000000E+00 -0.74505805969E-08  0.93827000000E+00  0.93827000000E+00 0. -1.
     999902    2    1    2    0    0 -0.24087371535E-03 -0.48364945827E-02  0.22793633900E-01  0.10206276515E+01  0.10203616043E+01 0.  0.
     999903    2    3    3    0    0  0.96268870890E-01 -0.19912680794E-01 -0.81300046462E-01  0.12912503428E+00  0.19984157823E-01 0.  0.
         14    1    1    2    0    0  0.24087371535E-03  0.48364945827E-02 -0.22793633900E-01  0.23302348516E-01  0.00000000000E+00 0.  1.
     999901    1    3    3    0    0 -0.96509744605E-01  0.15076186212E-01  0.10409368036E+00  0.89150261721E+00  0.88000000000E+00 0.  1.
        -11    1    4    4    0    0  0.78846383342E-01 -0.10710047037E-01 -0.57233537915E-01  0.98017326309E-01  0.51100000000E-03 0.  1.
         11    1    4    4    0    0  0.17422487548E-01 -0.92026337575E-02 -0.24066508547E-01  0.31107707969E-01  0.51100000000E-03 0. -1.
</event>
<event>
 8    1  0.1135368E+005  0.1043930E+01  0.7957747E-01            NaN
         13   -1    0    0    0    0  0.00000000000E+00  0.00000000000E+00  0.74505805969E-08  0.10566000000E+00  0.10566000000E+00 0. -1.
     999900   -1    0    0    0    0 -0.00000000000E+00 -0.00000000000E+00 -0.74505805969E-08  0.93827000000E+00  0.93827000000E+00 0.  1.
     999902    2    1    2    0    0 -0.17599133184E-01  0.17462992199E-01  0.73682784525E-02  0.10180654081E+01  0.10177368020E+01 0.  0.
     999903    2    3    3    0    0  0.98540411434E-01  0.26457858463E-01  0.74334163658E-01  0.12786670490E+00  0.20349333548E-01 0.  0.
         14    1    1    2    0    0  0.17599133184E-01 -0.17462992199E-01 -0.73682784525E-02  0.25864591872E-01  0.00000000000E+00 0.  1.
     999901    1    3    3    0    0 -0.11613954462E+00 -0.89948662646E-02 -0.66965885206E-01  0.89019870323E+00  0.88000000000E+00 0.  1.
        -11    1    4    4    0    0  0.34901347416E-01  0.15155642799E-01  0.17869488205E-01  0.42040186605E-01  0.51100000000E-03 0.  1.
         11    1    4    4    0    0  0.63639064018E-01  0.11302215664E-01  0.56464675453E-01  0.85826518297E-01  0.51100000000E-03 0. -1.
</event>
<event>
 8    1  0.1135368E+005  0.1043930E+01  0.7957747E-01            NaN
         13   -1    0    0    0    0  0.00000000000E+00  0.00000000000E+00  0.74505805969E-08  0.10566000000E+00  0.10566000000E+00 0.  1.
     999900   -1    0    0    0    0 -0.00000000000E+00 -0.00000000000E+00 -0.74505805969E-08  0.93827000000E+00  0.93827000000E+00 0. -1.
     999902    2    1    2    0    0 -0.19236287533E-01 -0.10697830002E-01 -0.11346312435E-01  0.10191667787E+01  0.10188658919E+01 0.  0.
     999903    2    3    3    0    0 -0.10978493193E+00  0.51798416592E-01 -0.46796972799E-01  0.13160743577E+00  0.19868398194E-01 0.  0.
         14    1    1    2    0    0  0.19236287533E-01  0.10697830002E-01  0.11346312435E-01  0.24763221331E-01  0.00000000000E+00 0.  1.
     999901    1    3    3    0    0  0.90548644399E-01 -0.62496246595E-01  0.35450660364E-01  0.88755934290E+00  0.88000000000E+00 0.  1.
        -11    1    4    4    0    0 -0.84974747094E-01  0.43046110516E-01 -0.44661233230E-01  0.10520723430E+00  0.51100000000E-03 0. -1.
         11    1    4    4    0    0 -0.24810184838E-01  0.87523060757E-02 -0.21357395689E-02  0.26400201474E-01  0.51100000000E-03 0.  1.
</event>
<event>
 8    1  0.1135368E+005  0.1043930E+01  0.7957747E-01            NaN
         13   -1    0    0    0    0  0.00000000000E+00  0.00000000000E+00  0.74505805969E-08  0.10566000000E+00  0.10566000000E+00 0. -1.
     999900   -1    0    0    0    0 -0.00000000000E+00 -0.00000000000E+00 -0.74505805969E-08  0.93827000000E+00  0.93827000000E+00 0. -1.
     999902    2    1    2    0    0  0.15036581953E-01  0.70926005789E-02  0.15810253410E-01  0.10209872911E+01  0.10207294846E+01 0.  0.
     999903    2    3    3    0    0  0.11292567656E+00  0.57765714095E-01 -0.33818701844E-01  0.13272321296E+00  0.19561710360E-01 0.  0.
         14    1    1    2    0    0 -0.15036581953E-01 -0.70926005789E-02 -0.15810253410E-01  0.22942708922E-01  0.00000000000E+00 0.  1.
     999901    1    3    3    0    0 -0.97889094607E-01 -0.50673113516E-01  0.49628955254E-01  0.88826407812E+00  0.88000000000E+00 0.  1.
        -11    1    4    4    0    0  0.60511470417E-02  0.98447422802E-03  0.20704350862E-02  0.64910239926E-02  0.51100000000E-03 0.  1.
         11    1    4    4    0    0  0.10687452952E+00  0.56781239867E-01 -0.35889136930E-01  0.12623218897E+00  0.51100000000E-03 0. -1.
</event>
<event>
 8    1  0.1135368E+005  0.1043930E+01  0.7957747E-01            NaN
         13   -1    0    0    0    0  0.00000000000E+00  0.00000000000E+00  0.74505805969E-08  0.10566000000E+00  0.10566000000E+00 0.  1.
     999900   -1    0    0    0    0 -0.00000000000E+00 -0.00000000000E+00 -0.74505805969E-08  0.93827000000E+00  0.93827000000E+00 0.  1.
     999902    2    1    2    0    0 -0.10453444032E-01 -0.21499647396E-01 -0.73928091007E-02  0.10189067517E+01  0.10185994334E+01 0.  0.
     999903    2    3    3    0    0  0.43680861200E-01 -0.11789184002E+00  0.30539049800E-01  0.13117886334E+00  0.21650797835E-01 0.  0.
         14    1    1    2    0    0  0.10453444032E-01  0.21499647396E-01  0.73928091007E-02  0.25023248324E-01  0.00000000000E+00 0.  1.
     999901    1    3    3    0    0 -0.54134305231E-01  0.96392192625E-01 -0.37931858901E-01  0.88772788833E+00  0.88000000000E+00 0.  1.
        -11    1    4    4    0    0  0.21216206556E-01 -0.85315069592E-01  0.23262748091E-01  0.90940667965E-01  0.51100000000E-03 0.  1.
         11    1    4    4    0    0  0.22464654644E-01 -0.32576770429E-01  0.72763017091E-02  0.40238195379E-01  0.51100000000E-03 0. -1.
</event>
<event>
 8    1  0.1135368E+005  0.1043930E+01  0.7957747E-01            NaN
         13   -1    0    0    0    0  0.00000000000E+00  0.00000000000E+00  0.74505805969E-08  0.10566000000E+00  0.10566000000E+00 0. -1.
     999900   -1    0    0    0    0 -0.00000000000E+00 -0.00000000000E+00 -0.74505805969E-08  0.93827000000E+00  0.93827000000E+00 0.  1.
     999902    2    1    2    0    0  0.17631761536E-01  0.36623248326E-02 -0.14927605698E-01  0.10205392957E+01  0.10202712036E+01 0.  0.
     999903    2    3    3    0    0 -0.44425379334E-01  0.56854655768E-01  0.10464615248E+00  0.12869940170E+00  0.20165628111E-01 0.  0.
         14    1    1    2    0    0 -0.17631761536E-01 -0.36623248326E-02  0.14927605698E-01  0.23390704348E-01  0.00000000000E+00 0. -1.
     999901    1    3    3    0    0  0.62057140870E-01 -0.53192330935E-01 -0.11957375818E+00  0.89183989395E+00  0.88000000000E+00 0.  1.
        -11    1    4    4    0    0 -0.28615479440E-01  0.35721317054E-01  0.48677012605E-01  0.66817444076E-01  0.51100000000E-03 0.  1.
         11    1    4    4    0    0 -0.15809899894E-01  0.21133338714E-01  0.55969139874E-01  0.61881957622E-01  0.51100000000E-03 0. -1.
</event>
<event>
 8    1  0.1135368E+005  0.1043930E+01  0.7957747E-01            NaN
         13   -1    0    0    0    0  0.00000000000E+00  0.00000000000E+00  0.74505805969E-08  0.10566000000E+00  0.10566000000E+00 0.  1.
     999900   -1    0    0    0    0 -0.00000000000E+00 -0.00000000000E+00 -0.74505805969E-08  0.93827000000E+00  0.93827000000E+00 0.  1.
     999902    2    1    2    0    0  0.19294140889E-01 -0.15447866242E-02 -0.12550737885E-01  0.10208611626E+01  0.10206004811E+01 0.  0.
     999903    2    3    3    0    0 -0.55730597100E-01 -0.11247844666E+00  0.26947603819E-01  0.12985324610E+00  0.19452294333E-01 0.  0.
         14    1    1    2    0    0 -0.19294140889E-01  0.15447866242E-02  0.12550737885E-01  0.23068837418E-01  0.00000000000E+00 0.  1.
     999901    1    3    3    0    0  0.75024737989E-01  0.11093366003E+00 -0.39498341705E-01  0.89100791648E+00  0.88000000000E+00 0.  1.
        -11    1    4    4    0    0 -0.36734047132E-01 -0.64707858961E-01  0.24665431145E-01  0.78390955120E-01  0.51100000000E-03 0. -1.
         11    1    4    4    0    0 -0.18996549968E-01 -0.47770587698E-01  0.22821726745E-02  0.51462290979E-01  0.51100000000E-03 0.  1.
</event>
<event>
 8    1  0.1135368E+005  0.1043930E+01  0.7957747E-01            NaN
         13   -1    0    0    0    0  0.00000000000E+00  0.00000000000E+00  0.74505805969E-08  0.10566000000E+00  0.10566000000E+00 0.  1.
     999900   -1    0    0    0    0 -0.00000000000E+00 -0.00000000000E+00 -0.74505805969E-08  0.93827000000E+00  0.93827000000E+00 0.  1.
     999902    2    1    2    0    0 -0.89179002365E-02 -0.19162084798E-01 -0.11383231609E-01  0.10199239091E+01  0.10196413526E+01 0.  0.
     999903    2    3    3    0    0  0.12702164874E+00 -0.56213089441E-02  0.13147773791E-01  0.12904530693E+00  0.17712394556E-01 0.  0.
         14    1    1    2    0    0  0.89179002365E-02  0.19162084798E-01  0.11383231609E-01  0.24006090900E-01  0.00000000000E+00 0.  1.
     999901    1    3    3    0    0 -0.13593954898E+00 -0.13540775854E-01 -0.24531005399E-01  0.89087860217E+00  0.88000000000E+00 0.  1.
        -11    1    4    4    0    0  0.42182993218E-01 -0.81192110365E-02  0.10006234067E-01  0.44110229493E-01  0.51100000000E-03 0. -1.
         11    1    4    4    0    0  0.84838655522E-01  0.24979020924E-02  0.31415397233E-02  0.84935077433E-01  0.51100000000E-03 0.  1.
</event>
<event>
 8    1  0.1135368E+005  0.1043930E+01  0.7957747E-01            NaN
         13   -1    0    0    0    0  0.00000000000E+00  0.00000000000E+00  0.74505805969E-08  0.10566000000E+00  0.10566000000E+00 0. -1.
     999900   -1    0    0    0    0 -0.00000000000E+00 -0.00000000000E+00 -0.74505805969E-08  0.93827000000E+00  0.93827000000E+00 0.  1.
     999902    2    1    2    0    0 -0.17240654838E-01  0.55168357448E-02  0.16413102575E-01  0.10194950743E+01  0.10192022081E+01 0.  0.
     999903    2    3    3    0    0  0.53129859666E-01  0.10066487418E+00 -0.56512860095E-01  0.12858354419E+00  0.19591467472E-01 0.  0.
         14    1    1    2    0    0  0.17240654838E-01 -0.55168357448E-02 -0.16413102575E-01  0.24434925660E-01  0.00000000000E+00 0.  1.
     999901    1    3    3    0    0 -0.70370514504E-01 -0.95148038435E-01  0.72925962670E-01  0.89091153015E+00  0.88000000000E+00 0.  1.
        -11    1    4    4    0    0  0.42238168679E-01  0.64961004199E-01 -0.31489969007E-01  0.83641342821E-01  0.51100000000E-03 0.  1.
         11    1    4    4    0    0  0.10891690988E-01  0.35703869981E-01 -0.25022891088E-01  0.44942201365E-01  0.51100000000E-03 0. -1.
</event>
<event>
 8    1  0.1135368E+005  0.1043930E+01  0.7957747E-01            NaN
         13   -1    0    0    0    0  0.00000000000E+00  0.00000000000E+00  0.74505805969E-08  0.10566000000E+00  0.10566000000E+00 0. -1.
     999900   -1    0    0    0    0 -0.00000000000E+00 -0.00000000000E+00 -0.74505805969E-08  0.93827000000E+00  0.93827000000E+00 0. -1.
     999902    2    1    2    0    0  0.59523495215E-03  0.17831177471E-01 -0.18313743740E-01  0.10183624736E+01  0.10180414674E+01 0.  0.
     999903    2    3    3    0    0  0.12695866563E+00 -0.40767362962E-02  0.62174618265E-02  0.12872802435E+00  0.19927991973E-01 0.  0.
         14    1    1    2    0    0 -0.59523495215E-03 -0.17831177471E-01  0.18313743740E-01  0.25567526365E-01  0.00000000000E+00 0. -1.
     999901    1    3    3    0    0 -0.12636343068E+00  0.21907913768E-01 -0.24531205567E-01  0.88963444928E+00  0.88000000000E+00 0. -1.
        -11    1    4    4    0    0  0.79096312382E-01  0.83192077791E-03 -0.52093068576E-02  0.79273682414E-01  0.51100000000E-03 0.  1.
         11    1    4    4    0    0  0.47862353253E-01 -0.49086570741E-02  0.11426768684E-01  0.49454341940E-01  0.51100000000E-03 0. -1.
</event>
<event>
 8    1  0.1135368E+005  0.1043930E+01  0.7957747E-01            NaN
         13   -1    0    0    0    0  0.00000000000E+00  0.00000000000E+00  0.74505805969E-08  0.10566000000E+00  0.10566000000E+00 0. -1.
     999900   -1    0    0    0    0 -0.00000000000E+00 -0.00000000000E+00 -0.74505805969E-08  0.93827000000E+00  0.93827000000E+00 0. -1.
     999902    2    1    2    0    0  0.20914842342E-01  0.61435385612E-02 -0.10073057640E-01  0.10199166665E+01  0.10196339374E+01 0.  0.
     999903    2    3    3    0    0  0.54657649670E-02  0.64996818260E-01 -0.11280449191E+00  0.13185353241E+00  0.20150425373E-01 0.  0.
         14    1    1    2    0    0 -0.20914842342E-01 -0.61435385612E-02  0.10073057640E-01  0.24013333514E-01  0.00000000000E+00 0.  1.
     999901    1    3    3    0    0  0.15449077375E-01 -0.58853279699E-01  0.10273143427E+00  0.88806313408E+00  0.88000000000E+00 0.  1.
        -11    1    4    4    0    0  0.12236048050E-01  0.37718687827E-01 -0.58019060236E-01  0.70277256314E-01  0.51100000000E-03 0. -1.
         11    1    4    4    0    0 -0.67702830827E-02  0.27278130433E-01 -0.54785431673E-01  0.61576276094E-01  0.51100000000E-03 0.  1.
</event>
<event>
 8    1  0.1135368E+005  0.1043930E+01  0.7957747E-01            NaN
         13   -1    0    0    0    0  0.00000000000E+00  0.00000000000E+00  0.74505805969E-08  0.10566000000E+00  0.10566000000E+00 0.  1.
     999900   -1    0    0    0    0 -0.00000000000E+00 -0.00000000000E+00 -0.74505805969E-08  0.93827000000E+00  0.93827000000E+00 0. -1.
     999902    2    1    2    0    0 -0.12701688806E-01  0.27720254011E-02  0.17798177945E-01  0.10218893067E+01  0.10216515859E+01 0.  0.
     999903    2    3    3    0    0 -0.11462607811E+00  0.57825901820E-01  0.34211760480E-01  0.13414558459E+00  0.18482981496E-01 0.  0.
         14    1    1    2    0    0  0.12701688806E-01 -0.27720254011E-02 -0.17798177945E-01  0.22040693309E-01  0.00000000000E+00 0. -1.
     999901    1    3    3    0    0  0.10192438930E+00 -0.55053876419E-01 -0.16413582535E-01  0.88774372210E+00  0.88000000000E+00 0. -1.
        -11    1    4    4    0    0 -0.57595989210E-01  0.18802320240E-01  0.16998579792E-01  0.62928833260E-01  0.51100000000E-03 0. -1.
         11    1    4    4    0    0 -0.57030088899E-01  0.39023581580E-01  0.17213180689E-01  0.71216751328E-01  0.51100000000E-03 0.  1.
</event>
<event>
 8    1  0.1135368E+005  0.1043930E+01  0.7957747E-01            NaN
         13   -1    0    0    0    0  0.00000000000E+00  0.00000000000E+00  0.74505805969E-08  0.10566000000E+00  0.10566000000E+00 0.  1.
     999900   -1    0    0    0    0 -0.00000000000E+00 -0.00000000000E+00 -0.74505805969E-08  0.93827000000E+00  0.93827000000E+00 0. -1.
     999902    2    1    2    0    0 -0.19133499365E-02  0.10784141874E-01 -0.22764457800E-01  0.10186677918E+01  0.10183545016E+01 0.  0.
     999903    2    3    3    0    0  0.68526248465E-01 -0.91837004265E-01  0.51121225826E-01  0.12684273559E+00  0.18596175943E-01 0.  0.
         14    1    1    2    0    0  0.19133499365E-02 -0.10784141874E-01  0.22764457800E-01  0.25262208194E-01  0.00000000000E+00 0.  1.
     999901    1    3    3    0    0 -0.70439598402E-01  0.10262114614E+00 -0.73885683625E-01  0.89182505622E+00  0.88000000000E+00 0. -1.
        -11    1    4    4    0    0  0.56601117988E-02 -0.14741451508E-01  0.12435777666E-01  0.20106141979E-01  0.51100000000E-03 0.  1.
         11    1    4    4    0    0  0.62866136666E-01 -0.77095552757E-01  0.38685448160E-01  0.10673659361E+00  0.51100000000E-03 0. -1.
</event>
<event>
 8    1  0.1135368E+005  0.1043930E+01  0.7957747E-01            NaN
         13   -1    0    0    0    0  0.00000000000E+00  0.00000000000E+00  0.74505805969E-08  0.10566000000E+00  0.10566000000E+00 0.  1.
     999900   -1    0    0    0    0 -0.00000000000E+00 -0.00000000000E+00 -0.74505805969E-08  0.93827000000E+00  0.93827000000E+00 0. -1.
     999902    2    1    2    0    0  0.19419886422E-01 -0.11591253963E-01 -0.82027034311E-02  0.10198722881E+01  0.10195885006E+01 0.  0.
     999903    2    3    3    0    0  0.12354808247E-01 -0.12231956493E+00  0.42385846659E-01  0.13146366841E+00  0.19272230396E-01 0.  0.
         14    1    1    2    0    0 -0.19419886422E-01  0.11591253963E-01  0.82027034311E-02  0.24057711875E-01  0.00000000000E+00 0.  1.
     999901    1    3    3    0    0  0.70650781744E-02  0.11072831097E+00 -0.50588550090E-01  0.88840861971E+00  0.88000000000E+00 0.  1.
        -11    1    4    4    0    0  0.10976176168E-03 -0.77858856999E-01  0.32060384212E-01  0.84202986987E-01  0.51100000000E-03 0.  1.
         11    1    4    4    0    0  0.12245046486E-01 -0.44460707930E-01  0.10325462448E-01  0.47260681425E-01  0.51100000000E-03 0. -1.
</event>
<event>
 8    1  0.1135368E+005  0.1043930E+01  0.7957747E-01            NaN
         13   -1    0    0    0    0  0.00000000000E+00  0.00000000000E+00  0.74505805969E-08  0.10566000000E+00  0.10566000000E+00 0. -1.
     999900   -1    0    0    0    0 -0.00000000000E+00 -0.00000000000E+00 -0.74505805969E-08  0.93827000000E+00  0.93827000000E+00 0.  1.
     999902    2    1    2    0    0  0.27757317394E-02 -0.22560354894E-01 -0.14684504644E-02  0.10211521457E+01  0.10208980723E+01 0.  0.
     999903    2    3    3    0    0 -0.10629335506E+00 -0.17670669017E-02  0.73753596337E-01  0.13099104633E+00  0.20436765646E-01 0.  0.
         14    1    1    2    0    0 -0.27757317394E-02  0.22560354894E-01  0.14684504644E-02  0.22777854297E-01  0.00000000000E+00 0.  1.
     999901    1    3    3    0    0  0.10906908680E+00 -0.20793287992E-01 -0.75222046802E-01  0.89016109938E+00  0.88000000000E+00 0.  1.
        -11    1    4    4    0    0 -0.27544311311E-01  0.39067274048E-02  0.29194413878E-01  0.40330218537E-01  0.51100000000E-03 0. -1.
         11    1    4    4    0    0 -0.78749043746E-01 -0.56737943065E-02  0.44559182459E-01  0.90660827788E-01  0.51100000000E-03 0.  1.
</event>
<event>
 8    1  0.1135368E+005  0.1043930E+01  0.7957747E-01            NaN
         13   -1    0    0    0    0  0.00000000000E+00  0.00000000000E+00  0.74505805969E-08  0.10566000000E+00  0.10566000000E+00 0.  1.
     999900   -1    0    0    0    0 -0.00000000000E+00 -0.00000000000E+00 -0.74505805969E-08  0.93827000000E+00  0.93827000000E+00 0.  1.
     999902    2    1    2    0    0  0.12851418841E-01 -0.72317141701E-02 -0.18479531548E-01  0.10202878820E+01  0.10200139276E+01 0.  0.
     999903    2    3    3    0    0 -0.97993943261E-01 -0.56550607483E-01  0.57996843351E-01  0.12867827942E+00  0.19841412092E-01 0.  0.
         14    1    1    2    0    0 -0.12851418841E-01  0.72317141701E-02  0.18479531548E-01  0.23642117974E-01  0.00000000000E+00 0.  1.
     999901    1    3    3    0    0  0.11084536210E+00  0.49318893313E-01 -0.76476374899E-01  0.89160960260E+00  0.88000000000E+00 0.  1.
        -11    1    4    4    0    0 -0.49686049468E-01 -0.35554078372E-01  0.22276413739E-01  0.65033035687E-01  0.51100000000E-03 0. -1.
         11    1    4    4    0    0 -0.48307893794E-01 -0.20996529112E-01  0.35720429612E-01  0.63645243736E-01  0.51100000000E-03 0.  1.
</event>
<event>
 8    1  0.1135368E+005  0.1043930E+01  0.7957747E-01            NaN
         13   -1    0    0    0    0  0.00000000000E+00  0.00000000000E+00  0.74505805969E-08  0.10566000000E+00  0.10566000000E+00 0.  1.
     999900   -1    0    0    0    0 -0.00000000000E+00 -0.00000000000E+00 -0.74505805969E-08  0.93827000000E+00  0.93827000000E+00 0. -1.
     999902    2    1    2    0    0 -0.61091655187E-03  0.43307603451E-02 -0.19750421310E-01  0.10237011136E+01  0.10235012272E+01 0.  0.
     999903    2    3    3    0    0  0.11142749756E+00 -0.83814205759E-02 -0.73228276069E-01  0.13489624931E+00  0.18662321403E-01 0.  0.
         14    1    1    2    0    0  0.61091655187E-03 -0.43307603451E-02  0.19750421310E-01  0.20228886429E-01  0.00000000000E+00 0.  1.
     999901    1    3    3    0    0 -0.11203841411E+00  0.12712180921E-01  0.53477854758E-01  0.88880486426E+00  0.88000000000E+00 0.  1.
        -11    1    4    4    0    0  0.10372744691E-01  0.23949510701E-02 -0.12810933162E-01  0.16664655788E-01  0.51100000000E-03 0.  1.
         11    1    4    4    0    0  0.10105475287E+00 -0.10776371646E-01 -0.60417342907E-01  0.11823159353E+00  0.51100000000E-03 0. -1.
</event>
<event>
 8    1  0.1135368E+005  0.1043930E+01  0.7957747E-01            NaN
         13   -1    0    0    0    0  0.00000000000E+00  0.00000000000E+00  0.74505805969E-08  0.10566000000E+00  0.10566000000E+00 0.  1.
     999900   -1    0    0    0    0 -0.00000000000E+00 -0.00000000000E+00 -0.74505805969E-08  0.93827000000E+00  0.93827000000E+00 0.  1.
     999902    2    1    2    0    0 -0.68055503363E-02 -0.21082936907E-01 -0.40972183008E-02  0.10214001766E+01  0.10211516674E+01 0.  0.
     999903    2    3    3    0    0  0.80530136792E-01 -0.85931035376E-01 -0.58629742384E-01  0.13302717258E+00  0.19736670916E-01 0.  0.
         14    1    1    2    0    0  0.68055503363E-02  0.21082936907E-01  0.40972183008E-02  0.22529823386E-01  0.00000000000E+00 0.  1.
     999901    1    3    3    0    0 -0.87335687129E-01  0.64848098469E-01  0.54532524084E-01  0.88837300404E+00  0.88000000000E+00 0. -1.
        -11    1    4    4    0    0  0.17625501430E-01 -0.28302909367E-01 -0.23344020637E-01  0.40705250273E-01  0.51100000000E-03 0.  1.
         11    1    4    4    0    0  0.62904635363E-01 -0.57628126009E-01 -0.35285721747E-01  0.92321922303E-01  0.51100000000E-03 0. -1.
</event>
<event>
 8    1  0.1135368E+005  0.1043930E+01  0.7957747E-01            NaN
         13   -1    0    0    0    0  0.00000000000E+00  0.00000000000E+00  0.74505805969E-08  0.10566000000E+00  0.10566000000E+00 0. -1.
     999900   -1    0    0    0    0 -0.00000000000E+00 -0.00000000000E+00 -0.74505805969E-08  0.93827000000E+00  0.93827000000E+00 0. -1.
     999902    2    1    2    0    0  0.22024253573E-01 -0.65983192109E-02  0.51665430163E-02  0.10203652227E+01  0.10200930786E+01 0.  0.
     999903    2    3    3    0    0  0.10776260666E+00 -0.91027981224E-02  0.75511970359E-01  0.13340083969E+00  0.19952093471E-01 0.  0.
         14    1    1    2    0    0 -0.22024253573E-01  0.65983192109E-02 -0.51665430163E-02  0.23564777287E-01  0.00000000000E+00 0. -1.
     999901    1    3    3    0    0 -0.85738353088E-01  0.25044789114E-02 -0.70345427343E-01  0.88696438302E+00  0.88000000000E+00 0. -1.
        -11    1    4    4    0    0  0.57845078216E-01 -0.13007544376E-01  0.33929260512E-01  0.68313286588E-01  0.51100000000E-03 0. -1.
         11    1    4    4    0    0  0.49917528446E-01  0.39047462535E-02  0.41582709847E-01  0.65087553101E-01  0.51100000000E-03 0.  1.
</event>
<event>
 8    1  0.1135368E+005  0.1043930E+01  0.7957747E-01            NaN
         13   -1    0    0    0    0  0.00000000000E+00  0.00000000000E+00  0.74505805969E-08  0.10566000000E+00  0.10566000000E+00 0.  1.
     999900   -1    0    0    0    0 -0.00000000000E+00 -0.00000000000E+00 -0.74505805969E-08  0.93827000000E+00  0.93827000000E+00 0.  1.
     999902    2    1    2    0    0 -0.47521420439E-02  0.21437454652E-01 -0.10290611804E-01  0.10196803813E+01  0.10193919933E+01 0.  0.
     999903    2    3    3    0    0  0.23697206555E-01  0.12718158437E+00 -0.22032278957E-01  0.13281564913E+00  0.20441681373E-01 0.  0.
         14    1    1    2    0    0  0.47521420439E-02 -0.21437454652E-01  0.10290611804E-01  0.24249618703E-01  0.00000000000E+00 0.  1.
     999901    1    3    3    0    0 -0.28449348599E-01 -0.10574412972E+00  0.11741667154E-01  0.88686473216E+00  0.88000000000E+00 0. -1.
        -11    1    4    4    0    0  0.17697294771E-01  0.85823529266E-01 -0.24369989016E-01  0.90956197719E-01  0.51100000000E-03 0.  1.
         11    1    4    4    0    0  0.59999117842E-02  0.41358055105E-01  0.23377100588E-02  0.41859451416E-01  0.51100000000E-03 0. -1.
</event>
<event>
 8    1  0.1135368E+005  0.1043930E+01  0.7957747E-01            NaN
         13   -1    0    0    0    0  0.00000000000E+00  0.00000000000E+00  0.74505805969E-08  0.10566000000E+00  0.10566000000E+00 0. -1.
     999900   -1    0    0    0    0 -0.00000000000E+00 -0.00000000000E+00 -0.74505805969E-08  0.93827000000E+00  0.93827000000E+00 0.  1.
     999902    2    1    2    0    0 -0.17071048433E-01 -0.14152382284E-01  0.86434550177E-02  0.10201304216E+01  0.10198527624E+01 0.  0.
     999903    2    3    3    0    0  0.86970625540E-01  0.78488555824E-01  0.48205936827E-01  0.12829399974E+00  0.20277941736E-01 0.  0.
         14    1    1    2    0    0  0.17071048433E-01  0.14152382284E-01 -0.86434550177E-02  0.23799578432E-01  0.00000000000E+00 0. -1.
     999901    1    3    3    0    0 -0.10404167397E+00 -0.92640938108E-01 -0.39562481809E-01  0.89183642183E+00  0.88000000000E+00 0.  1.
        -11    1    4    4    0    0  0.51155811703E-01  0.35154067666E-01  0.31707405447E-01  0.69701838037E-01  0.51100000000E-03 0. -1.
         11    1    4    4    0    0  0.35814813837E-01  0.43334488158E-01  0.16498531380E-01  0.58592161701E-01  0.51100000000E-03 0.  1.
</event>
<event>
 8    1  0.1135368E+005  0.1043930E+01  0.7957747E-01            NaN
         13   -1    0    0    0    0  0.00000000000E+00  0.00000000000E+00  0.74505805969E-08  0.10566000000E+00  0.10566000000E+00 0. -1.
     999900   -1    0    0    0    0 -0.00000000000E+00 -0.00000000000E+00 -0.74505805969E-08  0.93827000000E+00  0.93827000000E+00 0.  1.
     999902    2    1    2    0    0  0.39922739562E-02 -0.11043842932E-01  0.20235551245E-01  0.10205337983E+01  0.10202655788E+01 0.  0.
     999903    2    3    3    0    0 -0.88686507831E-01  0.47430366716E-01 -0.77294764533E-01  0.12838989050E+00  0.19863207233E-01 0.  0.
         14    1    1    2    0    0 -0.39922739562E-02  0.11043842932E-01 -0.20235551245E-01  0.23396201662E-01  0.00000000000E+00 0.  1.
     999901    1    3    3    0    0  0.92678781787E-01 -0.58474209648E-01  0.97530315778E-01  0.89214390783E+00  0.88000000000E+00 0. -1.
        -11    1    4    4    0    0 -0.32712184853E-03  0.38759647408E-02 -0.20354392135E-02  0.44197562339E-02  0.51100000000E-03 0.  1.
         11    1    4    4    0    0 -0.88359385982E-01  0.43554401975E-01 -0.75259325319E-01  0.12397013427E+00  0.51100000000E-03 0. -1.
</event>
<event>
 8    1  0.1135368E+005  0.1043930E+01  0.7957747E-01            NaN
         13   -1    0    0    0    0  0.00000000000E+00  0.00000000000E+00  0.74505805969E-08  0.10566000000E+00  0.10566000000E+00 0.  1.
     999900   -1    0    0    0    0 -0.00000000000E+00 -0.00000000000E+00 -0.74505805969E-08  0.93827000000E+00  0.93827000000E+00 0.  1.
     999902    2    1    2    0    0 -0.20338459266E-01 -0.11755784689E-01 -0.31911797651E-02  0.10202227221E+01  0.10199472376E+01 0.  0.
     999903    2    3    3    0    0  0.11003929285E-01 -0.56928082015E-01 -0.11602773807E+00  0.13131610680E+00  0.20483918648E-01 0.  0.
         14    1    1    2    0    0  0.20338459266E-01  0.11755784689E-01  0.31911797651E-02  0.23707277938E-01  0.00000000000E+00 0.  1.
     999901    1    3    3    0    0 -0.31342388551E-01  0.45172297326E-01  0.11283655830E+00  0.88890661526E+00  0.88000000000E+00 0. -1.
        -11    1    4    4    0    0  0.79409302414E-02 -0.10750146536E-01 -0.41350864835E-01  0.43460087060E-01  0.51100000000E-03 0.  1.
         11    1    4    4    0    0  0.30629990436E-02 -0.46177935480E-01 -0.74676873230E-01  0.87856019741E-01  0.51100000000E-03 0. -1.
</event>
<event>
 8    1  0.1135368E+005  0.1043930E+01  0.7957747E-01            NaN
         13   -1    0    0    0    0  0.00000000000E+00  0.00000000000E+00  0.74505805969E-08  0.10566000000E+00  0.10566000000E+00 0.  1.
     999900   -1    0    0    0    0 -0.00000000000E+00 -0.00000000000E+00 -0.74505805969E-08  0.93827000000E+00  0.93827000000E+00 0.  1.
     999902    2    1    2    0    0 -0.21452592472E-01 -0.14892835385E-01 -0.46555671156E-02  0.10174029464E+01  0.10170570636E+01 0.  0.
     999903    2    3    3    0    0  0.35538259134E-01  0.10980472383E-01  0.11920835295E+00  0.12652716607E+00  0.20370412479E-01 0.  0.
         14    1    1    2    0    0  0.21452592472E-01  0.14892835385E-01  0.46555671156E-02  0.26527053639E-01  0.00000000000E+00 0.  1.
     999901    1    3    3    0    0 -0.56990851606E-01 -0.25873307769E-01 -0.12386392006E+00  0.89087578029E+00  0.88000000000E+00 0.  1.
        -11    1    4    4    0    0  0.29019356684E-01  0.11799189664E-01  0.67691207719E-01  0.74590245089E-01  0.51100000000E-03 0.  1.
         11    1    4    4    0    0  0.65189024498E-02 -0.81871728089E-03  0.51517145228E-01  0.51936920977E-01  0.51100000000E-03 0. -1.
</event>
<event>
 8    1  0.1135368E+005  0.1043930E+01  0.7957747E-01            NaN
         13   -1    0    0    0    0  0.00000000000E+00  0.00000000000E+00  0.74505805969E-08  0.10566000000E+00  0.10566000000E+00 0. -1.
     999900   -1    0    0    0    0 -0.00000000000E+00 -0.00000000000E+00 -0.74505805969E-08  0.93827000000E+00  0.93827000000E+00 0.  1.
     999902    2    1    2    0    0 -0.18978368172E-04  0.18238356066E-01  0.15443347248E-01  0.10200315698E+01  0.10197515719E+01 0.  0.
     999903    2    3    3    0    0  0.11603190587E+00 -0.43517741293E-01 -0.31160653367E-01  0.12904697051E+00  0.18026017067E-01 0.  0.
         14    1    1    2    0    0  0.18978368172E-04 -0.18238356066E-01 -0.15443347248E-01  0.23898430207E-01  0.00000000000E+00 0.  1.
     999901    1    3    3    0    0 -0.11605088424E+00  0.61756097359E-01  0.46604000615E-01  0.89098459929E+00  0.88000000000E+00 0. -1.
        -11    1    4    4    0    0  0.78133053334E-01 -0.37936290668E-01 -0.19777346670E-01  0.89080529496E-01  0.51100000000E-03 0.  1.
         11    1    4    4    0    0  0.37898852536E-01 -0.55814506254E-02 -0.11383306697E-01  0.39966441010E-01  0.51100000000E-03 0. -1.
</event>
<event>
 8    1  0.1135368E+005  0.1043930E+01  0.7957747E-01            NaN
         13   -1    0    0    0    0  0.00000000000E+00  0.00000000000E+00  0.74505805969E-08  0.10566000000E+00  0.10566000000E+00 0. -1.
     999900   -1    0    0    0    0 -0.00000000000E+00 -0.00000000000E+00 -0.74505805969E-08  0.93827000000E+00  0.93827000000E+00 0. -1.
     999902    2    1    2    0    0 -0.13622910762E-01 -0.44643925772E-04 -0.19256942050E-01  0.10203415387E+01  0.10200688408E+01 0.  0.
     999903    2    3    3    0    0  0.73538591063E-01  0.85517116086E-01  0.58469561477E-01  0.12851232210E+00  0.19381067914E-01 0.  0.
         14    1    1    2    0    0  0.13622910762E-01  0.44643925772E-04  0.19256942050E-01  0.23588461328E-01  0.00000000000E+00 0. -1.
     999901    1    3    3    0    0 -0.87161501826E-01 -0.85561760012E-01 -0.77726503527E-01  0.89182921657E+00  0.88000000000E+00 0. -1.
        -11    1    4    4    0    0  0.30659181395E-01  0.34998130121E-01  0.34958852067E-01  0.58199974009E-01  0.51100000000E-03 0.  1.
         11    1    4    4    0    0  0.42879409668E-01  0.50518985965E-01  0.23510709410E-01  0.70312348093E-01  0.51100000000E-03 0. -1.
</event>
<event>
 8    1  0.1135368E+005  0.1043930E+01  0.7957747E-01            NaN
         13   -1    0    0    0    0  0.00000000000E+00  0.00000000000E+00  0.74505805969E-08  0.10566000000E+00  0.10566000000E+00 0.  1.
     999900   -1    0    0    0    0 -0.00000000000E+00 -0.00000000000E+00 -0.74505805969E-08  0.93827000000E+00  0.93827000000E+00 0. -1.
     999902    2    1    2    0    0  0.15894443183E-01 -0.17554869242E-01 -0.30600910151E-02  0.10200517481E+01  0.10197722284E+01 0.  0.
     999903    2    3    3    0    0 -0.46300198370E-01 -0.42669505354E-01 -0.11281798985E+00  0.13070045935E+00  0.19756421394E-01 0.  0.
         14    1    1    2    0    0 -0.15894443183E-01  0.17554869242E-01  0.30600910151E-02  0.23878251929E-01  0.00000000000E+00 0. -1.
     999901    1    3    3    0    0  0.62194641552E-01  0.25114636112E-01  0.10975789883E+00  0.88935128872E+00  0.88000000000E+00 0.  1.
        -11    1    4    4    0    0 -0.21294466859E-02 -0.97661141276E-02 -0.26263785176E-01  0.28106210365E-01  0.51100000000E-03 0. -1.
         11    1    4    4    0    0 -0.44170751684E-01 -0.32903391226E-01 -0.86554204671E-01  0.10259424899E+00  0.51100000000E-03 0.  1.
</event>
<event>
 8    1  0.1135368E+005  0.1043930E+01  0.7957747E-01            NaN
         13   -1    0    0    0    0  0.00000000000E+00  0.00000000000E+00  0.74505805969E-08  0.10566000000E+00  0.10566000000E+00 0.  1.
     999900   -1    0    0    0    0 -0.00000000000E+00 -0.00000000000E+00 -0.74505805969E-08  0.93827000000E+00  0.93827000000E+00 0. -1.
     999902    2    1    2    0    0 -0.38330892969E-02 -0.91724186400E-03  0.22839804731E-01  0.10207526277E+01  0.10204894592E+01 0.  0.
     999903    2    3    3    0    0  0.61730561536E-01  0.11281092500E+00 -0.69431090941E-02  0.13051686668E+00  0.21200912664E-01 0.  0.
         14    1    1    2    0    0  0.38330892969E-02  0.91724186400E-03 -0.22839804731E-01  0.23177372292E-01  0.00000000000E+00 0. -1.
     999901    1    3    3    0    0 -0.65563650832E-01 -0.11372816687E+00  0.29782913825E-01  0.89023576102E+00  0.88000000000E+00 0. -1.
        -11    1    4    4    0    0  0.49771920217E-01  0.79453971731E-01  0.26747536499E-02  0.93795485467E-01  0.51100000000E-03 0.  1.
         11    1    4    4    0    0  0.11958641319E-01  0.33356953272E-01 -0.96178627440E-02  0.36721381218E-01  0.51100000000E-03 0. -1.
</event>
<event>
 8    1  0.1135368E+005  0.1043930E+01  0.7957747E-01            NaN
         13   -1    0    0    0    0  0.00000000000E+00  0.00000000000E+00  0.74505805969E-08  0.10566000000E+00  0.10566000000E+00 0.  1.
     999900   -1    0    0    0    0 -0.00000000000E+00 -0.00000000000E+00 -0.74505805969E-08  0.93827000000E+00  0.93827000000E+00 0.  1.
     999902    2    1    2    0    0  0.21975708666E-01  0.66178734814E-02  0.90471546641E-02  0.10192606054E+01  0.10189620222E+01 0.  0.
     999903    2    3    3    0    0  0.11806115984E+00 -0.52772570167E-01 -0.14559903215E-01  0.13172641910E+00  0.20407770187E-01 0.  0.
         14    1    1    2    0    0 -0.21975708666E-01 -0.66178734814E-02 -0.90471546641E-02  0.24669394567E-01  0.00000000000E+00 0. -1.
     999901    1    3    3    0    0 -0.96085451170E-01  0.59390443648E-01  0.23607057879E-01  0.88753418633E+00  0.88000000000E+00 0. -1.
        -11    1    4    4    0    0  0.42554949464E-01 -0.11009879713E-01  0.13706323829E-02  0.43980460767E-01  0.51100000000E-03 0. -1.
         11    1    4    4    0    0  0.75506210373E-01 -0.41762690454E-01 -0.15930535598E-01  0.87745958335E-01  0.51100000000E-03 0.  1.
</event>
<event>
 8    1  0.1135368E+005  0.1043930E+01  0.7957747E-01            NaN
         13   -1    0    0    0    0  0.00000000000E+00  0.00000000000E+00  0.74505805969E-08  0.10566000000E+00  0.10566000000E+00 0.  1.
     999900   -1    0    0    0    0 -0.00000000000E+00 -0.00000000000E+00 -0.74505805969E-08  0.93827000000E+00  0.93827000000E+00 0. -1.
     999902    2    1    2    0    0  0.43055106183E-02 -0.49465052867E-02 -0.24204142684E-01  0.10188532008E+01  0.10185445493E+01 0.  0.
     999903    2    3    3    0    0 -0.97568996142E-01  0.43796735828E-01  0.65784150721E-01  0.12708405373E+00  0.19619866151E-01 0.  0.
         14    1    1    2    0    0 -0.43055106183E-02  0.49465052867E-02  0.24204142684E-01  0.25076799224E-01  0.00000000000E+00 0.  1.
     999901    1    3    3    0    0  0.10187450676E+00 -0.48743241115E-01 -0.89988293405E-01  0.89176914705E+00  0.88000000000E+00 0. -1.
        -11    1    4    4    0    0 -0.71361358131E-01  0.38643896961E-01  0.42309729621E-01  0.91521410327E-01  0.51100000000E-03 0. -1.
         11    1    4    4    0    0 -0.26207638010E-01  0.51528388677E-02  0.23474421100E-01  0.35562643398E-01  0.51100000000E-03 0.  1.
</event>
<event>
 8    1  0.1135368E+005  0.1043930E+01  0.7957747E-01            NaN
         13   -1    0    0    0    0  0.00000000000E+00  0.00000000000E+00  0.74505805969E-08  0.10566000000E+00  0.10566000000E+00 0. -1.
     999900   -1    0    0    0    0 -0.00000000000E+00 -0.00000000000E+00 -0.74505805969E-08  0.93827000000E+00  0.93827000000E+00 0.  1.
     999902    2    1    2    0    0  0.23119401118E-02 -0.23044684475E-01  0.92700240757E-02  0.10189833390E+01  0.10186779222E+01 0.  0.
     999903    2    3    3    0    0  0.10028879376E-01 -0.12999025588E+00 -0.14364211944E-01  0.13216008517E+00  0.16183710368E-01 0.  0.
         14    1    1    2    0    0 -0.23119401118E-02  0.23044684475E-01 -0.92700240757E-02  0.24946661019E-01  0.00000000000E+00 0.  1.
     999901    1    3    3    0    0 -0.77169392642E-02  0.10694557140E+00  0.23634236020E-01  0.88682325381E+00  0.88000000000E+00 0. -1.
        -11    1    4    4    0    0  0.10003757626E-01 -0.55188227684E-01 -0.11768961444E-01  0.57311300945E-01  0.51100000000E-03 0. -1.
         11    1    4    4    0    0  0.25121749742E-04 -0.74802028195E-01 -0.25952505002E-02  0.74848784221E-01  0.51100000000E-03 0.  1.
</event>
<event>
 8    1  0.1135368E+005  0.1043930E+01  0.7957747E-01            NaN
         13   -1    0    0    0    0  0.00000000000E+00  0.00000000000E+00  0.74505805969E-08  0.10566000000E+00  0.10566000000E+00 0.  1.
     999900   -1    0    0    0    0 -0.00000000000E+00 -0.00000000000E+00 -0.74505805969E-08  0.93827000000E+00  0.93827000000E+00 0. -1.
     999902    2    1    2    0    0  0.10327952167E-01 -0.16136280332E-01 -0.14081294414E-01  0.10201533520E+01  0.10198762339E+01 0.  0.
     999903    2    3    3    0    0  0.10859293052E+00 -0.15338996332E-01 -0.71947659572E-01  0.13279482362E+00  0.20743434952E-01 0.  0.
         14    1    1    2    0    0 -0.10327952167E-01  0.16136280332E-01  0.14081294414E-01  0.23776648025E-01  0.00000000000E+00 0. -1.
     999901    1    3    3    0    0 -0.98264978355E-01 -0.79728400022E-03  0.57866365158E-01  0.88735852836E+00  0.88000000000E+00 0.  1.
        -11    1    4    4    0    0  0.51533170758E-01 -0.36672930967E-02 -0.45430320631E-01  0.68798923543E-01  0.51100000000E-03 0.  1.
         11    1    4    4    0    0  0.57059759764E-01 -0.11671703235E-01 -0.26517338942E-01  0.63995900074E-01  0.51100000000E-03 0. -1.
</event>
<event>
 7    1  0.1135368E+005  0.1043930E+01  0.7957747E-01            NaN
         13   -1    0    0    0    0  0.00000000000E+00  0.00000000000E+00  0.74505805969E-08  0.10566000000E+00  0.10566000000E+00 0. -1.
     999900   -1    0    0    0    0 -0.00000000000E+00 -0.00000000000E+00 -0.74505805969E-08  0.93827000000E+00  0.93827000000E+00 0. -1.
     999902    2    1    2    0    0  0.71872362393E-02 -0.20279747840E-01 -0.70924386326E-02  0.10212754812E+01  0.10210241825E+01 0.  0.
         14    1    1    2    0    0 -0.71872362393E-02  0.20279747840E-01  0.70924386326E-02  0.22654518820E-01  0.00000000000E+00 0.  1.
     999901    1    3    3    0    0 -0.94512828006E-01  0.56941575915E-01 -0.10723334453E-01  0.88695547105E+00  0.88000000000E+00 0.  1.
        -11    1    3    3    0    0  0.47528933312E-01 -0.51815693182E-01 -0.14509027056E-01  0.71795811499E-01  0.51100000000E-03 0.  1.
         11    1    3    3    0    0  0.54171130933E-01 -0.25405630572E-01  0.18139922876E-01  0.62524198630E-01  0.51100000000E-03 0. -1.
</event>
<event>
 8    1  0.1135368E+005  0.1043930E+01  0.7957747E-01            NaN
         13   -1    0    0    0    0  0.00000000000E+00  0.00000000000E+00  0.74505805969E-08  0.10566000000E+00  0.10566000000E+00 0.  1.
     999900   -1    0    0    0    0 -0.00000000000E+00 -0.00000000000E+00 -0.74505805969E-08  0.93827000000E+00  0.93827000000E+00 0.  1.
     999902    2    1    2    0    0  0.13279104549E-01 -0.22885360703E-02 -0.46794017603E-02  0.10296657504E+01  0.10295669424E+01 0.  0.
     999903    2    3    3    0    0 -0.38588448744E-01  0.35259202743E-02 -0.13210986921E+00  0.13895672105E+00  0.18826903431E-01 0.  0.
         14    1    1    2    0    0 -0.13279104549E-01  0.22885360703E-02  0.46794017603E-02  0.14264249571E-01  0.00000000000E+00 0. -1.
     999901    1    3    3    0    0  0.51867553293E-01 -0.58144563446E-02  0.12743046745E+00  0.89070902938E+00  0.88000000000E+00 0. -1.
        -11    1    4    4    0    0 -0.25276463019E-01  0.10366282835E-01 -0.97263697809E-01  0.10102894355E+00  0.51100000000E-03 0. -1.
         11    1    4    4    0    0 -0.13311985725E-01 -0.68403625606E-02 -0.34846171397E-01  0.37927777497E-01  0.51100000000E-03 0.  1.
</event>
<event>
 8    1  0.1135368E+005  0.1043930E+01  0.7957747E-01            NaN
         13   -1    0    0    0    0  0.00000000000E+00  0.00000000000E+00  0.74505805969E-08  0.10566000000E+00  0.10566000000E+00 0. -1.
     999900   -1    0    0    0    0 -0.00000000000E+00 -0.00000000000E+00 -0.74505805969E-08  0.93827000000E+00  0.93827000000E+00 0.  1.
     999902    2    1    2    0    0 -0.18211844107E-01  0.81854571953E-02 -0.12854156066E-01  0.10201833728E+01  0.10199069623E+01 0.  0.
     999903    2    3    3    0    0 -0.13709394608E-01  0.12301982852E+00 -0.41957680136E-01  0.13223392604E+00  0.20088269304E-01 0.  0.
         14    1    1    2    0    0  0.18211844107E-01 -0.81854571953E-02  0.12854156066E-01  0.23746627201E-01  0.00000000000E+00 0. -1.
     999901    1    3    3    0    0 -0.45024494996E-02 -0.11483437132E+00  0.29103524070E-01  0.88794944676E+00  0.88000000000E+00 0.  1.
        -11    1    4    4    0    0 -0.97302812685E-02  0.64741576951E-01 -0.11918182846E-01  0.66546632995E-01  0.51100000000E-03 0. -1.
         11    1    4    4    0    0 -0.39791133391E-02  0.58278251568E-01 -0.30039497291E-01  0.65687293043E-01  0.51100000000E-03 0.  1.
</event>
<event>
 8    1  0.1135368E+005  0.1043930E+01  0.7957747E-01            NaN
         13   -1    0    0    0    0  0.00000000000E+00  0.00000000000E+00  0.74505805969E-08  0.10566000000E+00  0.10566000000E+00 0. -1.
     999900   -1    0    0    0    0 -0.00000000000E+00 -0.00000000000E+00 -0.74505805969E-08  0.93827000000E+00  0.93827000000E+00 0.  1.
     999902    2    1    2    0    0 -0.10449400398E-02  0.23498567424E-01 -0.29943128721E-02  0.10202183893E+01  0.10199428030E+01 0.  0.
     999903    2    3    3    0    0 -0.97397826097E-01  0.59812017513E-01 -0.63550238308E-01  0.13214769090E+00  0.18988561162E-01 0.  0.
         14    1    1    2    0    0  0.10449400398E-02 -0.23498567424E-01  0.29943128721E-02  0.23711610663E-01  0.00000000000E+00 0. -1.
     999901    1    3    3    0    0  0.96352886057E-01 -0.36313450089E-01  0.60555925436E-01  0.88807069843E+00  0.88000000000E+00 0.  1.
        -11    1    4    4    0    0 -0.39911843156E-01  0.34002515525E-01 -0.23333490632E-01  0.57391978466E-01  0.51100000000E-03 0. -1.
         11    1    4    4    0    0 -0.57485982941E-01  0.25809501987E-01 -0.40216747677E-01  0.74755712439E-01  0.51100000000E-03 0.  1.
</event>
<event>
 8    1  0.1135368E+005  0.1043930E+01  0.7957747E-01            NaN
         13   -1    0    0    0    0  0.00000000000E+00  0.00000000000E+00  0.74505805969E-08  0.10566000000E+00  0.10566000000E+00 0. -1.
     999900   -1    0    0    0    0 -0.00000000000E+00 -0.00000000000E+00 -0.74505805969E-08  0.93827000000E+00  0.93827000000E+00 0.  1.
     999902    2    1    2    0    0  0.37473962796E-02 -0.95632784367E-02 -0.20373552265E-01  0.10211137579E+01  0.10208588177E+01 0.  0.
     999903    2    3    3    0    0  0.70437890487E-01  0.95688015716E-01  0.47454688935E-01  0.12975180711E+00  0.21584512490E-01 0.  0.
         14    1    1    2    0    0 -0.37473962796E-02  0.95632784367E-02  0.20373552265E-01  0.22816242137E-01  0.00000000000E+00 0. -1.
     999901    1    3    3    0    0 -0.66690494208E-01 -0.10525129415E+00 -0.67828241200E-01  0.89136195075E+00  0.88000000000E+00 0.  1.
        -11    1    4    4    0    0  0.37392068313E-01  0.50557979650E-01  0.13508093748E-01  0.64319559985E-01  0.51100000000E-03 0.  1.
         11    1    4    4    0    0  0.33045822175E-01  0.45130036067E-01  0.33946595187E-01  0.65432247129E-01  0.51100000000E-03 0. -1.
</event>
<event>
 8    1  0.1135368E+005  0.1043930E+01  0.7957747E-01            NaN
         13   -1    0    0    0    0  0.00000000000E+00  0.00000000000E+00  0.74505805969E-08  0.10566000000E+00  0.10566000000E+00 0.  1.
     999900   -1    0    0    0    0 -0.00000000000E+00 -0.00000000000E+00 -0.74505805969E-08  0.93827000000E+00  0.93827000000E+00 0. -1.
     999902    2    1    2    0    0 -0.19967410379E-01  0.10760455280E-01  0.72764102341E-02  0.10201091893E+01  0.10198310287E+01 0.  0.
     999903    2    3    3    0    0  0.72145050578E-01  0.90158833607E-01  0.57016203690E-01  0.13035481030E+00  0.20199145671E-01 0.  0.
         14    1    1    2    0    0  0.19967410379E-01 -0.10760455280E-01 -0.72764102341E-02  0.23820810669E-01  0.00000000000E+00 0. -1.
     999901    1    3    3    0    0 -0.92112460956E-01 -0.79398378327E-01 -0.49739793456E-01  0.88975437903E+00  0.88000000000E+00 0. -1.
        -11    1    4    4    0    0  0.45052181133E-02  0.34879517984E-02 -0.13540650691E-02  0.58785551973E-02  0.51100000000E-03 0.  1.
         11    1    4    4    0    0  0.67639832464E-01  0.86670881808E-01  0.58370268759E-01  0.12447625511E+00  0.51100000000E-03 0. -1.
</event>
<event>
 8    1  0.1135368E+005  0.1043930E+01  0.7957747E-01            NaN
         13   -1    0    0    0    0  0.00000000000E+00  0.00000000000E+00  0.74505805969E-08  0.10566000000E+00  0.10566000000E+00 0.  1.
     999900   -1    0    0    0    0 -0.00000000000E+00 -0.00000000000E+00 -0.74505805969E-08  0.93827000000E+00  0.93827000000E+00 0.  1.
     999902    2    1    2    0    0 -0.88695737354E-02 -0.19389306059E-01 -0.11159684559E-01  0.10198644003E+01  0.10195804245E+01 0.  0.
     999903    2    3    3    0    0  0.66994824229E-01  0.79073063330E-01 -0.74026384609E-01  0.12890847155E+00  0.19915637110E-01 0.  0.
         14    1    1    2    0    0  0.88695737354E-02  0.19389306059E-01  0.11159684559E-01  0.24065599663E-01  0.00000000000E+00 0.  1.
     999901    1    3    3    0    0 -0.75864397965E-01 -0.98462369389E-01  0.62866700050E-01  0.89095592879E+00  0.88000000000E+00 0. -1.
        -11    1    4    4    0    0  0.14064910634E-01  0.17332574698E-01 -0.26739044893E-01  0.34835003941E-01  0.51100000000E-03 0.  1.
         11    1    4    4    0    0  0.52929913596E-01  0.61740488632E-01 -0.47287339716E-01  0.94073467610E-01  0.51100000000E-03 0. -1.
</event>
<event>
 8    1  0.1135368E+005  0.1043930E+01  0.7957747E-01            NaN
         13   -1    0    0    0    0  0.00000000000E+00  0.00000000000E+00  0.74505805969E-08  0.10566000000E+00  0.10566000000E+00 0.  1.
     999900   -1    0    0    0    0 -0.00000000000E+00 -0.00000000000E+00 -0.74505805969E-08  0.93827000000E+00  0.93827000000E+00 0. -1.
     999902    2    1    2    0    0 -0.17244612287E-01  0.51021859815E-02 -0.13644191805E-01  0.10213562780E+01  0.10211067886E+01 0.  0.
     999903    2    3    3    0    0 -0.90450691538E-01  0.27638380129E-01  0.89058768607E-01  0.13207853277E+00  0.23834154021E-01 0.  0.
         14    1    1    2    0    0  0.17244612287E-01 -0.51021859815E-02  0.13644191805E-01  0.22573721996E-01  0.00000000000E+00 0.  1.
     999901    1    3    3    0    0  0.73206079251E-01 -0.22536194147E-01 -0.10270296041E+00  0.88927774523E+00  0.88000000000E+00 0. -1.
        -11    1    4    4    0    0 -0.23428753292E-01  0.74700029928E-02  0.38690394546E-01  0.45846648478E-01  0.51100000000E-03 0.  1.
         11    1    4    4    0    0 -0.67021938247E-01  0.20168377136E-01  0.50368374060E-01  0.86231884295E-01  0.51100000000E-03 0. -1.
</event>
<event>
 8    1  0.1135368E+005  0.1043930E+01  0.7957747E-01            NaN
         13   -1    0    0    0    0  0.00000000000E+00  0.00000000000E+00  0.74505805969E-08  0.10566000000E+00  0.10566000000E+00 0. -1.
     999900   -1    0    0    0    0 -0.00000000000E+00 -0.00000000000E+00 -0.74505805969E-08  0.93827000000E+00  0.93827000000E+00 0.  1.
     999902    2    1    2    0    0 -0.18447013166E-01  0.64334402689E-02  0.12769440474E-01  0.10205903329E+01  0.10203234231E+01 0.  0.
     999903    2    3    3    0    0 -0.11976820747E+00  0.18101815282E-01 -0.49844029847E-01  0.13248978567E+00  0.19925279414E-01 0.  0.
         14    1    1    2    0    0  0.18447013166E-01 -0.64334402689E-02 -0.12769440474E-01  0.23339667060E-01  0.00000000000E+00 0.  1.
     999901    1    3    3    0    0  0.10132119430E+00 -0.11668375013E-01  0.62613470321E-01  0.88810054727E+00  0.88000000000E+00 0. -1.
        -11    1    4    4    0    0 -0.94526003888E-01  0.12539727300E-01 -0.30210089750E-01  0.10002660054E+00  0.51100000000E-03 0. -1.
         11    1    4    4    0    0 -0.25242203580E-01  0.55620879813E-02 -0.19633940097E-01  0.32463185133E-01  0.51100000000E-03 0.  1.
</event>
<event>
 8    1  0.1135368E+005  0.1043930E+01  0.7957747E-01            NaN
         13   -1    0    0    0    0  0.00000000000E+00  0.00000000000E+00  0.74505805969E-08  0.10566000000E+00  0.10566000000E+00 0. -1.
     999900   -1    0    0    0    0 -0.00000000000E+00 -0.00000000000E+00 -0.74505805969E-08  0.93827000000E+00  0.93827000000E+00 0. -1.
     999902    2    1    2    0    0  0.84361811777E-02 -0.97195648177E-02  0.19669909384E-01  0.10204237364E+01  0.10201529578E+01 0.  0.
     999903    2    3    3    0    0  0.39096315454E-01 -0.87537456971E-01  0.90892332069E-01  0.13359325561E+00  0.19859850454E-01 0.  0.
         14    1    1    2    0    0 -0.84361811777E-02  0.97195648177E-02 -0.19669909384E-01  0.23506263597E-01  0.00000000000E+00 0.  1.
     999901    1    3    3    0    0 -0.30660134276E-01  0.77817892154E-01 -0.71222422685E-01  0.88683048079E+00  0.88000000000E+00 0. -1.
        -11    1    4    4    0    0  0.33573012301E-01 -0.58286065542E-01  0.70895555625E-01  0.97728468318E-01  0.51100000000E-03 0. -1.
         11    1    4    4    0    0  0.55233031529E-02 -0.29251391429E-01  0.19996776444E-01  0.35864787291E-01  0.51100000000E-03 0.  1.
</event>
<event>
 8    1  0.1135368E+005  0.1043930E+01  0.7957747E-01            NaN
         13   -1    0    0    0    0  0.00000000000E+00  0.00000000000E+00  0.74505805969E-08  0.10566000000E+00  0.10566000000E+00 0. -1.
     999900   -1    0    0    0    0 -0.00000000000E+00 -0.00000000000E+00 -0.74505805969E-08  0.93827000000E+00  0.93827000000E+00 0.  1.
     999902    2    1    2    0    0 -0.72752684382E-02  0.19888363847E-01 -0.10901381106E-01  0.10201115899E+01  0.10198334861E+01 0.  0.
     999903    2    3    3    0    0  0.28256357729E-01 -0.12141208095E+00  0.18734625350E-01  0.12763940269E+00  0.20037858606E-01 0.  0.
         14    1    1    2    0    0  0.72752684382E-02 -0.19888363847E-01  0.10901381106E-01  0.23818410051E-01  0.00000000000E+00 0. -1.
     999901    1    3    3    0    0 -0.35531626167E-01  0.14130044480E+00 -0.29636006457E-01  0.89247218726E+00  0.88000000000E+00 0.  1.
        -11    1    4    4    0    0  0.21939246190E-01 -0.60408352582E-01  0.30988946792E-02  0.64345659172E-01  0.51100000000E-03 0. -1.
         11    1    4    4    0    0  0.63171115388E-02 -0.61003728371E-01  0.15635730671E-01  0.63293743514E-01  0.51100000000E-03 0.  1.
</event>
<event>
 8    1  0.1135368E+005  0.1043930E+01  0.7957747E-01            NaN
         13   -1    0    0    0    0  0.00000000000E+00  0.00000000000E+00  0.74505805969E-08  0.10566000000E+00  0.10566000000E+00 0.  1.
     999900   -1    0    0    0    0 -0.00000000000E+00 -0.00000000000E+00 -0.74505805969E-08  0.93827000000E+00  0.93827000000E+00 0.  1.
     999902    2    1    2    0    0  0.12649314080E-01  0.14940364361E-01  0.13126497183E-01  0.10203604314E+01  0.10200881753E+01 0.  0.
     999903    2    3    3    0    0  0.29585439264E-01  0.12804224588E+00 -0.12162687803E-03  0.13286148455E+00  0.19545954455E-01 0.  0.
         14    1    1    2    0    0 -0.12649314080E-01 -0.14940364361E-01 -0.13126497183E-01  0.23569568563E-01  0.00000000000E+00 0.  1.
     999901    1    3    3    0    0 -0.16936125184E-01 -0.11310188152E+00  0.13248124062E-01  0.88749894689E+00  0.88000000000E+00 0. -1.
        -11    1    4    4    0    0  0.36574767212E-02  0.55179167742E-01  0.37034868512E-02  0.55426479453E-01  0.51100000000E-03 0.  1.
         11    1    4    4    0    0  0.25927962543E-01  0.72863078141E-01 -0.38251137292E-02  0.77435005094E-01  0.51100000000E-03 0. -1.
</event>
<event>
 8    1  0.1135368E+005  0.1043930E+01  0.7957747E-01            NaN
         13   -1    0    0    0    0  0.00000000000E+00  0.00000000000E+00  0.74505805969E-08  0.10566000000E+00  0.10566000000E+00 0.  1.
     999900   -1    0    0    0    0 -0.00000000000E+00 -0.00000000000E+00 -0.74505805969E-08  0.93827000000E+00  0.93827000000E+00 0.  1.
     999902    2    1    2    0    0 -0.13475741326E-01 -0.19812226642E-01  0.20607008037E-02  0.10198807502E+01  0.10195971647E+01 0.  0.
     999903    2    3    3    0    0 -0.12402747793E+00  0.33637359500E-01  0.18640212838E-01  0.13120002859E+00  0.18753739145E-01 0.  0.
         14    1    1    2    0    0  0.13475741326E-01  0.19812226642E-01 -0.20607008037E-02  0.24049249814E-01  0.00000000000E+00 0.  1.
     999901    1    3    3    0    0  0.11055173660E+00 -0.53449586141E-01 -0.16579512034E-01  0.88868072160E+00  0.88000000000E+00 0.  1.
        -11    1    4    4    0    0 -0.88537188246E-01  0.26683316879E-01  0.52117022353E-02  0.92618875308E-01  0.51100000000E-03 0.  1.
         11    1    4    4    0    0 -0.35490289679E-01  0.69540426202E-02  0.13428510603E-01  0.38581153278E-01  0.51100000000E-03 0. -1.
</event>
<event>
 8    1  0.1135368E+005  0.1043930E+01  0.7957747E-01            NaN
         13   -1    0    0    0    0  0.00000000000E+00  0.00000000000E+00  0.74505805969E-08  0.10566000000E+00  0.10566000000E+00 0. -1.
     999900   -1    0    0    0    0 -0.00000000000E+00 -0.00000000000E+00 -0.74505805969E-08  0.93827000000E+00  0.93827000000E+00 0.  1.
     999902    2    1    2    0    0 -0.17782576273E-01  0.11685157534E-01  0.10538223404E-01  0.10201851673E+01  0.10199087992E+01 0.  0.
     999903    2    3    3    0    0 -0.55367061502E-01  0.67903780606E-01 -0.95739362245E-01  0.13121494719E+00  0.19362385235E-01 0.  0.
         14    1    1    2    0    0  0.17782576273E-01 -0.11685157534E-01 -0.10538223404E-01  0.23744832659E-01  0.00000000000E+00 0.  1.
     999901    1    3    3    0    0  0.37584485229E-01 -0.56218623072E-01  0.10627758565E+00  0.88897022015E+00  0.88000000000E+00 0. -1.
        -11    1    4    4    0    0 -0.65820574534E-02  0.14976831428E-01 -0.27648032931E-01  0.32129484993E-01  0.51100000000E-03 0.  1.
         11    1    4    4    0    0 -0.48785004048E-01  0.52926949178E-01 -0.68091329314E-01  0.99085462193E-01  0.51100000000E-03 0. -1.
</event>
<event>
 8    1  0.1135368E+005  0.1043930E+01  0.7957747E-01            NaN
         13   -1    0    0    0    0  0.00000000000E+00  0.00000000000E+00  0.74505805969E-08  0.10566000000E+00  0.10566000000E+00 0. -1.
     999900   -1    0    0    0    0 -0.00000000000E+00 -0.00000000000E+00 -0.74505805969E-08  0.93827000000E+00  0.93827000000E+00 0.  1.
     999902    2    1    2    0    0  0.17118503470E-01 -0.13128114111E-01 -0.49344675789E-02  0.10217999410E+01  0.10215602674E+01 0.  0.
     999903    2    3    3    0    0  0.90029754906E-01  0.93122753802E-01  0.23709218702E-01  0.13195402272E+00  0.85166316794E-02 0.  0.
         14    1    1    2    0    0 -0.17118503470E-01  0.13128114111E-01  0.49344675789E-02  0.22130059003E-01  0.00000000000E+00 0. -1.
     999901    1    3    3    0    0 -0.72911251436E-01 -0.10625086791E+00 -0.28643686281E-01  0.88984591828E+00  0.88000000000E+00 0.  1.
        -11    1    4    4    0    0  0.31601406838E-01  0.38444000483E-01  0.10040663316E-01  0.50770721169E-01  0.51100000000E-03 0.  1.
         11    1    4    4    0    0  0.58428348068E-01  0.54678753320E-01  0.13668555386E-01  0.81183301546E-01  0.51100000000E-03 0. -1.
</event>
<event>
 8    1  0.1135368E+005  0.1043930E+01  0.7957747E-01            NaN
         13   -1    0    0    0    0  0.00000000000E+00  0.00000000000E+00  0.74505805969E-08  0.10566000000E+00  0.10566000000E+00 0.  1.
     999900   -1    0    0    0    0 -0.00000000000E+00 -0.00000000000E+00 -0.74505805969E-08  0.93827000000E+00  0.93827000000E+00 0.  1.
     999902    2    1    2    0    0 -0.34297101596E-02 -0.20822252493E-01  0.97269349277E-02  0.10206933399E+01  0.10204288078E+01 0.  0.
     999903    2    3    3    0    0 -0.68372652754E-01 -0.11217515601E+00  0.13712867934E-01  0.13357506905E+00  0.19904046165E-01 0.  0.
         14    1    1    2    0    0  0.34297101596E-02  0.20822252493E-01 -0.97269349277E-02  0.23236660125E-01  0.00000000000E+00 0. -1.
     999901    1    3    3    0    0  0.64942942594E-01  0.91352903516E-01 -0.39859330066E-02  0.88711827083E+00  0.88000000000E+00 0. -1.
        -11    1    4    4    0    0 -0.44837503462E-01 -0.87522452734E-01  0.14925032539E-01  0.99466573111E-01  0.51100000000E-03 0. -1.
         11    1    4    4    0    0 -0.23535149292E-01 -0.24652703276E-01 -0.12121646048E-02  0.34108495937E-01  0.51100000000E-03 0.  1.
</event>
<event>
 8    1  0.1135368E+005  0.1043930E+01  0.7957747E-01            NaN
         13   -1    0    0    0    0  0.00000000000E+00  0.00000000000E+00  0.74505805969E-08  0.10566000000E+00  0.10566000000E+00 0.  1.
     999900   -1    0    0    0    0 -0.00000000000E+00 -0.00000000000E+00 -0.74505805969E-08  0.93827000000E+00  0.93827000000E+00 0.  1.
     999902    2    1    2    0    0 -0.47384490960E-02  0.18648250116E-01  0.11185439583E-01  0.10216741201E+01  0.10214316832E+01 0.  0.
     999903    2    3    3    0    0 -0.43627531428E-01 -0.19384693227E-01  0.12252776686E+00  0.13299196130E+00  0.19866562076E-01 0.  0.
         14    1    1    2    0    0  0.47384490960E-02 -0.18648250116E-01 -0.11185439583E-01  0.22255879917E-01  0.00000000000E+00 0. -1.
     999901    1    3    3    0    0  0.38889082332E-01  0.38032943343E-01 -0.11134232727E+00  0.88868215879E+00  0.88000000000E+00 0.  1.
        -11    1    4    4    0    0 -0.36275128208E-01 -0.20873440054E-01  0.85336245433E-01  0.95047994886E-01  0.51100000000E-03 0.  1.
         11    1    4    4    0    0 -0.73524032202E-02  0.14887468267E-02  0.37191521422E-01  0.37943966410E-01  0.51100000000E-03 0. -1.
</event>
<event>
 8    1  0.1135368E+005  0.1043930E+01  0.7957747E-01            NaN
         13   -1    0    0    0    0  0.00000000000E+00  0.00000000000E+00  0.74505805969E-08  0.10566000000E+00  0.10566000000E+00 0. -1.
     999900   -1    0    0    0    0 -0.00000000000E+00 -0.00000000000E+00 -0.74505805969E-08  0.93827000000E+00  0.93827000000E+00 0.  1.
     999902    2    1    2    0    0  0.17605545756E-01 -0.76740945770E-02  0.14890880515E-01  0.10196280393E+01  0.10193383900E+01 0.  0.
     999903    2    3    3    0    0 -0.25537328514E-01 -0.63514473698E-01 -0.10669845623E+00  0.12846956728E+00  0.20823679749E-01 0.  0.
         14    1    1    2    0    0 -0.17605545756E-01  0.76740945770E-02 -0.14890880515E-01  0.24301960650E-01  0.00000000000E+00 0.  1.
     999901    1    3    3    0    0  0.43142874270E-01  0.55840379121E-01  0.12158933674E+00  0.89115847207E+00  0.88000000000E+00 0. -1.
        -11    1    4    4    0    0 -0.26669445369E-01 -0.57714281877E-01 -0.86081534053E-01  0.10701630378E+00  0.51100000000E-03 0.  1.
         11    1    4    4    0    0  0.11321168547E-02 -0.58001918208E-02 -0.20616922173E-01  0.21453263495E-01  0.51100000000E-03 0. -1.
</event>
<event>
 8    1  0.1135368E+005  0.1043930E+01  0.7957747E-01            NaN
         13   -1    0    0    0    0  0.00000000000E+00  0.00000000000E+00  0.74505805969E-08  0.10566000000E+00  0.10566000000E+00 0.  1.
     999900   -1    0    0    0    0 -0.00000000000E+00 -0.00000000000E+00 -0.74505805969E-08  0.93827000000E+00  0.93827000000E+00 0.  1.
     999902    2    1    2    0    0  0.82311645947E-02  0.17094657069E-01 -0.14623391838E-01  0.10199753979E+01  0.10196940666E+01 0.  0.
     999903    2    3    3    0    0  0.50547040859E-01  0.72789677032E-01  0.94286997937E-01  0.13050699399E+00  0.16991088182E-01 0.  0.
         14    1    1    2    0    0 -0.82311645947E-02 -0.17094657069E-01  0.14623391838E-01  0.23954602058E-01  0.00000000000E+00 0.  1.
     999901    1    3    3    0    0 -0.42315876264E-01 -0.55695019963E-01 -0.10891038977E+00  0.88946840395E+00  0.88000000000E+00 0.  1.
        -11    1    4    4    0    0  0.82243786783E-02  0.20836925836E-01  0.16445406198E-01  0.27794430898E-01  0.51100000000E-03 0.  1.
         11    1    4    4    0    0  0.42322662180E-01  0.51952751197E-01  0.77841591739E-01  0.10271256309E+00  0.51100000000E-03 0. -1.
</event>
<event>
 8    1  0.1135368E+005  0.1043930E+01  0.7957747E-01            NaN
         13   -1    0    0    0    0  0.00000000000E+00  0.00000000000E+00  0.74505805969E-08  0.10566000000E+00  0.10566000000E+00 0. -1.
     999900   -1    0    0    0    0 -0.00000000000E+00 -0.00000000000E+00 -0.74505805969E-08  0.93827000000E+00  0.93827000000E+00 0.  1.
     999902    2    1    2    0    0 -0.59128110088E-02 -0.20620624310E-02 -0.21231162062E-01  0.10217946058E+01  0.10215548153E+01 0.  0.
     999903    2    3    3    0    0  0.12104326596E+00  0.28297446451E-01 -0.39754705416E-01  0.13197290064E+00  0.19600821130E-01 0.  0.
         14    1    1    2    0    0  0.59128110088E-02  0.20620624310E-02  0.21231162062E-01  0.22135394236E-01  0.00000000000E+00 0. -1.
     999901    1    3    3    0    0 -0.12695607697E+00 -0.30359508882E-01  0.18523543354E-01  0.88982170513E+00  0.88000000000E+00 0. -1.
        -11    1    4    4    0    0  0.55445429307E-01  0.16015723554E-01 -0.87167667610E-02  0.58369017259E-01  0.51100000000E-03 0.  1.
         11    1    4    4    0    0  0.65597836656E-01  0.12281722897E-01 -0.31037938655E-01  0.73603883377E-01  0.51100000000E-03 0. -1.
</event>
<event>
 8    1  0.1135368E+005  0.1043930E+01  0.7957747E-01            NaN
         13   -1    0    0    0    0  0.00000000000E+00  0.00000000000E+00  0.74505805969E-08  0.10566000000E+00  0.10566000000E+00 0.  1.
     999900   -1    0    0    0    0 -0.00000000000E+00 -0.00000000000E+00 -0.74505805969E-08  0.93827000000E+00  0.93827000000E+00 0. -1.
     999902    2    1    2    0    0  0.14104258930E-02 -0.16372118747E-01 -0.16058801254E-01  0.10209534757E+01  0.10206948999E+01 0.  0.
     999903    2    3    3    0    0 -0.12665066571E+00  0.24460414145E-01  0.22479744663E-02  0.13055913775E+00  0.20048243700E-01 0.  0.
         14    1    1    2    0    0 -0.14104258930E-02  0.16372118747E-01  0.16058801254E-01  0.22976524350E-01  0.00000000000E+00 0.  1.
     999901    1    3    3    0    0  0.12806109161E+00 -0.40832532892E-01 -0.18306775720E-01  0.89039433790E+00  0.88000000000E+00 0. -1.
        -11    1    4    4    0    0 -0.60634998278E-01  0.16873726083E-01  0.97237207155E-02  0.63687812913E-01  0.51100000000E-03 0.  1.
         11    1    4    4    0    0 -0.66015667435E-01  0.75866880623E-02 -0.74757462492E-02  0.66871324838E-01  0.51100000000E-03 0. -1.
</event>
<event>
 8    1  0.1135368E+005  0.1043930E+01  0.7957747E-01            NaN
         13   -1    0    0    0    0  0.00000000000E+00  0.00000000000E+00  0.74505805969E-08  0.10566000000E+00  0.10566000000E+00 0. -1.
     999900   -1    0    0    0    0 -0.00000000000E+00 -0.00000000000E+00 -0.74505805969E-08  0.93827000000E+00  0.93827000000E+00 0.  1.
     999902    2    1    2    0    0 -0.89108050314E-02 -0.78878403556E-02  0.17938231152E-01  0.10224032583E+01  0.10221766100E+01 0.  0.
     999903    2    3    3    0    0  0.77517257411E-01 -0.87668592888E-01 -0.56396389625E-01  0.13147092960E+00  0.20232280957E-01 0.  0.
         14    1    1    2    0    0  0.89108050314E-02  0.78878403556E-02 -0.17938231152E-01  0.21526741710E-01  0.00000000000E+00 0.  1.
     999901    1    3    3    0    0 -0.86428062442E-01  0.79780752533E-01  0.74334620777E-01  0.89093232869E+00  0.88000000000E+00 0. -1.
        -11    1    4    4    0    0  0.51109779174E-01 -0.52104546325E-01 -0.24911651987E-01  0.77122920074E-01  0.51100000000E-03 0. -1.
         11    1    4    4    0    0  0.26407478236E-01 -0.35564046563E-01 -0.31484737638E-01  0.54348009530E-01  0.51100000000E-03 0.  1.
</event>
<event>
 8    1  0.1135368E+005  0.1043930E+01  0.7957747E-01            NaN
         13   -1    0    0    0    0  0.00000000000E+00  0.00000000000E+00  0.74505805969E-08  0.10566000000E+00  0.10566000000E+00 0.  1.
     999900   -1    0    0    0    0 -0.00000000000E+00 -0.00000000000E+00 -0.74505805969E-08  0.93827000000E+00  0.93827000000E+00 0.  1.
     999902    2    1    2    0    0  0.16721725474E-01  0.82009487217E-02 -0.59394055725E-02  0.10243813888E+01  0.10241948454E+01 0.  0.
     999903    2    3    3    0    0  0.12727352348E+00  0.45459768318E-01 -0.19201100372E-02  0.13667306143E+00  0.20265699688E-01 0.  0.
         14    1    1    2    0    0 -0.16721725474E-01 -0.82009487217E-02  0.59394055725E-02  0.19548611237E-01  0.00000000000E+00 0. -1.
     999901    1    3    3    0    0 -0.11055179800E+00 -0.37258819596E-01 -0.40192955353E-02  0.88770832733E+00  0.88000000000E+00 0.  1.
        -11    1    4    4    0    0  0.10201049159E+00  0.34227341884E-01  0.64152934273E-02  0.10779178279E+00  0.51100000000E-03 0. -1.
         11    1    4    4    0    0  0.25263031890E-01  0.11232426434E-01 -0.83354034646E-02  0.28881278638E-01  0.51100000000E-03 0.  1.
</event>
<event>
 8    1  0.1135368E+005  0.1043930E+01  0.7957747E-01            NaN
         13   -1    0    0    0    0  0.00000000000E+00  0.00000000000E+00  0.74505805969E-08  0.10566000000E+00  0.10566000000E+00 0.  1.
     999900   -1    0    0    0    0 -0.00000000000E+00 -0.00000000000E+00 -0.74505805969E-08  0.93827000000E+00  0.93827000000E+00 0.  1.
     999902    2    1    2    0    0 -0.10642802487E-01 -0.19113127960E-01 -0.20117214847E-03  0.10220525830E+01  0.10218184090E+01 0.  0.
     999903    2    3    3    0    0 -0.14025801414E-01  0.12590508169E+00  0.18445903811E-01  0.12998227227E+00  0.22501711872E-01 0.  0.
         14    1    1    2    0    0  0.10642802487E-01  0.19113127960E-01  0.20117214847E-03  0.21877417019E-01  0.00000000000E+00 0. -1.
     999901    1    3    3    0    0  0.33829989263E-02 -0.14501820965E+00 -0.18647075960E-01  0.89207031071E+00  0.88000000000E+00 0.  1.
        -11    1    4    4    0    0 -0.17262075200E-01  0.76733286982E-01  0.45704645759E-02  0.78785321213E-01  0.51100000000E-03 0.  1.
         11    1    4    4    0    0  0.32362737859E-02  0.49171794705E-01  0.13875439235E-01  0.51196951056E-01  0.51100000000E-03 0. -1.
</event>
<event>
 8    1  0.1135368E+005  0.1043930E+01  0.7957747E-01            NaN
         13   -1    0    0    0    0  0.00000000000E+00  0.00000000000E+00  0.74505805969E-08  0.10566000000E+00  0.10566000000E+00 0. -1.
     999900   -1    0    0    0    0 -0.00000000000E+00 -0.00000000000E+00 -0.74505805969E-08  0.93827000000E+00  0.93827000000E+00 0. -1.
     999902    2    1    2    0    0 -0.11888001969E-01 -0.19340787389E-01 -0.69876934532E-02  0.10201767159E+01  0.10199001486E+01 0.  0.
     999903    2    3    3    0    0 -0.41193677940E-01 -0.10972676078E+00 -0.60570438841E-01  0.13344137911E+00  0.20023547783E-01 0.  0.
         14    1    1    2    0    0  0.11888001969E-01  0.19340787389E-01  0.69876934532E-02  0.23753284140E-01  0.00000000000E+00 0. -1.
     999901    1    3    3    0    0  0.29305675971E-01  0.90385973388E-01  0.53582745388E-01  0.88673533675E+00  0.88000000000E+00 0. -1.
        -11    1    4    4    0    0 -0.21379497177E-01 -0.76740247756E-01 -0.33666220894E-01  0.86485976178E-01  0.51100000000E-03 0.  1.
         11    1    4    4    0    0 -0.19814180763E-01 -0.32986513021E-01 -0.26904217948E-01  0.46955402937E-01  0.51100000000E-03 0. -1.
</event>
<event>
 8    1  0.1135368E+005  0.1043930E+01  0.7957747E-01            NaN
         13   -1    0    0    0    0  0.00000000000E+00  0.00000000000E+00  0.74505805969E-08  0.10566000000E+00  0.10566000000E+00 0.  1.
     999900   -1    0    0    0    0 -0.00000000000E+00 -0.00000000000E+00 -0.74505805969E-08  0.93827000000E+00  0.93827000000E+00 0. -1.
     999902    2    1    2    0    0 -0.14111025314E-01 -0.40308872732E-02  0.18282120518E-01  0.10204863438E+01  0.10202170224E+01 0.  0.
     999903    2    3    3    0    0  0.10887873305E+00 -0.29637087762E-01 -0.58041616630E-01  0.12829383593E+00  0.18908823205E-01 0.  0.
         14    1    1    2    0    0  0.14111025314E-01  0.40308872732E-02 -0.18282120518E-01  0.23443656248E-01  0.00000000000E+00 0. -1.
     999901    1    3    3    0    0 -0.12298975836E+00  0.25606200489E-01  0.76323737148E-01  0.89219250782E+00  0.88000000000E+00 0.  1.
        -11    1    4    4    0    0  0.82150370907E-01 -0.30592672309E-01 -0.44475909513E-01  0.98300369720E-01  0.51100000000E-03 0. -1.
         11    1    4    4    0    0  0.26728362141E-01  0.95558454726E-03 -0.13565707117E-01  0.29993466208E-01  0.51100000000E-03 0.  1.
</event>
<event>
 8    1  0.1135368E+005  0.1043930E+01  0.7957747E-01            NaN
         13   -1    0    0    0    0  0.00000000000E+00  0.00000000000E+00  0.74505805969E-08  0.10566000000E+00  0.10566000000E+00 0.  1.
     999900   -1    0    0    0    0 -0.00000000000E+00 -0.00000000000E+00 -0.74505805969E-08  0.93827000000E+00  0.93827000000E+00 0.  1.
     999902    2    1    2    0    0 -0.23890085218E-01 -0.65555000799E-03  0.24736788902E-02  0.10199032440E+01  0.10196201950E+01 0.  0.
     999903    2    3    3    0    0 -0.18430467385E-01 -0.96839676384E-01  0.83632240501E-01  0.13093310628E+00  0.20773098467E-01 0.  0.
         14    1    1    2    0    0  0.23890085218E-01  0.65555000799E-03 -0.24736788902E-02  0.24026756019E-01  0.00000000000E+00 0.  1.
     999901    1    3    3    0    0 -0.54596178329E-02  0.96184126376E-01 -0.81158561611E-01  0.88897013770E+00  0.88000000000E+00 0.  1.
        -11    1    4    4    0    0 -0.38647592350E-02 -0.13040285721E-01  0.22090116260E-01  0.25946479010E-01  0.51100000000E-03 0. -1.
         11    1    4    4    0    0 -0.14565708150E-01 -0.83799390663E-01  0.61542124241E-01  0.10498662727E+00  0.51100000000E-03 0.  1.
</event>
<event>
 8    1  0.1135368E+005  0.1043930E+01  0.7957747E-01            NaN
         13   -1    0    0    0    0  0.00000000000E+00  0.00000000000E+00  0.74505805969E-08  0.10566000000E+00  0.10566000000E+00 0. -1.
     999900   -1    0    0    0    0 -0.00000000000E+00 -0.00000000000E+00 -0.74505805969E-08  0.93827000000E+00  0.93827000000E+00 0. -1.
     999902    2    1    2    0    0  0.21283199004E-01 -0.10076902753E-01  0.12908983711E-02  0.10203464263E+01  0.10200738428E+01 0.  0.
     999903    2    3    3    0    0 -0.45303452836E-01  0.84240614897E-01 -0.83130850690E-01  0.12879911515E+00  0.23012815777E-01 0.  0.
         14    1    1    2    0    0 -0.21283199004E-01  0.10076902753E-01 -0.12908983711E-02  0.23583573680E-01  0.00000000000E+00 0.  1.
     999901    1    3    3    0    0  0.66586651840E-01 -0.94317517650E-01  0.84421749061E-01  0.89154731117E+00  0.88000000000E+00 0. -1.
        -11    1    4    4    0    0 -0.49782927973E-02  0.27107242522E-03 -0.63006501607E-02  0.80508504446E-02  0.51100000000E-03 0.  1.
         11    1    4    4    0    0 -0.40325160039E-01  0.83969542472E-01 -0.76830200529E-01  0.12074826471E+00  0.51100000000E-03 0. -1.
</event>
<event>
 8    1  0.1135368E+005  0.1043930E+01  0.7957747E-01            NaN
         13   -1    0    0    0    0  0.00000000000E+00  0.00000000000E+00  0.74505805969E-08  0.10566000000E+00  0.10566000000E+00 0.  1.
     999900   -1    0    0    0    0 -0.00000000000E+00 -0.00000000000E+00 -0.74505805969E-08  0.93827000000E+00  0.93827000000E+00 0.  1.
     999902    2    1    2    0    0 -0.16649787960E-01  0.25823590229E-02  0.15628104295E-01  0.10209491023E+01  0.10206904270E+01 0.  0.
     999903    2    3    3    0    0 -0.66153507512E-01  0.25832279971E-01  0.11185205488E+00  0.13401605758E+00  0.20145179664E-01 0.  0.
         14    1    1    2    0    0  0.16649787960E-01 -0.25823590229E-02 -0.15628104295E-01  0.22980897743E-01  0.00000000000E+00 0. -1.
     999901    1    3    3    0    0  0.49503719552E-01 -0.23249920948E-01 -0.96223950585E-01  0.88693304468E+00  0.88000000000E+00 0.  1.
        -11    1    4    4    0    0 -0.51286051810E-01  0.28344567194E-01  0.92086004284E-01  0.10915020342E+00  0.51100000000E-03 0. -1.
         11    1    4    4    0    0 -0.14867455702E-01 -0.25122872235E-02  0.19766050596E-01  0.24865854164E-01  0.51100000000E-03 0.  1.
</event>
<event>
 8    1  0.1135368E+005  0.1043930E+01  0.7957747E-01            NaN
         13   -1    0    0    0    0  0.00000000000E+00  0.00000000000E+00  0.74505805969E-08  0.10566000000E+00  0.10566000000E+00 0. -1.
     999900   -1    0    0    0    0 -0.00000000000E+00 -0.00000000000E+00 -0.74505805969E-08  0.93827000000E+00  0.93827000000E+00 0.  1.
     999902    2    1    2    0    0 -0.21092521517E-01  0.90543357970E-02 -0.21364101462E-02  0.10208770239E+01  0.10206167048E+01 0.  0.
     999903    2    3    3    0    0 -0.76243616018E-01  0.57453864195E-01 -0.91100464824E-01  0.13335307455E+00  0.19227904359E-01 0.  0.
         14    1    1    2    0    0  0.21092521517E-01 -0.90543357970E-02  0.21364101462E-02  0.23052976142E-01  0.00000000000E+00 0.  1.
     999901    1    3    3    0    0  0.55151094500E-01 -0.48399528398E-01  0.88964054678E-01  0.88752394931E+00  0.88000000000E+00 0. -1.
        -11    1    4    4    0    0 -0.37145276577E-01  0.31262393087E-01 -0.33585894153E-01  0.59037125612E-01  0.51100000000E-03 0.  1.
         11    1    4    4    0    0 -0.39098339440E-01  0.26191471108E-01 -0.57514570671E-01  0.74315948936E-01  0.51100000000E-03 0. -1.
</event>
<event>
 8    1  0.1135368E+005  0.1043930E+01  0.7957747E-01            NaN
         13   -1    0    0    0    0  0.00000000000E+00  0.00000000000E+00  0.74505805969E-08  0.10566000000E+00  0.10566000000E+00 0.  1.
     999900   -1    0    0    0    0 -0.00000000000E+00 -0.00000000000E+00 -0.74505805969E-08  0.93827000000E+00  0.93827000000E+00 0. -1.
     999902    2    1    2    0    0 -0.38785401627E-02 -0.12505865612E-01  0.17879632594E-01  0.10217687498E+01  0.10215283927E+01 0.  0.
     999903    2    3    3    0    0  0.49003555684E-01  0.11868270548E+00 -0.63598138928E-02  0.13014410456E+00  0.20251115271E-01 0.  0.
         14    1    1    2    0    0  0.38785401627E-02  0.12505865612E-01 -0.17879632594E-01  0.22161250195E-01  0.00000000000E+00 0. -1.
     999901    1    3    3    0    0 -0.52882095847E-01 -0.13118857109E+00  0.24239446487E-01  0.89162464525E+00  0.88000000000E+00 0. -1.
        -11    1    4    4    0    0  0.26804851601E-01  0.51360700021E-01 -0.11505545463E-01  0.59068267906E-01  0.51100000000E-03 0.  1.
         11    1    4    4    0    0  0.22198704083E-01  0.67322005455E-01  0.51457315698E-02  0.71075836652E-01  0.51100000000E-03 0. -1.
</event>
<event>
 8    1  0.1135368E+005  0.1043930E+01  0.7957747E-01            NaN
         13   -1    0    0    0    0  0.00000000000E+00  0.00000000000E+00  0.74505805969E-08  0.10566000000E+00  0.10566000000E+00 0. -1.
     999900   -1    0    0    0    0 -0.00000000000E+00 -0.00000000000E+00 -0.74505805969E-08  0.93827000000E+00  0.93827000000E+00 0. -1.
     999902    2    1    2    0    0  0.18197555870E-01  0.20391342676E-02  0.93801383500E-02  0.10233558389E+01  0.10231490004E+01 0.  0.
     999903    2    3    3    0    0  0.60120022079E-01  0.95833319156E-02  0.11937338747E+00  0.13548595942E+00  0.20004555969E-01 0.  0.
         14    1    1    2    0    0 -0.18197555870E-01 -0.20391342676E-02 -0.93801383500E-02  0.20574161068E-01  0.00000000000E+00 0.  1.
     999901    1    3    3    0    0 -0.41922466209E-01 -0.75441976480E-02 -0.10999324912E+00  0.88786987951E+00  0.88000000000E+00 0. -1.
        -11    1    4    4    0    0  0.42026179928E-02  0.68193876541E-02  0.17112815275E-01  0.18901735730E-01  0.51100000000E-03 0. -1.
         11    1    4    4    0    0  0.55917404086E-01  0.27639442615E-02  0.10226057219E+00  0.11658422369E+00  0.51100000000E-03 0.  1.
</event>
<event>
 8    1  0.1365042E+005  0.1043930E+01  0.7957747E-01            NaN
         13   -1    0    0    0    0  0.00000000000E+00  0.00000000000E+00  0.74505805969E-08  0.10566000000E+00  0.10566000000E+00 0. -1.
     999900   -1    0    0    0    0 -0.00000000000E+00 -0.00000000000E+00 -0.74505805969E-08  0.93827000000E+00  0.93827000000E+00 0.  1.
     999902    2    1    2    0    0  0.17681160733E-01  0.67018664836E-03 -0.16305970729E-01  0.10198684690E+01  0.10195845903E+01 0.  0.
     999903    2    3    3    0    0  0.79920066724E-01 -0.99761794753E-01 -0.26220819226E-01  0.13191657356E+00  0.19360223692E-01 0.  0.
         14    1    1    2    0    0 -0.17681160733E-01 -0.67018664836E-03  0.16305970729E-01  0.24061531049E-01  0.00000000000E+00 0. -1.
     999901    1    3    3    0    0 -0.62238905991E-01  0.10043198140E+00  0.99148484977E-02  0.88795189539E+00  0.88000000000E+00 0. -1.
        -11    1    4    4    0    0  0.44302280126E-01 -0.39889845970E-01 -0.11943862905E-01  0.60801388290E-01  0.51100000000E-03 0. -1.
         11    1    4    4    0    0  0.35617786598E-01 -0.59871948783E-01 -0.14276956322E-01  0.71115185270E-01  0.51100000000E-03 0.  1.
</event>
<event>
 8    1  0.1135368E+005  0.1043930E+01  0.7957747E-01            NaN
         13   -1    0    0    0    0  0.00000000000E+00  0.00000000000E+00  0.74505805969E-08  0.10566000000E+00  0.10566000000E+00 0.  1.
     999900   -1    0    0    0    0 -0.00000000000E+00 -0.00000000000E+00 -0.74505805969E-08  0.93827000000E+00  0.93827000000E+00 0. -1.
     999902    2    1    2    0    0 -0.14952759409E-01 -0.18553721307E-01  0.59695631614E-04  0.10201008340E+01  0.10198224759E+01 0.  0.
     999903    2    3    3    0    0  0.55694762344E-01  0.41070437449E-03 -0.11521376835E+00  0.12957363439E+00  0.20323362909E-01 0.  0.
         14    1    1    2    0    0  0.14952759409E-01  0.18553721307E-01 -0.59695631614E-04  0.23829165991E-01  0.00000000000E+00 0. -1.
     999901    1    3    3    0    0 -0.70647521753E-01 -0.18964425681E-01  0.11527346398E+00  0.89052719962E+00  0.88000000000E+00 0.  1.
        -11    1    4    4    0    0  0.12306540410E-01  0.31780247425E-02 -0.46920224338E-01  0.48613983082E-01  0.51100000000E-03 0.  1.
         11    1    4    4    0    0  0.43388221934E-01 -0.27673203680E-02 -0.68293544010E-01  0.80959651303E-01  0.51100000000E-03 0. -1.
</event>
<event>
 8    1  0.1135368E+005  0.1043930E+01  0.7957747E-01            NaN
         13   -1    0    0    0    0  0.00000000000E+00  0.00000000000E+00  0.74505805969E-08  0.10566000000E+00  0.10566000000E+00 0.  1.
     999900   -1    0    0    0    0 -0.00000000000E+00 -0.00000000000E+00 -0.74505805969E-08  0.93827000000E+00  0.93827000000E+00 0.  1.
     999902    2    1    2    0    0 -0.18305096370E-01  0.13990739200E-01  0.52572631236E-02  0.10202983231E+01  0.10200246134E+01 0.  0.
     999903    2    3    3    0    0 -0.14956796311E-01 -0.64155463071E-01 -0.10948360121E+00  0.12940915718E+00  0.20504678287E-01 0.  0.
         14    1    1    2    0    0  0.18305096370E-01 -0.13990739200E-01 -0.52572631236E-02  0.23631676878E-01  0.00000000000E+00 0. -1.
     999901    1    3    3    0    0 -0.33483000593E-02  0.78146202271E-01  0.11474086433E+00  0.89088916594E+00  0.88000000000E+00 0. -1.
        -11    1    4    4    0    0 -0.16017461003E-01 -0.26258971510E-01 -0.55241991701E-01  0.63229988216E-01  0.51100000000E-03 0.  1.
         11    1    4    4    0    0  0.10606646919E-02 -0.37896491561E-01 -0.54241609505E-01  0.66179168966E-01  0.51100000000E-03 0. -1.
</event>
<event>
 8    1  0.1135368E+005  0.1043930E+01  0.7957747E-01            NaN
         13   -1    0    0    0    0  0.00000000000E+00  0.00000000000E+00  0.74505805969E-08  0.10566000000E+00  0.10566000000E+00 0. -1.
     999900   -1    0    0    0    0 -0.00000000000E+00 -0.00000000000E+00 -0.74505805969E-08  0.93827000000E+00  0.93827000000E+00 0. -1.
     999902    2    1    2    0    0  0.11722037897E-01 -0.15598836099E-01 -0.13230696670E-01  0.10203549879E+01  0.10200826046E+01 0.  0.
     999903    2    3    3    0    0  0.54748979920E-01  0.84955087967E-01  0.77859749813E-01  0.12891801380E+00  0.18517447675E-01 0.  0.
         14    1    1    2    0    0 -0.11722037897E-01  0.15598836099E-01  0.13230696670E-01  0.23575012078E-01  0.00000000000E+00 0. -1.
     999901    1    3    3    0    0 -0.43026942023E-01 -0.10055392407E+00 -0.91090446484E-01  0.89143697412E+00  0.88000000000E+00 0. -1.
        -11    1    4    4    0    0  0.26756593973E-01  0.47898028224E-01  0.52792068508E-01  0.76140659619E-01  0.51100000000E-03 0. -1.
         11    1    4    4    0    0  0.27992385947E-01  0.37057059742E-01  0.25067681305E-01  0.52777354185E-01  0.51100000000E-03 0.  1.
</event>
<event>
 8    1  0.1135368E+005  0.1043930E+01  0.7957747E-01            NaN
         13   -1    0    0    0    0  0.00000000000E+00  0.00000000000E+00  0.74505805969E-08  0.10566000000E+00  0.10566000000E+00 0.  1.
     999900   -1    0    0    0    0 -0.00000000000E+00 -0.00000000000E+00 -0.74505805969E-08  0.93827000000E+00  0.93827000000E+00 0. -1.
     999902    2    1    2    0    0  0.11976271101E-01  0.80900559623E-02  0.19222054524E-01  0.10198807286E+01  0.10195971426E+01 0.  0.
     999903    2    3    3    0    0  0.14801125988E-01 -0.69462823782E-01  0.10890960285E+00  0.13192448796E+00  0.22329615154E-01 0.  0.
         14    1    1    2    0    0 -0.11976271101E-01 -0.80900559623E-02 -0.19222054524E-01  0.24049271405E-01  0.00000000000E+00 0. -1.
     999901    1    3    3    0    0 -0.28248548862E-02  0.77552879744E-01 -0.89687548322E-01  0.88795624064E+00  0.88000000000E+00 0. -1.
        -11    1    4    4    0    0 -0.41077724039E-02 -0.29265907367E-01  0.36417415506E-01  0.46902626805E-01  0.51100000000E-03 0. -1.
         11    1    4    4    0    0  0.18908898391E-01 -0.40196916415E-01  0.72492187340E-01  0.85021861153E-01  0.51100000000E-03 0.  1.
</event>
<event>
 8    1  0.1135368E+005  0.1043930E+01  0.7957747E-01            NaN
         13   -1    0    0    0    0  0.00000000000E+00  0.00000000000E+00  0.74505805969E-08  0.10566000000E+00  0.10566000000E+00 0.  1.
     999900   -1    0    0    0    0 -0.00000000000E+00 -0.00000000000E+00 -0.74505805969E-08  0.93827000000E+00  0.93827000000E+00 0.  1.
     999902    2    1    2    0    0  0.56327331547E-02 -0.17664660552E-01  0.19843221929E-01  0.10167726553E+01  0.10164099130E+01 0.  0.
     999903    2    3    3    0    0 -0.10071568261E+00 -0.24354646025E-01  0.73730427362E-01  0.12870814617E+00  0.19819522353E-01 0.  0.
         14    1    1    2    0    0 -0.56327331547E-02  0.17664660552E-01 -0.19843221929E-01  0.27157344711E-01  0.00000000000E+00 0. -1.
     999901    1    3    3    0    0  0.10634841576E+00  0.66899854726E-02 -0.53887205433E-01  0.88806450912E+00  0.88000000000E+00 0.  1.
        -11    1    4    4    0    0 -0.81391969426E-01 -0.11753065175E-01  0.54357790908E-01  0.98578992597E-01  0.51100000000E-03 0. -1.
         11    1    4    4    0    0 -0.19323713182E-01 -0.12601580850E-01  0.19372636455E-01  0.30129153577E-01  0.51100000000E-03 0.  1.
</event>
<event>
 8    1  0.1135368E+005  0.1043930E+01  0.7957747E-01            NaN
         13   -1    0    0    0    0  0.00000000000E+00  0.00000000000E+00  0.74505805969E-08  0.10566000000E+00  0.10566000000E+00 0.  1.
     999900   -1    0    0    0    0 -0.00000000000E+00 -0.00000000000E+00 -0.74505805969E-08  0.93827000000E+00  0.93827000000E+00 0. -1.
     999902    2    1    2    0    0 -0.46941045806E-02 -0.17310759577E-01 -0.14955703241E-01  0.10205768402E+01  0.10203096180E+01 0.  0.
     999903    2    3    3    0    0 -0.70926760395E-01 -0.10254201078E+00  0.39995078256E-01  0.13228031351E+00  0.18788447068E-01 0.  0.
         14    1    1    2    0    0  0.46941045806E-02  0.17310759577E-01  0.14955703241E-01  0.23353159837E-01  0.00000000000E+00 0.  1.
     999901    1    3    3    0    0  0.66232655814E-01  0.85231251200E-01 -0.54950781497E-01  0.88829652665E+00  0.88000000000E+00 0.  1.
        -11    1    4    4    0    0 -0.23515557296E-01 -0.41810133303E-01  0.70639220916E-02  0.48489471002E-01  0.51100000000E-03 0.  1.
         11    1    4    4    0    0 -0.47411203099E-01 -0.60731877474E-01  0.32931156165E-01  0.83790842508E-01  0.51100000000E-03 0. -1.
</event>
<event>
 8    1  0.1135368E+005  0.1043930E+01  0.7957747E-01            NaN
         13   -1    0    0    0    0  0.00000000000E+00  0.00000000000E+00  0.74505805969E-08  0.10566000000E+00  0.10566000000E+00 0.  1.
     999900   -1    0    0    0    0 -0.00000000000E+00 -0.00000000000E+00 -0.74505805969E-08  0.93827000000E+00  0.93827000000E+00 0. -1.
     999902    2    1    2    0    0  0.22834775546E-01 -0.16706121912E-02  0.24388605439E-02  0.10209046670E+01  0.10206449790E+01 0.  0.
     999903    2    3    3    0    0  0.43721684473E-01  0.32707902266E-01  0.11882291033E+00  0.13233087025E+00  0.20277638845E-01 0.  0.
         14    1    1    2    0    0 -0.22834775546E-01  0.16706121912E-02 -0.24388605439E-02  0.23025333007E-01  0.00000000000E+00 0. -1.
     999901    1    3    3    0    0 -0.20886908927E-01 -0.34378514457E-01 -0.11638404979E+00  0.88857379675E+00  0.88000000000E+00 0. -1.
        -11    1    4    4    0    0  0.72816786042E-02  0.31648293449E-02  0.38478441856E-01  0.39292373265E-01  0.51100000000E-03 0. -1.
         11    1    4    4    0    0  0.36440005869E-01  0.29543072921E-01  0.80344468473E-01  0.93038496981E-01  0.51100000000E-03 0.  1.
</event>
<event>
 8    1  0.1135368E+005  0.1043930E+01  0.7957747E-01            NaN
         13   -1    0    0    0    0  0.00000000000E+00  0.00000000000E+00  0.74505805969E-08  0.10566000000E+00  0.10566000000E+00 0.  1.
     999900   -1    0    0    0    0 -0.00000000000E+00 -0.00000000000E+00 -0.74505805969E-08  0.93827000000E+00  0.93827000000E+00 0.  1.
     999902    2    1    2    0    0 -0.19756444739E-01  0.10274799116E-01 -0.82555128285E-02  0.10201804295E+01  0.10199039497E+01 0.  0.
     999903    2    3    3    0    0  0.48912387810E-02 -0.11877325194E+00  0.45223809981E-01  0.12882138528E+00  0.20463301896E-01 0.  0.
         14    1    1    2    0    0  0.19756444739E-01 -0.10274799116E-01  0.82555128285E-02  0.23749570473E-01  0.00000000000E+00 0. -1.
     999901    1    3    3    0    0 -0.24647683520E-01  0.12904805105E+00 -0.53479322810E-01  0.89135904424E+00  0.88000000000E+00 0.  1.
        -11    1    4    4    0    0  0.12466270701E-01 -0.77569591115E-01  0.26332545996E-01  0.82862014642E-01  0.51100000000E-03 0. -1.
         11    1    4    4    0    0 -0.75750319205E-02 -0.41203660824E-01  0.18891263985E-01  0.45959370642E-01  0.51100000000E-03 0.  1.
</event>
<event>
 8    1  0.1135368E+005  0.1043930E+01  0.7957747E-01            NaN
         13   -1    0    0    0    0  0.00000000000E+00  0.00000000000E+00  0.74505805969E-08  0.10566000000E+00  0.10566000000E+00 0. -1.
     999900   -1    0    0    0    0 -0.00000000000E+00 -0.00000000000E+00 -0.74505805969E-08  0.93827000000E+00  0.93827000000E+00 0. -1.
     999902    2    1    2    0    0 -0.15012050142E-02 -0.18563674985E-01 -0.14176510377E-01  0.10205240800E+01  0.10202556350E+01 0.  0.
     999903    2    3    3    0    0 -0.22371744193E-01  0.40873317431E-01  0.11799555512E+00  0.12842666917E+00  0.19983375896E-01 0.  0.
         14    1    1    2    0    0  0.15012050142E-02  0.18563674985E-01  0.14176510377E-01  0.23405920018E-01  0.00000000000E+00 0. -1.
     999901    1    3    3    0    0  0.20870539179E-01 -0.59436992416E-01 -0.13217206549E+00  0.89209741081E+00  0.88000000000E+00 0.  1.
        -11    1    4    4    0    0 -0.15444252067E-01  0.38657147440E-01  0.85159412961E-01  0.94790752223E-01  0.51100000000E-03 0.  1.
         11    1    4    4    0    0 -0.69274921266E-02  0.22161699905E-02  0.32836142154E-01  0.33635916951E-01  0.51100000000E-03 0. -1.
</event>
<event>
 8    1  0.1135368E+005  0.1043930E+01  0.7957747E-01            NaN
         13   -1    0    0    0    0  0.00000000000E+00  0.00000000000E+00  0.74505805969E-08  0.10566000000E+00  0.10566000000E+00 0.  1.
     999900   -1    0    0    0    0 -0.00000000000E+00 -0.00000000000E+00 -0.74505805969E-08  0.93827000000E+00  0.93827000000E+00 0.  1.
     999902    2    1    2    0    0 -0.46509587314E-03  0.23038257457E-01 -0.56124763501E-02  0.10202133917E+01  0.10199376878E+01 0.  0.
     999903    2    3    3    0    0 -0.51852044512E-01 -0.10647895821E+00  0.43671857014E-01  0.12788818571E+00  0.20536647414E-01 0.  0.
         14    1    1    2    0    0  0.46509587314E-03 -0.23038257457E-01  0.56124763501E-02  0.23716608349E-01  0.00000000000E+00 0.  1.
     999901    1    3    3    0    0  0.51386948639E-01  0.12951721567E+00 -0.49284333364E-01  0.89232520594E+00  0.88000000000E+00 0.  1.
        -11    1    4    4    0    0 -0.12781233716E-01 -0.11800508915E-01  0.99950802452E-02  0.20069247521E-01  0.51100000000E-03 0. -1.
         11    1    4    4    0    0 -0.39070810797E-01 -0.94678449296E-01  0.33676776769E-01  0.10781893819E+00  0.51100000000E-03 0.  1.
</event>
<event>
 8    1  0.1135368E+005  0.1043930E+01  0.7957747E-01            NaN
         13   -1    0    0    0    0  0.00000000000E+00  0.00000000000E+00  0.74505805969E-08  0.10566000000E+00  0.10566000000E+00 0. -1.
     999900   -1    0    0    0    0 -0.00000000000E+00 -0.00000000000E+00 -0.74505805969E-08  0.93827000000E+00  0.93827000000E+00 0.  1.
     999902    2    1    2    0    0  0.78693828301E-03 -0.18689132189E-01  0.14988764990E-01  0.10199598934E+01  0.10196781934E+01 0.  0.
     999903    2    3    3    0    0 -0.35753525338E-01  0.11956899455E+00  0.23256279445E-01  0.12837766676E+00  0.19102663579E-01 0.  0.
         14    1    1    2    0    0 -0.78693828301E-03  0.18689132189E-01 -0.14988764990E-01  0.23970106587E-01  0.00000000000E+00 0.  1.
     999901    1    3    3    0    0  0.36540463621E-01 -0.13825812674E+00 -0.82675144550E-02  0.89158222666E+00  0.88000000000E+00 0. -1.
        -11    1    4    4    0    0 -0.31023818290E-01  0.10800839668E+00  0.14946043584E-01  0.11336638123E+00  0.51100000000E-03 0.  1.
         11    1    4    4    0    0 -0.47297070472E-02  0.11560597876E-01  0.83102358614E-02  0.15011285524E-01  0.51100000000E-03 0. -1.
</event>
<event>
 8    1  0.1135368E+005  0.1043930E+01  0.7957747E-01            NaN
         13   -1    0    0    0    0  0.00000000000E+00  0.00000000000E+00  0.74505805969E-08  0.10566000000E+00  0.10566000000E+00 0. -1.
     999900   -1    0    0    0    0 -0.00000000000E+00 -0.00000000000E+00 -0.74505805969E-08  0.93827000000E+00  0.93827000000E+00 0. -1.
     999902    2    1    2    0    0  0.24609355434E-01  0.57029309674E-02 -0.61983198283E-02  0.10179191760E+01  0.10175867953E+01 0.  0.
     999903    2    3    3    0    0  0.41773468901E-01 -0.65651858517E-01 -0.10190189462E+00  0.12969325485E+00  0.19523191231E-01 0.  0.
         14    1    1    2    0    0 -0.24609355434E-01 -0.57029309674E-02  0.61983198283E-02  0.26010824001E-01  0.00000000000E+00 0. -1.
     999901    1    3    3    0    0 -0.17164113467E-01  0.71354789485E-01  0.95703574791E-01  0.88822592115E+00  0.88000000000E+00 0.  1.
        -11    1    4    4    0    0  0.18419017728E-01 -0.46217319237E-01 -0.60351825299E-01  0.78217036184E-01  0.51100000000E-03 0.  1.
         11    1    4    4    0    0  0.23354451172E-01 -0.19434539280E-01 -0.41550069321E-01  0.51476218666E-01  0.51100000000E-03 0. -1.
</event>
<event>
 8    1  0.1135368E+005  0.1043930E+01  0.7957747E-01            NaN
         13   -1    0    0    0    0  0.00000000000E+00  0.00000000000E+00  0.74505805969E-08  0.10566000000E+00  0.10566000000E+00 0.  1.
     999900   -1    0    0    0    0 -0.00000000000E+00 -0.00000000000E+00 -0.74505805969E-08  0.93827000000E+00  0.93827000000E+00 0. -1.
     999902    2    1    2    0    0  0.14820311141E-01 -0.16204724502E-01 -0.90688748158E-02  0.10201712288E+01  0.10198945322E+01 0.  0.
     999903    2    3    3    0    0  0.81825589753E-02 -0.12009682201E+00 -0.52805248767E-01  0.13295620521E+00  0.19968907753E-01 0.  0.
         14    1    1    2    0    0 -0.14820311141E-01  0.16204724502E-01  0.90688748158E-02  0.23758771200E-01  0.00000000000E+00 0. -1.
     999901    1    3    3    0    0  0.66377521657E-02  0.10389209751E+00  0.43736373952E-01  0.88721502359E+00  0.88000000000E+00 0. -1.
        -11    1    4    4    0    0  0.99981206478E-02 -0.65816922259E-01 -0.38026318303E-01  0.76668713807E-01  0.51100000000E-03 0.  1.
         11    1    4    4    0    0 -0.18155616726E-02 -0.54279899756E-01 -0.14778930464E-01  0.56287491402E-01  0.51100000000E-03 0. -1.
</event>
<event>
 8    1  0.1135368E+005  0.1043930E+01  0.7957747E-01            NaN
         13   -1    0    0    0    0  0.00000000000E+00  0.00000000000E+00  0.74505805969E-08  0.10566000000E+00  0.10566000000E+00 0.  1.
     999900   -1    0    0    0    0 -0.00000000000E+00 -0.00000000000E+00 -0.74505805969E-08  0.93827000000E+00  0.93827000000E+00 0. -1.
     999902    2    1    2    0    0  0.17632270971E-01  0.83526171030E-02  0.10114470412E-01  0.10219535193E+01  0.10217171966E+01 0.  0.
     999903    2    3    3    0    0 -0.11684406835E-01 -0.12270052819E+00  0.41011496878E-01  0.13122964473E+00  0.18636839870E-01 0.  0.
         14    1    1    2    0    0 -0.17632270971E-01 -0.83526171030E-02 -0.10114470412E-01  0.21976480696E-01  0.00000000000E+00 0. -1.
     999901    1    3    3    0    0  0.29316677806E-01  0.13105314529E+00 -0.30897026466E-01  0.89072387457E+00  0.88000000000E+00 0. -1.
        -11    1    4    4    0    0  0.92325066349E-03 -0.82837922747E-01  0.27225611638E-01  0.87203605928E-01  0.51100000000E-03 0. -1.
         11    1    4    4    0    0 -0.12607657498E-01 -0.39862605438E-01  0.13785885240E-01  0.44026038804E-01  0.51100000000E-03 0.  1.
</event>
<event>
 8    1  0.1135368E+005  0.1043930E+01  0.7957747E-01            NaN
         13   -1    0    0    0    0  0.00000000000E+00  0.00000000000E+00  0.74505805969E-08  0.10566000000E+00  0.10566000000E+00 0.  1.
     999900   -1    0    0    0    0 -0.00000000000E+00 -0.00000000000E+00 -0.74505805969E-08  0.93827000000E+00  0.93827000000E+00 0. -1.
     999902    2    1    2    0    0 -0.89774794675E-03 -0.23765787433E-01  0.74975615569E-03  0.10201354473E+01  0.10198579068E+01 0.  0.
     999903    2    3    3    0    0  0.57179534900E-01 -0.21713383617E-02  0.11533011563E+00  0.13054680653E+00  0.21615253970E-01 0.  0.
         14    1    1    2    0    0  0.89774794675E-03  0.23765787433E-01 -0.74975615569E-03  0.23794552696E-01  0.00000000000E+00 0.  1.
     999901    1    3    3    0    0 -0.58077282846E-01 -0.21594449071E-01 -0.11458035947E+00  0.88958864077E+00  0.88000000000E+00 0. -1.
        -11    1    4    4    0    0  0.25596393563E-01 -0.96328749203E-02  0.66585781382E-01  0.71985380779E-01  0.51100000000E-03 0. -1.
         11    1    4    4    0    0  0.31583141337E-01  0.74615365585E-02  0.48744334244E-01  0.58561425754E-01  0.51100000000E-03 0.  1.
</event>
<event>
 8    1  0.1135368E+005  0.1043930E+01  0.7957747E-01            NaN
         13   -1    0    0    0    0  0.00000000000E+00  0.00000000000E+00  0.74505805969E-08  0.10566000000E+00  0.10566000000E+00 0. -1.
     999900   -1    0    0    0    0 -0.00000000000E+00 -0.00000000000E+00 -0.74505805969E-08  0.93827000000E+00  0.93827000000E+00 0.  1.
     999902    2    1    2    0    0  0.11895685179E-01 -0.15292471435E-01 -0.13700437020E-01  0.10202009254E+01  0.10199249282E+01 0.  0.
     999903    2    3    3    0    0 -0.86437075704E-01 -0.64802273226E-01  0.68546183932E-01  0.12953541071E+00  0.20251928914E-01 0.  0.
         14    1    1    2    0    0 -0.11895685179E-01  0.15292471435E-01  0.13700437020E-01  0.23729074635E-01  0.00000000000E+00 0. -1.
     999901    1    3    3    0    0  0.98332760883E-01  0.49509801791E-01 -0.82246620953E-01  0.89066551465E+00  0.88000000000E+00 0.  1.
        -11    1    4    4    0    0 -0.23363799823E-01 -0.71751341419E-02  0.13993889046E-01  0.28168062478E-01  0.51100000000E-03 0.  1.
         11    1    4    4    0    0 -0.63073275881E-01 -0.57627139084E-01  0.54552294886E-01  0.10136734823E+00  0.51100000000E-03 0. -1.
</event>
<event>
 8    1  0.1135368E+005  0.1043930E+01  0.7957747E-01            NaN
         13   -1    0    0    0    0  0.00000000000E+00  0.00000000000E+00  0.74505805969E-08  0.10566000000E+00  0.10566000000E+00 0.  1.
     999900   -1    0    0    0    0 -0.00000000000E+00 -0.00000000000E+00 -0.74505805969E-08  0.93827000000E+00  0.93827000000E+00 0.  1.
     999902    2    1    2    0    0  0.11905129292E-01 -0.97088270202E-02  0.17611870972E-01  0.10205596892E+01  0.10202920699E+01 0.  0.
     999903    2    3    3    0    0 -0.96807804126E-02 -0.12994742256E+00 -0.15374141332E-02  0.13191467211E+00  0.20471124499E-01 0.  0.
         14    1    1    2    0    0 -0.11905129292E-01  0.97088270202E-02 -0.17611870972E-01  0.23370310753E-01  0.00000000000E+00 0. -1.
     999901    1    3    3    0    0  0.21585909705E-01  0.12023859554E+00  0.19149285105E-01  0.88864501713E+00  0.88000000000E+00 0.  1.
        -11    1    4    4    0    0 -0.96202252067E-02 -0.29080601304E-01 -0.47203173677E-02  0.30996332400E-01  0.51100000000E-03 0. -1.
         11    1    4    4    0    0 -0.60555205843E-04 -0.10086682125E+00  0.31829032345E-02  0.10091833971E+00  0.51100000000E-03 0.  1.
</event>
<event>
 8    1  0.1135368E+005  0.1043930E+01  0.7957747E-01            NaN
         13   -1    0    0    0    0  0.00000000000E+00  0.00000000000E+00  0.74505805969E-08  0.10566000000E+00  0.10566000000E+00 0. -1.
     999900   -1    0    0    0    0 -0.00000000000E+00 -0.00000000000E+00 -0.74505805969E-08  0.93827000000E+00  0.93827000000E+00 0. -1.
     999902    2    1    2    0    0 -0.10722499137E-01  0.80114454781E-04 -0.21248475960E-01  0.10201292408E+01  0.10198515538E+01 0.  0.
     999903    2    3    3    0    0  0.56531270639E-01 -0.96373872195E-01  0.59968716029E-01  0.12860096122E+00  0.21406833528E-01 0.  0.
         14    1    1    2    0    0  0.10722499137E-01 -0.80114454781E-04  0.21248475960E-01  0.23800759162E-01  0.00000000000E+00 0. -1.
     999901    1    3    3    0    0 -0.67253769776E-01  0.96453986650E-01 -0.81217191989E-01  0.89152827962E+00  0.88000000000E+00 0. -1.
        -11    1    4    4    0    0  0.43544295349E-01 -0.54367234210E-01  0.39784871860E-01  0.80218445279E-01  0.51100000000E-03 0. -1.
         11    1    4    4    0    0  0.12986975291E-01 -0.42006637985E-01  0.20183844168E-01  0.48382515937E-01  0.51100000000E-03 0.  1.
</event>
<event>
 8    1  0.1135368E+005  0.1043930E+01  0.7957747E-01            NaN
         13   -1    0    0    0    0  0.00000000000E+00  0.00000000000E+00  0.74505805969E-08  0.10566000000E+00  0.10566000000E+00 0. -1.
     999900   -1    0    0    0    0 -0.00000000000E+00 -0.00000000000E+00 -0.74505805969E-08  0.93827000000E+00  0.93827000000E+00 0. -1.
     999902    2    1    2    0    0  0.19320193943E-01 -0.14767500843E-01 -0.64881480286E-02  0.10187616659E+01  0.10184507288E+01 0.  0.
     999903    2    3    3    0    0 -0.15678361079E-01  0.12420168894E+00 -0.10758354007E-01  0.12715885681E+00  0.19538734433E-01 0.  0.
         14    1    1    2    0    0 -0.19320193943E-01  0.14767500843E-01  0.64881480286E-02  0.25168334072E-01  0.00000000000E+00 0. -1.
     999901    1    3    3    0    0  0.34998555022E-01 -0.13896918978E+00  0.42702059786E-02  0.89160280912E+00  0.88000000000E+00 0. -1.
        -11    1    4    4    0    0 -0.15926551967E-01  0.57279899173E-01 -0.52908368342E-03  0.59457404563E-01  0.51100000000E-03 0. -1.
         11    1    4    4    0    0  0.24819088741E-03  0.66921789767E-01 -0.10229270324E-01  0.67701452250E-01  0.51100000000E-03 0.  1.
</event>
<event>
 8    1  0.1135368E+005  0.1043930E+01  0.7957747E-01            NaN
         13   -1    0    0    0    0  0.00000000000E+00  0.00000000000E+00  0.74505805969E-08  0.10566000000E+00  0.10566000000E+00 0. -1.
     999900   -1    0    0    0    0 -0.00000000000E+00 -0.00000000000E+00 -0.74505805969E-08  0.93827000000E+00  0.93827000000E+00 0. -1.
     999902    2    1    2    0    0 -0.23241632719E-01 -0.75389472089E-02 -0.24716913278E-02  0.10193715295E+01  0.10190756580E+01 0.  0.
     999903    2    3    3    0    0 -0.28992866709E-01  0.92487676092E-01  0.83625961430E-01  0.12951131131E+00  0.19629614958E-01 0.  0.
         14    1    1    2    0    0  0.23241632719E-01  0.75389472089E-02  0.24716913278E-02  0.24558470524E-01  0.00000000000E+00 0.  1.
     999901    1    3    3    0    0  0.57512339899E-02 -0.10002662330E+00 -0.86097652758E-01  0.88986021816E+00  0.88000000000E+00 0. -1.
        -11    1    4    4    0    0 -0.62258190973E-02  0.52377008938E-01  0.45931998696E-01  0.69943702461E-01  0.51100000000E-03 0.  1.
         11    1    4    4    0    0 -0.22767047612E-01  0.40110667154E-01  0.37693962734E-01  0.59567608850E-01  0.51100000000E-03 0. -1.
</event>
<event>
 8    1  0.1135368E+005  0.1043930E+01  0.7957747E-01            NaN
         13   -1    0    0    0    0  0.00000000000E+00  0.00000000000E+00  0.74505805969E-08  0.10566000000E+00  0.10566000000E+00 0.  1.
     999900   -1    0    0    0    0 -0.00000000000E+00 -0.00000000000E+00 -0.74505805969E-08  0.93827000000E+00  0.93827000000E+00 0. -1.
     999902    2    1    2    0    0 -0.10901588005E-01  0.23048809044E-02  0.21233755353E-01  0.10199502280E+01  0.10196682981E+01 0.  0.
     999903    2    3    3    0    0  0.43785066328E-01 -0.11654141051E+00  0.32158890109E-01  0.13021182282E+00  0.20540014451E-01 0.  0.
         14    1    1    2    0    0  0.10901588005E-01 -0.23048809044E-02 -0.21233755353E-01  0.23979771963E-01  0.00000000000E+00 0. -1.
     999901    1    3    3    0    0 -0.54686654333E-01  0.11884629141E+00 -0.10925134757E-01  0.88973840521E+00  0.88000000000E+00 0. -1.
        -11    1    4    4    0    0  0.33524082475E-01 -0.10400814823E+00  0.23271971816E-01  0.11172915823E+00  0.51100000000E-03 0. -1.
         11    1    4    4    0    0  0.10260983853E-01 -0.12533262271E-01  0.88869182932E-02  0.18482664595E-01  0.51100000000E-03 0.  1.
</event>
<event>
 8    1  0.1135368E+005  0.1043930E+01  0.7957747E-01            NaN
         13   -1    0    0    0    0  0.00000000000E+00  0.00000000000E+00  0.74505805969E-08  0.10566000000E+00  0.10566000000E+00 0.  1.
     999900   -1    0    0    0    0 -0.00000000000E+00 -0.00000000000E+00 -0.74505805969E-08  0.93827000000E+00  0.93827000000E+00 0. -1.
     999902    2    1    2    0    0  0.10319930274E-01 -0.12001265555E-02 -0.20562065231E-01  0.10208922095E+01  0.10206322372E+01 0.  0.
     999903    2    3    3    0    0 -0.46812869019E-01 -0.78851241668E-02 -0.12259579815E+00  0.13313113320E+00  0.20989259494E-01 0.  0.
         14    1    1    2    0    0 -0.10319930274E-01  0.12001265555E-02  0.20562065231E-01  0.23037790501E-01  0.00000000000E+00 0.  1.
     999901    1    3    3    0    0  0.57132799293E-01  0.66849976112E-02  0.10203373291E+00  0.88776107630E+00  0.88000000000E+00 0.  1.
        -11    1    4    4    0    0 -0.20519903187E-01  0.19871904412E-02 -0.30273234397E-01  0.36629840220E-01  0.51100000000E-03 0.  1.
         11    1    4    4    0    0 -0.26292965832E-01 -0.98723146080E-02 -0.92322563748E-01  0.96501292976E-01  0.51100000000E-03 0. -1.
</event>
<event>
 8    1  0.1135368E+005  0.1043930E+01  0.7957747E-01            NaN
         13   -1    0    0    0    0  0.00000000000E+00  0.00000000000E+00  0.74505805969E-08  0.10566000000E+00  0.10566000000E+00 0. -1.
     999900   -1    0    0    0    0 -0.00000000000E+00 -0.00000000000E+00 -0.74505805969E-08  0.93827000000E+00  0.93827000000E+00 0.  1.
     999902    2    1    2    0    0  0.80306819626E-02 -0.20839637999E-01 -0.10921697399E-01  0.10190690700E+01  0.10187657747E+01 0.  0.
     999903    2    3    3    0    0 -0.10443495952E+00 -0.58874766946E-02  0.71187238022E-01  0.12799445760E+00  0.19329644774E-01 0.  0.
         14    1    1    2    0    0 -0.80306819626E-02  0.20839637999E-01  0.10921697399E-01  0.24860929967E-01  0.00000000000E+00 0. -1.
     999901    1    3    3    0    0  0.11246564149E+00 -0.14952161305E-01 -0.82108935421E-01  0.89107461243E+00  0.88000000000E+00 0.  1.
        -11    1    4    4    0    0 -0.26780292264E-01  0.53931493573E-02  0.24411450292E-01  0.36639461515E-01  0.51100000000E-03 0.  1.
         11    1    4    4    0    0 -0.77654667260E-01 -0.11280626052E-01  0.46775787730E-01  0.91354996088E-01  0.51100000000E-03 0. -1.
</event>
<event>
 8    1  0.1135368E+005  0.1043930E+01  0.7957747E-01            NaN
         13   -1    0    0    0    0  0.00000000000E+00  0.00000000000E+00  0.74505805969E-08  0.10566000000E+00  0.10566000000E+00 0.  1.
     999900   -1    0    0    0    0 -0.00000000000E+00 -0.00000000000E+00 -0.74505805969E-08  0.93827000000E+00  0.93827000000E+00 0.  1.
     999902    2    1    2    0    0  0.61716915928E-02 -0.19509858754E-02 -0.22732240323E-01  0.10202942036E+01  0.10200203973E+01 0.  0.
     999903    2    3    3    0    0  0.28417240370E-01 -0.80288299397E-01 -0.10039590872E+00  0.13312835406E+00  0.19750179684E-01 0.  0.
         14    1    1    2    0    0 -0.61716915928E-02  0.19509858754E-02  0.22732240323E-01  0.23635796435E-01  0.00000000000E+00 0.  1.
     999901    1    3    3    0    0 -0.22245548777E-01  0.78337313522E-01  0.77663668399E-01  0.88716584950E+00  0.88000000000E+00 0. -1.
        -11    1    4    4    0    0 -0.24243157207E-03 -0.25660696657E-01 -0.27091668686E-01  0.37319562687E-01  0.51100000000E-03 0.  1.
         11    1    4    4    0    0  0.28659671942E-01 -0.54627602741E-01 -0.73304240035E-01  0.95808791377E-01  0.51100000000E-03 0. -1.
</event>
<event>
 8    1  0.1135368E+005  0.1043930E+01  0.7957747E-01            NaN
         13   -1    0    0    0    0  0.00000000000E+00  0.00000000000E+00  0.74505805969E-08  0.10566000000E+00  0.10566000000E+00 0. -1.
     999900   -1    0    0    0    0 -0.00000000000E+00 -0.00000000000E+00 -0.74505805969E-08  0.93827000000E+00  0.93827000000E+00 0. -1.
     999902    2    1    2    0    0  0.74579659497E-02  0.20947992007E-01 -0.83289133372E-02  0.10201853075E+01  0.10199089426E+01 0.  0.
     999903    2    3    3    0    0  0.11652533669E+00 -0.40228760532E-01 -0.39200802616E-01  0.13080835705E+00  0.19432346331E-01 0.  0.
         14    1    1    2    0    0 -0.74579659497E-02 -0.20947992007E-01  0.83289133372E-02  0.23744692515E-01  0.00000000000E+00 0. -1.
     999901    1    3    3    0    0 -0.10906737074E+00  0.61176752539E-01  0.30871889278E-01  0.88937695043E+00  0.88000000000E+00 0. -1.
        -11    1    4    4    0    0  0.26074038288E-01 -0.16387994891E-01 -0.14599094125E-01  0.34085429724E-01  0.51100000000E-03 0.  1.
         11    1    4    4    0    0  0.90451298405E-01 -0.23840765641E-01 -0.24601708490E-01  0.96722927329E-01  0.51100000000E-03 0. -1.
</event>
<event>
 8    1  0.1135368E+005  0.1043930E+01  0.7957747E-01            NaN
         13   -1    0    0    0    0  0.00000000000E+00  0.00000000000E+00  0.74505805969E-08  0.10566000000E+00  0.10566000000E+00 0.  1.
     999900   -1    0    0    0    0 -0.00000000000E+00 -0.00000000000E+00 -0.74505805969E-08  0.93827000000E+00  0.93827000000E+00 0.  1.
     999902    2    1    2    0    0 -0.14018077134E-01  0.11524887047E-01 -0.15405586984E-01  0.10201253446E+01  0.10198475656E+01 0.  0.
     999903    2    3    3    0    0 -0.71354885032E-01  0.10975027239E+00 -0.92950326681E-02  0.13278489431E+00  0.20218521651E-01 0.  0.
         14    1    1    2    0    0  0.14018077134E-01 -0.11524887047E-01  0.15405586984E-01  0.23804655391E-01  0.00000000000E+00 0.  1.
     999901    1    3    3    0    0  0.57336807898E-01 -0.98225385339E-01 -0.61105543154E-02  0.88734045030E+00  0.88000000000E+00 0. -1.
        -11    1    4    4    0    0 -0.58370736419E-01  0.90297350497E-01  0.24051162607E-03  0.10752243182E+00  0.51100000000E-03 0. -1.
         11    1    4    4    0    0 -0.12984148613E-01  0.19452921889E-01 -0.95355442942E-02  0.25262462493E-01  0.51100000000E-03 0.  1.
</event>
<event>
 8    1  0.1135368E+005  0.1043930E+01  0.7957747E-01            NaN
         13   -1    0    0    0    0  0.00000000000E+00  0.00000000000E+00  0.74505805969E-08  0.10566000000E+00  0.10566000000E+00 0.  1.
     999900   -1    0    0    0    0 -0.00000000000E+00 -0.00000000000E+00 -0.74505805969E-08  0.93827000000E+00  0.93827000000E+00 0.  1.
     999902    2    1    2    0    0 -0.19764026133E-01 -0.11590009952E-01 -0.47937013100E-02  0.10205222100E+01  0.10202537216E+01 0.  0.
     999903    2    3    3    0    0 -0.33001465148E-01 -0.87506290070E-01  0.90819783822E-01  0.13199508611E+00  0.20688695461E-01 0.  0.
         14    1    1    2    0    0  0.19764026133E-01  0.11590009952E-01  0.47937013100E-02  0.23407789984E-01  0.00000000000E+00 0. -1.
     999901    1    3    3    0    0  0.13237439015E-01  0.75916280118E-01 -0.95613485132E-01  0.88852712391E+00  0.88000000000E+00 0.  1.
        -11    1    4    4    0    0 -0.28579795645E-01 -0.56100677238E-01  0.50620253537E-01  0.80788377226E-01  0.51100000000E-03 0. -1.
         11    1    4    4    0    0 -0.44216695030E-02 -0.31405612832E-01  0.40199530285E-01  0.51206708883E-01  0.51100000000E-03 0.  1.
</event>
<event>
 8    1  0.1135368E+005  0.1043930E+01  0.7957747E-01            NaN
         13   -1    0    0    0    0  0.00000000000E+00  0.00000000000E+00  0.74505805969E-08  0.10566000000E+00  0.10566000000E+00 0. -1.
     999900   -1    0    0    0    0 -0.00000000000E+00 -0.00000000000E+00 -0.74505805969E-08  0.93827000000E+00  0.93827000000E+00 0. -1.
     999902    2    1    2    0    0 -0.11945178897E-01  0.17520182736E-01  0.11011913001E-01  0.10200363538E+01  0.10197564693E+01 0.  0.
     999903    2    3    3    0    0  0.12325453110E+00 -0.42505439742E-02 -0.30383250848E-01  0.12848350301E+00  0.19368067865E-01 0.  0.
         14    1    1    2    0    0  0.11945178897E-01 -0.17520182736E-01 -0.11011913001E-01  0.23893646225E-01  0.00000000000E+00 0.  1.
     999901    1    3    3    0    0 -0.13519970999E+00  0.21770726710E-01  0.41395163849E-01  0.89155285077E+00  0.88000000000E+00 0.  1.
        -11    1    4    4    0    0  0.35318469579E-01 -0.10009875543E-01 -0.90656608748E-02  0.37815859502E-01  0.51100000000E-03 0.  1.
         11    1    4    4    0    0  0.87936061518E-01  0.57593315693E-02 -0.21317589973E-01  0.90667643504E-01  0.51100000000E-03 0. -1.
</event>
<event>
 8    1  0.1135368E+005  0.1043930E+01  0.7957747E-01            NaN
         13   -1    0    0    0    0  0.00000000000E+00  0.00000000000E+00  0.74505805969E-08  0.10566000000E+00  0.10566000000E+00 0.  1.
     999900   -1    0    0    0    0 -0.00000000000E+00 -0.00000000000E+00 -0.74505805969E-08  0.93827000000E+00  0.93827000000E+00 0.  1.
     999902    2    1    2    0    0 -0.16540529982E-01 -0.96335325969E-02 -0.12971440603E-01  0.10208074492E+01  0.10205455385E+01 0.  0.
     999903    2    3    3    0    0 -0.94258707725E-01 -0.75304685394E-01 -0.54630527078E-01  0.13396569619E+00  0.20169621794E-01 0.  0.
         14    1    1    2    0    0  0.16540529982E-01  0.96335325969E-02  0.12971440603E-01  0.23122550761E-01  0.00000000000E+00 0.  1.
     999901    1    3    3    0    0  0.77718177743E-01  0.65671152797E-01  0.41659086475E-01  0.88684175305E+00  0.88000000000E+00 0.  1.
        -11    1    4    4    0    0 -0.79307334185E-01 -0.52851521241E-01 -0.41255138384E-01  0.10385174104E+00  0.51100000000E-03 0. -1.
         11    1    4    4    0    0 -0.14951373540E-01 -0.22453164152E-01 -0.13375388694E-01  0.30113955152E-01  0.51100000000E-03 0.  1.
</event>
<event>
 8    1  0.1135368E+005  0.1043930E+01  0.7957747E-01            NaN
         13   -1    0    0    0    0  0.00000000000E+00  0.00000000000E+00  0.74505805969E-08  0.10566000000E+00  0.10566000000E+00 0.  1.
     999900   -1    0    0    0    0 -0.00000000000E+00 -0.00000000000E+00 -0.74505805969E-08  0.93827000000E+00  0.93827000000E+00 0. -1.
     999902    2    1    2    0    0  0.13044408229E-01  0.16081356448E-02  0.19841249372E-01  0.10201304651E+01  0.10198528070E+01 0.  0.
     999903    2    3    3    0    0 -0.20344078832E-01  0.11658909474E+00 -0.48387380181E-01  0.12940572761E+00  0.19940040705E-01 0.  0.
         14    1    1    2    0    0 -0.13044408229E-01 -0.16081356448E-02 -0.19841249372E-01  0.23799534931E-01  0.00000000000E+00 0. -1.
     999901    1    3    3    0    0  0.33388487061E-01 -0.11498095909E+00  0.68228629553E-01  0.89072473745E+00  0.88000000000E+00 0.  1.
        -11    1    4    4    0    0 -0.11569667739E-01  0.51443893310E-01 -0.31916840422E-01  0.61638277020E-01  0.51100000000E-03 0.  1.
         11    1    4    4    0    0 -0.87744110932E-02  0.65145201429E-01 -0.16470539759E-01  0.67767450595E-01  0.51100000000E-03 0. -1.
</event>
<event>
 8    1  0.1135368E+005  0.1043930E+01  0.7957747E-01            NaN
         13   -1    0    0    0    0  0.00000000000E+00  0.00000000000E+00  0.74505805969E-08  0.10566000000E+00  0.10566000000E+00 0.  1.
     999900   -1    0    0    0    0 -0.00000000000E+00 -0.00000000000E+00 -0.74505805969E-08  0.93827000000E+00  0.93827000000E+00 0. -1.
     999902    2    1    2    0    0  0.22059547015E-01 -0.76810507548E-02 -0.38179403824E-02  0.10202614803E+01  0.10199869065E+01 0.  0.
     999903    2    3    3    0    0  0.21334977325E-01 -0.65919254135E-01 -0.11064299792E+00  0.13189004547E+00  0.18777161181E-01 0.  0.
         14    1    1    2    0    0 -0.22059547015E-01  0.76810507548E-02  0.38179403824E-02  0.23668519682E-01  0.00000000000E+00 0.  1.
     999901    1    3    3    0    0  0.72456968981E-03  0.58238203380E-01  0.10682505754E+00  0.88837143485E+00  0.88000000000E+00 0. -1.
        -11    1    4    4    0    0  0.81953969528E-02 -0.46216596706E-01 -0.84109427147E-01  0.96321312275E-01  0.51100000000E-03 0.  1.
         11    1    4    4    0    0  0.13139580372E-01 -0.19702657429E-01 -0.26533570774E-01  0.35568733196E-01  0.51100000000E-03 0. -1.
</event>
<event>
 8    1  0.1135368E+005  0.1043930E+01  0.7957747E-01            NaN
         13   -1    0    0    0    0  0.00000000000E+00  0.00000000000E+00  0.74505805969E-08  0.10566000000E+00  0.10566000000E+00 0.  1.
     999900   -1    0    0    0    0 -0.00000000000E+00 -0.00000000000E+00 -0.74505805969E-08  0.93827000000E+00  0.93827000000E+00 0.  1.
     999902    2    1    2    0    0  0.20390539014E-01  0.26889382273E-02 -0.14325797687E-01  0.10188654244E+01  0.10185570775E+01 0.  0.
     999903    2    3    3    0    0  0.38077550097E-01 -0.46372900334E-01 -0.11547718489E+00  0.13153713257E+00  0.19149185595E-01 0.  0.
         14    1    1    2    0    0 -0.20390539014E-01 -0.26889382273E-02  0.14325797687E-01  0.25064575589E-01  0.00000000000E+00 0.  1.
     999901    1    3    3    0    0 -0.17687011083E-01  0.49061838561E-01  0.10115138720E+00  0.88732829184E+00  0.88000000000E+00 0. -1.
        -11    1    4    4    0    0  0.20376230210E-01 -0.19359947038E-01 -0.35491698102E-01  0.45276042915E-01  0.51100000000E-03 0.  1.
         11    1    4    4    0    0  0.17701319887E-01 -0.27012953296E-01 -0.79985486786E-01  0.86261089658E-01  0.51100000000E-03 0. -1.
</event>
<event>
 8    1  0.1135368E+005  0.1043930E+01  0.7957747E-01            NaN
         13   -1    0    0    0    0  0.00000000000E+00  0.00000000000E+00  0.74505805969E-08  0.10566000000E+00  0.10566000000E+00 0. -1.
     999900   -1    0    0    0    0 -0.00000000000E+00 -0.00000000000E+00 -0.74505805969E-08  0.93827000000E+00  0.93827000000E+00 0. -1.
     999902    2    1    2    0    0 -0.82745009387E-02 -0.86736954924E-02  0.19365948985E-01  0.10211541281E+01  0.10209000995E+01 0.  0.
     999903    2    3    3    0    0  0.69002405014E-01 -0.48983912971E-01  0.10087445495E+00  0.13309992350E+00  0.19472502285E-01 0.  0.
         14    1    1    2    0    0  0.82745009387E-02  0.86736954924E-02 -0.19365948985E-01  0.22775871868E-01  0.00000000000E+00 0.  1.
     999901    1    3    3    0    0 -0.77276905953E-01  0.40310217479E-01 -0.81508505967E-01  0.88805420464E+00  0.88000000000E+00 0.  1.
        -11    1    4    4    0    0  0.62455472870E-01 -0.36219476345E-01  0.79957102162E-01  0.10773084918E+00  0.51100000000E-03 0.  1.
         11    1    4    4    0    0  0.65469321436E-02 -0.12764436626E-01  0.20917352789E-01  0.25369074315E-01  0.51100000000E-03 0. -1.
</event>
<event>
 8    1  0.1135368E+005  0.1043930E+01  0.7957747E-01            NaN
         13   -1    0    0    0    0  0.00000000000E+00  0.00000000000E+00  0.74505805969E-08  0.10566000000E+00  0.10566000000E+00 0.  1.
     999900   -1    0    0    0    0 -0.00000000000E+00 -0.00000000000E+00 -0.74505805969E-08  0.93827000000E+00  0.93827000000E+00 0.  1.
     999902    2    1    2    0    0 -0.76115674162E-02  0.18111555842E-01 -0.13683631977E-01  0.10199882750E+01  0.10197072496E+01 0.  0.
     999903    2    3    3    0    0 -0.12565508782E+00  0.29477256054E-01 -0.17076366151E-01  0.13202714828E+00  0.21942102991E-01 0.  0.
         14    1    1    2    0    0  0.76115674162E-02 -0.18111555842E-01  0.13683631977E-01  0.23941725034E-01  0.00000000000E+00 0. -1.
     999901    1    3    3    0    0  0.11804352040E+00 -0.11365700212E-01  0.33927341741E-02  0.88796112668E+00  0.88000000000E+00 0.  1.
        -11    1    4    4    0    0 -0.54265997708E-01  0.14121440724E-01 -0.18321485050E-01  0.58992809145E-01  0.51100000000E-03 0.  1.
         11    1    4    4    0    0 -0.71389090113E-01  0.15355815330E-01  0.12451188994E-02  0.73034339140E-01  0.51100000000E-03 0. -1.
</event>
<event>
 8    1  0.1135368E+005  0.1043930E+01  0.7957747E-01            NaN
         13   -1    0    0    0    0  0.00000000000E+00  0.00000000000E+00  0.74505805969E-08  0.10566000000E+00  0.10566000000E+00 0. -1.
     999900   -1    0    0    0    0 -0.00000000000E+00 -0.00000000000E+00 -0.74505805969E-08  0.93827000000E+00  0.93827000000E+00 0. -1.
     999902    2    1    2    0    0 -0.22512503218E-01  0.61326880309E-02 -0.32601878857E-02  0.10203704693E+01  0.10200984477E+01 0.  0.
     999903    2    3    3    0    0  0.31754443664E-01  0.84056393746E-02 -0.12456415978E+00  0.13039028890E+00  0.20159317265E-01 0.  0.
         14    1    1    2    0    0  0.22512503218E-01 -0.61326880309E-02  0.32601878857E-02  0.23559530740E-01  0.00000000000E+00 0.  1.
     999901    1    3    3    0    0 -0.54266946882E-01 -0.22729513437E-02  0.12130397189E+00  0.88998018036E+00  0.88000000000E+00 0.  1.
        -11    1    4    4    0    0  0.77188584528E-02  0.11494475237E-01 -0.55232356515E-01  0.56943639363E-01  0.51100000000E-03 0.  1.
         11    1    4    4    0    0  0.24035585212E-01 -0.30888358625E-02 -0.69331803266E-01  0.73446649539E-01  0.51100000000E-03 0. -1.
</event>
<event>
 8    1  0.1135368E+005  0.1043930E+01  0.7957747E-01            NaN
         13   -1    0    0    0    0  0.00000000000E+00  0.00000000000E+00  0.74505805969E-08  0.10566000000E+00  0.10566000000E+00 0.  1.
     999900   -1    0    0    0    0 -0.00000000000E+00 -0.00000000000E+00 -0.74505805969E-08  0.93827000000E+00  0.93827000000E+00 0. -1.
     999902    2    1    2    0    0  0.24168425793E-01  0.25841478526E-01  0.52404466826E-02  0.10081618983E+01  0.10075271987E+01 0.  0.
     999903    2    3    3    0    0 -0.81576308819E-01  0.61819234260E-01  0.58484991777E-01  0.11950486131E+00  0.19611367350E-01 0.  0.
         14    1    1    2    0    0 -0.24168425793E-01 -0.25841478526E-01 -0.52404466826E-02  0.35768101699E-01  0.00000000000E+00 0. -1.
     999901    1    3    3    0    0  0.10574473461E+00 -0.35977755734E-01 -0.53244545095E-01  0.88865703699E+00  0.88000000000E+00 0. -1.
        -11    1    4    4    0    0 -0.24216125757E-01  0.16226226896E-01  0.27055952104E-01  0.39774324020E-01  0.51100000000E-03 0.  1.
         11    1    4    4    0    0 -0.57360183062E-01  0.45593007364E-01  0.31429039673E-01  0.79730537294E-01  0.51100000000E-03 0. -1.
</event>
<event>
 8    1  0.1135368E+005  0.1043930E+01  0.7957747E-01            NaN
         13   -1    0    0    0    0  0.00000000000E+00  0.00000000000E+00  0.74505805969E-08  0.10566000000E+00  0.10566000000E+00 0. -1.
     999900   -1    0    0    0    0 -0.00000000000E+00 -0.00000000000E+00 -0.74505805969E-08  0.93827000000E+00  0.93827000000E+00 0.  1.
     999902    2    1    2    0    0  0.15699387529E-01  0.13765879080E-01 -0.13892307809E-01  0.10188507972E+01  0.10185420858E+01 0.  0.
     999903    2    3    3    0    0 -0.79746348800E-01 -0.12576906197E-01  0.94964308037E-01  0.12663244181E+00  0.22358372080E-01 0.  0.
         14    1    1    2    0    0 -0.15699387529E-01 -0.13765879080E-01  0.13892307809E-01  0.25079202776E-01  0.00000000000E+00 0. -1.
     999901    1    3    3    0    0  0.95445736329E-01  0.26342785277E-01 -0.10885661585E+00  0.89221835541E+00  0.88000000000E+00 0.  1.
        -11    1    4    4    0    0 -0.68580532171E-01 -0.16768988343E-01  0.87963580155E-01  0.11279335494E+00  0.51100000000E-03 0. -1.
         11    1    4    4    0    0 -0.11165816629E-01  0.41920821463E-02  0.70007278820E-02  0.13839086877E-01  0.51100000000E-03 0.  1.
</event>
<event>
 8    1  0.1135368E+005  0.1043930E+01  0.7957747E-01            NaN
         13   -1    0    0    0    0  0.00000000000E+00  0.00000000000E+00  0.74505805969E-08  0.10566000000E+00  0.10566000000E+00 0.  1.
     999900   -1    0    0    0    0 -0.00000000000E+00 -0.00000000000E+00 -0.74505805969E-08  0.93827000000E+00  0.93827000000E+00 0.  1.
     999902    2    1    2    0    0  0.20263323420E-01 -0.10435290755E-01 -0.68307310881E-02  0.10201359575E+01  0.10198584291E+01 0.  0.
     999903    2    3    3    0    0  0.30566578631E-01 -0.55029292409E-01 -0.11481436813E+00  0.13235487647E+00  0.19311536504E-01 0.  0.
         14    1    1    2    0    0 -0.20263323420E-01  0.10435290755E-01  0.68307310881E-02  0.23794042456E-01  0.00000000000E+00 0.  1.
     999901    1    3    3    0    0 -0.10303255211E-01  0.44594001653E-01  0.10798363705E+00  0.88778108108E+00  0.88000000000E+00 0. -1.
        -11    1    4    4    0    0  0.24704666178E-01 -0.25202409186E-01 -0.66078602403E-01  0.74914116002E-01  0.51100000000E-03 0. -1.
         11    1    4    4    0    0  0.58619124535E-02 -0.29826883223E-01 -0.48735765730E-01  0.57440760464E-01  0.51100000000E-03 0.  1.
</event>
<event>
 8    1  0.1135368E+005  0.1043930E+01  0.7957747E-01            NaN
         13   -1    0    0    0    0  0.00000000000E+00  0.00000000000E+00  0.74505805969E-08  0.10566000000E+00  0.10566000000E+00 0. -1.
     999900   -1    0    0    0    0 -0.00000000000E+00 -0.00000000000E+00 -0.74505805969E-08  0.93827000000E+00  0.93827000000E+00 0. -1.
     999902    2    1    2    0    0  0.65666218392E-02 -0.22402722559E-01  0.44142079595E-02  0.10201710494E+01  0.10198943486E+01 0.  0.
     999903    2    3    3    0    0  0.10873999415E+00 -0.26281051494E-01  0.66913001153E-01  0.13204913291E+00  0.21084206990E-01 0.  0.
         14    1    1    2    0    0 -0.65666218392E-02  0.22402722559E-01 -0.44142079595E-02  0.23758950573E-01  0.00000000000E+00 0.  1.
     999901    1    3    3    0    0 -0.10217337231E+00  0.38783289346E-02 -0.62498793194E-01  0.88812191652E+00  0.88000000000E+00 0. -1.
        -11    1    4    4    0    0  0.33711153175E-01 -0.13856251512E-01  0.31412706956E-01  0.48119194026E-01  0.51100000000E-03 0. -1.
         11    1    4    4    0    0  0.75028840972E-01 -0.12424799981E-01  0.35500294198E-01  0.83929938886E-01  0.51100000000E-03 0.  1.
</event>
<event>
 8    1  0.1135368E+005  0.1043930E+01  0.7957747E-01            NaN
         13   -1    0    0    0    0  0.00000000000E+00  0.00000000000E+00  0.74505805969E-08  0.10566000000E+00  0.10566000000E+00 0. -1.
     999900   -1    0    0    0    0 -0.00000000000E+00 -0.00000000000E+00 -0.74505805969E-08  0.93827000000E+00  0.93827000000E+00 0. -1.
     999902    2    1    2    0    0  0.10122736118E-01 -0.13469464079E-02  0.22715577775E-01  0.10190245483E+01  0.10187201522E+01 0.  0.
     999903    2    3    3    0    0 -0.97846826036E-01  0.45344610621E-01  0.69704464254E-01  0.12995453794E+00  0.19983356004E-01 0.  0.
         14    1    1    2    0    0 -0.10122736118E-01  0.13469464079E-02 -0.22715577775E-01  0.24905451708E-01  0.00000000000E+00 0.  1.
     999901    1    3    3    0    0  0.10796956215E+00 -0.46691557029E-01 -0.46988886479E-01  0.88907001035E+00  0.88000000000E+00 0. -1.
        -11    1    4    4    0    0 -0.17367386519E-01  0.16539313584E-02  0.62320380354E-02  0.18532701436E-01  0.51100000000E-03 0. -1.
         11    1    4    4    0    0 -0.80479439517E-01  0.43690679262E-01  0.63472426219E-01  0.11142183651E+00  0.51100000000E-03 0.  1.
</event>
<event>
 8    1  0.1135368E+005  0.1043930E+01  0.7957747E-01            NaN
         13   -1    0    0    0    0  0.00000000000E+00  0.00000000000E+00  0.74505805969E-08  0.10566000000E+00  0.10566000000E+00 0. -1.
     999900   -1    0    0    0    0 -0.00000000000E+00 -0.00000000000E+00 -0.74505805969E-08  0.93827000000E+00  0.93827000000E+00 0.  1.
     999902    2    1    2    0    0 -0.11804378354E-01  0.16273095718E-01 -0.13706523751E-01  0.10195984200E+01  0.10193080556E+01 0.  0.
     999903    2    3    3    0    0  0.17834659121E-01  0.10704736311E+00  0.69715607039E-01  0.13051029608E+00  0.19886138514E-01 0.  0.
         14    1    1    2    0    0  0.11804378354E-01 -0.16273095718E-01  0.13706523751E-01  0.24331580013E-01  0.00000000000E+00 0. -1.
     999901    1    3    3    0    0 -0.29639037475E-01 -0.90774267387E-01 -0.83422130790E-01  0.88908812390E+00  0.88000000000E+00 0.  1.
        -11    1    4    4    0    0  0.62916190228E-02  0.41624017842E-01  0.15862652300E-01  0.44989200818E-01  0.51100000000E-03 0. -1.
         11    1    4    4    0    0  0.11543040098E-01  0.65423345264E-01  0.53852954739E-01  0.85521095265E-01  0.51100000000E-03 0.  1.
</event>
<event>
 8    1  0.1135368E+005  0.1043930E+01  0.7957747E-01            NaN
         13   -1    0    0    0    0  0.00000000000E+00  0.00000000000E+00  0.74505805969E-08  0.10566000000E+00  0.10566000000E+00 0. -1.
     999900   -1    0    0    0    0 -0.00000000000E+00 -0.00000000000E+00 -0.74505805969E-08  0.93827000000E+00  0.93827000000E+00 0. -1.
     999902    2    1    2    0    0 -0.21356839606E-01 -0.49104468430E-02 -0.79667394369E-02  0.10206127098E+01  0.10203463174E+01 0.  0.
     999903    2    3    3    0    0 -0.15355582542E-02  0.10781962156E+00 -0.71541455052E-01  0.13092585701E+00  0.19899032915E-01 0.  0.
         14    1    1    2    0    0  0.21356839606E-01  0.49104468430E-02  0.79667394369E-02  0.23317290224E-01  0.00000000000E+00 0. -1.
     999901    1    3    3    0    0 -0.19821281352E-01 -0.11273006840E+00  0.63574715615E-01  0.88968685276E+00  0.88000000000E+00 0.  1.
        -11    1    4    4    0    0 -0.25378929917E-02  0.11480310739E-01 -0.15517280311E-01  0.19475254678E-01  0.51100000000E-03 0.  1.
         11    1    4    4    0    0  0.10023347375E-02  0.96339310819E-01 -0.56024174741E-01  0.11145060233E+00  0.51100000000E-03 0. -1.
</event>
<event>
 8    1  0.1135368E+005  0.1043930E+01  0.7957747E-01            NaN
         13   -1    0    0    0    0  0.00000000000E+00  0.00000000000E+00  0.74505805969E-08  0.10566000000E+00  0.10566000000E+00 0.  1.
     999900   -1    0    0    0    0 -0.00000000000E+00 -0.00000000000E+00 -0.74505805969E-08  0.93827000000E+00  0.93827000000E+00 0.  1.
     999902    2    1    2    0    0  0.17959658112E-01  0.58371700339E-02  0.13668256397E-01  0.10206181338E+01  0.10203518667E+01 0.  0.
     999903    2    3    3    0    0  0.11968902429E+00 -0.22217026181E-01  0.51138209234E-01  0.13352180348E+00  0.19846832815E-01 0.  0.
         14    1    1    2    0    0 -0.17959658112E-01 -0.58371700339E-02 -0.13668256397E-01  0.23311866215E-01  0.00000000000E+00 0.  1.
     999901    1    3    3    0    0 -0.10172936618E+00  0.28054196215E-01 -0.37469952837E-01  0.88709633030E+00  0.88000000000E+00 0. -1.
        -11    1    4    4    0    0  0.21271683521E-01  0.22786512618E-02  0.43897826969E-02  0.21845092916E-01  0.51100000000E-03 0.  1.
         11    1    4    4    0    0  0.98417340773E-01 -0.24495677443E-01  0.46748426537E-01  0.11167671057E+00  0.51100000000E-03 0. -1.
</event>
<event>
 8    1  0.1135368E+005  0.1043930E+01  0.7957747E-01            NaN
         13   -1    0    0    0    0  0.00000000000E+00  0.00000000000E+00  0.74505805969E-08  0.10566000000E+00  0.10566000000E+00 0. -1.
     999900   -1    0    0    0    0 -0.00000000000E+00 -0.00000000000E+00 -0.74505805969E-08  0.93827000000E+00  0.93827000000E+00 0.  1.
     999902    2    1    2    0    0 -0.13983751245E-01 -0.12534893905E-01  0.15378642443E-01  0.10196571446E+01  0.10193681970E+01 0.  0.
     999903    2    3    3    0    0  0.10670397544E-01  0.14202222915E-01  0.12920084391E+00  0.13158158816E+00  0.17472714563E-01 0.  0.
         14    1    1    2    0    0  0.13983751245E-01  0.12534893905E-01 -0.15378642443E-01  0.24272855363E-01  0.00000000000E+00 0. -1.
     999901    1    3    3    0    0 -0.24654148789E-01 -0.26737116821E-01 -0.11382220147E+00  0.88807555648E+00  0.88000000000E+00 0.  1.
        -11    1    4    4    0    0  0.64738636021E-02  0.26433653974E-02  0.94554523759E-01  0.94814120124E-01  0.51100000000E-03 0. -1.
         11    1    4    4    0    0  0.41965339424E-02  0.11558857518E-01  0.34646320156E-01  0.36767468034E-01  0.51100000000E-03 0.  1.
</event>
<event>
 8    1  0.1135368E+005  0.1043930E+01  0.7957747E-01            NaN
         13   -1    0    0    0    0  0.00000000000E+00  0.00000000000E+00  0.74505805969E-08  0.10566000000E+00  0.10566000000E+00 0. -1.
     999900   -1    0    0    0    0 -0.00000000000E+00 -0.00000000000E+00 -0.74505805969E-08  0.93827000000E+00  0.93827000000E+00 0.  1.
     999902    2    1    2    0    0 -0.10228358436E-01  0.15335366995E-01 -0.14817348403E-01  0.10202794903E+01  0.10200053390E+01 0.  0.
     999903    2    3    3    0    0  0.38163845016E-01  0.97227510662E-01 -0.79705318234E-01  0.13277817918E+00  0.19168704046E-01 0.  0.
         14    1    1    2    0    0  0.10228358436E-01 -0.15335366995E-01  0.14817348403E-01  0.23650509738E-01  0.00000000000E+00 0. -1.
     999901    1    3    3    0    0 -0.48392203452E-01 -0.81892143666E-01  0.64887969830E-01  0.88750131109E+00  0.88000000000E+00 0. -1.
        -11    1    4    4    0    0  0.24137355132E-01  0.45446721753E-01 -0.29584885949E-01  0.59359439253E-01  0.51100000000E-03 0.  1.
         11    1    4    4    0    0  0.14026489884E-01  0.51780788909E-01 -0.50120432285E-01  0.73418739923E-01  0.51100000000E-03 0. -1.
</event>
<event>
 8    1  0.1135368E+005  0.1043930E+01  0.7957747E-01            NaN
         13   -1    0    0    0    0  0.00000000000E+00  0.00000000000E+00  0.74505805969E-08  0.10566000000E+00  0.10566000000E+00 0. -1.
     999900   -1    0    0    0    0 -0.00000000000E+00 -0.00000000000E+00 -0.74505805969E-08  0.93827000000E+00  0.93827000000E+00 0.  1.
     999902    2    1    2    0    0 -0.68970352262E-02  0.18308089305E-01 -0.12386337732E-01  0.10207745127E+01  0.10205118467E+01 0.  0.
     999903    2    3    3    0    0 -0.11818764325E+00 -0.51852212250E-01  0.65236844752E-02  0.13079380715E+00  0.20186396295E-01 0.  0.
         14    1    1    2    0    0  0.68970352262E-02 -0.18308089305E-01  0.12386337732E-01  0.23155487283E-01  0.00000000000E+00 0. -1.
     999901    1    3    3    0    0  0.11129060803E+00  0.70160301554E-01 -0.18910022207E-01  0.88998070557E+00  0.88000000000E+00 0.  1.
        -11    1    4    4    0    0 -0.67361329154E-01 -0.24264728556E-01 -0.51845339366E-02  0.71787646781E-01  0.51100000000E-03 0.  1.
         11    1    4    4    0    0 -0.50826314100E-01 -0.27587483693E-01  0.11708218412E-01  0.59006160364E-01  0.51100000000E-03 0. -1.
</event>
<event>
 8    1  0.1135368E+005  0.1043930E+01  0.7957747E-01            NaN
         13   -1    0    0    0    0  0.00000000000E+00  0.00000000000E+00  0.74505805969E-08  0.10566000000E+00  0.10566000000E+00 0.  1.
     999900   -1    0    0    0    0 -0.00000000000E+00 -0.00000000000E+00 -0.74505805969E-08  0.93827000000E+00  0.93827000000E+00 0. -1.
     999902    2    1    2    0    0 -0.58434297393E-03  0.18624445323E-01 -0.14790161039E-01  0.10201400802E+01  0.10198626491E+01 0.  0.
     999903    2    3    3    0    0  0.99649278110E-03 -0.57935584587E-01  0.11201156603E+00  0.12775977159E+00  0.20455887986E-01 0.  0.
         14    1    1    2    0    0  0.58434297393E-03 -0.18624445323E-01  0.14790161039E-01  0.23789919795E-01  0.00000000000E+00 0.  1.
     999901    1    3    3    0    0 -0.15808357550E-02  0.76560029910E-01 -0.12680172706E+00  0.89238030862E+00  0.88000000000E+00 0. -1.
        -11    1    4    4    0    0  0.45942011518E-02 -0.32734798164E-02  0.18871283600E-01  0.19703015506E-01  0.51100000000E-03 0. -1.
         11    1    4    4    0    0 -0.35977083707E-02 -0.54662104771E-01  0.93140282426E-01  0.10805675608E+00  0.51100000000E-03 0.  1.
</event>
<event>
 8    1  0.1135368E+005  0.1043930E+01  0.7957747E-01            NaN
         13   -1    0    0    0    0  0.00000000000E+00  0.00000000000E+00  0.74505805969E-08  0.10566000000E+00  0.10566000000E+00 0. -1.
     999900   -1    0    0    0    0 -0.00000000000E+00 -0.00000000000E+00 -0.74505805969E-08  0.93827000000E+00  0.93827000000E+00 0.  1.
     999902    2    1    2    0    0 -0.12669907285E-01  0.12364436531E-01  0.11133998644E-01  0.10230165649E+01  0.10228027768E+01 0.  0.
     999903    2    3    3    0    0  0.69126897068E-01 -0.25010580115E-01  0.10822935524E+00  0.13312043763E+00  0.24564213088E-01 0.  0.
         14    1    1    2    0    0  0.12669907285E-01 -0.12364436531E-01 -0.11133998644E-01  0.20913435087E-01  0.00000000000E+00 0.  1.
     999901    1    3    3    0    0 -0.81796804353E-01  0.37375016646E-01 -0.97095356595E-01  0.88989612728E+00  0.88000000000E+00 0.  1.
        -11    1    4    4    0    0  0.26980314573E-01 -0.22746917493E-01  0.49960391790E-01  0.61169122102E-01  0.51100000000E-03 0.  1.
         11    1    4    4    0    0  0.42146582495E-01 -0.22636626220E-02  0.58268963449E-01  0.71951315533E-01  0.51100000000E-03 0. -1.
</event>
<event>
 8    1  0.1135368E+005  0.1043930E+01  0.7957747E-01            NaN
         13   -1    0    0    0    0  0.00000000000E+00  0.00000000000E+00  0.74505805969E-08  0.10566000000E+00  0.10566000000E+00 0.  1.
     999900   -1    0    0    0    0 -0.00000000000E+00 -0.00000000000E+00 -0.74505805969E-08  0.93827000000E+00  0.93827000000E+00 0. -1.
     999902    2    1    2    0    0  0.19707929940E-01 -0.11847828893E-01 -0.64688802035E-02  0.10200423471E+01  0.10197626046E+01 0.  0.
     999903    2    3    3    0    0 -0.45250770622E-01  0.12835260454E-01 -0.11984096991E+00  0.13005239296E+00  0.18422559323E-01 0.  0.
         14    1    1    2    0    0 -0.19707929940E-01  0.11847828893E-01  0.64688802035E-02  0.23887652942E-01  0.00000000000E+00 0.  1.
     999901    1    3    3    0    0  0.64958700562E-01 -0.24683089347E-01  0.11337208971E+00  0.88998995410E+00  0.88000000000E+00 0.  1.
        -11    1    4    4    0    0 -0.29371497472E-01  0.44003404738E-02 -0.93892099373E-01  0.98478603288E-01  0.51100000000E-03 0.  1.
         11    1    4    4    0    0 -0.15879273150E-01  0.84349199802E-02 -0.25948870536E-01  0.31573789667E-01  0.51100000000E-03 0. -1.
</event>
<event>
 8    1  0.1135368E+005  0.1043930E+01  0.7957747E-01            NaN
         13   -1    0    0    0    0  0.00000000000E+00  0.00000000000E+00  0.74505805969E-08  0.10566000000E+00  0.10566000000E+00 0.  1.
     999900   -1    0    0    0    0 -0.00000000000E+00 -0.00000000000E+00 -0.74505805969E-08  0.93827000000E+00  0.93827000000E+00 0. -1.
     999902    2    1    2    0    0 -0.80485264700E-02  0.11559941096E-01 -0.16889981528E-01  0.10219372173E+01  0.10217005400E+01 0.  0.
     999903    2    3    3    0    0 -0.12802565528E+00 -0.23079633185E-01  0.11480325172E-01  0.13266825579E+00  0.23363012444E-01 0.  0.
         14    1    1    2    0    0  0.80485264700E-02 -0.11559941096E-01  0.16889981528E-01  0.21992782736E-01  0.00000000000E+00 0.  1.
     999901    1    3    3    0    0  0.11997712881E+00  0.34639574281E-01 -0.28370306699E-01  0.88926896148E+00  0.88000000000E+00 0.  1.
        -11    1    4    4    0    0 -0.10384858493E+00 -0.22701164542E-01  0.99243804427E-03  0.10630671436E+00  0.51100000000E-03 0. -1.
         11    1    4    4    0    0 -0.24177070351E-01 -0.37846864323E-03  0.10487887127E-01  0.26361541432E-01  0.51100000000E-03 0.  1.
</event>
<event>
 8    1  0.1135368E+005  0.1043930E+01  0.7957747E-01            NaN
         13   -1    0    0    0    0  0.00000000000E+00  0.00000000000E+00  0.74505805969E-08  0.10566000000E+00  0.10566000000E+00 0. -1.
     999900   -1    0    0    0    0 -0.00000000000E+00 -0.00000000000E+00 -0.74505805969E-08  0.93827000000E+00  0.93827000000E+00 0.  1.
     999902    2    1    2    0    0 -0.20738433467E-03  0.18791227710E-01 -0.14181590825E-01  0.10203870442E+01  0.10201154098E+01 0.  0.
     999903    2    3    3    0    0 -0.25851761106E-02  0.13029819403E+00  0.15453846372E-01  0.13285241587E+00  0.20655278586E-01 0.  0.
         14    1    1    2    0    0  0.20738433467E-03 -0.18791227710E-01  0.14181590825E-01  0.23542955750E-01  0.00000000000E+00 0.  1.
     999901    1    3    3    0    0  0.23777917759E-02 -0.11150696632E+00 -0.29635437197E-01  0.88753462838E+00  0.88000000000E+00 0. -1.
        -11    1    4    4    0    0 -0.78898025677E-02  0.69167781616E-01  0.18263964289E-03  0.69618427708E-01  0.51100000000E-03 0.  1.
         11    1    4    4    0    0  0.53046264571E-02  0.61130412410E-01  0.15271206729E-01  0.63233988165E-01  0.51100000000E-03 0. -1.
</event>
<event>
 8    1  0.1135368E+005  0.1043930E+01  0.7957747E-01            NaN
         13   -1    0    0    0    0  0.00000000000E+00  0.00000000000E+00  0.74505805969E-08  0.10566000000E+00  0.10566000000E+00 0.  1.
     999900   -1    0    0    0    0 -0.00000000000E+00 -0.00000000000E+00 -0.74505805969E-08  0.93827000000E+00  0.93827000000E+00 0. -1.
     999902    2    1    2    0    0  0.11490889068E-01 -0.10910150023E-01 -0.17921003822E-01  0.10200085811E+01  0.10197280379E+01 0.  0.
     999903    2    3    3    0    0 -0.46862702041E-01  0.11782154229E+00  0.59686530584E-02  0.12841018163E+00  0.19378370821E-01 0.  0.
         14    1    1    2    0    0 -0.11490889068E-01  0.10910150023E-01  0.17921003822E-01  0.23921418919E-01  0.00000000000E+00 0.  1.
     999901    1    3    3    0    0  0.58353591108E-01 -0.12873169232E+00 -0.23889656880E-01  0.89159839945E+00  0.88000000000E+00 0. -1.
        -11    1    4    4    0    0 -0.30369138110E-01  0.94592443669E-01  0.25656601295E-03  0.99349594342E-01  0.51100000000E-03 0. -1.
         11    1    4    4    0    0 -0.16493563930E-01  0.23229098624E-01  0.57120870454E-02  0.29060587286E-01  0.51100000000E-03 0.  1.
</event>
<event>
 8    1  0.1135368E+005  0.1043930E+01  0.7957747E-01            NaN
         13   -1    0    0    0    0  0.00000000000E+00  0.00000000000E+00  0.74505805969E-08  0.10566000000E+00  0.10566000000E+00 0.  1.
     999900   -1    0    0    0    0 -0.00000000000E+00 -0.00000000000E+00 -0.74505805969E-08  0.93827000000E+00  0.93827000000E+00 0.  1.
     999902    2    1    2    0    0 -0.22161703730E-01  0.46455189636E-02  0.65976909529E-02  0.10203450157E+01  0.10200723992E+01 0.  0.
     999903    2    3    3    0    0  0.29399789330E-01  0.11196454965E+00  0.57583121871E-01  0.13086456280E+00  0.20231408315E-01 0.  0.
         14    1    1    2    0    0  0.22161703730E-01 -0.46455189636E-02 -0.65976909529E-02  0.23584984302E-01  0.00000000000E+00 0.  1.
     999901    1    3    3    0    0 -0.51561493060E-01 -0.10731903069E+00 -0.50985430918E-01  0.88948045289E+00  0.88000000000E+00 0. -1.
        -11    1    4    4    0    0  0.31364757057E-02  0.41572370722E-01  0.27421013071E-01  0.49902630854E-01  0.51100000000E-03 0.  1.
         11    1    4    4    0    0  0.26263313625E-01  0.70392178928E-01  0.30162108799E-01  0.80961931950E-01  0.51100000000E-03 0. -1.
</event>
<event>
 8    1  0.1135368E+005  0.1043930E+01  0.7957747E-01            NaN
         13   -1    0    0    0    0  0.00000000000E+00  0.00000000000E+00  0.74505805969E-08  0.10566000000E+00  0.10566000000E+00 0. -1.
     999900   -1    0    0    0    0 -0.00000000000E+00 -0.00000000000E+00 -0.74505805969E-08  0.93827000000E+00  0.93827000000E+00 0. -1.
     999902    2    1    2    0    0 -0.17788677447E-01 -0.75294319947E-02 -0.13245156421E-01  0.10205085662E+01  0.10202397611E+01 0.  0.
     999903    2    3    3    0    0 -0.75691221176E-01  0.65832260683E-01 -0.84369059046E-01  0.13270608141E+00  0.20729650464E-01 0.  0.
         14    1    1    2    0    0  0.17788677447E-01  0.75294319947E-02  0.13245156421E-01  0.23421433776E-01  0.00000000000E+00 0.  1.
     999901    1    3    3    0    0  0.57902543729E-01 -0.73361692678E-01  0.71123902625E-01  0.88780248482E+00  0.88000000000E+00 0.  1.
        -11    1    4    4    0    0 -0.52242099420E-01  0.32007573893E-01 -0.49935334647E-01  0.79041258250E-01  0.51100000000E-03 0. -1.
         11    1    4    4    0    0 -0.23449121756E-01  0.33824686790E-01 -0.34433724399E-01  0.53664823158E-01  0.51100000000E-03 0.  1.
</event>
<event>
 8    1  0.1135368E+005  0.1043930E+01  0.7957747E-01            NaN
         13   -1    0    0    0    0  0.00000000000E+00  0.00000000000E+00  0.74505805969E-08  0.10566000000E+00  0.10566000000E+00 0.  1.
     999900   -1    0    0    0    0 -0.00000000000E+00 -0.00000000000E+00 -0.74505805969E-08  0.93827000000E+00  0.93827000000E+00 0. -1.
     999902    2    1    2    0    0 -0.44127123100E-02  0.18833154462E-01  0.11749986163E-01  0.10212976799E+01  0.10210468790E+01 0.  0.
     999903    2    3    3    0    0  0.10898686023E-01  0.92234778373E-01  0.94649102421E-01  0.13422693823E+00  0.20793812968E-01 0.  0.
         14    1    1    2    0    0  0.44127123100E-02 -0.18833154462E-01 -0.11749986163E-01  0.22632320070E-01  0.00000000000E+00 0. -1.
     999901    1    3    3    0    0 -0.15311398333E-01 -0.73401623911E-01 -0.82899116259E-01  0.88707074170E+00  0.88000000000E+00 0. -1.
        -11    1    4    4    0    0  0.39965378494E-02  0.13995187938E-01  0.59029610520E-02  0.15714441459E-01  0.51100000000E-03 0. -1.
         11    1    4    4    0    0  0.69021481739E-02  0.78239590435E-01  0.88746141369E-01  0.11851249677E+00  0.51100000000E-03 0.  1.
</event>
<event>
 8    1  0.1135368E+005  0.1043930E+01  0.7957747E-01            NaN
         13   -1    0    0    0    0  0.00000000000E+00  0.00000000000E+00  0.74505805969E-08  0.10566000000E+00  0.10566000000E+00 0. -1.
     999900   -1    0    0    0    0 -0.00000000000E+00 -0.00000000000E+00 -0.74505805969E-08  0.93827000000E+00  0.93827000000E+00 0. -1.
     999902    2    1    2    0    0 -0.89973591003E-02 -0.99107289203E-02  0.19413947165E-01  0.10203487286E+01  0.10200761989E+01 0.  0.
     999903    2    3    3    0    0  0.12500155958E+00  0.25196572252E-01  0.10960747091E-01  0.12947292947E+00  0.19566408400E-01 0.  0.
         14    1    1    2    0    0  0.89973591003E-02  0.99107289203E-02 -0.19413947165E-01  0.23581271446E-01  0.00000000000E+00 0. -1.
     999901    1    3    3    0    0 -0.13399891868E+00 -0.35107301172E-01  0.84532000735E-02  0.89087579908E+00  0.88000000000E+00 0. -1.
        -11    1    4    4    0    0  0.48366485237E-01  0.19184682075E-01  0.19125006521E-02  0.52070026889E-01  0.51100000000E-03 0.  1.
         11    1    4    4    0    0  0.76635074344E-01  0.60118901765E-02  0.90482464389E-02  0.77402902580E-01  0.51100000000E-03 0. -1.
</event>
<event>
 8    1  0.1135368E+005  0.1043930E+01  0.7957747E-01            NaN
         13   -1    0    0    0    0  0.00000000000E+00  0.00000000000E+00  0.74505805969E-08  0.10566000000E+00  0.10566000000E+00 0.  1.
     999900   -1    0    0    0    0 -0.00000000000E+00 -0.00000000000E+00 -0.74505805969E-08  0.93827000000E+00  0.93827000000E+00 0. -1.
     999902    2    1    2    0    0  0.14183239892E-01 -0.36024325774E-02  0.16653050709E-01  0.10217609695E+01  0.10215204418E+01 0.  0.
     999903    2    3    3    0    0  0.13090518218E+00  0.16654793714E-01  0.88776607572E-02  0.13378865930E+00  0.20175322109E-01 0.  0.
         14    1    1    2    0    0 -0.14183239892E-01  0.36024325774E-02 -0.16653050709E-01  0.22169030476E-01  0.00000000000E+00 0.  1.
     999901    1    3    3    0    0 -0.11672194229E+00 -0.20257226292E-01  0.77753899517E-02  0.88797231022E+00  0.88000000000E+00 0.  1.
        -11    1    4    4    0    0  0.45587749933E-01  0.14763174363E-02  0.11675055420E-01  0.47084928557E-01  0.51100000000E-03 0. -1.
         11    1    4    4    0    0  0.85317432248E-01  0.15178476278E-01 -0.27973946630E-02  0.86703730747E-01  0.51100000000E-03 0.  1.
</event>
<event>
 7    1  0.1135368E+005  0.1043930E+01  0.7957747E-01            NaN
         13   -1    0    0    0    0  0.00000000000E+00  0.00000000000E+00  0.74505805969E-08  0.10566000000E+00  0.10566000000E+00 0. -1.
     999900   -1    0    0    0    0 -0.00000000000E+00 -0.00000000000E+00 -0.74505805969E-08  0.93827000000E+00  0.93827000000E+00 0. -1.
     999902    2    1    2    0    0 -0.77310420003E-02 -0.20680441444E-01  0.68286145482E-02  0.10208198368E+01  0.10205582097E+01 0.  0.
         14    1    1    2    0    0  0.77310420003E-02  0.20680441444E-01 -0.68286145482E-02  0.23110163248E-01  0.00000000000E+00 0.  1.
     999901    1    3    3    0    0 -0.24698473614E-01  0.97852801182E-01  0.34472871842E-01  0.88643869737E+00  0.88000000000E+00 0.  1.
        -11    1    3    3    0    0  0.22232452612E-01 -0.74176402237E-01  0.71367246194E-02  0.77766410212E-01  0.51100000000E-03 0. -1.
         11    1    3    3    0    0 -0.52650209986E-02 -0.44356840388E-01 -0.34780981913E-01  0.56614729172E-01  0.51100000000E-03 0.  1.
</event>
<event>
 7    1  0.1630454E+005  0.1043930E+01  0.7957747E-01            NaN
         13   -1    0    0    0    0  0.00000000000E+00  0.00000000000E+00  0.74505805969E-08  0.10566000000E+00  0.10566000000E+00 0.  1.
     999900   -1    0    0    0    0 -0.00000000000E+00 -0.00000000000E+00 -0.74505805969E-08  0.93827000000E+00  0.93827000000E+00 0. -1.
     999903    2    1    2    0    0 -0.10101211720E+00  0.76862952365E-02  0.60513221766E-01  0.12125968616E+00  0.27920145490E-01 0.  0.
         14    1    1    2    0    0  0.38429018998E-01 -0.40104631630E-03 -0.25858663053E-02  0.38518009344E-01  0.00000000000E+00 0. -1.
     999901    1    1    2    0    0  0.62583098201E-01 -0.72852489202E-02 -0.57927355461E-01  0.88415230449E+00  0.88000000000E+00 0. -1.
        -11    1    3    3    0    0 -0.65887971664E-01  0.62278510924E-02  0.54187825206E-01  0.85537082373E-01  0.51100000000E-03 0.  1.
         11    1    3    3    0    0 -0.35124145534E-01  0.14584441442E-02  0.63253965597E-02  0.35722603789E-01  0.51100000000E-03 0. -1.
</event>
<event>
 8    1  0.1135368E+005  0.1043930E+01  0.7957747E-01            NaN
         13   -1    0    0    0    0  0.00000000000E+00  0.00000000000E+00  0.74505805969E-08  0.10566000000E+00  0.10566000000E+00 0.  1.
     999900   -1    0    0    0    0 -0.00000000000E+00 -0.00000000000E+00 -0.74505805969E-08  0.93827000000E+00  0.93827000000E+00 0.  1.
     999902    2    1    2    0    0 -0.40265715867E-02 -0.87600165297E-02 -0.22354650485E-01  0.10195849478E+01  0.10192942579E+01 0.  0.
     999903    2    3    3    0    0  0.28054781154E-01  0.11184441795E+00 -0.56017197379E-01  0.13014253265E+00  0.22425606566E-01 0.  0.
         14    1    1    2    0    0  0.40265715867E-02  0.87600165297E-02  0.22354650485E-01  0.24345052200E-01  0.00000000000E+00 0.  1.
     999901    1    3    3    0    0 -0.32081352740E-01 -0.12060443448E+00  0.33662546895E-01  0.88944241515E+00  0.88000000000E+00 0. -1.
        -11    1    4    4    0    0  0.25057745629E-01  0.67557251998E-01 -0.26223802943E-01  0.76679996579E-01  0.51100000000E-03 0.  1.
         11    1    4    4    0    0  0.29970355246E-02  0.44287165950E-01 -0.29793394436E-01  0.53462536068E-01  0.51100000000E-03 0. -1.
</event>
<event>
 8    1  0.1135368E+005  0.1043930E+01  0.7957747E-01            NaN
         13   -1    0    0    0    0  0.00000000000E+00  0.00000000000E+00  0.74505805969E-08  0.10566000000E+00  0.10566000000E+00 0. -1.
     999900   -1    0    0    0    0 -0.00000000000E+00 -0.00000000000E+00 -0.74505805969E-08  0.93827000000E+00  0.93827000000E+00 0.  1.
     999902    2    1    2    0    0 -0.30852404366E-02  0.14125095376E-01 -0.18520084186E-01  0.10204346697E+01  0.10201641459E+01 0.  0.
     999903    2    3    3    0    0 -0.12401052135E+00  0.22988938101E-01  0.28496698036E-01  0.13087743765E+00  0.20242065269E-01 0.  0.
         14    1    1    2    0    0  0.30852404366E-02 -0.14125095376E-01  0.18520084186E-01  0.23495330306E-01  0.00000000000E+00 0. -1.
     999901    1    3    3    0    0  0.12092528091E+00 -0.88638427253E-02 -0.47016782222E-01  0.88955723204E+00  0.88000000000E+00 0. -1.
        -11    1    4    4    0    0 -0.48159955779E-01  0.20641917255E-02  0.35737924609E-02  0.48339169849E-01  0.51100000000E-03 0.  1.
         11    1    4    4    0    0 -0.75850565571E-01  0.20924746376E-01  0.24922905575E-01  0.82538267801E-01  0.51100000000E-03 0. -1.
</event>
<event>
 8    1  0.1135368E+005  0.1043930E+01  0.7957747E-01            NaN
         13   -1    0    0    0    0  0.00000000000E+00  0.00000000000E+00  0.74505805969E-08  0.10566000000E+00  0.10566000000E+00 0. -1.
     999900   -1    0    0    0    0 -0.00000000000E+00 -0.00000000000E+00 -0.74505805969E-08  0.93827000000E+00  0.93827000000E+00 0. -1.
     999902    2    1    2    0    0 -0.57748969515E-02 -0.30847145475E-02  0.23647809356E-01  0.10193926043E+01  0.10190972466E+01 0.  0.
     999903    2    3    3    0    0  0.80528115292E-01 -0.97958366591E-01 -0.16133473095E-01  0.12920623609E+00  0.18797434755E-01 0.  0.
         14    1    1    2    0    0  0.57748969515E-02  0.30847145475E-02 -0.23647809356E-01  0.24537395664E-01  0.00000000000E+00 0.  1.
     999901    1    3    3    0    0 -0.86303012243E-01  0.94873652044E-01  0.39781282451E-01  0.89018636824E+00  0.88000000000E+00 0.  1.
        -11    1    4    4    0    0  0.73897387741E-01 -0.81306220720E-01 -0.10315035078E-01  0.11035482098E+00  0.51100000000E-03 0. -1.
         11    1    4    4    0    0  0.66307275505E-02 -0.16652145871E-01 -0.58184380173E-02  0.18851415117E-01  0.51100000000E-03 0.  1.
</event>
<event>
 8    1  0.1135368E+005  0.1043930E+01  0.7957747E-01            NaN
         13   -1    0    0    0    0  0.00000000000E+00  0.00000000000E+00  0.74505805969E-08  0.10566000000E+00  0.10566000000E+00 0.  1.
     999900   -1    0    0    0    0 -0.00000000000E+00 -0.00000000000E+00 -0.74505805969E-08  0.93827000000E+00  0.93827000000E+00 0.  1.
     999902    2    1    2    0    0  0.12176486859E-01  0.28185661609E-02  0.17808509141E-01  0.10221732965E+01  0.10219417273E+01 0.  0.
     999903    2    3    3    0    0  0.22564242683E-01 -0.83000950558E-02 -0.12642041159E+00  0.13030250339E+00  0.20459357200E-01 0.  0.
         14    1    1    2    0    0 -0.12176486859E-01 -0.28185661609E-02 -0.17808509141E-01  0.21756703456E-01  0.00000000000E+00 0. -1.
     999901    1    3    3    0    0 -0.10387755824E-01  0.11118661217E-01  0.14422892074E+00  0.89187079315E+00  0.88000000000E+00 0. -1.
        -11    1    4    4    0    0  0.12161568913E-01 -0.14122709679E-01 -0.60389222418E-01  0.63201851178E-01  0.51100000000E-03 0.  1.
         11    1    4    4    0    0  0.10402673770E-01  0.58226146234E-02 -0.66031189177E-01  0.67100652215E-01  0.51100000000E-03 0. -1.
</event>
<event>
 8    1  0.1135368E+005  0.1043930E+01  0.7957747E-01            NaN
         13   -1    0    0    0    0  0.00000000000E+00  0.00000000000E+00  0.74505805969E-08  0.10566000000E+00  0.10566000000E+00 0.  1.
     999900   -1    0    0    0    0 -0.00000000000E+00 -0.00000000000E+00 -0.74505805969E-08  0.93827000000E+00  0.93827000000E+00 0. -1.
     999902    2    1    2    0    0 -0.56979850284E-03 -0.25756503840E-02  0.29598977213E-01  0.10142137065E+01  0.10137782718E+01 0.  0.
     999903    2    3    3    0    0  0.83511658751E-01 -0.83480699901E-01 -0.33282600604E-01  0.12428707399E+00  0.19907808862E-01 0.  0.
         14    1    1    2    0    0  0.56979850284E-03  0.25756503840E-02 -0.29598977213E-01  0.29716293465E-01  0.00000000000E+00 0. -1.
     999901    1    3    3    0    0 -0.84081457254E-01  0.80905049517E-01  0.62881577817E-01  0.88992663255E+00  0.88000000000E+00 0. -1.
        -11    1    4    4    0    0  0.23861745933E-01 -0.20916474657E-01 -0.22217870370E-03  0.31736293347E-01  0.51100000000E-03 0. -1.
         11    1    4    4    0    0  0.59649912819E-01 -0.62564225244E-01 -0.33060421900E-01  0.92550780639E-01  0.51100000000E-03 0.  1.
</event>
<event>
 8    1  0.1135368E+005  0.1043930E+01  0.7957747E-01            NaN
         13   -1    0    0    0    0  0.00000000000E+00  0.00000000000E+00  0.74505805969E-08  0.10566000000E+00  0.10566000000E+00 0.  1.
     999900   -1    0    0    0    0 -0.00000000000E+00 -0.00000000000E+00 -0.74505805969E-08  0.93827000000E+00  0.93827000000E+00 0.  1.
     999902    2    1    2    0    0  0.67019952149E-02  0.22586127227E-01 -0.31828457030E-02  0.10201564771E+01  0.10198794328E+01 0.  0.
     999903    2    3    3    0    0 -0.12190900407E-01  0.71434978684E-01 -0.10856389893E+00  0.13232298025E+00  0.21718119634E-01 0.  0.
         14    1    1    2    0    0 -0.67019952149E-02 -0.22586127227E-01  0.31828457030E-02  0.23773522872E-01  0.00000000000E+00 0.  1.
     999901    1    3    3    0    0  0.18892895622E-01 -0.48848851457E-01  0.10538105323E+00  0.88783349687E+00  0.88000000000E+00 0. -1.
        -11    1    4    4    0    0 -0.12518264424E-01  0.47789374953E-01 -0.88277385386E-01  0.10116169826E+00  0.51100000000E-03 0. -1.
         11    1    4    4    0    0  0.32736401682E-03  0.23645603731E-01 -0.20286513542E-01  0.31161281997E-01  0.51100000000E-03 0.  1.
</event>
<event>
 8    1  0.1135368E+005  0.1043930E+01  0.7957747E-01            NaN
         13   -1    0    0    0    0  0.00000000000E+00  0.00000000000E+00  0.74505805969E-08  0.10566000000E+00  0.10566000000E+00 0. -1.
     999900   -1    0    0    0    0 -0.00000000000E+00 -0.00000000000E+00 -0.74505805969E-08  0.93827000000E+00  0.93827000000E+00 0. -1.
     999902    2    1    2    0    0 -0.23427977053E-01  0.35688490968E-02  0.71206933630E-03  0.10202210600E+01  0.10199455365E+01 0.  0.
     999903    2    3    3    0    0  0.42587464038E-01  0.92935781425E-01  0.76973793965E-01  0.12996248089E+00  0.22683251958E-01 0.  0.
         14    1    1    2    0    0  0.23427977053E-01 -0.35688490968E-02 -0.71206933630E-03  0.23708939989E-01  0.00000000000E+00 0.  1.
     999901    1    3    3    0    0 -0.66015441090E-01 -0.89366932328E-01 -0.76261724629E-01  0.89025857912E+00  0.88000000000E+00 0. -1.
        -11    1    4    4    0    0  0.21334613105E-01  0.69723681436E-01  0.48990255233E-01  0.87845681158E-01  0.51100000000E-03 0.  1.
         11    1    4    4    0    0  0.21252850933E-01  0.23212099989E-01  0.27983538732E-01  0.42116799732E-01  0.51100000000E-03 0. -1.
</event>
<event>
 8    1  0.1135368E+005  0.1043930E+01  0.7957747E-01            NaN
         13   -1    0    0    0    0  0.00000000000E+00  0.00000000000E+00  0.74505805969E-08  0.10566000000E+00  0.10566000000E+00 0.  1.
     999900   -1    0    0    0    0 -0.00000000000E+00 -0.00000000000E+00 -0.74505805969E-08  0.93827000000E+00  0.93827000000E+00 0. -1.
     999902    2    1    2    0    0  0.18087299221E-03  0.11974811004E-01  0.19540755721E-01  0.10210112315E+01  0.10207539689E+01 0.  0.
     999903    2    3    3    0    0  0.10958396059E+00  0.68867759905E-01 -0.14264745492E-01  0.13177073813E+00  0.20214640459E-01 0.  0.
         14    1    1    2    0    0 -0.18087299221E-03 -0.11974811004E-01 -0.19540755721E-01  0.22918768461E-01  0.00000000000E+00 0. -1.
     999901    1    3    3    0    0 -0.10940308760E+00 -0.56892948901E-01  0.33805501213E-01  0.88924049341E+00  0.88000000000E+00 0. -1.
        -11    1    4    4    0    0  0.44363753096E-01  0.32794193650E-01 -0.15216628697E-01  0.57231185868E-01  0.51100000000E-03 0. -1.
         11    1    4    4    0    0  0.65220207497E-01  0.36073566255E-01  0.95188320538E-03  0.74539552259E-01  0.51100000000E-03 0.  1.
</event>
<event>
 8    1  0.1135368E+005  0.1043930E+01  0.7957747E-01            NaN
         13   -1    0    0    0    0  0.00000000000E+00  0.00000000000E+00  0.74505805969E-08  0.10566000000E+00  0.10566000000E+00 0. -1.
     999900   -1    0    0    0    0 -0.00000000000E+00 -0.00000000000E+00 -0.74505805969E-08  0.93827000000E+00  0.93827000000E+00 0. -1.
     999902    2    1    2    0    0 -0.15253907951E-01  0.42383361616E-02  0.17009319964E-01  0.10206929140E+01  0.10204283720E+01 0.  0.
     999903    2    3    3    0    0  0.10199195065E+00  0.40590968126E-01  0.69236345844E-01  0.13063911367E+00  0.14930564055E-01 0.  0.
         14    1    1    2    0    0  0.15253907951E-01 -0.42383361616E-02 -0.17009319964E-01  0.23237086023E-01  0.00000000000E+00 0.  1.
     999901    1    3    3    0    0 -0.11724585860E+00 -0.36352631964E-01 -0.52227025880E-01  0.89005380031E+00  0.88000000000E+00 0.  1.
        -11    1    4    4    0    0  0.68254286840E-01  0.20330870962E-01  0.48374587662E-01  0.86095027955E-01  0.51100000000E-03 0. -1.
         11    1    4    4    0    0  0.33737663813E-01  0.20260097164E-01  0.20861758183E-01  0.44544085714E-01  0.51100000000E-03 0.  1.
</event>
<event>
 8    1  0.1135368E+005  0.1043930E+01  0.7957747E-01            NaN
         13   -1    0    0    0    0  0.00000000000E+00  0.00000000000E+00  0.74505805969E-08  0.10566000000E+00  0.10566000000E+00 0.  1.
     999900   -1    0    0    0    0 -0.00000000000E+00 -0.00000000000E+00 -0.74505805969E-08  0.93827000000E+00  0.93827000000E+00 0. -1.
     999902    2    1    2    0    0  0.98999170707E-02 -0.20316417205E-01  0.71396289761E-02  0.10202289564E+01  0.10199536186E+01 0.  0.
     999903    2    3    3    0    0 -0.76319858955E-02  0.67156075323E-01 -0.10729018915E+00  0.12834724459E+00  0.19840485028E-01 0.  0.
         14    1    1    2    0    0 -0.98999170707E-02  0.20316417205E-01 -0.71396289761E-02  0.23701043605E-01  0.00000000000E+00 0.  1.
     999901    1    3    3    0    0  0.17531902966E-01 -0.87472492528E-01  0.11442981812E+00  0.89188171180E+00  0.88000000000E+00 0.  1.
        -11    1    4    4    0    0  0.17041331592E-02  0.22364181649E-02 -0.14116518284E-01  0.14402876293E-01  0.51100000000E-03 0.  1.
         11    1    4    4    0    0 -0.93361190547E-02  0.64919657158E-01 -0.93173670862E-01  0.11394436830E+00  0.51100000000E-03 0. -1.
</event>
<event>
 8    1  0.1135368E+005  0.1043930E+01  0.7957747E-01            NaN
         13   -1    0    0    0    0  0.00000000000E+00  0.00000000000E+00  0.74505805969E-08  0.10566000000E+00  0.10566000000E+00 0. -1.
     999900   -1    0    0    0    0 -0.00000000000E+00 -0.00000000000E+00 -0.74505805969E-08  0.93827000000E+00  0.93827000000E+00 0. -1.
     999902    2    1    2    0    0 -0.69076121643E-02  0.48375273190E-02  0.17951261913E-01  0.10240965792E+01  0.10239045068E+01 0.  0.
     999903    2    3    3    0    0  0.99633439350E-01  0.76028535367E-02 -0.83061481277E-01  0.13192943288E+00  0.22837249600E-01 0.  0.
         14    1    1    2    0    0  0.69076121643E-02 -0.48375273190E-02 -0.17951261913E-01  0.19833420800E-01  0.00000000000E+00 0.  1.
     999901    1    3    3    0    0 -0.10654105151E+00 -0.27653262177E-02  0.10101274319E+00  0.89216714632E+00  0.88000000000E+00 0.  1.
        -11    1    4    4    0    0  0.34604737515E-01  0.13288679773E-01 -0.26703483590E-01  0.45688226333E-01  0.51100000000E-03 0. -1.
         11    1    4    4    0    0  0.65028701835E-01 -0.56858262360E-02 -0.56357997687E-01  0.86241206546E-01  0.51100000000E-03 0.  1.
</event>
<event>
 8    1  0.1135368E+005  0.1043930E+01  0.7957747E-01            NaN
         13   -1    0    0    0    0  0.00000000000E+00  0.00000000000E+00  0.74505805969E-08  0.10566000000E+00  0.10566000000E+00 0. -1.
     999900   -1    0    0    0    0 -0.00000000000E+00 -0.00000000000E+00 -0.74505805969E-08  0.93827000000E+00  0.93827000000E+00 0.  1.
     999902    2    1    2    0    0  0.22800348701E-01 -0.10414309603E-02  0.70546413228E-02  0.10200404951E+01  0.10197607088E+01 0.  0.
     999903    2    3    3    0    0  0.47708317005E-01  0.10424575090E+00 -0.59852376217E-01  0.13089351821E+00  0.20187770527E-01 0.  0.
         14    1    1    2    0    0 -0.22800348701E-01  0.10414309603E-02 -0.70546413228E-02  0.23889504883E-01  0.00000000000E+00 0.  1.
     999901    1    3    3    0    0 -0.24907968304E-01 -0.10528718186E+00  0.66907017539E-01  0.88914697691E+00  0.88000000000E+00 0.  1.
        -11    1    4    4    0    0  0.14003776845E-01  0.46117469078E-01 -0.33587557887E-01  0.58747867076E-01  0.51100000000E-03 0.  1.
         11    1    4    4    0    0  0.33704540160E-01  0.58128281819E-01 -0.26264818329E-01  0.72145651134E-01  0.51100000000E-03 0. -1.
</event>
<event>
 8    1  0.1135368E+005  0.1043930E+01  0.7957747E-01            NaN
         13   -1    0    0    0    0  0.00000000000E+00  0.00000000000E+00  0.74505805969E-08  0.10566000000E+00  0.10566000000E+00 0. -1.
     999900   -1    0    0    0    0 -0.00000000000E+00 -0.00000000000E+00 -0.74505805969E-08  0.93827000000E+00  0.93827000000E+00 0. -1.
     999902    2    1    2    0    0 -0.23637616871E-01  0.41941704820E-02 -0.35080766842E-03  0.10199206047E+01  0.10196379695E+01 0.  0.
     999903    2    3    3    0    0  0.10057919800E+00  0.32997359858E-03 -0.76433863104E-01  0.12793776828E+00  0.20239890576E-01 0.  0.
         14    1    1    2    0    0  0.23637616871E-01 -0.41941704820E-02  0.35080766842E-03  0.24009395315E-01  0.00000000000E+00 0. -1.
     999901    1    3    3    0    0 -0.12421681487E+00  0.38641968835E-02  0.76083055435E-01  0.89198283640E+00  0.88000000000E+00 0.  1.
        -11    1    4    4    0    0  0.78470810254E-01  0.82173870532E-02 -0.62307018211E-01  0.10053665576E+00  0.51100000000E-03 0.  1.
         11    1    4    4    0    0  0.22108387749E-01 -0.78874134546E-02 -0.14126844892E-01  0.27401112522E-01  0.51100000000E-03 0. -1.
</event>
<event>
 8    1  0.1135368E+005  0.1043930E+01  0.7957747E-01            NaN
         13   -1    0    0    0    0  0.00000000000E+00  0.00000000000E+00  0.74505805969E-08  0.10566000000E+00  0.10566000000E+00 0.  1.
     999900   -1    0    0    0    0 -0.00000000000E+00 -0.00000000000E+00 -0.74505805969E-08  0.93827000000E+00  0.93827000000E+00 0. -1.
     999902    2    1    2    0    0  0.18644734827E-01  0.15126741796E-01  0.21245711634E-02  0.10198269243E+01  0.10195420528E+01 0.  0.
     999903    2    3    3    0    0 -0.80256672444E-01  0.10110898995E+00 -0.59010040789E-02  0.13008603777E+00  0.14946372562E-01 0.  0.
         14    1    1    2    0    0 -0.18644734827E-01 -0.15126741796E-01 -0.21245711634E-02  0.24103075670E-01  0.00000000000E+00 0. -1.
     999901    1    3    3    0    0  0.98901407271E-01 -0.85982248156E-01  0.80255752423E-02  0.88974088656E+00  0.88000000000E+00 0. -1.
        -11    1    4    4    0    0 -0.20156540190E-01  0.15964706410E-01 -0.19271478772E-02  0.25790172220E-01  0.51100000000E-03 0. -1.
         11    1    4    4    0    0 -0.60100132254E-01  0.85144283541E-01 -0.39738562017E-02  0.10429586555E+00  0.51100000000E-03 0.  1.
</event>
<event>
 8    1  0.1135368E+005  0.1043930E+01  0.7957747E-01            NaN
         13   -1    0    0    0    0  0.00000000000E+00  0.00000000000E+00  0.74505805969E-08  0.10566000000E+00  0.10566000000E+00 0.  1.
     999900   -1    0    0    0    0 -0.00000000000E+00 -0.00000000000E+00 -0.74505805969E-08  0.93827000000E+00  0.93827000000E+00 0.  1.
     999902    2    1    2    0    0 -0.76991920726E-02  0.39185291531E-02 -0.25094343372E-01  0.10173902468E+01  0.10170440285E+01 0.  0.
     999903    2    3    3    0    0  0.12119579408E+00  0.31104261489E-01 -0.13443829825E-01  0.12750895364E+00  0.20540231550E-01 0.  0.
         14    1    1    2    0    0  0.76991920726E-02 -0.39185291531E-02  0.25094343372E-01  0.26539753175E-01  0.00000000000E+00 0.  1.
     999901    1    3    3    0    0 -0.12889498615E+00 -0.27185732336E-01 -0.11650513548E-01  0.88988129319E+00  0.88000000000E+00 0. -1.
        -11    1    4    4    0    0  0.86184937299E-01  0.13609253780E-01 -0.45714860319E-02  0.87373993907E-01  0.51100000000E-03 0.  1.
         11    1    4    4    0    0  0.35010856780E-01  0.17495007709E-01 -0.88723437929E-02  0.40134959731E-01  0.51100000000E-03 0. -1.
</event>
<event>
 8    1  0.1135368E+005  0.1043930E+01  0.7957747E-01            NaN
         13   -1    0    0    0    0  0.00000000000E+00  0.00000000000E+00  0.74505805969E-08  0.10566000000E+00  0.10566000000E+00 0.  1.
     999900   -1    0    0    0    0 -0.00000000000E+00 -0.00000000000E+00 -0.74505805969E-08  0.93827000000E+00  0.93827000000E+00 0.  1.
     999902    2    1    2    0    0 -0.60180114369E-03  0.13992909226E-01 -0.19211904612E-01  0.10201547828E+01  0.10198776985E+01 0.  0.
     999903    2    3    3    0    0 -0.32174110138E-01  0.12600115956E+00 -0.14939144842E-01  0.13248315698E+00  0.20424085305E-01 0.  0.
         14    1    1    2    0    0  0.60180114369E-03 -0.13992909226E-01  0.19211904612E-01  0.23775217182E-01  0.00000000000E+00 0.  1.
     999901    1    3    3    0    0  0.31572308994E-01 -0.11200825034E+00 -0.42727597698E-02  0.88767162584E+00  0.88000000000E+00 0.  1.
        -11    1    4    4    0    0 -0.18225406217E-01  0.57042117813E-01  0.27078086303E-02  0.59946325867E-01  0.51100000000E-03 0. -1.
         11    1    4    4    0    0 -0.13948703921E-01  0.68959041751E-01 -0.17646953472E-01  0.72536831115E-01  0.51100000000E-03 0.  1.
</event>
<event>
 8    1  0.1135368E+005  0.1043930E+01  0.7957747E-01            NaN
         13   -1    0    0    0    0  0.00000000000E+00  0.00000000000E+00  0.74505805969E-08  0.10566000000E+00  0.10566000000E+00 0. -1.
     999900   -1    0    0    0    0 -0.00000000000E+00 -0.00000000000E+00 -0.74505805969E-08  0.93827000000E+00  0.93827000000E+00 0.  1.
     999902    2    1    2    0    0  0.83724458854E-02 -0.18811132681E-01 -0.12871865188E-01  0.10196474656E+01  0.10193582847E+01 0.  0.
     999903    2    3    3    0    0 -0.35776446168E-01 -0.12382119520E+00 -0.21814042278E-01  0.13226017675E+00  0.20131056409E-01 0.  0.
         14    1    1    2    0    0 -0.83724458854E-02  0.18811132681E-01  0.12871865188E-01  0.24282534387E-01  0.00000000000E+00 0. -1.
     999901    1    3    3    0    0  0.44148892053E-01  0.10501006252E+00  0.89421770901E-02  0.88738728886E+00  0.88000000000E+00 0.  1.
        -11    1    4    4    0    0 -0.16575979153E-02 -0.34923192119E-01 -0.21727921661E-02  0.35033685582E-01  0.51100000000E-03 0.  1.
         11    1    4    4    0    0 -0.34118848252E-01 -0.88898003084E-01 -0.19641250112E-01  0.97226491171E-01  0.51100000000E-03 0. -1.
</event>
<event>
 8    1  0.1135368E+005  0.1043930E+01  0.7957747E-01            NaN
         13   -1    0    0    0    0  0.00000000000E+00  0.00000000000E+00  0.74505805969E-08  0.10566000000E+00  0.10566000000E+00 0. -1.
     999900   -1    0    0    0    0 -0.00000000000E+00 -0.00000000000E+00 -0.74505805969E-08  0.93827000000E+00  0.93827000000E+00 0.  1.
     999902    2    1    2    0    0  0.43789251679E-02 -0.16909473527E-01 -0.17258891714E-01  0.10193744584E+01  0.10190786583E+01 0.  0.
     999903    2    3    3    0    0 -0.39053274810E-01 -0.51910387803E-01 -0.11360623116E+00  0.13236023651E+00  0.19824475170E-01 0.  0.
         14    1    1    2    0    0 -0.43789251679E-02  0.16909473527E-01  0.17258891714E-01  0.24555541610E-01  0.00000000000E+00 0. -1.
     999901    1    3    3    0    0  0.43432199977E-01  0.35000914277E-01  0.96347339446E-01  0.88701422188E+00  0.88000000000E+00 0. -1.
        -11    1    4    4    0    0 -0.51998409044E-02 -0.18726393011E-01 -0.23125407177E-01  0.30211946622E-01  0.51100000000E-03 0. -1.
         11    1    4    4    0    0 -0.33853433905E-01 -0.33183994792E-01 -0.90480823984E-01  0.10214828989E+00  0.51100000000E-03 0.  1.
</event>
<event>
 8    1  0.1135368E+005  0.1043930E+01  0.7957747E-01            NaN
         13   -1    0    0    0    0  0.00000000000E+00  0.00000000000E+00  0.74505805969E-08  0.10566000000E+00  0.10566000000E+00 0.  1.
     999900   -1    0    0    0    0 -0.00000000000E+00 -0.00000000000E+00 -0.74505805969E-08  0.93827000000E+00  0.93827000000E+00 0. -1.
     999902    2    1    2    0    0 -0.23386593752E-01  0.79878234873E-02  0.23527662056E-02  0.10191051415E+01  0.10188027365E+01 0.  0.
     999903    2    3    3    0    0 -0.38105098077E-01 -0.99143909446E-01  0.68736633544E-01  0.13000410088E+00  0.29913678712E-01 0.  0.
         14    1    1    2    0    0  0.23386593752E-01 -0.79878234873E-02 -0.23527662056E-02  0.24824858514E-01  0.00000000000E+00 0.  1.
     999901    1    3    3    0    0  0.14718504324E-01  0.10713173293E+00 -0.66383867338E-01  0.88910104061E+00  0.88000000000E+00 0.  1.
        -11    1    4    4    0    0 -0.18653296878E-01 -0.19783488492E-01  0.85105226876E-02  0.28496000049E-01  0.51100000000E-03 0. -1.
         11    1    4    4    0    0 -0.19451801198E-01 -0.79360420954E-01  0.60226110856E-01  0.10150810083E+00  0.51100000000E-03 0.  1.
</event>
<event>
 8    1  0.1135368E+005  0.1043930E+01  0.7957747E-01            NaN
         13   -1    0    0    0    0  0.00000000000E+00  0.00000000000E+00  0.74505805969E-08  0.10566000000E+00  0.10566000000E+00 0.  1.
     999900   -1    0    0    0    0 -0.00000000000E+00 -0.00000000000E+00 -0.74505805969E-08  0.93827000000E+00  0.93827000000E+00 0.  1.
     999902    2    1    2    0    0  0.21291132129E-01 -0.69819347943E-02  0.67448251698E-02  0.10205301627E+01  0.10202618588E+01 0.  0.
     999903    2    3    3    0    0  0.11597726131E+00 -0.16249312294E-01  0.60489199465E-01  0.13377213191E+00  0.22831441721E-01 0.  0.
         14    1    1    2    0    0 -0.21291132129E-01  0.69819347943E-02 -0.67448251698E-02  0.23399837337E-01  0.00000000000E+00 0.  1.
     999901    1    3    3    0    0 -0.94686129183E-01  0.92673774996E-02 -0.53744374296E-01  0.88675803076E+00  0.88000000000E+00 0. -1.
        -11    1    4    4    0    0  0.85896561802E-01 -0.12384551773E-01  0.33037320545E-01  0.92861844273E-01  0.51100000000E-03 0. -1.
         11    1    4    4    0    0  0.30080699510E-01 -0.38647605208E-02  0.27451878920E-01  0.40910287632E-01  0.51100000000E-03 0.  1.
</event>
<event>
 8    1  0.1135368E+005  0.1043930E+01  0.7957747E-01            NaN
         13   -1    0    0    0    0  0.00000000000E+00  0.00000000000E+00  0.74505805969E-08  0.10566000000E+00  0.10566000000E+00 0. -1.
     999900   -1    0    0    0    0 -0.00000000000E+00 -0.00000000000E+00 -0.74505805969E-08  0.93827000000E+00  0.93827000000E+00 0.  1.
     999902    2    1    2    0    0 -0.10371411611E-01 -0.20030394979E-01  0.54893720644E-02  0.10207154333E+01  0.10204514097E+01 0.  0.
     999903    2    3    3    0    0 -0.78983145938E-01 -0.10313064496E+00 -0.23934173709E-01  0.13365344747E+00  0.20399315647E-01 0.  0.
         14    1    1    2    0    0  0.10371411611E-01  0.20030394979E-01 -0.54893720644E-02  0.23214566709E-01  0.00000000000E+00 0. -1.
     999901    1    3    3    0    0  0.68611734328E-01  0.83100249980E-01  0.29423545773E-01  0.88706198582E+00  0.88000000000E+00 0. -1.
        -11    1    4    4    0    0 -0.26276196378E-01 -0.43427661128E-01 -0.17740882983E-01  0.53771742553E-01  0.51100000000E-03 0. -1.
         11    1    4    4    0    0 -0.52706949560E-01 -0.59702983831E-01 -0.61932907259E-02  0.79881704922E-01  0.51100000000E-03 0.  1.
</event>
<event>
 8    1  0.1135368E+005  0.1043930E+01  0.7957747E-01            NaN
         13   -1    0    0    0    0  0.00000000000E+00  0.00000000000E+00  0.74505805969E-08  0.10566000000E+00  0.10566000000E+00 0. -1.
     999900   -1    0    0    0    0 -0.00000000000E+00 -0.00000000000E+00 -0.74505805969E-08  0.93827000000E+00  0.93827000000E+00 0. -1.
     999902    2    1    2    0    0 -0.92858390508E-02 -0.88616967534E-02  0.19140501606E-01  0.10208840616E+01  0.10206239033E+01 0.  0.
     999903    2    3    3    0    0  0.93096357145E-01  0.51932960714E-01 -0.69098200110E-01  0.12849167425E+00  0.19276539384E-01 0.  0.
         14    1    1    2    0    0  0.92858390508E-02  0.88616967534E-02 -0.19140501606E-01  0.23045938427E-01  0.00000000000E+00 0.  1.
     999901    1    3    3    0    0 -0.10238219620E+00 -0.60794657468E-01  0.88238701716E-01  0.89239238732E+00  0.88000000000E+00 0.  1.
        -11    1    4    4    0    0  0.14007116064E-01  0.12000009054E-02 -0.59164481648E-02  0.15261218251E-01  0.51100000000E-03 0.  1.
         11    1    4    4    0    0  0.79089241081E-01  0.50732959809E-01 -0.63181751945E-01  0.11323045600E+00  0.51100000000E-03 0. -1.
</event>
<event>
 8    1  0.1135368E+005  0.1043930E+01  0.7957747E-01            NaN
         13   -1    0    0    0    0  0.00000000000E+00  0.00000000000E+00  0.74505805969E-08  0.10566000000E+00  0.10566000000E+00 0.  1.
     999900   -1    0    0    0    0 -0.00000000000E+00 -0.00000000000E+00 -0.74505805969E-08  0.93827000000E+00  0.93827000000E+00 0. -1.
     999902    2    1    2    0    0 -0.11782121693E-01  0.11680598829E-01  0.18993087523E-01  0.10187111151E+01  0.10183989120E+01 0.  0.
     999903    2    3    3    0    0 -0.22965774621E-01  0.12317144743E+00  0.35155960153E-01  0.13145888387E+00  0.18624294555E-01 0.  0.
         14    1    1    2    0    0  0.11782121693E-01 -0.11680598829E-01 -0.18993087523E-01  0.25218884873E-01  0.00000000000E+00 0. -1.
     999901    1    3    3    0    0  0.11183652928E-01 -0.11149084861E+00 -0.16162872630E-01  0.88725223126E+00  0.88000000000E+00 0.  1.
        -11    1    4    4    0    0 -0.68772150504E-02  0.14380074585E-01  0.93826429234E-02  0.18503452141E-01  0.51100000000E-03 0.  1.
         11    1    4    4    0    0 -0.16088559570E-01  0.10879137285E+00  0.25773317230E-01  0.11295543173E+00  0.51100000000E-03 0. -1.
</event>
<event>
 8    1  0.1135368E+005  0.1043930E+01  0.7957747E-01            NaN
         13   -1    0    0    0    0  0.00000000000E+00  0.00000000000E+00  0.74505805969E-08  0.10566000000E+00  0.10566000000E+00 0.  1.
     999900   -1    0    0    0    0 -0.00000000000E+00 -0.00000000000E+00 -0.74505805969E-08  0.93827000000E+00  0.93827000000E+00 0.  1.
     999902    2    1    2    0    0  0.15460261930E-01 -0.79932337552E-02  0.17205724480E-01  0.10194565769E+01  0.10191627759E+01 0.  0.
     999903    2    3    3    0    0 -0.66001917365E-01  0.86495413470E-01 -0.62351404404E-01  0.12710377228E+00  0.20735516595E-01 0.  0.
         14    1    1    2    0    0 -0.15460261930E-01  0.79932337552E-02 -0.17205724480E-01  0.24473423130E-01  0.00000000000E+00 0.  1.
     999901    1    3    3    0    0  0.81462179296E-01 -0.94488647226E-01  0.79557128884E-01  0.89235280459E+00  0.88000000000E+00 0. -1.
        -11    1    4    4    0    0 -0.36323749275E-01  0.31146480031E-01 -0.29674345979E-01  0.56305824832E-01  0.51100000000E-03 0. -1.
         11    1    4    4    0    0 -0.29678168090E-01  0.55348933439E-01 -0.32677058425E-01  0.70797947445E-01  0.51100000000E-03 0.  1.
</event>
<event>
 8    1  0.1135368E+005  0.1043930E+01  0.7957747E-01            NaN
         13   -1    0    0    0    0  0.00000000000E+00  0.00000000000E+00  0.74505805969E-08  0.10566000000E+00  0.10566000000E+00 0. -1.
     999900   -1    0    0    0    0 -0.00000000000E+00 -0.00000000000E+00 -0.74505805969E-08  0.93827000000E+00  0.93827000000E+00 0.  1.
     999902    2    1    2    0    0  0.12640612690E-01  0.49391917433E-02 -0.15781577888E-01  0.10231156082E+01  0.10229038610E+01 0.  0.
     999903    2    3    3    0    0 -0.96668479477E-01  0.69764139533E-01 -0.56464271224E-01  0.13305615346E+00  0.17432611943E-01 0.  0.
         14    1    1    2    0    0 -0.12640612690E-01 -0.49391917433E-02  0.15781577888E-01  0.20814391773E-01  0.00000000000E+00 0. -1.
     999901    1    3    3    0    0  0.10930909217E+00 -0.64824947789E-01  0.40682693335E-01  0.89005945477E+00  0.88000000000E+00 0. -1.
        -11    1    4    4    0    0 -0.50875575448E-01  0.47100573843E-01 -0.34425844091E-01  0.77409224876E-01  0.51100000000E-03 0.  1.
         11    1    4    4    0    0 -0.45792904028E-01  0.22663565690E-01 -0.22038427132E-01  0.55646928582E-01  0.51100000000E-03 0. -1.
</event>
<event>
 8    1  0.1135368E+005  0.1043930E+01  0.7957747E-01            NaN
         13   -1    0    0    0    0  0.00000000000E+00  0.00000000000E+00  0.74505805969E-08  0.10566000000E+00  0.10566000000E+00 0. -1.
     999900   -1    0    0    0    0 -0.00000000000E+00 -0.00000000000E+00 -0.74505805969E-08  0.93827000000E+00  0.93827000000E+00 0. -1.
     999902    2    1    2    0    0 -0.88915004368E-02 -0.16387163835E-01 -0.14487345084E-01  0.10203189626E+01  0.10200457364E+01 0.  0.
     999903    2    3    3    0    0 -0.25384667534E-01 -0.11962729697E-01 -0.12842008780E+00  0.13280993729E+00  0.18954478252E-01 0.  0.
         14    1    1    2    0    0  0.88915004368E-02  0.16387163835E-01  0.14487345084E-01  0.23611037380E-01  0.00000000000E+00 0. -1.
     999901    1    3    3    0    0  0.16493167098E-01 -0.44244341383E-02  0.11393274271E+00  0.88750902533E+00  0.88000000000E+00 0.  1.
        -11    1    4    4    0    0 -0.26059904133E-01 -0.13037759645E-01 -0.95185493379E-01  0.99547180024E-01  0.51100000000E-03 0.  1.
         11    1    4    4    0    0  0.67523659833E-03  0.10750299482E-02 -0.33234594419E-01  0.33262757267E-01  0.51100000000E-03 0. -1.
</event>
<event>
 8    1  0.1135368E+005  0.1043930E+01  0.7957747E-01            NaN
         13   -1    0    0    0    0  0.00000000000E+00  0.00000000000E+00  0.74505805969E-08  0.10566000000E+00  0.10566000000E+00 0.  1.
     999900   -1    0    0    0    0 -0.00000000000E+00 -0.00000000000E+00 -0.74505805969E-08  0.93827000000E+00  0.93827000000E+00 0.  1.
     999902    2    1    2    0    0 -0.67190789105E-02 -0.24989211801E-01 -0.68210239624E-03  0.10180442512E+01  0.10177151003E+01 0.  0.
     999903    2    3    3    0    0 -0.78632747597E-01 -0.51496538882E-01  0.88029409404E-01  0.13026953514E+00  0.19646179106E-01 0.  0.
         14    1    1    2    0    0  0.67190789105E-02  0.24989211801E-01  0.68210239624E-03  0.25885748812E-01  0.00000000000E+00 0.  1.
     999901    1    3    3    0    0  0.71913668686E-01  0.26507327080E-01 -0.88711511800E-01  0.88777471605E+00  0.88000000000E+00 0.  1.
        -11    1    4    4    0    0 -0.30554312489E-01 -0.29972893736E-01  0.46393227726E-01  0.63123157957E-01  0.51100000000E-03 0.  1.
         11    1    4    4    0    0 -0.48078435108E-01 -0.21523645146E-01  0.41636181678E-01  0.67146377181E-01  0.51100000000E-03 0. -1.
</event>
<event>
 8    1  0.1135368E+005  0.1043930E+01  0.7957747E-01            NaN
         13   -1    0    0    0    0  0.00000000000E+00  0.00000000000E+00  0.74505805969E-08  0.10566000000E+00  0.10566000000E+00 0.  1.
     999900   -1    0    0    0    0 -0.00000000000E+00 -0.00000000000E+00 -0.74505805969E-08  0.93827000000E+00  0.93827000000E+00 0.  1.
     999902    2    1    2    0    0 -0.10987489836E-01  0.13621961132E-01  0.11761136365E-01  0.10228442919E+01  0.10226269302E+01 0.  0.
     999903    2    3    3    0    0  0.12165225527E+00  0.27115621983E-01  0.39038580582E-01  0.13238405143E+00  0.21610139570E-01 0.  0.
         14    1    1    2    0    0  0.10987489836E-01 -0.13621961132E-01 -0.11761136365E-01  0.21085708112E-01  0.00000000000E+00 0. -1.
     999901    1    3    3    0    0 -0.13263974511E+00 -0.13493660851E-01 -0.27277444217E-01  0.89046024045E+00  0.88000000000E+00 0. -1.
        -11    1    4    4    0    0  0.15706723823E-02 -0.19429837074E-02 -0.62356455440E-03  0.26252906836E-02  0.51100000000E-03 0.  1.
         11    1    4    4    0    0  0.12008158289E+00  0.29058605690E-01  0.39662145137E-01  0.12975876075E+00  0.51100000000E-03 0. -1.
</event>
<event>
 8    1  0.1135368E+005  0.1043930E+01  0.7957747E-01            NaN
         13   -1    0    0    0    0  0.00000000000E+00  0.00000000000E+00  0.74505805969E-08  0.10566000000E+00  0.10566000000E+00 0. -1.
     999900   -1    0    0    0    0 -0.00000000000E+00 -0.00000000000E+00 -0.74505805969E-08  0.93827000000E+00  0.93827000000E+00 0.  1.
     999902    2    1    2    0    0  0.16287294608E-01 -0.16465158373E-01  0.46372119247E-02  0.10203104924E+01  0.10200370678E+01 0.  0.
     999903    2    3    3    0    0  0.38170207750E-01 -0.99800691820E-01 -0.75671730215E-01  0.13246298339E+00  0.20077060742E-01 0.  0.
         14    1    1    2    0    0 -0.16287294608E-01  0.16465158373E-01 -0.46372119247E-02  0.23619507623E-01  0.00000000000E+00 0.  1.
     999901    1    3    3    0    0 -0.21882913141E-01  0.83335533447E-01  0.80308942140E-01  0.88784750898E+00  0.88000000000E+00 0. -1.
        -11    1    4    4    0    0  0.82567227021E-03 -0.25449233237E-01 -0.16076098792E-01  0.30117225643E-01  0.51100000000E-03 0. -1.
         11    1    4    4    0    0  0.37344535480E-01 -0.74351458583E-01 -0.59595631423E-01  0.10234575775E+00  0.51100000000E-03 0.  1.
</event>
<event>
 8    1  0.1135368E+005  0.1043930E+01  0.7957747E-01            NaN
         13   -1    0    0    0    0  0.00000000000E+00  0.00000000000E+00  0.74505805969E-08  0.10566000000E+00  0.10566000000E+00 0. -1.
     999900   -1    0    0    0    0 -0.00000000000E+00 -0.00000000000E+00 -0.74505805969E-08  0.93827000000E+00  0.93827000000E+00 0.  1.
     999902    2    1    2    0    0  0.83083757497E-03  0.23645580245E-01 -0.33400178243E-03  0.10202674703E+01  0.10199930370E+01 0.  0.
     999903    2    3    3    0    0  0.82994550413E-01  0.79757323884E-01 -0.62679812804E-01  0.13246884240E+00  0.19233022732E-01 0.  0.
         14    1    1    2    0    0 -0.83083757497E-03 -0.23645580245E-01  0.33400178243E-03  0.23662529734E-01  0.00000000000E+00 0.  1.
     999901    1    3    3    0    0 -0.82163712838E-01 -0.56111743639E-01  0.62345811022E-01  0.88779862786E+00  0.88000000000E+00 0. -1.
        -11    1    4    4    0    0  0.51187825512E-01  0.53574450089E-01 -0.30247891667E-01  0.80035062656E-01  0.51100000000E-03 0.  1.
         11    1    4    4    0    0  0.31806724900E-01  0.26182873796E-01 -0.32431921138E-01  0.52433779749E-01  0.51100000000E-03 0. -1.
</event>
<event>
 8    1  0.1135368E+005  0.1043930E+01  0.7957747E-01            NaN
         13   -1    0    0    0    0  0.00000000000E+00  0.00000000000E+00  0.74505805969E-08  0.10566000000E+00  0.10566000000E+00 0.  1.
     999900   -1    0    0    0    0 -0.00000000000E+00 -0.00000000000E+00 -0.74505805969E-08  0.93827000000E+00  0.93827000000E+00 0.  1.
     999902    2    1    2    0    0  0.14220469191E-01  0.15420431351E-01 -0.99606320329E-02  0.10207087675E+01  0.10204445906E+01 0.  0.
     999903    2    3    3    0    0 -0.33526984646E-01  0.12480126807E+00 -0.22122735940E-01  0.13256919316E+00  0.19640782013E-01 0.  0.
         14    1    1    2    0    0 -0.14220469191E-01 -0.15420431351E-01  0.99606320329E-02  0.23221232473E-01  0.00000000000E+00 0.  1.
     999901    1    3    3    0    0  0.47747453837E-01 -0.10938083672E+00  0.12162103907E-01  0.88813957437E+00  0.88000000000E+00 0.  1.
        -11    1    4    4    0    0 -0.12986313795E-01  0.56086073295E-01 -0.19552521382E-01  0.60801761298E-01  0.51100000000E-03 0.  1.
         11    1    4    4    0    0 -0.20540670852E-01  0.68715194774E-01 -0.25702145577E-02  0.71767431860E-01  0.51100000000E-03 0. -1.
</event>
<event>
 8    1  0.1135368E+005  0.1043930E+01  0.7957747E-01            NaN
         13   -1    0    0    0    0  0.00000000000E+00  0.00000000000E+00  0.74505805969E-08  0.10566000000E+00  0.10566000000E+00 0. -1.
     999900   -1    0    0    0    0 -0.00000000000E+00 -0.00000000000E+00 -0.74505805969E-08  0.93827000000E+00  0.93827000000E+00 0. -1.
     999902    2    1    2    0    0 -0.15448836844E-01 -0.99066417642E-02  0.13428882144E-01  0.10211892219E+01  0.10209359843E+01 0.  0.
     999903    2    3    3    0    0  0.33264093880E-01  0.11194837406E+00 -0.51078846939E-01  0.12912260918E+00  0.20607309409E-01 0.  0.
         14    1    1    2    0    0  0.15448836844E-01  0.99066417642E-02 -0.13428882144E-01  0.22740778054E-01  0.00000000000E+00 0. -1.
     999901    1    3    3    0    0 -0.48712930724E-01 -0.12185501582E+00  0.64507729084E-01  0.89206661277E+00  0.88000000000E+00 0.  1.
        -11    1    4    4    0    0  0.28846584013E-01  0.69158872202E-01 -0.25952252591E-01  0.79302304816E-01  0.51100000000E-03 0.  1.
         11    1    4    4    0    0  0.44175098671E-02  0.42789501855E-01 -0.25126594348E-01  0.49820304364E-01  0.51100000000E-03 0. -1.
</event>
<event>
 8    1  0.1135368E+005  0.1043930E+01  0.7957747E-01            NaN
         13   -1    0    0    0    0  0.00000000000E+00  0.00000000000E+00  0.74505805969E-08  0.10566000000E+00  0.10566000000E+00 0. -1.
     999900   -1    0    0    0    0 -0.00000000000E+00 -0.00000000000E+00 -0.74505805969E-08  0.93827000000E+00  0.93827000000E+00 0. -1.
     999902    2    1    2    0    0  0.17544986057E-01  0.15142035528E-01  0.62824225554E-02  0.10199179903E+01  0.10196352928E+01 0.  0.
     999903    2    3    3    0    0  0.92254456887E-01 -0.72443669085E-01  0.55667477437E-01  0.13104699612E+00  0.17761676218E-01 0.  0.
         14    1    1    2    0    0 -0.17544986057E-01 -0.15142035528E-01 -0.62824225554E-02  0.24012009679E-01  0.00000000000E+00 0.  1.
     999901    1    3    3    0    0 -0.74709470830E-01  0.87585704613E-01 -0.49385054882E-01  0.88887099420E+00  0.88000000000E+00 0.  1.
        -11    1    4    4    0    0  0.54269186333E-01 -0.50227860631E-01  0.28036963781E-01  0.79084227428E-01  0.51100000000E-03 0. -1.
         11    1    4    4    0    0  0.37985270554E-01 -0.22215808454E-01  0.27630513657E-01  0.51962768693E-01  0.51100000000E-03 0.  1.
</event>
<event>
 8    1  0.1135368E+005  0.1043930E+01  0.7957747E-01            NaN
         13   -1    0    0    0    0  0.00000000000E+00  0.00000000000E+00  0.74505805969E-08  0.10566000000E+00  0.10566000000E+00 0. -1.
     999900   -1    0    0    0    0 -0.00000000000E+00 -0.00000000000E+00 -0.74505805969E-08  0.93827000000E+00  0.93827000000E+00 0.  1.
     999902    2    1    2    0    0  0.17475510112E-01 -0.43955055252E-03 -0.15607355673E-01  0.10204954911E+01  0.10202263823E+01 0.  0.
     999903    2    3    3    0    0  0.14364200884E-01  0.35010602807E-01  0.12185228566E+00  0.12911367241E+00  0.19755715777E-01 0.  0.
         14    1    1    2    0    0 -0.17475510112E-01  0.43955055252E-03  0.15607355673E-01  0.23434508944E-01  0.00000000000E+00 0. -1.
     999901    1    3    3    0    0  0.31113092276E-02 -0.35450153360E-01 -0.13745964133E+00  0.89138181865E+00  0.88000000000E+00 0.  1.
        -11    1    4    4    0    0  0.14313485489E-01  0.12914282132E-01  0.41242031971E-01  0.45528242575E-01  0.51100000000E-03 0. -1.
         11    1    4    4    0    0  0.50715394701E-04  0.22096320675E-01  0.80610253691E-01  0.83585429834E-01  0.51100000000E-03 0.  1.
</event>
<event>
 8    1  0.1135368E+005  0.1043930E+01  0.7957747E-01            NaN
         13   -1    0    0    0    0  0.00000000000E+00  0.00000000000E+00  0.74505805969E-08  0.10566000000E+00  0.10566000000E+00 0. -1.
     999900   -1    0    0    0    0 -0.00000000000E+00 -0.00000000000E+00 -0.74505805969E-08  0.93827000000E+00  0.93827000000E+00 0.  1.
     999902    2    1    2    0    0 -0.18787478037E-02  0.23726561109E-01  0.36345356499E-02  0.10198532634E+01  0.10195690215E+01 0.  0.
     999903    2    3    3    0    0  0.39141947474E-01 -0.11406555432E+00  0.36495112608E-01  0.12758134183E+00  0.20051503807E-01 0.  0.
         14    1    1    2    0    0  0.18787478037E-02 -0.23726561109E-01 -0.36345356499E-02  0.24076736589E-01  0.00000000000E+00 0. -1.
     999901    1    3    3    0    0 -0.41020695277E-01  0.13779211543E+00 -0.32860576958E-01  0.89227192158E+00  0.88000000000E+00 0.  1.
        -11    1    4    4    0    0  0.36767952912E-01 -0.89494645849E-01  0.34837156294E-01  0.10283512326E+00  0.51100000000E-03 0.  1.
         11    1    4    4    0    0  0.23739945618E-02 -0.24570908474E-01  0.16579563141E-02  0.24746218570E-01  0.51100000000E-03 0. -1.
</event>
<event>
 8    1  0.1135368E+005  0.1043930E+01  0.7957747E-01            NaN
         13   -1    0    0    0    0  0.00000000000E+00  0.00000000000E+00  0.74505805969E-08  0.10566000000E+00  0.10566000000E+00 0.  1.
     999900   -1    0    0    0    0 -0.00000000000E+00 -0.00000000000E+00 -0.74505805969E-08  0.93827000000E+00  0.93827000000E+00 0.  1.
     999902    2    1    2    0    0 -0.35504397515E-02 -0.27407973733E-02  0.24140540527E-01  0.10193763182E+01  0.10190805635E+01 0.  0.
     999903    2    3    3    0    0  0.14532300889E-01 -0.10807403610E+00 -0.65061388485E-01  0.12843352497E+00  0.19261386640E-01 0.  0.
         14    1    1    2    0    0  0.35504397515E-02  0.27407973733E-02 -0.24140540527E-01  0.24553681793E-01  0.00000000000E+00 0. -1.
     999901    1    3    3    0    0 -0.18082740640E-01  0.10533323873E+00  0.89201929012E-01  0.89094279324E+00  0.88000000000E+00 0. -1.
        -11    1    4    4    0    0  0.18221261075E-01 -0.84199814075E-01 -0.55309678646E-01  0.10237697358E+00  0.51100000000E-03 0. -1.
         11    1    4    4    0    0 -0.36889601869E-02 -0.23874222025E-01 -0.97517098389E-02  0.26056551390E-01  0.51100000000E-03 0.  1.
</event>
<event>
 8    1  0.1135368E+005  0.1043930E+01  0.7957747E-01            NaN
         13   -1    0    0    0    0  0.00000000000E+00  0.00000000000E+00  0.74505805969E-08  0.10566000000E+00  0.10566000000E+00 0. -1.
     999900   -1    0    0    0    0 -0.00000000000E+00 -0.00000000000E+00 -0.74505805969E-08  0.93827000000E+00  0.93827000000E+00 0.  1.
     999902    2    1    2    0    0  0.12460814078E-02 -0.39309859308E-03  0.23581338341E-01  0.10203124903E+01  0.10200391126E+01 0.  0.
     999903    2    3    3    0    0 -0.11812247530E+00  0.49214303848E-01 -0.12701150344E-01  0.13012927003E+00  0.19933409766E-01 0.  0.
         14    1    1    2    0    0 -0.12460814078E-02  0.39309859308E-03 -0.23581338341E-01  0.23617509677E-01  0.00000000000E+00 0.  1.
     999901    1    3    3    0    0  0.11936855670E+00 -0.49607402441E-01  0.36282488685E-01  0.89018322029E+00  0.88000000000E+00 0. -1.
        -11    1    4    4    0    0 -0.99134564101E-01  0.39449062734E-01 -0.17800011691E-01  0.10817112317E+00  0.51100000000E-03 0. -1.
         11    1    4    4    0    0 -0.18987911195E-01  0.97652411142E-02  0.50988613464E-02  0.21958146862E-01  0.51100000000E-03 0.  1.
</event>
<event>
 8    1  0.1135368E+005  0.1043930E+01  0.7957747E-01            NaN
         13   -1    0    0    0    0  0.00000000000E+00  0.00000000000E+00  0.74505805969E-08  0.10566000000E+00  0.10566000000E+00 0. -1.
     999900   -1    0    0    0    0 -0.00000000000E+00 -0.00000000000E+00 -0.74505805969E-08  0.93827000000E+00  0.93827000000E+00 0. -1.
     999902    2    1    2    0    0  0.10593304200E-01 -0.16411158812E-01  0.10512501930E-01  0.10217476439E+01  0.10215068237E+01 0.  0.
     999903    2    3    3    0    0 -0.87253953191E-01 -0.60976094941E-01  0.76816645903E-01  0.13272775722E+00  0.19609282201E-01 0.  0.
         14    1    1    2    0    0 -0.10593304200E-01  0.16411158812E-01 -0.10512501930E-01  0.22182356147E-01  0.00000000000E+00 0. -1.
     999901    1    3    3    0    0  0.97847257391E-01  0.44564936129E-01 -0.66304143973E-01  0.88901988663E+00  0.88000000000E+00 0. -1.
        -11    1    4    4    0    0 -0.76731908586E-01 -0.51135217868E-01  0.73538346769E-01  0.11794382505E+00  0.51100000000E-03 0. -1.
         11    1    4    4    0    0 -0.10522044605E-01 -0.98408770735E-02  0.32782991335E-02  0.14783932171E-01  0.51100000000E-03 0.  1.
</event>
<event>
 8    1  0.1135368E+005  0.1043930E+01  0.7957747E-01            NaN
         13   -1    0    0    0    0  0.00000000000E+00  0.00000000000E+00  0.74505805969E-08  0.10566000000E+00  0.10566000000E+00 0. -1.
     999900   -1    0    0    0    0 -0.00000000000E+00 -0.00000000000E+00 -0.74505805969E-08  0.93827000000E+00  0.93827000000E+00 0.  1.
     999902    2    1    2    0    0  0.16982263880E-01 -0.62218423399E-02  0.15419953575E-01  0.10201627205E+01  0.10198858233E+01 0.  0.
     999903    2    3    3    0    0 -0.10348262883E+00 -0.71077735073E-01  0.27522526414E-01  0.12950871947E+00  0.15947415663E-01 0.  0.
         14    1    1    2    0    0 -0.16982263880E-01  0.62218423399E-02 -0.15419953575E-01  0.23767279543E-01  0.00000000000E+00 0.  1.
     999901    1    3    3    0    0  0.12046489271E+00  0.64855892733E-01 -0.12102572839E-01  0.89065400098E+00  0.88000000000E+00 0.  1.
        -11    1    4    4    0    0 -0.32458577153E-01 -0.31276776937E-01  0.11635177136E-01  0.46555713659E-01  0.51100000000E-03 0.  1.
         11    1    4    4    0    0 -0.71024051680E-01 -0.39800958136E-01  0.15887349279E-01  0.82953005814E-01  0.51100000000E-03 0. -1.
</event>
<event>
 8    1  0.1135368E+005  0.1043930E+01  0.7957747E-01            NaN
         13   -1    0    0    0    0  0.00000000000E+00  0.00000000000E+00  0.74505805969E-08  0.10566000000E+00  0.10566000000E+00 0.  1.
     999900   -1    0    0    0    0 -0.00000000000E+00 -0.00000000000E+00 -0.74505805969E-08  0.93827000000E+00  0.93827000000E+00 0. -1.
     999902    2    1    2    0    0  0.18491613041E-01  0.57646679537E-02  0.44750061129E-02  0.10240504419E+01  0.10238574660E+01 0.  0.
     999903    2    3    3    0    0  0.12183800322E+00  0.20821766400E-01 -0.53208088991E-01  0.13599946814E+00  0.19664933663E-01 0.  0.
         14    1    1    2    0    0 -0.18491613041E-01 -0.57646679537E-02 -0.44750061129E-02  0.19879558073E-01  0.00000000000E+00 0. -1.
     999901    1    3    3    0    0 -0.10334639018E+00 -0.15057098447E-01  0.57683095104E-01  0.88805097378E+00  0.88000000000E+00 0.  1.
        -11    1    4    4    0    0  0.47262757971E-01  0.17369195722E-01 -0.18222155727E-01  0.53551520346E-01  0.51100000000E-03 0. -1.
         11    1    4    4    0    0  0.74575245251E-01  0.34525706781E-02 -0.34985933264E-01  0.82447947797E-01  0.51100000000E-03 0.  1.
</event>
<event>
 8    1  0.1135368E+005  0.1043930E+01  0.7957747E-01            NaN
         13   -1    0    0    0    0  0.00000000000E+00  0.00000000000E+00  0.74505805969E-08  0.10566000000E+00  0.10566000000E+00 0. -1.
     999900   -1    0    0    0    0 -0.00000000000E+00 -0.00000000000E+00 -0.74505805969E-08  0.93827000000E+00  0.93827000000E+00 0. -1.
     999902    2    1    2    0    0 -0.16092050622E-01 -0.16638118757E-01 -0.67379595640E-02  0.10198223002E+01  0.10195373180E+01 0.  0.
     999903    2    3    3    0    0 -0.70454858125E-02  0.27256174117E-01  0.12426987473E+00  0.12899594121E+00  0.20110026970E-01 0.  0.
         14    1    1    2    0    0  0.16092050622E-01  0.16638118757E-01  0.67379595640E-02  0.24107699767E-01  0.00000000000E+00 0.  1.
     999901    1    3    3    0    0 -0.90465648097E-02 -0.43894292874E-01 -0.13100783430E+00  0.89082635902E+00  0.88000000000E+00 0. -1.
        -11    1    4    4    0    0  0.62696637252E-02  0.42594555034E-02  0.20065702798E-01  0.21455656462E-01  0.51100000000E-03 0.  1.
         11    1    4    4    0    0 -0.13315149538E-01  0.22996718614E-01  0.10420417193E+00  0.10754028475E+00  0.51100000000E-03 0. -1.
</event>
<event>
 8    1  0.1135368E+005  0.1043930E+01  0.7957747E-01            NaN
         13   -1    0    0    0    0  0.00000000000E+00  0.00000000000E+00  0.74505805969E-08  0.10566000000E+00  0.10566000000E+00 0. -1.
     999900   -1    0    0    0    0 -0.00000000000E+00 -0.00000000000E+00 -0.74505805969E-08  0.93827000000E+00  0.93827000000E+00 0. -1.
     999902    2    1    2    0    0  0.97405816056E-03  0.16813001987E-03 -0.22740910026E-01  0.10211676177E+01  0.10209138933E+01 0.  0.
     999903    2    3    3    0    0 -0.29653417014E-01 -0.12508805501E+00 -0.20871271376E-01  0.13176857925E+00  0.20025030889E-01 0.  0.
         14    1    1    2    0    0 -0.97405816056E-03 -0.16813001987E-03  0.22740910026E-01  0.22762382252E-01  0.00000000000E+00 0. -1.
     999901    1    3    3    0    0  0.30627475175E-01  0.12525618503E+00 -0.18696386500E-02  0.88939903849E+00  0.88000000000E+00 0.  1.
        -11    1    4    4    0    0 -0.23169996640E-01 -0.11181041535E+00 -0.12740790130E-01  0.11489563342E+00  0.51100000000E-03 0. -1.
         11    1    4    4    0    0 -0.64834203746E-02 -0.13277639661E-01 -0.81304812459E-02  0.16872945831E-01  0.51100000000E-03 0.  1.
</event>
<event>
 8    1  0.1135368E+005  0.1043930E+01  0.7957747E-01            NaN
         13   -1    0    0    0    0  0.00000000000E+00  0.00000000000E+00  0.74505805969E-08  0.10566000000E+00  0.10566000000E+00 0.  1.
     999900   -1    0    0    0    0 -0.00000000000E+00 -0.00000000000E+00 -0.74505805969E-08  0.93827000000E+00  0.93827000000E+00 0.  1.
     999902    2    1    2    0    0  0.91949250245E-02 -0.20279097079E-01  0.32685685501E-02  0.10214250680E+01  0.10211771137E+01 0.  0.
     999903    2    3    3    0    0 -0.21990568418E-01  0.87407950043E-01  0.91762535900E-01  0.12990938255E+00  0.18230464894E-01 0.  0.
         14    1    1    2    0    0 -0.91949250245E-02  0.20279097079E-01 -0.32685685501E-02  0.22504932013E-01  0.00000000000E+00 0. -1.
     999901    1    3    3    0    0  0.31185493442E-01 -0.10768704712E+00 -0.88493967350E-01  0.89151568543E+00  0.88000000000E+00 0.  1.
        -11    1    4    4    0    0 -0.18554175893E-01  0.86288042278E-01  0.88872295257E-01  0.12525346170E+00  0.51100000000E-03 0. -1.
         11    1    4    4    0    0 -0.34363925242E-02  0.11199077649E-02  0.28902406427E-02  0.46559208493E-02  0.51100000000E-03 0.  1.
</event>
<event>
 8    1  0.1135368E+005  0.1043930E+01  0.7957747E-01            NaN
         13   -1    0    0    0    0  0.00000000000E+00  0.00000000000E+00  0.74505805969E-08  0.10566000000E+00  0.10566000000E+00 0.  1.
     999900   -1    0    0    0    0 -0.00000000000E+00 -0.00000000000E+00 -0.74505805969E-08  0.93827000000E+00  0.93827000000E+00 0. -1.
     999902    2    1    2    0    0 -0.10573584636E-01 -0.18152630155E-01  0.37766518076E-02  0.10225856384E+01  0.10223628544E+01 0.  0.
     999903    2    3    3    0    0  0.91810016881E-01  0.83316926101E-01 -0.34319754061E-01  0.13004442991E+00  0.19050429285E-01 0.  0.
         14    1    1    2    0    0  0.10573584636E-01  0.18152630155E-01 -0.37766518076E-02  0.21344361608E-01  0.00000000000E+00 0. -1.
     999901    1    3    3    0    0 -0.10238360152E+00 -0.10146955626E+00  0.38096405868E-01  0.89254120849E+00  0.88000000000E+00 0. -1.
        -11    1    4    4    0    0  0.26162360013E-01  0.34852497508E-01 -0.80516292722E-02  0.44319922371E-01  0.51100000000E-03 0.  1.
         11    1    4    4    0    0  0.65647656869E-01  0.48464428593E-01 -0.26268124788E-01  0.85724507535E-01  0.51100000000E-03 0. -1.
</event>
<event>
 8    1  0.1135368E+005  0.1043930E+01  0.7957747E-01            NaN
         13   -1    0    0    0    0  0.00000000000E+00  0.00000000000E+00  0.74505805969E-08  0.10566000000E+00  0.10566000000E+00 0.  1.
     999900   -1    0    0    0    0 -0.00000000000E+00 -0.00000000000E+00 -0.74505805969E-08  0.93827000000E+00  0.93827000000E+00 0.  1.
     999902    2    1    2    0    0  0.59534405256E-03 -0.23365128963E-01 -0.50725164767E-02  0.10200131835E+01  0.10197327495E+01 0.  0.
     999903    2    3    3    0    0  0.14013960617E-01 -0.76967409966E-01  0.10400192739E+00  0.13155919030E+00  0.19262563791E-01 0.  0.
         14    1    1    2    0    0 -0.59534405256E-03  0.23365128963E-01  0.50725164767E-02  0.23916816456E-01  0.00000000000E+00 0.  1.
     999901    1    3    3    0    0 -0.13418616565E-01  0.53602281004E-01 -0.10907444387E+00  0.88845399324E+00  0.88000000000E+00 0.  1.
        -11    1    4    4    0    0  0.78302678658E-02 -0.12827990827E-01  0.29078607693E-01  0.32736783439E-01  0.51100000000E-03 0.  1.
         11    1    4    4    0    0  0.61836927513E-02 -0.64139419139E-01  0.74923319695E-01  0.98822406865E-01  0.51100000000E-03 0. -1.
</event>
<event>
 8    1  0.1135368E+005  0.1043930E+01  0.7957747E-01            NaN
         13   -1    0    0    0    0  0.00000000000E+00  0.00000000000E+00  0.74505805969E-08  0.10566000000E+00  0.10566000000E+00 0. -1.
     999900   -1    0    0    0    0 -0.00000000000E+00 -0.00000000000E+00 -0.74505805969E-08  0.93827000000E+00  0.93827000000E+00 0. -1.
     999902    2    1    2    0    0 -0.17872744535E-01  0.14040006065E-01 -0.56784378394E-02  0.10205034889E+01  0.10202345659E+01 0.  0.
     999903    2    3    3    0    0 -0.54893834548E-02 -0.17583114946E-01 -0.12846512903E+00  0.13132974828E+00  0.20122478615E-01 0.  0.
         14    1    1    2    0    0  0.17872744535E-01 -0.14040006065E-01  0.56784378394E-02  0.23426511132E-01  0.00000000000E+00 0. -1.
     999901    1    3    3    0    0 -0.12383361080E-01  0.31623121011E-01  0.12278669119E+00  0.88917374059E+00  0.88000000000E+00 0.  1.
        -11    1    4    4    0    0 -0.11083135234E-01 -0.18163101093E-01 -0.10916570185E+00  0.11122115675E+00  0.51100000000E-03 0. -1.
         11    1    4    4    0    0  0.55937517789E-02  0.57998614675E-03 -0.19299427177E-01  0.20108591528E-01  0.51100000000E-03 0.  1.
</event>
<event>
 8    1  0.1135368E+005  0.1043930E+01  0.7957747E-01            NaN
         13   -1    0    0    0    0  0.00000000000E+00  0.00000000000E+00  0.74505805969E-08  0.10566000000E+00  0.10566000000E+00 0. -1.
     999900   -1    0    0    0    0 -0.00000000000E+00 -0.00000000000E+00 -0.74505805969E-08  0.93827000000E+00  0.93827000000E+00 0.  1.
     999902    2    1    2    0    0 -0.22817985354E-01  0.80388709269E-02  0.19070881825E-02  0.10196623078E+01  0.10193734845E+01 0.  0.
     999903    2    3    3    0    0 -0.11131353728E+00 -0.28096184101E-01  0.62903273093E-01  0.13238684913E+00  0.19732128966E-01 0.  0.
         14    1    1    2    0    0  0.22817985354E-01 -0.80388709269E-02 -0.19070881825E-02  0.24267692242E-01  0.00000000000E+00 0.  1.
     999901    1    3    3    0    0  0.88495551926E-01  0.36135055028E-01 -0.60996184911E-01  0.88727545863E+00  0.88000000000E+00 0.  1.
        -11    1    4    4    0    0 -0.41692894429E-01 -0.17777659580E-01  0.32187153673E-01  0.55593314423E-01  0.51100000000E-03 0. -1.
         11    1    4    4    0    0 -0.69620642851E-01 -0.10318524521E-01  0.30716119420E-01  0.76793534706E-01  0.51100000000E-03 0.  1.
</event>
<event>
 8    1  0.1135368E+005  0.1043930E+01  0.7957747E-01            NaN
         13   -1    0    0    0    0  0.00000000000E+00  0.00000000000E+00  0.74505805969E-08  0.10566000000E+00  0.10566000000E+00 0.  1.
     999900   -1    0    0    0    0 -0.00000000000E+00 -0.00000000000E+00 -0.74505805969E-08  0.93827000000E+00  0.93827000000E+00 0.  1.
     999902    2    1    2    0    0  0.22776653944E-01 -0.17492044835E-02  0.78990004905E-02  0.10197591521E+01  0.10194726570E+01 0.  0.
     999903    2    3    3    0    0  0.83590851280E-02  0.12323884918E+00  0.36650426851E-01  0.13034556752E+00  0.19723715009E-01 0.  0.
         14    1    1    2    0    0 -0.22776653944E-01  0.17492044835E-02 -0.78990004905E-02  0.24170847936E-01  0.00000000000E+00 0. -1.
     999901    1    3    3    0    0  0.14417568816E-01 -0.12498805366E+00 -0.28751426360E-01  0.88941358454E+00  0.88000000000E+00 0.  1.
        -11    1    4    4    0    0  0.11207063725E-01  0.10949308513E+00  0.27081520436E-01  0.11334903545E+00  0.51100000000E-03 0.  1.
         11    1    4    4    0    0 -0.28479785969E-02  0.13745764049E-01  0.95689064153E-02  0.16996532069E-01  0.51100000000E-03 0. -1.
</event>
<event>
 7    1  0.1135368E+005  0.1043930E+01  0.7957747E-01            NaN
         13   -1    0    0    0    0  0.00000000000E+00  0.00000000000E+00  0.74505805969E-08  0.10566000000E+00  0.10566000000E+00 0.  1.
     999900   -1    0    0    0    0 -0.00000000000E+00 -0.00000000000E+00 -0.74505805969E-08  0.93827000000E+00  0.93827000000E+00 0.  1.
     999902    2    1    2    0    0  0.12198631519E-01  0.36608493177E-02  0.20782224779E-01  0.10195556427E+01  0.10192642440E+01 0.  0.
         14    1    1    2    0    0 -0.12198631519E-01 -0.36608493177E-02 -0.20782224779E-01  0.24374357334E-01  0.00000000000E+00 0. -1.
     999901    1    3    3    0    0 -0.10929231144E+00 -0.46000440636E-01  0.14607605284E-01  0.88807332581E+00  0.88000000000E+00 0. -1.
        -11    1    3    3    0    0  0.94336969288E-01  0.37723616462E-01  0.29884071179E-02  0.10164510176E+00  0.51100000000E-03 0. -1.
         11    1    3    3    0    0  0.27153973673E-01  0.11937673491E-01  0.31862123770E-02  0.29837215100E-01  0.51100000000E-03 0.  1.
</event>
<event>
 8    1  0.1135368E+005  0.1043930E+01  0.7957747E-01            NaN
         13   -1    0    0    0    0  0.00000000000E+00  0.00000000000E+00  0.74505805969E-08  0.10566000000E+00  0.10566000000E+00 0.  1.
     999900   -1    0    0    0    0 -0.00000000000E+00 -0.00000000000E+00 -0.74505805969E-08  0.93827000000E+00  0.93827000000E+00 0. -1.
     999902    2    1    2    0    0 -0.22921551807E-01  0.12662981111E-02  0.64391735175E-02  0.10200875168E+01  0.10198088438E+01 0.  0.
     999903    2    3    3    0    0  0.28030397299E-01 -0.11267727702E+00  0.54207301919E-01  0.12999705316E+00  0.21884476658E-01 0.  0.
         14    1    1    2    0    0  0.22921551807E-01 -0.12662981111E-02 -0.64391735175E-02  0.23842483171E-01  0.00000000000E+00 0. -1.
     999901    1    3    3    0    0 -0.50951949106E-01  0.11394357513E+00 -0.47768128402E-01  0.89009046367E+00  0.88000000000E+00 0.  1.
        -11    1    4    4    0    0  0.20963358637E-01 -0.84734439796E-01  0.50728997000E-01  0.10096078422E+00  0.51100000000E-03 0. -1.
         11    1    4    4    0    0  0.70670386616E-02 -0.27942837224E-01  0.34783049192E-02  0.29036268935E-01  0.51100000000E-03 0.  1.
</event>
<event>
 8    1  0.1135368E+005  0.1043930E+01  0.7957747E-01            NaN
         13   -1    0    0    0    0  0.00000000000E+00  0.00000000000E+00  0.74505805969E-08  0.10566000000E+00  0.10566000000E+00 0. -1.
     999900   -1    0    0    0    0 -0.00000000000E+00 -0.00000000000E+00 -0.74505805969E-08  0.93827000000E+00  0.93827000000E+00 0.  1.
     999902    2    1    2    0    0  0.14134758525E-01 -0.18422204966E-01 -0.22192547448E-02  0.10206041747E+01  0.10203375850E+01 0.  0.
     999903    2    3    3    0    0  0.12752291910E+00 -0.29902110578E-01 -0.15686541622E-01  0.13315275011E+00  0.18092986501E-01 0.  0.
         14    1    1    2    0    0 -0.14134758525E-01  0.18422204966E-01  0.22192547448E-02  0.23325825301E-01  0.00000000000E+00 0. -1.
     999901    1    3    3    0    0 -0.11338816058E+00  0.11479905612E-01  0.13467286878E-01  0.88745142459E+00  0.88000000000E+00 0.  1.
        -11    1    4    4    0    0  0.76132301431E-01 -0.19221942617E-01 -0.55831997121E-03  0.78525048497E-01  0.51100000000E-03 0. -1.
         11    1    4    4    0    0  0.51390617669E-01 -0.10680167961E-01 -0.15128221651E-01  0.54627701612E-01  0.51100000000E-03 0.  1.
</event>
<event>
 8    1  0.1135368E+005  0.1043930E+01  0.7957747E-01            NaN
         13   -1    0    0    0    0  0.00000000000E+00  0.00000000000E+00  0.74505805969E-08  0.10566000000E+00  0.10566000000E+00 0.  1.
     999900   -1    0    0    0    0 -0.00000000000E+00 -0.00000000000E+00 -0.74505805969E-08  0.93827000000E+00  0.93827000000E+00 0. -1.
     999902    2    1    2    0    0  0.11092606222E-01  0.16538738347E-01 -0.13797545032E-01  0.10197029897E+01  0.10194151457E+01 0.  0.
     999903    2    3    3    0    0 -0.25320459223E-02 -0.12336250279E+00 -0.29557406769E-01  0.12840822272E+00  0.19756341150E-01 0.  0.
         14    1    1    2    0    0 -0.11092606222E-01 -0.16538738347E-01  0.13797545032E-01  0.24227010295E-01  0.00000000000E+00 0.  1.
     999901    1    3    3    0    0  0.13624652144E-01  0.13990124114E+00  0.15759861737E-01  0.89129476699E+00  0.88000000000E+00 0.  1.
        -11    1    4    4    0    0 -0.10310770884E-02 -0.93740432743E-01 -0.30913119500E-01  0.98712785034E-01  0.51100000000E-03 0. -1.
         11    1    4    4    0    0 -0.15009688339E-02 -0.29622070046E-01  0.13557127307E-02  0.29695437684E-01  0.51100000000E-03 0.  1.
</event>
<event>
 8    1  0.1135368E+005  0.1043930E+01  0.7957747E-01            NaN
         13   -1    0    0    0    0  0.00000000000E+00  0.00000000000E+00  0.74505805969E-08  0.10566000000E+00  0.10566000000E+00 0.  1.
     999900   -1    0    0    0    0 -0.00000000000E+00 -0.00000000000E+00 -0.74505805969E-08  0.93827000000E+00  0.93827000000E+00 0. -1.
     999902    2    1    2    0    0 -0.13578225996E-01  0.18200905368E-01  0.49013945262E-02  0.10206993124E+01  0.10204349178E+01 0.  0.
     999903    2    3    3    0    0 -0.44820684082E-01  0.10909921335E+00 -0.58459366825E-01  0.13320104218E+00  0.20334404184E-01 0.  0.
         14    1    1    2    0    0  0.13578225996E-01 -0.18200905368E-01 -0.49013945262E-02  0.23230687586E-01  0.00000000000E+00 0. -1.
     999901    1    3    3    0    0  0.31242458086E-01 -0.90898307986E-01  0.63360761351E-01  0.88749827023E+00  0.88000000000E+00 0.  1.
        -11    1    4    4    0    0 -0.20466969454E-01  0.70058574364E-01 -0.28863615919E-01  0.78488662401E-01  0.51100000000E-03 0.  1.
         11    1    4    4    0    0 -0.24353714628E-01  0.39040638989E-01 -0.29595750906E-01  0.54712379784E-01  0.51100000000E-03 0. -1.
</event>
<event>
 8    1  0.1135368E+005  0.1043930E+01  0.7957747E-01            NaN
         13   -1    0    0    0    0  0.00000000000E+00  0.00000000000E+00  0.74505805969E-08  0.10566000000E+00  0.10566000000E+00 0. -1.
     999900   -1    0    0    0    0 -0.00000000000E+00 -0.00000000000E+00 -0.74505805969E-08  0.93827000000E+00  0.93827000000E+00 0.  1.
     999902    2    1    2    0    0  0.84641846789E-03  0.95815807632E-02 -0.23233551007E-01  0.10187840062E+01  0.10184736276E+01 0.  0.
     999903    2    3    3    0    0  0.44070714713E-01  0.94541909270E-01 -0.78238100560E-01  0.13192883327E+00  0.20090200693E-01 0.  0.
         14    1    1    2    0    0 -0.84641846789E-03 -0.95815807632E-02  0.23233551007E-01  0.25145993847E-01  0.00000000000E+00 0. -1.
     999901    1    3    3    0    0 -0.43224296245E-01 -0.84960328507E-01  0.55004549553E-01  0.88685517289E+00  0.88000000000E+00 0. -1.
        -11    1    4    4    0    0 -0.17154811248E-02  0.65744038408E-02 -0.73802968920E-02  0.10044678420E-01  0.51100000000E-03 0.  1.
         11    1    4    4    0    0  0.45786195838E-01  0.87967505430E-01 -0.70857803668E-01  0.12188415485E+00  0.51100000000E-03 0. -1.
</event>
<event>
 8    1  0.1135368E+005  0.1043930E+01  0.7957747E-01            NaN
         13   -1    0    0    0    0  0.00000000000E+00  0.00000000000E+00  0.74505805969E-08  0.10566000000E+00  0.10566000000E+00 0. -1.
     999900   -1    0    0    0    0 -0.00000000000E+00 -0.00000000000E+00 -0.74505805969E-08  0.93827000000E+00  0.93827000000E+00 0. -1.
     999902    2    1    2    0    0 -0.34448866736E-02  0.20741522383E-01 -0.85563147330E-02  0.10212300327E+01  0.10209777133E+01 0.  0.
     999903    2    3    3    0    0  0.88446890655E-02  0.61506954144E-01 -0.11664264026E+00  0.13359524974E+00  0.19515411682E-01 0.  0.
         14    1    1    2    0    0  0.34448866736E-02 -0.20741522383E-01  0.85563147330E-02  0.22699967330E-01  0.00000000000E+00 0. -1.
     999901    1    3    3    0    0 -0.12289575739E-01 -0.40765431761E-01  0.10808632553E+00  0.88763478293E+00  0.88000000000E+00 0.  1.
        -11    1    4    4    0    0 -0.14579453234E-02  0.79092207629E-02 -0.31065036683E-01  0.32093285945E-01  0.51100000000E-03 0.  1.
         11    1    4    4    0    0  0.10302634389E-01  0.53597733381E-01 -0.85577603580E-01  0.10150196380E+00  0.51100000000E-03 0. -1.
</event>
<event>
 8    1  0.1135368E+005  0.1043930E+01  0.7957747E-01            NaN
         13   -1    0    0    0    0  0.00000000000E+00  0.00000000000E+00  0.74505805969E-08  0.10566000000E+00  0.10566000000E+00 0.  1.
     999900   -1    0    0    0    0 -0.00000000000E+00 -0.00000000000E+00 -0.74505805969E-08  0.93827000000E+00  0.93827000000E+00 0. -1.
     999902    2    1    2    0    0 -0.30626950374E-02 -0.20198322223E-01 -0.48858023986E-02  0.10229246819E+01  0.10227089916E+01 0.  0.
     999903    2    3    3    0    0  0.31120905699E-01 -0.11842123787E+00 -0.54756488752E-01  0.13539814990E+00  0.18500961757E-01 0.  0.
         14    1    1    2    0    0  0.30626950374E-02  0.20198322223E-01  0.48858023986E-02  0.21005318055E-01  0.00000000000E+00 0.  1.
     999901    1    3    3    0    0 -0.34183600736E-01  0.98222915652E-01  0.49870686354E-01  0.88752653204E+00  0.88000000000E+00 0. -1.
        -11    1    4    4    0    0  0.16096183373E-01 -0.92093434983E-01 -0.40206219987E-01  0.10176978497E+00  0.51100000000E-03 0. -1.
         11    1    4    4    0    0  0.15024722326E-01 -0.26327802892E-01 -0.14550268765E-01  0.33628364935E-01  0.51100000000E-03 0.  1.
</event>
<event>
 8    1  0.1135368E+005  0.1043930E+01  0.7957747E-01            NaN
         13   -1    0    0    0    0  0.00000000000E+00  0.00000000000E+00  0.74505805969E-08  0.10566000000E+00  0.10566000000E+00 0. -1.
     999900   -1    0    0    0    0 -0.00000000000E+00 -0.00000000000E+00 -0.74505805969E-08  0.93827000000E+00  0.93827000000E+00 0. -1.
     999902    2    1    2    0    0 -0.15464734997E-01  0.12471541176E-01  0.12299893509E-01  0.10205636835E+01  0.10202961566E+01 0.  0.
     999903    2    3    3    0    0  0.65642661105E-01 -0.10930311249E-01 -0.10801837586E+00  0.12837393776E+00  0.19582331648E-01 0.  0.
         14    1    1    2    0    0  0.15464734997E-01 -0.12471541176E-01 -0.12299893509E-01  0.23366316530E-01  0.00000000000E+00 0.  1.
     999901    1    3    3    0    0 -0.81107396102E-01  0.23401852426E-01  0.12031826937E+00  0.89218974571E+00  0.88000000000E+00 0.  1.
        -11    1    4    4    0    0  0.55268962764E-01 -0.74552461677E-02 -0.74179275706E-01  0.92806600011E-01  0.51100000000E-03 0. -1.
         11    1    4    4    0    0  0.10373698341E-01 -0.34750650816E-02 -0.33839100154E-01  0.35567337753E-01  0.51100000000E-03 0.  1.
</event>
<event>
 8    1  0.1135368E+005  0.1043930E+01  0.7957747E-01            NaN
         13   -1    0    0    0    0  0.00000000000E+00  0.00000000000E+00  0.74505805969E-08  0.10566000000E+00  0.10566000000E+00 0. -1.
     999900   -1    0    0    0    0 -0.00000000000E+00 -0.00000000000E+00 -0.74505805969E-08  0.93827000000E+00  0.93827000000E+00 0.  1.
     999902    2    1    2    0    0  0.42567522013E-02 -0.16251754841E-02 -0.23114768199E-01  0.10203704235E+01  0.10200984009E+01 0.  0.
     999903    2    3    3    0    0  0.49140827012E-01  0.99629681083E-01  0.63105085540E-01  0.12924698128E+00  0.19535509112E-01 0.  0.
         14    1    1    2    0    0 -0.42567522013E-02  0.16251754841E-02  0.23114768199E-01  0.23559576472E-01  0.00000000000E+00 0. -1.
     999901    1    3    3    0    0 -0.44884074811E-01 -0.10125485657E+00 -0.86219853738E-01  0.89112344225E+00  0.88000000000E+00 0.  1.
        -11    1    4    4    0    0  0.33065709811E-01  0.51668995447E-01  0.26597097383E-01  0.66863240768E-01  0.51100000000E-03 0. -1.
         11    1    4    4    0    0  0.16075117201E-01  0.47960685636E-01  0.36507988157E-01  0.62383740510E-01  0.51100000000E-03 0.  1.
</event>
<event>
 8    1  0.1135368E+005  0.1043930E+01  0.7957747E-01            NaN
         13   -1    0    0    0    0  0.00000000000E+00  0.00000000000E+00  0.74505805969E-08  0.10566000000E+00  0.10566000000E+00 0. -1.
     999900   -1    0    0    0    0 -0.00000000000E+00 -0.00000000000E+00 -0.74505805969E-08  0.93827000000E+00  0.93827000000E+00 0.  1.
     999902    2    1    2    0    0 -0.71907986780E-02 -0.17954840261E-01  0.14581946029E-01  0.10197077577E+01  0.10194200282E+01 0.  0.
     999903    2    3    3    0    0  0.84086462278E-01  0.32520814563E-01  0.91787658394E-01  0.13019100563E+00  0.19914497138E-01 0.  0.
         14    1    1    2    0    0  0.71907986780E-02  0.17954840261E-01 -0.14581946029E-01  0.24222242349E-01  0.00000000000E+00 0.  1.
     999901    1    3    3    0    0 -0.91277260956E-01 -0.50475654824E-01 -0.77205712365E-01  0.88951675202E+00  0.88000000000E+00 0.  1.
        -11    1    4    4    0    0  0.58680663383E-01  0.12657280077E-01  0.57784855016E-01  0.83324531707E-01  0.51100000000E-03 0.  1.
         11    1    4    4    0    0  0.25405798895E-01  0.19863534486E-01  0.34002803378E-01  0.46866473926E-01  0.51100000000E-03 0. -1.
</event>
<event>
 8    1  0.1135368E+005  0.1043930E+01  0.7957747E-01            NaN
         13   -1    0    0    0    0  0.00000000000E+00  0.00000000000E+00  0.74505805969E-08  0.10566000000E+00  0.10566000000E+00 0.  1.
     999900   -1    0    0    0    0 -0.00000000000E+00 -0.00000000000E+00 -0.74505805969E-08  0.93827000000E+00  0.93827000000E+00 0.  1.
     999902    2    1    2    0    0 -0.16153070802E-01 -0.76795705890E-03 -0.58516601428E-02  0.10267325182E+01  0.10265884816E+01 0.  0.
     999903    2    3    3    0    0  0.42578802291E-01 -0.11122983170E+00  0.61039229942E-01  0.13537083523E+00  0.20357936406E-01 0.  0.
         14    1    1    2    0    0  0.16153070802E-01  0.76795705890E-03  0.58516601428E-02  0.17197481816E-01  0.00000000000E+00 0.  1.
     999901    1    3    3    0    0 -0.58731873093E-01  0.11046187464E+00 -0.66890890084E-01  0.89136168296E+00  0.88000000000E+00 0.  1.
        -11    1    4    4    0    0  0.20614627174E-01 -0.39587572288E-01  0.13520608631E-01  0.46639111398E-01  0.51100000000E-03 0. -1.
         11    1    4    4    0    0  0.21964175117E-01 -0.71642259408E-01  0.47518621310E-01  0.88731723831E-01  0.51100000000E-03 0.  1.
</event>
<event>
 8    1  0.1135368E+005  0.1043930E+01  0.7957747E-01            NaN
         13   -1    0    0    0    0  0.00000000000E+00  0.00000000000E+00  0.74505805969E-08  0.10566000000E+00  0.10566000000E+00 0.  1.
     999900   -1    0    0    0    0 -0.00000000000E+00 -0.00000000000E+00 -0.74505805969E-08  0.93827000000E+00  0.93827000000E+00 0. -1.
     999902    2    1    2    0    0  0.18402640084E-01  0.11255936709E-01 -0.90697955438E-02  0.10205288363E+01  0.10202605016E+01 0.  0.
     999903    2    3    3    0    0 -0.34431673254E-01  0.11336891437E+00 -0.54662320114E-01  0.13187974738E+00  0.19137598066E-01 0.  0.
         14    1    1    2    0    0 -0.18402640084E-01 -0.11255936709E-01  0.90697955438E-02  0.23401163742E-01  0.00000000000E+00 0.  1.
     999901    1    3    3    0    0  0.52834313339E-01 -0.10211297766E+00  0.45592524570E-01  0.88864908888E+00  0.88000000000E+00 0. -1.
        -11    1    4    4    0    0 -0.70519118401E-02  0.92412236188E-02 -0.98990192362E-02  0.15276824847E-01  0.51100000000E-03 0.  1.
         11    1    4    4    0    0 -0.27379761414E-01  0.10412769075E+00 -0.44763300878E-01  0.11660292253E+00  0.51100000000E-03 0. -1.
</event>
<event>
 8    1  0.1135368E+005  0.1043930E+01  0.7957747E-01            NaN
         13   -1    0    0    0    0  0.00000000000E+00  0.00000000000E+00  0.74505805969E-08  0.10566000000E+00  0.10566000000E+00 0.  1.
     999900   -1    0    0    0    0 -0.00000000000E+00 -0.00000000000E+00 -0.74505805969E-08  0.93827000000E+00  0.93827000000E+00 0. -1.
     999902    2    1    2    0    0 -0.21631169232E-01  0.76315712369E-02 -0.16014235580E-01  0.10159549378E+01  0.10155697079E+01 0.  0.
     999903    2    3    3    0    0  0.28829263358E-01  0.94594682574E-01  0.74901905557E-01  0.12557603944E+00  0.19487581377E-01 0.  0.
         14    1    1    2    0    0  0.21631169232E-01 -0.76315712369E-02  0.16014235580E-01  0.27975062165E-01  0.00000000000E+00 0.  1.
     999901    1    3    3    0    0 -0.50460432590E-01 -0.86963111337E-01 -0.90916141138E-01  0.89037889840E+00  0.88000000000E+00 0. -1.
        -11    1    4    4    0    0 -0.94891227627E-03  0.20018874679E-01  0.19865382323E-01  0.28223222951E-01  0.51100000000E-03 0.  1.
         11    1    4    4    0    0  0.29778175634E-01  0.74575807895E-01  0.55036523235E-01  0.97352816487E-01  0.51100000000E-03 0. -1.
</event>
<event>
 8    1  0.1135368E+005  0.1043930E+01  0.7957747E-01            NaN
         13   -1    0    0    0    0  0.00000000000E+00  0.00000000000E+00  0.74505805969E-08  0.10566000000E+00  0.10566000000E+00 0.  1.
     999900   -1    0    0    0    0 -0.00000000000E+00 -0.00000000000E+00 -0.74505805969E-08  0.93827000000E+00  0.93827000000E+00 0. -1.
     999902    2    1    2    0    0 -0.16649209262E-01  0.17804064552E-02  0.16286427491E-01  0.10205716238E+01  0.10203042809E+01 0.  0.
     999903    2    3    3    0    0  0.44277421715E-01 -0.89207022917E-01 -0.79057921182E-01  0.12867403360E+00  0.19709617173E-01 0.  0.
         14    1    1    2    0    0  0.16649209262E-01 -0.17804064552E-02 -0.16286427491E-01  0.23358376155E-01  0.00000000000E+00 0. -1.
     999901    1    3    3    0    0 -0.60926630976E-01  0.90987429372E-01  0.95344348674E-01  0.89189759025E+00  0.88000000000E+00 0. -1.
        -11    1    4    4    0    0  0.37450169657E-01 -0.55061253819E-01 -0.49104797538E-01  0.82739344581E-01  0.51100000000E-03 0.  1.
         11    1    4    4    0    0  0.68272520572E-02 -0.34145769098E-01 -0.29953123644E-01  0.45934689016E-01  0.51100000000E-03 0. -1.
</event>
<event>
 8    1  0.1135368E+005  0.1043930E+01  0.7957747E-01            NaN
         13   -1    0    0    0    0  0.00000000000E+00  0.00000000000E+00  0.74505805969E-08  0.10566000000E+00  0.10566000000E+00 0. -1.
     999900   -1    0    0    0    0 -0.00000000000E+00 -0.00000000000E+00 -0.74505805969E-08  0.93827000000E+00  0.93827000000E+00 0.  1.
     999902    2    1    2    0    0 -0.39857216236E-02  0.23972459031E-01  0.37566317575E-02  0.10193398180E+01  0.10190431725E+01 0.  0.
     999903    2    3    3    0    0 -0.11096548172E+00  0.42723670147E-01 -0.51243651259E-01  0.13095853267E+00  0.19636072931E-01 0.  0.
         14    1    1    2    0    0  0.39857216236E-02 -0.23972459031E-01 -0.37566317575E-02  0.24590182005E-01  0.00000000000E+00 0.  1.
     999901    1    3    3    0    0  0.10697976010E+00 -0.18751211116E-01  0.55000283016E-01  0.88838128533E+00  0.88000000000E+00 0.  1.
        -11    1    4    4    0    0 -0.48561847893E-01  0.25728512908E-01 -0.15701437008E-01  0.57157726445E-01  0.51100000000E-03 0.  1.
         11    1    4    4    0    0 -0.62403633826E-01  0.16995157239E-01 -0.35542214250E-01  0.73800806222E-01  0.51100000000E-03 0. -1.
</event>
<event>
 8    1  0.1135368E+005  0.1043930E+01  0.7957747E-01            NaN
         13   -1    0    0    0    0  0.00000000000E+00  0.00000000000E+00  0.74505805969E-08  0.10566000000E+00  0.10566000000E+00 0.  1.
     999900   -1    0    0    0    0 -0.00000000000E+00 -0.00000000000E+00 -0.74505805969E-08  0.93827000000E+00  0.93827000000E+00 0.  1.
     999902    2    1    2    0    0 -0.95738669546E-02  0.20883361870E-01 -0.68345173886E-02  0.10199615966E+01  0.10196799372E+01 0.  0.
     999903    2    3    3    0    0  0.63952102365E-01 -0.10671649599E+00  0.18435620340E-01  0.12736629543E+00  0.20100228881E-01 0.  0.
         14    1    1    2    0    0  0.95738669546E-02 -0.20883361870E-01  0.68345173886E-02  0.23968403355E-01  0.00000000000E+00 0.  1.
     999901    1    3    3    0    0 -0.73525969319E-01  0.12759985786E+00 -0.25270137728E-01  0.89259530121E+00  0.88000000000E+00 0. -1.
        -11    1    4    4    0    0  0.26684143774E-01 -0.28344346283E-01  0.98530796692E-02  0.40159554220E-01  0.51100000000E-03 0.  1.
         11    1    4    4    0    0  0.37267958591E-01 -0.78372149707E-01  0.85825406704E-02  0.87206741210E-01  0.51100000000E-03 0. -1.
</event>
<event>
 8    1  0.1135368E+005  0.1043930E+01  0.7957747E-01            NaN
         13   -1    0    0    0    0  0.00000000000E+00  0.00000000000E+00  0.74505805969E-08  0.10566000000E+00  0.10566000000E+00 0. -1.
     999900   -1    0    0    0    0 -0.00000000000E+00 -0.00000000000E+00 -0.74505805969E-08  0.93827000000E+00  0.93827000000E+00 0.  1.
     999902    2    1    2    0    0 -0.12322978177E-01 -0.16586265085E-01  0.67984179411E-02  0.10221773343E+01  0.10219458519E+01 0.  0.
     999903    2    3    3    0    0  0.62305972243E-01 -0.10155421142E+00  0.56197332151E-01  0.13356646055E+00  0.22058268470E-01 0.  0.
         14    1    1    2    0    0  0.12322978177E-01  0.16586265085E-01 -0.67984179411E-02  0.21752665747E-01  0.00000000000E+00 0. -1.
     999901    1    3    3    0    0 -0.74628950420E-01  0.84967946334E-01 -0.49398914210E-01  0.88861087371E+00  0.88000000000E+00 0. -1.
        -11    1    4    4    0    0  0.56498324154E-01 -0.99993596229E-01  0.51274557674E-01  0.12577806369E+00  0.51100000000E-03 0. -1.
         11    1    4    4    0    0  0.58076480891E-02 -0.15606151897E-02  0.49227744763E-02  0.77883968595E-02  0.51100000000E-03 0.  1.
</event>
<event>
 8    1  0.1135368E+005  0.1043930E+01  0.7957747E-01            NaN
         13   -1    0    0    0    0  0.00000000000E+00  0.00000000000E+00  0.74505805969E-08  0.10566000000E+00  0.10566000000E+00 0. -1.
     999900   -1    0    0    0    0 -0.00000000000E+00 -0.00000000000E+00 -0.74505805969E-08  0.93827000000E+00  0.93827000000E+00 0. -1.
     999902    2    1    2    0    0 -0.51889783503E-02 -0.10155969264E-02  0.23252635537E-01  0.10200837845E+01  0.10198050232E+01 0.  0.
     999903    2    3    3    0    0  0.62978547104E-01  0.10271759860E+00  0.47489869611E-01  0.13104226080E+00  0.19989595824E-01 0.  0.
         14    1    1    2    0    0  0.51889783503E-02  0.10155969264E-02 -0.23252635537E-01  0.23846215483E-01  0.00000000000E+00 0.  1.
     999901    1    3    3    0    0 -0.68167525455E-01 -0.10373319553E+00 -0.24237234074E-01  0.88904152372E+00  0.88000000000E+00 0. -1.
        -11    1    4    4    0    0  0.53496910791E-01  0.70445011949E-01  0.32965991958E-01  0.94400407412E-01  0.51100000000E-03 0.  1.
         11    1    4    4    0    0  0.94816363133E-02  0.32272586654E-01  0.14523877653E-01  0.36641853386E-01  0.51100000000E-03 0. -1.
</event>
<event>
 8    1  0.1135368E+005  0.1043930E+01  0.7957747E-01            NaN
         13   -1    0    0    0    0  0.00000000000E+00  0.00000000000E+00  0.74505805969E-08  0.10566000000E+00  0.10566000000E+00 0.  1.
     999900   -1    0    0    0    0 -0.00000000000E+00 -0.00000000000E+00 -0.74505805969E-08  0.93827000000E+00  0.93827000000E+00 0.  1.
     999902    2    1    2    0    0 -0.15705630049E-01  0.75386066381E-02  0.12112323129E-01  0.10227119469E+01  0.10224918193E+01 0.  0.
     999903    2    3    3    0    0  0.89318818118E-01  0.68045756142E-01 -0.64765289292E-01  0.13108342721E+00  0.19499897260E-01 0.  0.
         14    1    1    2    0    0  0.15705630049E-01 -0.75386066381E-02 -0.12112323129E-01  0.21218053088E-01  0.00000000000E+00 0. -1.
     999901    1    3    3    0    0 -0.10502444817E+00 -0.60507149504E-01  0.76877612421E-01  0.89162851970E+00  0.88000000000E+00 0. -1.
        -11    1    4    4    0    0  0.71679265245E-01  0.55975907240E-01 -0.60637809354E-01  0.10930884823E+00  0.51100000000E-03 0.  1.
         11    1    4    4    0    0  0.17639552873E-01  0.12069848902E-01 -0.41274799386E-02  0.21774578979E-01  0.51100000000E-03 0. -1.
</event>
<event>
 8    1  0.1135368E+005  0.1043930E+01  0.7957747E-01            NaN
         13   -1    0    0    0    0  0.00000000000E+00  0.00000000000E+00  0.74505805969E-08  0.10566000000E+00  0.10566000000E+00 0.  1.
     999900   -1    0    0    0    0 -0.00000000000E+00 -0.00000000000E+00 -0.74505805969E-08  0.93827000000E+00  0.93827000000E+00 0.  1.
     999902    2    1    2    0    0  0.48650844348E-02 -0.14776211366E-02 -0.22708008564E-01  0.10206597172E+01  0.10203944101E+01 0.  0.
     999903    2    3    3    0    0  0.66539711539E-01  0.11201193555E-01  0.10791550522E+00  0.12879256655E+00  0.19717225565E-01 0.  0.
         14    1    1    2    0    0 -0.48650844348E-02  0.14776211366E-02  0.22708008564E-01  0.23270282846E-01  0.00000000000E+00 0.  1.
     999901    1    3    3    0    0 -0.61674627104E-01 -0.12678814692E-01 -0.13062351378E+00  0.89186715060E+00  0.88000000000E+00 0.  1.
        -11    1    4    4    0    0  0.22510022426E-01 -0.48266770009E-02  0.29228257433E-01  0.37209542782E-01  0.51100000000E-03 0.  1.
         11    1    4    4    0    0  0.44029689113E-01  0.16027870556E-01  0.78687247784E-01  0.91583023770E-01  0.51100000000E-03 0. -1.
</event>
<event>
 8    1  0.1135368E+005  0.1043930E+01  0.7957747E-01            NaN
         13   -1    0    0    0    0  0.00000000000E+00  0.00000000000E+00  0.74505805969E-08  0.10566000000E+00  0.10566000000E+00 0. -1.
     999900   -1    0    0    0    0 -0.00000000000E+00 -0.00000000000E+00 -0.74505805969E-08  0.93827000000E+00  0.93827000000E+00 0.  1.
     999902    2    1    2    0    0  0.13613804257E-01 -0.20779389047E-02  0.22441325414E-01  0.10176000440E+01  0.10172593489E+01 0.  0.
     999903    2    3    3    0    0 -0.30821792140E-01  0.97212578461E-01 -0.70583765427E-01  0.12603580258E+00  0.22420689273E-01 0.  0.
         14    1    1    2    0    0 -0.13613804257E-01  0.20779389047E-02 -0.22441325414E-01  0.26329955996E-01  0.00000000000E+00 0.  1.
     999901    1    3    3    0    0  0.44435596397E-01 -0.99290517365E-01  0.93025090841E-01  0.89156424143E+00  0.88000000000E+00 0. -1.
        -11    1    4    4    0    0 -0.17650084511E-01  0.60841312709E-01 -0.30441403386E-01  0.70286065309E-01  0.51100000000E-03 0. -1.
         11    1    4    4    0    0 -0.13171707629E-01  0.36371265752E-01 -0.40142362040E-01  0.55749737268E-01  0.51100000000E-03 0.  1.
</event>
<event>
 8    1  0.1135368E+005  0.1043930E+01  0.7957747E-01            NaN
         13   -1    0    0    0    0  0.00000000000E+00  0.00000000000E+00  0.74505805969E-08  0.10566000000E+00  0.10566000000E+00 0.  1.
     999900   -1    0    0    0    0 -0.00000000000E+00 -0.00000000000E+00 -0.74505805969E-08  0.93827000000E+00  0.93827000000E+00 0.  1.
     999902    2    1    2    0    0  0.46668790625E-04 -0.21807551673E-01  0.63642237667E-02  0.10212127195E+01  0.10209600108E+01 0.  0.
     999903    2    3    3    0    0 -0.95724170385E-01 -0.87031165686E-01  0.25874533385E-01  0.13340259025E+00  0.19728634306E-01 0.  0.
         14    1    1    2    0    0 -0.46668790625E-04  0.21807551673E-01 -0.63642237667E-02  0.22717280473E-01  0.00000000000E+00 0. -1.
     999901    1    3    3    0    0  0.95770839176E-01  0.65223614014E-01 -0.19510309618E-01  0.88781012927E+00  0.88000000000E+00 0.  1.
        -11    1    4    4    0    0 -0.45413639556E-01 -0.35997591609E-01  0.20748508696E-01  0.61554747937E-01  0.51100000000E-03 0.  1.
         11    1    4    4    0    0 -0.50310530829E-01 -0.51033574077E-01  0.51260246887E-02  0.71847842316E-01  0.51100000000E-03 0. -1.
</event>
<event>
 8    1  0.1135368E+005  0.1043930E+01  0.7957747E-01            NaN
         13   -1    0    0    0    0  0.00000000000E+00  0.00000000000E+00  0.74505805969E-08  0.10566000000E+00  0.10566000000E+00 0. -1.
     999900   -1    0    0    0    0 -0.00000000000E+00 -0.00000000000E+00 -0.74505805969E-08  0.93827000000E+00  0.93827000000E+00 0. -1.
     999902    2    1    2    0    0  0.17333193792E-01  0.15099756225E-01  0.61491788762E-02  0.10201338943E+01  0.10198563172E+01 0.  0.
     999903    2    3    3    0    0 -0.89325627110E-01  0.89907946645E-01  0.22720142457E-01  0.13038844405E+00  0.20553222119E-01 0.  0.
         14    1    1    2    0    0 -0.17333193792E-01 -0.15099756225E-01 -0.61491788762E-02  0.23796105689E-01  0.00000000000E+00 0. -1.
     999901    1    3    3    0    0  0.10665882090E+00 -0.74808190420E-01 -0.16570963581E-01  0.88974545026E+00  0.88000000000E+00 0. -1.
        -11    1    4    4    0    0 -0.83917733755E-01  0.76697575741E-01  0.23469473479E-01  0.11608523364E+00  0.51100000000E-03 0.  1.
         11    1    4    4    0    0 -0.54078933545E-02  0.13210370904E-01 -0.74933102248E-03  0.14303210406E-01  0.51100000000E-03 0. -1.
</event>
<event>
 8    1  0.1135368E+005  0.1043930E+01  0.7957747E-01            NaN
         13   -1    0    0    0    0  0.00000000000E+00  0.00000000000E+00  0.74505805969E-08  0.10566000000E+00  0.10566000000E+00 0. -1.
     999900   -1    0    0    0    0 -0.00000000000E+00 -0.00000000000E+00 -0.74505805969E-08  0.93827000000E+00  0.93827000000E+00 0. -1.
     999902    2    1    2    0    0 -0.14862046100E-02 -0.73063332116E-02 -0.22182230475E-01  0.10205282339E+01  0.10202598853E+01 0.  0.
     999903    2    3    3    0    0 -0.52652616071E-01  0.51259487535E-01 -0.10884020534E+00  0.13285849707E+00  0.20133477196E-01 0.  0.
         14    1    1    2    0    0  0.14862046100E-02  0.73063332116E-02  0.22182230475E-01  0.23401766130E-01  0.00000000000E+00 0. -1.
     999901    1    3    3    0    0  0.51166411461E-01 -0.58565820747E-01  0.86657974865E-01  0.88766973680E+00  0.88000000000E+00 0.  1.
        -11    1    4    4    0    0 -0.20327023696E-01  0.13414443486E-01 -0.51215407183E-01  0.56713439679E-01  0.51100000000E-03 0.  1.
         11    1    4    4    0    0 -0.32325592375E-01  0.37845044049E-01 -0.57624798158E-01  0.76145057392E-01  0.51100000000E-03 0. -1.
</event>
<event>
 8    1  0.1135368E+005  0.1043930E+01  0.7957747E-01            NaN
         13   -1    0    0    0    0  0.00000000000E+00  0.00000000000E+00  0.74505805969E-08  0.10566000000E+00  0.10566000000E+00 0. -1.
     999900   -1    0    0    0    0 -0.00000000000E+00 -0.00000000000E+00 -0.74505805969E-08  0.93827000000E+00  0.93827000000E+00 0. -1.
     999902    2    1    2    0    0  0.12981624197E-01 -0.18124115203E-01  0.82017516550E-02  0.10201755299E+01  0.10198989347E+01 0.  0.
     999903    2    3    3    0    0  0.11684027393E+00 -0.24743201076E-01  0.54627361789E-01  0.13282792683E+00  0.19880489899E-01 0.  0.
         14    1    1    2    0    0 -0.12981624197E-01  0.18124115203E-01 -0.82017516550E-02  0.23754470082E-01  0.00000000000E+00 0.  1.
     999901    1    3    3    0    0 -0.10385864974E+00  0.66190858735E-02 -0.46425610134E-01  0.88734760308E+00  0.88000000000E+00 0.  1.
        -11    1    4    4    0    0  0.11887111644E-01  0.29429414028E-02  0.83454101041E-02  0.14828058475E-01  0.51100000000E-03 0.  1.
         11    1    4    4    0    0  0.10495316229E+00 -0.27686142479E-01  0.46281951685E-01  0.11799986836E+00  0.51100000000E-03 0. -1.
</event>
<event>
 8    1  0.1135368E+005  0.1043930E+01  0.7957747E-01            NaN
         13   -1    0    0    0    0  0.00000000000E+00  0.00000000000E+00  0.74505805969E-08  0.10566000000E+00  0.10566000000E+00 0. -1.
     999900   -1    0    0    0    0 -0.00000000000E+00 -0.00000000000E+00 -0.74505805969E-08  0.93827000000E+00  0.93827000000E+00 0. -1.
     999902    2    1    2    0    0 -0.23495103187E-01  0.17762925685E-02 -0.10607504008E-03  0.10203676075E+01  0.10200955191E+01 0.  0.
     999903    2    3    3    0    0 -0.49191966637E-01 -0.82077771887E-01 -0.88275567175E-01  0.13162372297E+00  0.19380878973E-01 0.  0.
         14    1    1    2    0    0  0.23495103187E-01 -0.17762925685E-02  0.10607504008E-03  0.23562392513E-01  0.00000000000E+00 0. -1.
     999901    1    3    3    0    0  0.25696863451E-01  0.83854064455E-01  0.88169492135E-01  0.88874388451E+00  0.88000000000E+00 0.  1.
        -11    1    4    4    0    0 -0.11990867201E-01 -0.38319716703E-01 -0.38214967893E-01  0.55433081067E-01  0.51100000000E-03 0.  1.
         11    1    4    4    0    0 -0.37201099437E-01 -0.43758055184E-01 -0.50060599281E-01  0.76190641907E-01  0.51100000000E-03 0. -1.
</event>
<event>
 8    1  0.1135368E+005  0.1043930E+01  0.7957747E-01            NaN
         13   -1    0    0    0    0  0.00000000000E+00  0.00000000000E+00  0.74505805969E-08  0.10566000000E+00  0.10566000000E+00 0.  1.
     999900   -1    0    0    0    0 -0.00000000000E+00 -0.00000000000E+00 -0.74505805969E-08  0.93827000000E+00  0.93827000000E+00 0.  1.
     999902    2    1    2    0    0 -0.23224935100E-01  0.69382819812E-02  0.33110145661E-03  0.10196885686E+01  0.10194003777E+01 0.  0.
     999903    2    3    3    0    0 -0.18415650165E-01  0.35198389373E-02 -0.12764375619E+00  0.13041224533E+00  0.19049929113E-01 0.  0.
         14    1    1    2    0    0  0.23224935100E-01 -0.69382819812E-02 -0.33110145661E-03  0.24241431381E-01  0.00000000000E+00 0.  1.
     999901    1    3    3    0    0 -0.48092849346E-02  0.34184430438E-02  0.12797485765E+00  0.88927632329E+00  0.88000000000E+00 0. -1.
        -11    1    4    4    0    0 -0.26342175253E-02 -0.64251697283E-02 -0.20360756567E-01  0.21518444111E-01  0.51100000000E-03 0. -1.
         11    1    4    4    0    0 -0.15781432640E-01  0.99450086656E-02 -0.10728299963E+00  0.10889380122E+00  0.51100000000E-03 0.  1.
</event>
<event>
 8    1  0.1135368E+005  0.1043930E+01  0.7957747E-01            NaN
         13   -1    0    0    0    0  0.00000000000E+00  0.00000000000E+00  0.74505805969E-08  0.10566000000E+00  0.10566000000E+00 0.  1.
     999900   -1    0    0    0    0 -0.00000000000E+00 -0.00000000000E+00 -0.74505805969E-08  0.93827000000E+00  0.93827000000E+00 0. -1.
     999902    2    1    2    0    0 -0.17969543749E-01 -0.13470502902E-01 -0.80311824865E-02  0.10200792381E+01  0.10198003693E+01 0.  0.
     999903    2    3    3    0    0  0.10852306505E+00 -0.21485853680E-02  0.64736287205E-01  0.12798974117E+00  0.20216698413E-01 0.  0.
         14    1    1    2    0    0  0.17969543749E-01  0.13470502902E-01  0.80311824865E-02  0.23850761898E-01  0.00000000000E+00 0. -1.
     999901    1    3    3    0    0 -0.12649260880E+00 -0.11321917534E-01 -0.72767469691E-01  0.89208949694E+00  0.88000000000E+00 0.  1.
        -11    1    4    4    0    0  0.75619192601E-01  0.67007472920E-02  0.39446449696E-01  0.85553759815E-01  0.51100000000E-03 0. -1.
         11    1    4    4    0    0  0.32903872453E-01 -0.88493326601E-02  0.25289837509E-01  0.42435981350E-01  0.51100000000E-03 0.  1.
</event>
<event>
 8    1  0.1135368E+005  0.1043930E+01  0.7957747E-01            NaN
         13   -1    0    0    0    0  0.00000000000E+00  0.00000000000E+00  0.74505805969E-08  0.10566000000E+00  0.10566000000E+00 0. -1.
     999900   -1    0    0    0    0 -0.00000000000E+00 -0.00000000000E+00 -0.74505805969E-08  0.93827000000E+00  0.93827000000E+00 0. -1.
     999902    2    1    2    0    0  0.16525858604E-01 -0.15683165000E-01  0.14479960659E-01  0.10169349092E+01  0.10165765464E+01 0.  0.
     999903    2    3    3    0    0  0.69058232208E-01  0.31697762161E-01 -0.99495168300E-01  0.12676923217E+00  0.19933944590E-01 0.  0.
         14    1    1    2    0    0 -0.16525858604E-01  0.15683165000E-01 -0.14479960659E-01  0.26995090808E-01  0.00000000000E+00 0.  1.
     999901    1    3    3    0    0 -0.52532373604E-01 -0.47380927162E-01  0.11397512896E+00  0.89016567703E+00  0.88000000000E+00 0.  1.
        -11    1    4    4    0    0  0.18971930996E-01  0.14749050491E-01 -0.19872927880E-01  0.31187546227E-01  0.51100000000E-03 0.  1.
         11    1    4    4    0    0  0.50086301212E-01  0.16948711671E-01 -0.79622240420E-01  0.95581685939E-01  0.51100000000E-03 0. -1.
</event>
<event>
 8    1  0.1135368E+005  0.1043930E+01  0.7957747E-01            NaN
         13   -1    0    0    0    0  0.00000000000E+00  0.00000000000E+00  0.74505805969E-08  0.10566000000E+00  0.10566000000E+00 0. -1.
     999900   -1    0    0    0    0 -0.00000000000E+00 -0.00000000000E+00 -0.74505805969E-08  0.93827000000E+00  0.93827000000E+00 0.  1.
     999902    2    1    2    0    0 -0.21656226227E-01 -0.77901890952E-02  0.19375864206E-02  0.10208338224E+01  0.10205725155E+01 0.  0.
     999903    2    3    3    0    0  0.19501427246E-01  0.77724327118E-01 -0.99768048014E-01  0.12990693366E+00  0.22377920340E-01 0.  0.
         14    1    1    2    0    0  0.21656226227E-01  0.77901890952E-02 -0.19375864206E-02  0.23096177642E-01  0.00000000000E+00 0. -1.
     999901    1    3    3    0    0 -0.41157653473E-01 -0.85514516213E-01  0.10170563443E+00  0.89092688869E+00  0.88000000000E+00 0. -1.
        -11    1    4    4    0    0 -0.25077279824E-02  0.26349311954E-01 -0.23845856208E-01  0.35629495076E-01  0.51100000000E-03 0.  1.
         11    1    4    4    0    0  0.22009155228E-01  0.51375015164E-01 -0.75922191806E-01  0.94277438588E-01  0.51100000000E-03 0. -1.
</event>
<event>
 8    1  0.1135368E+005  0.1043930E+01  0.7957747E-01            NaN
         13   -1    0    0    0    0  0.00000000000E+00  0.00000000000E+00  0.74505805969E-08  0.10566000000E+00  0.10566000000E+00 0. -1.
     999900   -1    0    0    0    0 -0.00000000000E+00 -0.00000000000E+00 -0.74505805969E-08  0.93827000000E+00  0.93827000000E+00 0. -1.
     999902    2    1    2    0    0 -0.77417899922E-02 -0.17149800550E-01  0.14964543282E-01  0.10198886081E+01  0.10196052100E+01 0.  0.
     999903    2    3    3    0    0 -0.53564767862E-01  0.58592040575E-01 -0.98642295571E-01  0.12818064822E+00  0.19944034874E-01 0.  0.
         14    1    1    2    0    0  0.77417899922E-02  0.17149800550E-01 -0.14964543282E-01  0.24041391948E-01  0.00000000000E+00 0.  1.
     999901    1    3    3    0    0  0.45822977870E-01 -0.75741841125E-01  0.11360683885E+00  0.89170795983E+00  0.88000000000E+00 0.  1.
        -11    1    4    4    0    0 -0.32713917397E-01  0.45706444377E-01 -0.77927569036E-01  0.96084580375E-01  0.51100000000E-03 0.  1.
         11    1    4    4    0    0 -0.20850850466E-01  0.12885596198E-01 -0.20714726535E-01  0.32096067843E-01  0.51100000000E-03 0. -1.
</event>
<event>
 8    1  0.1135368E+005  0.1043930E+01  0.7957747E-01            NaN
         13   -1    0    0    0    0  0.00000000000E+00  0.00000000000E+00  0.74505805969E-08  0.10566000000E+00  0.10566000000E+00 0.  1.
     999900   -1    0    0    0    0 -0.00000000000E+00 -0.00000000000E+00 -0.74505805969E-08  0.93827000000E+00  0.93827000000E+00 0.  1.
     999902    2    1    2    0    0 -0.88118517418E-02  0.20922755767E-01  0.88856040212E-02  0.10195504102E+01  0.10192588849E+01 0.  0.
     999903    2    3    3    0    0  0.46182659498E-01 -0.48787773775E-01  0.10895160707E+00  0.12943965352E+00  0.19263600659E-01 0.  0.
         14    1    1    2    0    0  0.88118517418E-02 -0.20922755767E-01 -0.88856040212E-02  0.24379589800E-01  0.00000000000E+00 0.  1.
     999901    1    3    3    0    0 -0.54994511239E-01  0.69710529541E-01 -0.10006600305E+00  0.89011075668E+00  0.88000000000E+00 0.  1.
        -11    1    4    4    0    0  0.46995043764E-02 -0.55271187197E-02  0.26654866212E-01  0.27629285124E-01  0.51100000000E-03 0. -1.
         11    1    4    4    0    0  0.41483155121E-01 -0.43260655055E-01  0.82296740863E-01  0.10181036839E+00  0.51100000000E-03 0.  1.
</event>
<event>
 8    1  0.1268626E+005  0.1043930E+01  0.7957747E-01            NaN
         13   -1    0    0    0    0  0.00000000000E+00  0.00000000000E+00  0.74505805969E-08  0.10566000000E+00  0.10566000000E+00 0.  1.
     999900   -1    0    0    0    0 -0.00000000000E+00 -0.00000000000E+00 -0.74505805969E-08  0.93827000000E+00  0.93827000000E+00 0.  1.
     999902    2    1    2    0    0 -0.16149403745E-01 -0.69131851796E-03 -0.18977181192E-01  0.10190018118E+01  0.10186968528E+01 0.  0.
     999903    2    3    3    0    0 -0.96063026720E-01  0.40925843567E-01 -0.78764740081E-01  0.13238310707E+00  0.20454167876E-01 0.  0.
         14    1    1    2    0    0  0.16149403745E-01  0.69131851796E-03  0.18977181192E-01  0.24928188234E-01  0.00000000000E+00 0.  1.
     999901    1    3    3    0    0  0.79913622975E-01 -0.41617162085E-01  0.59787558889E-01  0.88661870469E+00  0.88000000000E+00 0.  1.
        -11    1    4    4    0    0 -0.52517901412E-01  0.11293391525E-01 -0.40555085253E-01  0.67310078902E-01  0.51100000000E-03 0. -1.
         11    1    4    4    0    0 -0.43545125308E-01  0.29632452041E-01 -0.38209654828E-01  0.65073028170E-01  0.51100000000E-03 0.  1.
</event>
<event>
 8    1  0.1135368E+005  0.1043930E+01  0.7957747E-01            NaN
         13   -1    0    0    0    0  0.00000000000E+00  0.00000000000E+00  0.74505805969E-08  0.10566000000E+00  0.10566000000E+00 0.  1.
     999900   -1    0    0    0    0 -0.00000000000E+00 -0.00000000000E+00 -0.74505805969E-08  0.93827000000E+00  0.93827000000E+00 0.  1.
     999902    2    1    2    0    0 -0.11476074872E-01  0.20350506488E-01 -0.11501716689E-03  0.10205664250E+01  0.10202989617E+01 0.  0.
     999903    2    3    3    0    0 -0.10371981708E+00 -0.28819265092E-01  0.72684964215E-01  0.13139466896E+00  0.19826863379E-01 0.  0.
         14    1    1    2    0    0  0.11476074872E-01 -0.20350506488E-01  0.11501716689E-03  0.23363575021E-01  0.00000000000E+00 0. -1.
     999901    1    3    3    0    0  0.92243742212E-01  0.49169771581E-01 -0.72799981382E-01  0.88917175602E+00  0.88000000000E+00 0. -1.
        -11    1    4    4    0    0 -0.45916888737E-01 -0.20749123982E-01  0.41131139911E-01  0.65045511826E-01  0.51100000000E-03 0.  1.
         11    1    4    4    0    0 -0.57802928348E-01 -0.80701411102E-02  0.31553824304E-01  0.66349157134E-01  0.51100000000E-03 0. -1.
</event>
<event>
 8    1  0.1135368E+005  0.1043930E+01  0.7957747E-01            NaN
         13   -1    0    0    0    0  0.00000000000E+00  0.00000000000E+00  0.74505805969E-08  0.10566000000E+00  0.10566000000E+00 0. -1.
     999900   -1    0    0    0    0 -0.00000000000E+00 -0.00000000000E+00 -0.74505805969E-08  0.93827000000E+00  0.93827000000E+00 0.  1.
     999902    2    1    2    0    0  0.19275561420E-01 -0.10979402626E-01 -0.32289513245E-02  0.10215130270E+01  0.10212670286E+01 0.  0.
     999903    2    3    3    0    0  0.12375349792E+00  0.10595972282E-01 -0.46462432628E-01  0.13401639610E+00  0.19350294626E-01 0.  0.
         14    1    1    2    0    0 -0.19275561420E-01  0.10979402626E-01  0.32289513245E-02  0.22416972961E-01  0.00000000000E+00 0.  1.
     999901    1    3    3    0    0 -0.10447793650E+00 -0.21575374908E-01  0.43233481304E-01  0.88749663094E+00  0.88000000000E+00 0. -1.
        -11    1    4    4    0    0  0.10871659556E+00  0.43038680796E-02 -0.35840674513E-01  0.11455407676E+00  0.51100000000E-03 0. -1.
         11    1    4    4    0    0  0.15036902361E-01  0.62921042021E-02 -0.10621758115E-01  0.19462319347E-01  0.51100000000E-03 0.  1.
</event>
<event>
 8    1  0.1135368E+005  0.1043930E+01  0.7957747E-01            NaN
         13   -1    0    0    0    0  0.00000000000E+00  0.00000000000E+00  0.74505805969E-08  0.10566000000E+00  0.10566000000E+00 0. -1.
     999900   -1    0    0    0    0 -0.00000000000E+00 -0.00000000000E+00 -0.74505805969E-08  0.93827000000E+00  0.93827000000E+00 0.  1.
     999902    2    1    2    0    0  0.13965374008E-01  0.87767651954E-02  0.17034252761E-01  0.10202186305E+01  0.10199430498E+01 0.  0.
     999903    2    3    3    0    0 -0.11645229710E-01 -0.66672651033E-01 -0.10678262386E+00  0.12798596104E+00  0.19925453453E-01 0.  0.
         14    1    1    2    0    0 -0.13965374008E-01 -0.87767651954E-02 -0.17034252761E-01  0.23711369543E-01  0.00000000000E+00 0.  1.
     999901    1    3    3    0    0  0.25610603718E-01  0.75449416229E-01  0.12381687662E+00  0.89223266941E+00  0.88000000000E+00 0. -1.
        -11    1    4    4    0    0 -0.45692644778E-02 -0.52474501894E-01 -0.67521770537E-01  0.85638204934E-01  0.51100000000E-03 0. -1.
         11    1    4    4    0    0 -0.70759652326E-02 -0.14198149139E-01 -0.39260853322E-01  0.42347756110E-01  0.51100000000E-03 0.  1.
</event>
<event>
 8    1  0.1135368E+005  0.1043930E+01  0.7957747E-01            NaN
         13   -1    0    0    0    0  0.00000000000E+00  0.00000000000E+00  0.74505805969E-08  0.10566000000E+00  0.10566000000E+00 0. -1.
     999900   -1    0    0    0    0 -0.00000000000E+00 -0.00000000000E+00 -0.74505805969E-08  0.93827000000E+00  0.93827000000E+00 0. -1.
     999902    2    1    2    0    0  0.21926466187E-01  0.18304816539E-01 -0.97777910435E-02  0.10137399118E+01  0.10132902681E+01 0.  0.
     999903    2    3    3    0    0  0.10374840429E+00  0.68392118625E-01  0.24774698244E-01  0.12785197199E+00  0.17062467130E-01 0.  0.
         14    1    1    2    0    0 -0.21926466187E-01 -0.18304816539E-01  0.97777910435E-02  0.30190088202E-01  0.00000000000E+00 0. -1.
     999901    1    3    3    0    0 -0.81821938106E-01 -0.50087302087E-01 -0.34552489287E-01  0.88588793981E+00  0.88000000000E+00 0. -1.
        -11    1    4    4    0    0  0.83555691796E-01  0.49553289707E-01  0.13758757951E-01  0.98115476321E-01  0.51100000000E-03 0. -1.
         11    1    4    4    0    0  0.20192712497E-01  0.18838828918E-01  0.11015940292E-01  0.29736495667E-01  0.51100000000E-03 0.  1.
</event>
<event>
 8    1  0.1135368E+005  0.1043930E+01  0.7957747E-01            NaN
         13   -1    0    0    0    0  0.00000000000E+00  0.00000000000E+00  0.74505805969E-08  0.10566000000E+00  0.10566000000E+00 0.  1.
     999900   -1    0    0    0    0 -0.00000000000E+00 -0.00000000000E+00 -0.74505805969E-08  0.93827000000E+00  0.93827000000E+00 0. -1.
     999902    2    1    2    0    0 -0.88237368852E-02 -0.31202840213E-02  0.22116107308E-01  0.10199150732E+01  0.10196323062E+01 0.  0.
     999903    2    3    3    0    0 -0.12678097884E+00  0.25273060563E-01 -0.80180420195E-02  0.13107979046E+00  0.20136491340E-01 0.  0.
         14    1    1    2    0    0  0.88237368852E-02  0.31202840213E-02 -0.22116107308E-01  0.24014926763E-01  0.00000000000E+00 0. -1.
     999901    1    3    3    0    0  0.11795724196E+00 -0.28393344584E-01  0.30134149327E-01  0.88883528277E+00  0.88000000000E+00 0. -1.
        -11    1    4    4    0    0 -0.43527147104E-01  0.18279095690E-01 -0.50050048877E-02  0.47476826654E-01  0.51100000000E-03 0. -1.
         11    1    4    4    0    0 -0.83253831739E-01  0.69939648733E-02 -0.30130371317E-02  0.83602963809E-01  0.51100000000E-03 0.  1.
</event>
<event>
 8    1  0.1135368E+005  0.1043930E+01  0.7957747E-01            NaN
         13   -1    0    0    0    0  0.00000000000E+00  0.00000000000E+00  0.74505805969E-08  0.10566000000E+00  0.10566000000E+00 0. -1.
     999900   -1    0    0    0    0 -0.00000000000E+00 -0.00000000000E+00 -0.74505805969E-08  0.93827000000E+00  0.93827000000E+00 0. -1.
     999902    2    1    2    0    0 -0.33060665857E-02  0.13718414687E-01  0.18783609724E-01  0.10204364057E+01  0.10201659224E+01 0.  0.
     999903    2    3    3    0    0 -0.46030396849E-01 -0.87608514222E-01 -0.79234951859E-01  0.12819195865E+00  0.18998722804E-01 0.  0.
         14    1    1    2    0    0  0.33060665857E-02 -0.13718414687E-01 -0.18783609724E-01  0.23493594276E-01  0.00000000000E+00 0.  1.
     999901    1    3    3    0    0  0.42724330264E-01  0.10132692891E+00  0.98018561582E-01  0.89224444707E+00  0.88000000000E+00 0. -1.
        -11    1    4    4    0    0 -0.68492650061E-02 -0.70664670050E-02 -0.15094517205E-01  0.18026451612E-01  0.51100000000E-03 0. -1.
         11    1    4    4    0    0 -0.39181131843E-01 -0.80542047217E-01 -0.64140434653E-01  0.11016550704E+00  0.51100000000E-03 0.  1.
</event>
<event>
 8    1  0.1135368E+005  0.1043930E+01  0.7957747E-01            NaN
         13   -1    0    0    0    0  0.00000000000E+00  0.00000000000E+00  0.74505805969E-08  0.10566000000E+00  0.10566000000E+00 0. -1.
     999900   -1    0    0    0    0 -0.00000000000E+00 -0.00000000000E+00 -0.74505805969E-08  0.93827000000E+00  0.93827000000E+00 0.  1.
     999902    2    1    2    0    0  0.59911939198E-02  0.18429154705E-01 -0.13397535146E-01  0.10203710931E+01  0.10200990861E+01 0.  0.
     999903    2    3    3    0    0 -0.56382393875E-01  0.10255448682E+00 -0.59850694989E-01  0.13294479640E+00  0.19895127381E-01 0.  0.
         14    1    1    2    0    0 -0.59911939198E-02 -0.18429154705E-01  0.13397535146E-01  0.23558906930E-01  0.00000000000E+00 0. -1.
     999901    1    3    3    0    0  0.62373587795E-01 -0.84125332117E-01  0.46453159843E-01  0.88742629667E+00  0.88000000000E+00 0.  1.
        -11    1    4    4    0    0 -0.36963182308E-01  0.83907148833E-01 -0.44024794644E-01  0.10171101286E+00  0.51100000000E-03 0.  1.
         11    1    4    4    0    0 -0.19419211567E-01  0.18647337989E-01 -0.15825900345E-01  0.31233783547E-01  0.51100000000E-03 0. -1.
</event>
<event>
 8    1  0.1135368E+005  0.1043930E+01  0.7957747E-01            NaN
         13   -1    0    0    0    0  0.00000000000E+00  0.00000000000E+00  0.74505805969E-08  0.10566000000E+00  0.10566000000E+00 0.  1.
     999900   -1    0    0    0    0 -0.00000000000E+00 -0.00000000000E+00 -0.74505805969E-08  0.93827000000E+00  0.93827000000E+00 0.  1.
     999902    2    1    2    0    0 -0.10625177097E-01 -0.21480094661E-01 -0.55552849081E-02  0.10193302023E+01  0.10190333220E+01 0.  0.
     999903    2    3    3    0    0 -0.15324572274E-01  0.71958442375E-01 -0.10403056769E+00  0.12890882689E+00  0.19551641700E-01 0.  0.
         14    1    1    2    0    0  0.10625177097E-01  0.21480094661E-01  0.55552849081E-02  0.24599797670E-01  0.00000000000E+00 0. -1.
     999901    1    3    3    0    0  0.46993951772E-02 -0.93438537036E-01  0.98475282778E-01  0.89042137544E+00  0.88000000000E+00 0.  1.
        -11    1    4    4    0    0 -0.16194862471E-01  0.64192137938E-01 -0.81182046902E-01  0.10475538174E+00  0.51100000000E-03 0. -1.
         11    1    4    4    0    0  0.87029019646E-03  0.77663044367E-02 -0.22848520784E-01  0.24153445151E-01  0.51100000000E-03 0.  1.
</event>
<event>
 8    1  0.1135368E+005  0.1043930E+01  0.7957747E-01            NaN
         13   -1    0    0    0    0  0.00000000000E+00  0.00000000000E+00  0.74505805969E-08  0.10566000000E+00  0.10566000000E+00 0.  1.
     999900   -1    0    0    0    0 -0.00000000000E+00 -0.00000000000E+00 -0.74505805969E-08  0.93827000000E+00  0.93827000000E+00 0.  1.
     999902    2    1    2    0    0 -0.17123522411E-01 -0.18568273864E-02  0.16488689010E-01  0.10200859296E+01  0.10198072191E+01 0.  0.
     999903    2    3    3    0    0 -0.12148533460E+00  0.14760501340E-01  0.49824307895E-01  0.13313678397E+00  0.16321233553E-01 0.  0.
         14    1    1    2    0    0  0.17123522411E-01  0.18568273864E-02 -0.16488689010E-01  0.23844070394E-01  0.00000000000E+00 0. -1.
     999901    1    3    3    0    0  0.10436181219E+00 -0.16617328726E-01 -0.33335618885E-01  0.88694914564E+00  0.88000000000E+00 0.  1.
        -11    1    4    4    0    0 -0.22703335697E-01  0.48558044869E-03  0.15873400556E-01  0.27711066496E-01  0.51100000000E-03 0. -1.
         11    1    4    4    0    0 -0.98781998907E-01  0.14274920891E-01  0.33950907339E-01  0.10542571747E+00  0.51100000000E-03 0.  1.
</event>
<event>
 8    1  0.1135368E+005  0.1043930E+01  0.7957747E-01            NaN
         13   -1    0    0    0    0  0.00000000000E+00  0.00000000000E+00  0.74505805969E-08  0.10566000000E+00  0.10566000000E+00 0. -1.
     999900   -1    0    0    0    0 -0.00000000000E+00 -0.00000000000E+00 -0.74505805969E-08  0.93827000000E+00  0.93827000000E+00 0.  1.
     999902    2    1    2    0    0  0.13047774171E-01  0.57783652055E-02  0.19041043571E-01  0.10201351422E+01  0.10198575946E+01 0.  0.
     999903    2    3    3    0    0  0.10960172167E+00 -0.54793512272E-01  0.46331430825E-01  0.13236468635E+00  0.18945773403E-01 0.  0.
         14    1    1    2    0    0 -0.13047774171E-01 -0.57783652055E-02 -0.19041043571E-01  0.23794857754E-01  0.00000000000E+00 0.  1.
     999901    1    3    3    0    0 -0.96553947504E-01  0.60571877478E-01 -0.27290387254E-01  0.88777045589E+00  0.88000000000E+00 0. -1.
        -11    1    4    4    0    0  0.82779045802E-01 -0.31898734482E-01  0.32453529016E-01  0.94463709180E-01  0.51100000000E-03 0. -1.
         11    1    4    4    0    0  0.26822675872E-01 -0.22894777791E-01  0.13877901809E-01  0.37900977173E-01  0.51100000000E-03 0.  1.
</event>
<event>
 8    1  0.1162394E+005  0.1043930E+01  0.7957747E-01            NaN
         13   -1    0    0    0    0  0.00000000000E+00  0.00000000000E+00  0.74505805969E-08  0.10566000000E+00  0.10566000000E+00 0. -1.
     999900   -1    0    0    0    0 -0.00000000000E+00 -0.00000000000E+00 -0.74505805969E-08  0.93827000000E+00  0.93827000000E+00 0. -1.
     999902    2    1    2    0    0 -0.17365582932E-02 -0.19116019793E-01 -0.12814696195E-01  0.10208506957E+01  0.10205897749E+01 0.  0.
     999903    2    3    3    0    0  0.36047033366E-01 -0.12088056668E+00 -0.36979325322E-01  0.13385151190E+00  0.25243944249E-01 0.  0.
         14    1    1    2    0    0  0.17365582932E-02  0.19116019793E-01  0.12814696195E-01  0.23079304279E-01  0.00000000000E+00 0. -1.
     999901    1    3    3    0    0 -0.37783591659E-01  0.10176454689E+00  0.24164629128E-01  0.88699918382E+00  0.88000000000E+00 0.  1.
        -11    1    4    4    0    0  0.30211485794E-02 -0.43529964193E-01 -0.52256509993E-02  0.43949444487E-01  0.51100000000E-03 0. -1.
         11    1    4    4    0    0  0.33025884786E-01 -0.77350602485E-01 -0.31753674323E-01  0.89902067411E-01  0.51100000000E-03 0.  1.
</event>
<event>
 8    1  0.1135368E+005  0.1043930E+01  0.7957747E-01            NaN
         13   -1    0    0    0    0  0.00000000000E+00  0.00000000000E+00  0.74505805969E-08  0.10566000000E+00  0.10566000000E+00 0. -1.
     999900   -1    0    0    0    0 -0.00000000000E+00 -0.00000000000E+00 -0.74505805969E-08  0.93827000000E+00  0.93827000000E+00 0. -1.
     999902    2    1    2    0    0  0.22344987657E-01  0.19640775745E-02  0.64636901249E-02  0.10205861493E+01  0.10203191426E+01 0.  0.
     999903    2    3    3    0    0  0.11141348214E+00  0.53305599701E-01 -0.44632139385E-01  0.13312914620E+00  0.21837828217E-01 0.  0.
         14    1    1    2    0    0 -0.22344987657E-01 -0.19640775745E-02 -0.64636901249E-02  0.23343850671E-01  0.00000000000E+00 0.  1.
     999901    1    3    3    0    0 -0.89068494480E-01 -0.51341522127E-01  0.51095829510E-01  0.88745700313E+00  0.88000000000E+00 0.  1.
        -11    1    4    4    0    0  0.51132112331E-01  0.12590924177E-01 -0.17631284211E-01  0.55535102296E-01  0.51100000000E-03 0. -1.
         11    1    4    4    0    0  0.60281369806E-01  0.40714675525E-01 -0.27000855174E-01  0.77594043908E-01  0.51100000000E-03 0.  1.
</event>
<event>
 8    1  0.1135368E+005  0.1043930E+01  0.7957747E-01            NaN
         13   -1    0    0    0    0  0.00000000000E+00  0.00000000000E+00  0.74505805969E-08  0.10566000000E+00  0.10566000000E+00 0.  1.
     999900   -1    0    0    0    0 -0.00000000000E+00 -0.00000000000E+00 -0.74505805969E-08  0.93827000000E+00  0.93827000000E+00 0.  1.
     999902    2    1    2    0    0  0.17639155659E-01 -0.13980978859E-01 -0.62333622348E-02  0.10205748638E+01  0.10203075959E+01 0.  0.
     999903    2    3    3    0    0 -0.11594480178E+00 -0.25088021539E-01 -0.47138313261E-01  0.12948493843E+00  0.21719180845E-01 0.  0.
         14    1    1    2    0    0 -0.17639155659E-01  0.13980978859E-01  0.62333622348E-02  0.23355136201E-01  0.00000000000E+00 0. -1.
     999901    1    3    3    0    0  0.13358395744E+00  0.11107042680E-01  0.40904951027E-01  0.89108992537E+00  0.88000000000E+00 0. -1.
        -11    1    4    4    0    0 -0.69836052467E-01 -0.57652577093E-02 -0.21509395361E-01  0.73302303036E-01  0.51100000000E-03 0.  1.
         11    1    4    4    0    0 -0.46108749317E-01 -0.19322763830E-01 -0.25628917900E-01  0.56182635390E-01  0.51100000000E-03 0. -1.
</event>
<event>
 8    1  0.1135368E+005  0.1043930E+01  0.7957747E-01            NaN
         13   -1    0    0    0    0  0.00000000000E+00  0.00000000000E+00  0.74505805969E-08  0.10566000000E+00  0.10566000000E+00 0. -1.
     999900   -1    0    0    0    0 -0.00000000000E+00 -0.00000000000E+00 -0.74505805969E-08  0.93827000000E+00  0.93827000000E+00 0. -1.
     999902    2    1    2    0    0 -0.10666127601E-02  0.31439410132E-01 -0.15910122356E-01  0.10086779622E+01  0.10080617666E+01 0.  0.
     999903    2    3    3    0    0  0.20499903017E-01 -0.36247899060E-01 -0.11161419674E+00  0.12064307764E+00  0.19049069737E-01 0.  0.
         14    1    1    2    0    0  0.10666127601E-02 -0.31439410132E-01  0.15910122356E-01  0.35252037751E-01  0.00000000000E+00 0. -1.
     999901    1    3    3    0    0 -0.21566515778E-01  0.67687309192E-01  0.95704074387E-01  0.88803488461E+00  0.88000000000E+00 0.  1.
        -11    1    4    4    0    0 -0.46584718501E-03  0.98038924514E-03 -0.14436221011E-01  0.14485985460E-01  0.51100000000E-03 0.  1.
         11    1    4    4    0    0  0.20965750202E-01 -0.37228288305E-01 -0.97177975732E-01  0.10615709218E+00  0.51100000000E-03 0. -1.
</event>
<event>
 8    1  0.1135368E+005  0.1043930E+01  0.7957747E-01            NaN
         13   -1    0    0    0    0  0.00000000000E+00  0.00000000000E+00  0.74505805969E-08  0.10566000000E+00  0.10566000000E+00 0. -1.
     999900   -1    0    0    0    0 -0.00000000000E+00 -0.00000000000E+00 -0.74505805969E-08  0.93827000000E+00  0.93827000000E+00 0. -1.
     999902    2    1    2    0    0  0.17782978796E-01 -0.14940095514E-01  0.26975239860E-02  0.10205480107E+01  0.10202801207E+01 0.  0.
     999903    2    3    3    0    0 -0.96577426284E-01 -0.36655015818E-01  0.76005324146E-01  0.12986070664E+00  0.20401087685E-01 0.  0.
         14    1    1    2    0    0 -0.17782978796E-01  0.14940095514E-01 -0.26975239860E-02  0.23381989318E-01  0.00000000000E+00 0.  1.
     999901    1    3    3    0    0  0.11436040508E+00  0.21714920304E-01 -0.73307800160E-01  0.89068730404E+00  0.88000000000E+00 0.  1.
        -11    1    4    4    0    0 -0.23386844225E-01 -0.16855743167E-01  0.14753671738E-01  0.32388153873E-01  0.51100000000E-03 0. -1.
         11    1    4    4    0    0 -0.73190582059E-01 -0.19799272650E-01  0.61251652408E-01  0.97472552769E-01  0.51100000000E-03 0.  1.
</event>
<event>
 8    1  0.1135368E+005  0.1043930E+01  0.7957747E-01            NaN
         13   -1    0    0    0    0  0.00000000000E+00  0.00000000000E+00  0.74505805969E-08  0.10566000000E+00  0.10566000000E+00 0. -1.
     999900   -1    0    0    0    0 -0.00000000000E+00 -0.00000000000E+00 -0.74505805969E-08  0.93827000000E+00  0.93827000000E+00 0.  1.
     999902    2    1    2    0    0 -0.78805806779E-02 -0.17514669736E-01 -0.13325269377E-01  0.10205541575E+01  0.10202864100E+01 0.  0.
     999903    2    3    3    0    0 -0.68259284123E-01  0.70103595167E-01 -0.84782948541E-01  0.13126863077E+00  0.21667051855E-01 0.  0.
         14    1    1    2    0    0  0.78805806779E-02  0.17514669736E-01  0.13325269377E-01  0.23375842483E-01  0.00000000000E+00 0. -1.
     999901    1    3    3    0    0  0.60378703445E-01 -0.87618264904E-01  0.71457679164E-01  0.88928552675E+00  0.88000000000E+00 0. -1.
        -11    1    4    4    0    0 -0.19757086215E-01  0.23661581413E-01 -0.40210376978E-01  0.50669008559E-01  0.51100000000E-03 0.  1.
         11    1    4    4    0    0 -0.48502197908E-01  0.46442013754E-01 -0.44572571563E-01  0.80599622209E-01  0.51100000000E-03 0. -1.
</event>
<event>
 8    1  0.1135368E+005  0.1043930E+01  0.7957747E-01            NaN
         13   -1    0    0    0    0  0.00000000000E+00  0.00000000000E+00  0.74505805969E-08  0.10566000000E+00  0.10566000000E+00 0.  1.
     999900   -1    0    0    0    0 -0.00000000000E+00 -0.00000000000E+00 -0.74505805969E-08  0.93827000000E+00  0.93827000000E+00 0. -1.
     999902    2    1    2    0    0  0.15172930012E-01  0.18175773822E-01 -0.11051532154E-02  0.10202277233E+01  0.10199523564E+01 0.  0.
     999903    2    3    3    0    0  0.66352493912E-01 -0.10423085337E+00  0.33358863971E-01  0.12961529429E+00  0.20508204848E-01 0.  0.
         14    1    1    2    0    0 -0.15172930012E-01 -0.18175773822E-01  0.11051532154E-02  0.23702276743E-01  0.00000000000E+00 0. -1.
     999901    1    3    3    0    0 -0.51179563901E-01  0.12240662720E+00 -0.34464017186E-01  0.89061242896E+00  0.88000000000E+00 0.  1.
        -11    1    4    4    0    0  0.28768301052E-01 -0.30319746017E-01  0.56001236981E-02  0.42172558025E-01  0.51100000000E-03 0. -1.
         11    1    4    4    0    0  0.37584192861E-01 -0.73911107357E-01  0.27758740273E-01  0.87442736269E-01  0.51100000000E-03 0.  1.
</event>
<event>
 8    1  0.1135368E+005  0.1043930E+01  0.7957747E-01            NaN
         13   -1    0    0    0    0  0.00000000000E+00  0.00000000000E+00  0.74505805969E-08  0.10566000000E+00  0.10566000000E+00 0. -1.
     999900   -1    0    0    0    0 -0.00000000000E+00 -0.00000000000E+00 -0.74505805969E-08  0.93827000000E+00  0.93827000000E+00 0. -1.
     999902    2    1    2    0    0  0.80318620477E-02 -0.20963153555E-01 -0.19567371216E-03  0.10214799910E+01  0.10212332589E+01 0.  0.
     999903    2    3    3    0    0 -0.89022466885E-01  0.75005629981E-01 -0.52435708078E-01  0.12942698174E+00  0.21236665974E-01 0.  0.
         14    1    1    2    0    0 -0.80318620477E-02  0.20963153555E-01  0.19567371216E-03  0.22450008978E-01  0.00000000000E+00 0.  1.
     999901    1    3    3    0    0  0.97054328932E-01 -0.95968783536E-01  0.52240034365E-01  0.89205300928E+00  0.88000000000E+00 0.  1.
        -11    1    4    4    0    0 -0.37192937512E-01  0.39561980871E-01 -0.15053850546E-01  0.56350194928E-01  0.51100000000E-03 0. -1.
         11    1    4    4    0    0 -0.51829529373E-01  0.35443649110E-01 -0.37381857531E-01  0.73076786812E-01  0.51100000000E-03 0.  1.
</event>
<event>
 8    1  0.1135368E+005  0.1043930E+01  0.7957747E-01            NaN
         13   -1    0    0    0    0  0.00000000000E+00  0.00000000000E+00  0.74505805969E-08  0.10566000000E+00  0.10566000000E+00 0. -1.
     999900   -1    0    0    0    0 -0.00000000000E+00 -0.00000000000E+00 -0.74505805969E-08  0.93827000000E+00  0.93827000000E+00 0.  1.
     999902    2    1    2    0    0 -0.71764435230E-02 -0.13842508395E-01  0.17851581460E-01  0.10202277777E+01  0.10199524122E+01 0.  0.
     999903    2    3    3    0    0 -0.20814908619E-01 -0.10619291636E+00 -0.70836843715E-01  0.13085707754E+00  0.19887694945E-01 0.  0.
         14    1    1    2    0    0  0.71764435230E-02  0.13842508395E-01 -0.17851581460E-01  0.23702222278E-01  0.00000000000E+00 0.  1.
     999901    1    3    3    0    0  0.13638465096E-01  0.92350407961E-01  0.88688425175E-01  0.88937070018E+00  0.88000000000E+00 0. -1.
        -11    1    4    4    0    0 -0.62469033532E-02 -0.66175866541E-01 -0.51477803910E-01  0.84074339309E-01  0.51100000000E-03 0.  1.
         11    1    4    4    0    0 -0.14568005266E-01 -0.40017049815E-01 -0.19359039805E-01  0.46782738232E-01  0.51100000000E-03 0. -1.
</event>
<event>
 8    1  0.1135368E+005  0.1043930E+01  0.7957747E-01            NaN
         13   -1    0    0    0    0  0.00000000000E+00  0.00000000000E+00  0.74505805969E-08  0.10566000000E+00  0.10566000000E+00 0.  1.
     999900   -1    0    0    0    0 -0.00000000000E+00 -0.00000000000E+00 -0.74505805969E-08  0.93827000000E+00  0.93827000000E+00 0.  1.
     999902    2    1    2    0    0  0.13710536745E-01 -0.77656733054E-02 -0.11847688539E-01  0.10242157355E+01  0.10240259863E+01 0.  0.
     999903    2    3    3    0    0 -0.72501919627E-01 -0.79876890876E-01  0.74977236298E-01  0.13282851165E+00  0.19620945393E-01 0.  0.
         14    1    1    2    0    0 -0.13710536745E-01  0.77656733054E-02  0.11847688539E-01  0.19714264466E-01  0.00000000000E+00 0.  1.
     999901    1    3    3    0    0  0.86212456372E-01  0.72111217570E-01 -0.86824924838E-01  0.89138722389E+00  0.88000000000E+00 0.  1.
        -11    1    4    4    0    0 -0.42789812219E-01 -0.60591836953E-01  0.52387679135E-01  0.90813373361E-01  0.51100000000E-03 0. -1.
         11    1    4    4    0    0 -0.29712107409E-01 -0.19285053923E-01  0.22589557164E-01  0.42015138287E-01  0.51100000000E-03 0.  1.
</event>
<event>
 8    1  0.1135368E+005  0.1043930E+01  0.7957747E-01            NaN
         13   -1    0    0    0    0  0.00000000000E+00  0.00000000000E+00  0.74505805969E-08  0.10566000000E+00  0.10566000000E+00 0. -1.
     999900   -1    0    0    0    0 -0.00000000000E+00 -0.00000000000E+00 -0.74505805969E-08  0.93827000000E+00  0.93827000000E+00 0.  1.
     999902    2    1    2    0    0 -0.10660231267E-01 -0.13518310574E-01  0.17722856651E-01  0.10192220074E+01  0.10189224776E+01 0.  0.
     999903    2    3    3    0    0  0.28112022846E-01  0.97252137461E-01 -0.73483961066E-01  0.12675796696E+00  0.20479882424E-01 0.  0.
         14    1    1    2    0    0  0.10660231267E-01  0.13518310574E-01 -0.17722856651E-01  0.24707992620E-01  0.00000000000E+00 0.  1.
     999901    1    3    3    0    0 -0.38772254114E-01 -0.11077044804E+00  0.91206817718E-01  0.89246404042E+00  0.88000000000E+00 0. -1.
        -11    1    4    4    0    0  0.10002500017E-02  0.32536555118E-01 -0.29581776726E-01  0.43988300198E-01  0.51100000000E-03 0. -1.
         11    1    4    4    0    0  0.27111772845E-01  0.64715582343E-01 -0.43902184340E-01  0.82769666760E-01  0.51100000000E-03 0.  1.
</event>
<event>
 8    1  0.1135368E+005  0.1043930E+01  0.7957747E-01            NaN
         13   -1    0    0    0    0  0.00000000000E+00  0.00000000000E+00  0.74505805969E-08  0.10566000000E+00  0.10566000000E+00 0. -1.
     999900   -1    0    0    0    0 -0.00000000000E+00 -0.00000000000E+00 -0.74505805969E-08  0.93827000000E+00  0.93827000000E+00 0. -1.
     999902    2    1    2    0    0 -0.11548679439E-01 -0.28967249706E-02  0.19289591859E-01  0.10212617101E+01  0.10210101024E+01 0.  0.
     999903    2    3    3    0    0  0.20514792403E-01 -0.17958216115E-01 -0.12433545299E+00  0.12891476623E+00  0.20404848670E-01 0.  0.
         14    1    1    2    0    0  0.11548679439E-01  0.28967249706E-02 -0.19289591859E-01  0.22668289888E-01  0.00000000000E+00 0. -1.
     999901    1    3    3    0    0 -0.32063471843E-01  0.15061491144E-01  0.14362504485E+00  0.89234694388E+00  0.88000000000E+00 0.  1.
        -11    1    4    4    0    0 -0.80100082244E-03 -0.69369379640E-03 -0.44151598615E-01  0.44167268363E-01  0.51100000000E-03 0. -1.
         11    1    4    4    0    0  0.21315793226E-01 -0.17264522319E-01 -0.80183854376E-01  0.84747497871E-01  0.51100000000E-03 0.  1.
</event>
<event>
 8    1  0.1135368E+005  0.1043930E+01  0.7957747E-01            NaN
         13   -1    0    0    0    0  0.00000000000E+00  0.00000000000E+00  0.74505805969E-08  0.10566000000E+00  0.10566000000E+00 0.  1.
     999900   -1    0    0    0    0 -0.00000000000E+00 -0.00000000000E+00 -0.74505805969E-08  0.93827000000E+00  0.93827000000E+00 0.  1.
     999902    2    1    2    0    0 -0.59110220935E-02  0.22799081047E-01  0.39355188305E-03  0.10203738296E+01  0.10201018866E+01 0.  0.
     999903    2    3    3    0    0 -0.35848419450E-01  0.72859012524E-01 -0.10264391443E+00  0.13244423561E+00  0.20301662337E-01 0.  0.
         14    1    1    2    0    0  0.59110220935E-02 -0.22799081047E-01 -0.39355188305E-03  0.23556170356E-01  0.00000000000E+00 0. -1.
     999901    1    3    3    0    0  0.29937397357E-01 -0.50059931478E-01  0.10303746631E+00  0.88792959404E+00  0.88000000000E+00 0. -1.
        -11    1    4    4    0    0 -0.18213301014E-01  0.23399572933E-01 -0.25433866961E-01  0.39069259743E-01  0.51100000000E-03 0. -1.
         11    1    4    4    0    0 -0.17635118436E-01  0.49459439591E-01 -0.77210047467E-01  0.93374975865E-01  0.51100000000E-03 0.  1.
</event>
<event>
 8    1  0.1135368E+005  0.1043930E+01  0.7957747E-01            NaN
         13   -1    0    0    0    0  0.00000000000E+00  0.00000000000E+00  0.74505805969E-08  0.10566000000E+00  0.10566000000E+00 0.  1.
     999900   -1    0    0    0    0 -0.00000000000E+00 -0.00000000000E+00 -0.74505805969E-08  0.93827000000E+00  0.93827000000E+00 0. -1.
     999902    2    1    2    0    0 -0.37938111925E-02 -0.20338240481E-01 -0.11991804171E-01  0.10200168154E+01  0.10197364676E+01 0.  0.
     999903    2    3    3    0    0  0.90386533321E-01 -0.81762224751E-01 -0.47609905260E-01  0.13214774160E+00  0.18480685269E-01 0.  0.
         14    1    1    2    0    0  0.37938111925E-02  0.20338240481E-01  0.11991804171E-01  0.23913184575E-01  0.00000000000E+00 0.  1.
     999901    1    3    3    0    0 -0.94180344514E-01  0.61423984269E-01  0.35618101089E-01  0.88786907383E+00  0.88000000000E+00 0.  1.
        -11    1    4    4    0    0  0.70470296203E-01 -0.63477716821E-01 -0.28499831162E-01  0.99035269863E-01  0.51100000000E-03 0.  1.
         11    1    4    4    0    0  0.19916237119E-01 -0.18284507930E-01 -0.19110074098E-01  0.33112471733E-01  0.51100000000E-03 0. -1.
</event>
<event>
 8    1  0.1135368E+005  0.1043930E+01  0.7957747E-01            NaN
         13   -1    0    0    0    0  0.00000000000E+00  0.00000000000E+00  0.74505805969E-08  0.10566000000E+00  0.10566000000E+00 0. -1.
     999900   -1    0    0    0    0 -0.00000000000E+00 -0.00000000000E+00 -0.74505805969E-08  0.93827000000E+00  0.93827000000E+00 0. -1.
     999902    2    1    2    0    0 -0.17693028470E-01  0.68210317395E-02 -0.69282434958E-02  0.10237416299E+01  0.10235425514E+01 0.  0.
     999903    2    3    3    0    0  0.11831277295E+00 -0.42030010542E-01  0.32051893238E-01  0.13110315131E+00  0.19906742436E-01 0.  0.
         14    1    1    2    0    0  0.17693028470E-01 -0.68210317395E-02  0.69282434958E-02  0.20188370127E-01  0.00000000000E+00 0.  1.
     999901    1    3    3    0    0 -0.13600580142E+00  0.48851042281E-01 -0.38980136734E-01  0.89263847856E+00  0.88000000000E+00 0.  1.
        -11    1    4    4    0    0  0.30750502717E-01 -0.23345992139E-02  0.10445118215E-01  0.32563866269E-01  0.51100000000E-03 0. -1.
         11    1    4    4    0    0  0.87562270232E-01 -0.39695411328E-01  0.21606775023E-01  0.98539285042E-01  0.51100000000E-03 0.  1.
</event>
<event>
 8    1  0.1135368E+005  0.1043930E+01  0.7957747E-01            NaN
         13   -1    0    0    0    0  0.00000000000E+00  0.00000000000E+00  0.74505805969E-08  0.10566000000E+00  0.10566000000E+00 0.  1.
     999900   -1    0    0    0    0 -0.00000000000E+00 -0.00000000000E+00 -0.74505805969E-08  0.93827000000E+00  0.93827000000E+00 0.  1.
     999902    2    1    2    0    0 -0.26007784876E-02 -0.19288969957E-01 -0.12940399795E-01  0.10205573160E+01  0.10202896417E+01 0.  0.
     999903    2    3    3    0    0  0.12874409709E+00 -0.56363643443E-03  0.60790388647E-02  0.13040909603E+00  0.19854908508E-01 0.  0.
         14    1    1    2    0    0  0.26007784876E-02  0.19288969957E-01  0.12940399795E-01  0.23372684005E-01  0.00000000000E+00 0. -1.
     999901    1    3    3    0    0 -0.13134487558E+00 -0.18725333523E-01 -0.19019438660E-01  0.89014821996E+00  0.88000000000E+00 0. -1.
        -11    1    4    4    0    0  0.80814799710E-01 -0.35367070673E-02 -0.52595864941E-02  0.81064570067E-01  0.51100000000E-03 0.  1.
         11    1    4    4    0    0  0.47929297383E-01  0.29730706329E-02  0.11338625359E-01  0.49344525964E-01  0.51100000000E-03 0. -1.
</event>
<event>
 8    1  0.1135368E+005  0.1043930E+01  0.7957747E-01            NaN
         13   -1    0    0    0    0  0.00000000000E+00  0.00000000000E+00  0.74505805969E-08  0.10566000000E+00  0.10566000000E+00 0.  1.
     999900   -1    0    0    0    0 -0.00000000000E+00 -0.00000000000E+00 -0.74505805969E-08  0.93827000000E+00  0.93827000000E+00 0.  1.
     999902    2    1    2    0    0  0.58413929029E-02  0.17457078838E-01  0.14762051625E-01  0.10203336096E+01  0.10200607262E+01 0.  0.
     999903    2    3    3    0    0  0.11244349058E+00  0.57092936412E-01  0.34980455395E-01  0.13278429135E+00  0.22469842182E-01 0.  0.
         14    1    1    2    0    0 -0.58413929029E-02 -0.17457078838E-01 -0.14762051625E-01  0.23596390418E-01  0.00000000000E+00 0. -1.
     999901    1    3    3    0    0 -0.10660209768E+00 -0.39635857573E-01 -0.20218403770E-01  0.88754931823E+00  0.88000000000E+00 0.  1.
        -11    1    4    4    0    0  0.30319979936E-01  0.23259169082E-01  0.18450099741E-01  0.42437688806E-01  0.51100000000E-03 0. -1.
         11    1    4    4    0    0  0.82123510648E-01  0.33833767329E-01  0.16530355655E-01  0.90346602548E-01  0.51100000000E-03 0.  1.
</event>
<event>
 8    1  0.1135368E+005  0.1043930E+01  0.7957747E-01            NaN
         13   -1    0    0    0    0  0.00000000000E+00  0.00000000000E+00  0.74505805969E-08  0.10566000000E+00  0.10566000000E+00 0.  1.
     999900   -1    0    0    0    0 -0.00000000000E+00 -0.00000000000E+00 -0.74505805969E-08  0.93827000000E+00  0.93827000000E+00 0. -1.
     999902    2    1    2    0    0  0.16454194288E-01  0.23185820166E-02 -0.16691761950E-01  0.10203772666E+01  0.10201054039E+01 0.  0.
     999903    2    3    3    0    0 -0.95848489486E-01  0.14078027170E-01  0.80652483535E-01  0.12783814734E+00  0.21275456022E-01 0.  0.
         14    1    1    2    0    0 -0.16454194288E-01 -0.23185820166E-02  0.16691761950E-01  0.23552733371E-01  0.00000000000E+00 0.  1.
     999901    1    3    3    0    0  0.11230268377E+00 -0.11759445154E-01 -0.97344245486E-01  0.89253911929E+00  0.88000000000E+00 0. -1.
        -11    1    4    4    0    0 -0.88126047478E-01  0.15469636490E-01  0.65911632874E-01  0.11113106841E+00  0.51100000000E-03 0.  1.
         11    1    4    4    0    0 -0.77224420078E-02 -0.13916093197E-02  0.14740850661E-01  0.16707078927E-01  0.51100000000E-03 0. -1.
</event>
<event>
 8    1  0.1170865E+005  0.1043930E+01  0.7957747E-01            NaN
         13   -1    0    0    0    0  0.00000000000E+00  0.00000000000E+00  0.74505805969E-08  0.10566000000E+00  0.10566000000E+00 0.  1.
     999900   -1    0    0    0    0 -0.00000000000E+00 -0.00000000000E+00 -0.74505805969E-08  0.93827000000E+00  0.93827000000E+00 0. -1.
     999902    2    1    2    0    0 -0.40815447983E-03  0.15244513148E-01 -0.19835530540E-01  0.10189098073E+01  0.10186025650E+01 0.  0.
     999903    2    3    3    0    0 -0.25405803015E-01  0.58018982252E-02 -0.12784874561E+00  0.13190309929E+00  0.19339312315E-01 0.  0.
         14    1    1    2    0    0  0.40815447983E-03 -0.15244513148E-01  0.19835530540E-01  0.25020192705E-01  0.00000000000E+00 0.  1.
     999901    1    3    3    0    0  0.24997648535E-01  0.94426149227E-02  0.10801321506E+00  0.88700670800E+00  0.88000000000E+00 0.  1.
        -11    1    4    4    0    0 -0.56523290501E-03  0.77944905774E-03 -0.50398252167E-01  0.50410038401E-01  0.51100000000E-03 0. -1.
         11    1    4    4    0    0 -0.24840570110E-01  0.50224491675E-02 -0.77450493438E-01  0.81493060893E-01  0.51100000000E-03 0.  1.
</event>
<event>
 8    1  0.1135368E+005  0.1043930E+01  0.7957747E-01            NaN
         13   -1    0    0    0    0  0.00000000000E+00  0.00000000000E+00  0.74505805969E-08  0.10566000000E+00  0.10566000000E+00 0.  1.
     999900   -1    0    0    0    0 -0.00000000000E+00 -0.00000000000E+00 -0.74505805969E-08  0.93827000000E+00  0.93827000000E+00 0. -1.
     999902    2    1    2    0    0  0.40850160757E-02  0.99090258079E-02 -0.20904418952E-01  0.10204380678E+01  0.10201676231E+01 0.  0.
     999903    2    3    3    0    0  0.19119264035E-01 -0.31604574537E-01 -0.12577041120E+00  0.13311271370E+00  0.23160371897E-01 0.  0.
         14    1    1    2    0    0 -0.40850160757E-02 -0.99090258079E-02  0.20904418952E-01  0.23491932244E-01  0.00000000000E+00 0.  1.
     999901    1    3    3    0    0 -0.15034247959E-01  0.41513600345E-01  0.10486599224E+00  0.88732535406E+00  0.88000000000E+00 0.  1.
        -11    1    4    4    0    0  0.14660879986E-01 -0.36219396149E-02 -0.38652152672E-01  0.41500721388E-01  0.51100000000E-03 0. -1.
         11    1    4    4    0    0  0.44583840486E-02 -0.27982634922E-01 -0.87118258525E-01  0.91611992310E-01  0.51100000000E-03 0.  1.
</event>
<event>
 8    1  0.1135368E+005  0.1043930E+01  0.7957747E-01            NaN
         13   -1    0    0    0    0  0.00000000000E+00  0.00000000000E+00  0.74505805969E-08  0.10566000000E+00  0.10566000000E+00 0. -1.
     999900   -1    0    0    0    0 -0.00000000000E+00 -0.00000000000E+00 -0.74505805969E-08  0.93827000000E+00  0.93827000000E+00 0.  1.
     999902    2    1    2    0    0  0.20872574728E-01  0.99062863403E-02  0.39513065619E-02  0.10204904670E+01  0.10202212414E+01 0.  0.
     999903    2    3    3    0    0  0.83358389913E-01  0.10233522847E+00  0.46885763603E-02  0.13344586268E+00  0.19096998796E-01 0.  0.
         14    1    1    2    0    0 -0.20872574728E-01 -0.99062863403E-02 -0.39513065619E-02  0.23439533024E-01  0.00000000000E+00 0.  1.
     999901    1    3    3    0    0 -0.62485815185E-01 -0.92428942131E-01 -0.73726979836E-03  0.88704460430E+00  0.88000000000E+00 0.  1.
        -11    1    4    4    0    0  0.43569697333E-01  0.49486853983E-01  0.11539940896E-01  0.66938020584E-01  0.51100000000E-03 0. -1.
         11    1    4    4    0    0  0.39788692580E-01  0.52848374489E-01 -0.68513645358E-02  0.66507842096E-01  0.51100000000E-03 0.  1.
</event>
<event>
 8    1  0.1135368E+005  0.1043930E+01  0.7957747E-01            NaN
         13   -1    0    0    0    0  0.00000000000E+00  0.00000000000E+00  0.74505805969E-08  0.10566000000E+00  0.10566000000E+00 0.  1.
     999900   -1    0    0    0    0 -0.00000000000E+00 -0.00000000000E+00 -0.74505805969E-08  0.93827000000E+00  0.93827000000E+00 0.  1.
     999902    2    1    2    0    0 -0.22503034525E-01 -0.24243255081E-02  0.48334523266E-02  0.10207864009E+01  0.10205240076E+01 0.  0.
     999903    2    3    3    0    0 -0.64671668256E-01  0.92111146910E-01 -0.65503816404E-01  0.13193181181E+00  0.21174629695E-01 0.  0.
         14    1    1    2    0    0  0.22503034525E-01  0.24243255081E-02 -0.48334523266E-02  0.23143599081E-01  0.00000000000E+00 0. -1.
     999901    1    3    3    0    0  0.42168633731E-01 -0.94535472418E-01  0.70337268730E-01  0.88885458911E+00  0.88000000000E+00 0. -1.
        -11    1    4    4    0    0 -0.32709526058E-01  0.47534061110E-01 -0.45715501830E-01  0.73617717223E-01  0.51100000000E-03 0. -1.
         11    1    4    4    0    0 -0.31962142198E-01  0.44577085800E-01 -0.19788314574E-01  0.58314094583E-01  0.51100000000E-03 0.  1.
</event>
<event>
 8    1  0.1135368E+005  0.1043930E+01  0.7957747E-01            NaN
         13   -1    0    0    0    0  0.00000000000E+00  0.00000000000E+00  0.74505805969E-08  0.10566000000E+00  0.10566000000E+00 0.  1.
     999900   -1    0    0    0    0 -0.00000000000E+00 -0.00000000000E+00 -0.74505805969E-08  0.93827000000E+00  0.93827000000E+00 0.  1.
     999902    2    1    2    0    0 -0.22047884584E-01  0.49556543820E-02 -0.81861342260E-02  0.10198950147E+01  0.10196117695E+01 0.  0.
     999903    2    3    3    0    0  0.31428825261E-03  0.41906234898E-01 -0.12297608474E+00  0.13138944639E+00  0.19591781553E-01 0.  0.
         14    1    1    2    0    0  0.22047884584E-01 -0.49556543820E-02  0.81861342260E-02  0.24034985304E-01  0.00000000000E+00 0. -1.
     999901    1    3    3    0    0 -0.22362172837E-01 -0.36950580516E-01  0.11478995051E+00  0.88850556831E+00  0.88000000000E+00 0. -1.
        -11    1    4    4    0    0  0.73192009348E-02  0.34430849407E-01 -0.83830404755E-01  0.90922230371E-01  0.51100000000E-03 0.  1.
         11    1    4    4    0    0 -0.70049126822E-02  0.74753854916E-02 -0.39145679982E-01  0.40467216018E-01  0.51100000000E-03 0. -1.
</event>
<event>
 8    1  0.1135368E+005  0.1043930E+01  0.7957747E-01            NaN
         13   -1    0    0    0    0  0.00000000000E+00  0.00000000000E+00  0.74505805969E-08  0.10566000000E+00  0.10566000000E+00 0.  1.
     999900   -1    0    0    0    0 -0.00000000000E+00 -0.00000000000E+00 -0.74505805969E-08  0.93827000000E+00  0.93827000000E+00 0. -1.
     999902    2    1    2    0    0 -0.18461530757E-01  0.17716107460E-01 -0.86577266180E-02  0.10169180617E+01  0.10165592454E+01 0.  0.
     999903    2    3    3    0    0 -0.60538276725E-01 -0.31782345004E-01 -0.10756809604E+00  0.12899700071E+00  0.19857756729E-01 0.  0.
         14    1    1    2    0    0  0.18461530757E-01 -0.17716107460E-01  0.86577266180E-02  0.27011938316E-01  0.00000000000E+00 0.  1.
     999901    1    3    3    0    0  0.42076745968E-01  0.49498452464E-01  0.98910369424E-01  0.88792106098E+00  0.88000000000E+00 0.  1.
        -11    1    4    4    0    0 -0.53259702752E-01 -0.20407276952E-01 -0.79495706968E-01  0.97841103005E-01  0.51100000000E-03 0. -1.
         11    1    4    4    0    0 -0.72785739730E-02 -0.11375068052E-01 -0.28072389074E-01  0.31155897701E-01  0.51100000000E-03 0.  1.
</event>
<event>
 8    1  0.1135368E+005  0.1043930E+01  0.7957747E-01            NaN
         13   -1    0    0    0    0  0.00000000000E+00  0.00000000000E+00  0.74505805969E-08  0.10566000000E+00  0.10566000000E+00 0. -1.
     999900   -1    0    0    0    0 -0.00000000000E+00 -0.00000000000E+00 -0.74505805969E-08  0.93827000000E+00  0.93827000000E+00 0.  1.
     999902    2    1    2    0    0 -0.68116912679E-02  0.16886951977E-01 -0.14607136912E-01  0.10205861200E+01  0.10203191126E+01 0.  0.
     999903    2    3    3    0    0  0.34342884766E-01  0.10050283943E+00 -0.77954327933E-01  0.13340058000E+00  0.20942374105E-01 0.  0.
         14    1    1    2    0    0  0.68116912679E-02 -0.16886951977E-01  0.14607136912E-01  0.23343880007E-01  0.00000000000E+00 0. -1.
     999901    1    3    3    0    0 -0.41154576034E-01 -0.83615887453E-01  0.63347191022E-01  0.88718553999E+00  0.88000000000E+00 0. -1.
        -11    1    4    4    0    0  0.55290515666E-02  0.33726296736E-01 -0.35059001591E-01  0.48963539663E-01  0.51100000000E-03 0. -1.
         11    1    4    4    0    0  0.28813833199E-01  0.66776542695E-01 -0.42895326342E-01  0.84437040337E-01  0.51100000000E-03 0.  1.
</event>
<event>
 8    1  0.1135368E+005  0.1043930E+01  0.7957747E-01            NaN
         13   -1    0    0    0    0  0.00000000000E+00  0.00000000000E+00  0.74505805969E-08  0.10566000000E+00  0.10566000000E+00 0. -1.
     999900   -1    0    0    0    0 -0.00000000000E+00 -0.00000000000E+00 -0.74505805969E-08  0.93827000000E+00  0.93827000000E+00 0.  1.
     999902    2    1    2    0    0  0.13759548574E-01  0.32014397745E-04  0.18890427089E-01  0.10205596248E+01  0.10202920039E+01 0.  0.
     999903    2    3    3    0    0  0.10569571581E+00 -0.34743538345E-01 -0.66269391344E-01  0.13100142400E+00  0.19774808843E-01 0.  0.
         14    1    1    2    0    0 -0.13759548574E-01 -0.32014397745E-04 -0.18890427089E-01  0.23370375210E-01  0.00000000000E+00 0.  1.
     999901    1    3    3    0    0 -0.91936167233E-01  0.34775552742E-01  0.85159818432E-01  0.88955820079E+00  0.88000000000E+00 0. -1.
        -11    1    4    4    0    0  0.91053992504E-01 -0.24719378491E-01 -0.49349244074E-01  0.10647763256E+00  0.51100000000E-03 0.  1.
         11    1    4    4    0    0  0.14641723303E-01 -0.10024159853E-01 -0.16920147270E-01  0.24523791442E-01  0.51100000000E-03 0. -1.
</event>
<event>
 8    1  0.1135368E+005  0.1043930E+01  0.7957747E-01            NaN
         13   -1    0    0    0    0  0.00000000000E+00  0.00000000000E+00  0.74505805969E-08  0.10566000000E+00  0.10566000000E+00 0.  1.
     999900   -1    0    0    0    0 -0.00000000000E+00 -0.00000000000E+00 -0.74505805969E-08  0.93827000000E+00  0.93827000000E+00 0. -1.
     999902    2    1    2    0    0 -0.53646074824E-02 -0.63797479905E-02  0.25049162616E-01  0.10175303647E+01  0.10171878402E+01 0.  0.
     999903    2    3    3    0    0 -0.58903360729E-02  0.12131951861E+00 -0.28772806685E-01  0.12668571858E+00  0.21639668032E-01 0.  0.
         14    1    1    2    0    0  0.53646074824E-02  0.63797479905E-02 -0.25049162616E-01  0.26399635331E-01  0.00000000000E+00 0. -1.
     999901    1    3    3    0    0  0.52572859056E-03 -0.12769926660E+00  0.53821969301E-01  0.89084464609E+00  0.88000000000E+00 0. -1.
        -11    1    4    4    0    0 -0.77579367933E-02  0.11344134930E+00 -0.31728907975E-01  0.11805130256E+00  0.51100000000E-03 0.  1.
         11    1    4    4    0    0  0.18676007204E-02  0.78781693126E-02  0.29561012893E-02  0.86344160197E-02  0.51100000000E-03 0. -1.
</event>
<event>
 8    1  0.1135368E+005  0.1043930E+01  0.7957747E-01            NaN
         13   -1    0    0    0    0  0.00000000000E+00  0.00000000000E+00  0.74505805969E-08  0.10566000000E+00  0.10566000000E+00 0. -1.
     999900   -1    0    0    0    0 -0.00000000000E+00 -0.00000000000E+00 -0.74505805969E-08  0.93827000000E+00  0.93827000000E+00 0.  1.
     999902    2    1    2    0    0 -0.31123437705E-02  0.68486156075E-02  0.21847813127E-01  0.10208233525E+01  0.10205618060E+01 0.  0.
     999903    2    3    3    0    0 -0.65441077978E-01 -0.58661437361E-01  0.98112015408E-01  0.13290856680E+00  0.17748820829E-01 0.  0.
         14    1    1    2    0    0  0.31123437705E-02 -0.68486156075E-02 -0.21847813127E-01  0.23106647483E-01  0.00000000000E+00 0.  1.
     999901    1    3    3    0    0  0.62328734208E-01  0.65510052969E-01 -0.76264202281E-01  0.88791478572E+00  0.88000000000E+00 0.  1.
        -11    1    4    4    0    0 -0.43716417741E-01 -0.31917091321E-01  0.49709219626E-01  0.73492132473E-01  0.51100000000E-03 0.  1.
         11    1    4    4    0    0 -0.21724660237E-01 -0.26744346040E-01  0.48402795781E-01  0.59416434326E-01  0.51100000000E-03 0. -1.
</event>
<event>
 7    1  0.1135368E+005  0.1043930E+01  0.7957747E-01            NaN
         13   -1    0    0    0    0  0.00000000000E+00  0.00000000000E+00  0.74505805969E-08  0.10566000000E+00  0.10566000000E+00 0. -1.
     999900   -1    0    0    0    0 -0.00000000000E+00 -0.00000000000E+00 -0.74505805969E-08  0.93827000000E+00  0.93827000000E+00 0.  1.
     999903    2    1    2    0    0 -0.96266897482E-01  0.22125833048E-01 -0.12024536771E-01  0.10138144056E+00  0.19409764701E-01 0.  0.
         14    1    1    2    0    0  0.49895250697E-01 -0.32373170384E-01  0.14687500685E-01  0.61264025979E-01  0.00000000000E+00 0. -1.
     999901    1    1    2    0    0  0.46371646785E-01  0.10247337336E-01 -0.26629639138E-02  0.88128453347E+00  0.88000000000E+00 0. -1.
        -11    1    3    3    0    0 -0.34129791000E-01  0.29834339116E-02 -0.12168623179E-01  0.36360418351E-01  0.51100000000E-03 0.  1.
         11    1    3    3    0    0 -0.62137106482E-01  0.19142399136E-01  0.14408640746E-03  0.65021022205E-01  0.51100000000E-03 0. -1.
</event>
<event>
 8    1  0.1135368E+005  0.1043930E+01  0.7957747E-01            NaN
         13   -1    0    0    0    0  0.00000000000E+00  0.00000000000E+00  0.74505805969E-08  0.10566000000E+00  0.10566000000E+00 0.  1.
     999900   -1    0    0    0    0 -0.00000000000E+00 -0.00000000000E+00 -0.74505805969E-08  0.93827000000E+00  0.93827000000E+00 0.  1.
     999902    2    1    2    0    0  0.13058341641E-02 -0.23529398781E-01 -0.55767732146E-02  0.10197135137E+01  0.10194259227E+01 0.  0.
     999903    2    3    3    0    0  0.42429227888E-01 -0.12290245902E+00 -0.20514968362E-01  0.13304035616E+00  0.19329216899E-01 0.  0.
         14    1    1    2    0    0 -0.13058341641E-02  0.23529398781E-01  0.55767732146E-02  0.24216486313E-01  0.00000000000E+00 0.  1.
     999901    1    3    3    0    0 -0.41123393724E-01  0.99373060243E-01  0.14938195148E-01  0.88667315753E+00  0.88000000000E+00 0. -1.
        -11    1    4    4    0    0  0.32420580939E-01 -0.10191673458E+00 -0.23763897589E-01  0.10955865464E+00  0.51100000000E-03 0.  1.
         11    1    4    4    0    0  0.10008646949E-01 -0.20985724442E-01  0.32489292267E-02  0.23481701519E-01  0.51100000000E-03 0. -1.
</event>
<event>
 8    1  0.1135368E+005  0.1043930E+01  0.7957747E-01            NaN
         13   -1    0    0    0    0  0.00000000000E+00  0.00000000000E+00  0.74505805969E-08  0.10566000000E+00  0.10566000000E+00 0. -1.
     999900   -1    0    0    0    0 -0.00000000000E+00 -0.00000000000E+00 -0.74505805969E-08  0.93827000000E+00  0.93827000000E+00 0.  1.
     999902    2    1    2    0    0  0.18898416583E-01 -0.96104486562E-02  0.11168963663E-01  0.10199663479E+01  0.10196848014E+01 0.  0.
     999903    2    3    3    0    0 -0.89850945965E-01 -0.84175112721E-01 -0.32922647444E-01  0.12905087315E+00  0.20287559068E-01 0.  0.
         14    1    1    2    0    0 -0.18898416583E-01  0.96104486562E-02 -0.11168963663E-01  0.23963652101E-01  0.00000000000E+00 0. -1.
     999901    1    3    3    0    0  0.10874936255E+00  0.74564664065E-01  0.44091611107E-01  0.89091547475E+00  0.88000000000E+00 0. -1.
        -11    1    4    4    0    0 -0.29738262006E-01 -0.29685372956E-01 -0.15166045823E-02  0.42049337749E-01  0.51100000000E-03 0. -1.
         11    1    4    4    0    0 -0.60112683959E-01 -0.54489739765E-01 -0.31406042862E-01  0.87001535398E-01  0.51100000000E-03 0.  1.
</event>
<event>
 8    1  0.1135368E+005  0.1043930E+01  0.7957747E-01            NaN
         13   -1    0    0    0    0  0.00000000000E+00  0.00000000000E+00  0.74505805969E-08  0.10566000000E+00  0.10566000000E+00 0. -1.
     999900   -1    0    0    0    0 -0.00000000000E+00 -0.00000000000E+00 -0.74505805969E-08  0.93827000000E+00  0.93827000000E+00 0. -1.
     999902    2    1    2    0    0 -0.16298351432E-01  0.12667210154E-01  0.11465805102E-01  0.10203173094E+01  0.10200440445E+01 0.  0.
     999903    2    3    3    0    0  0.12495301677E+00 -0.39170264950E-02 -0.23043734791E-01  0.12823104993E+00  0.16840099703E-01 0.  0.
         14    1    1    2    0    0  0.16298351432E-01 -0.12667210154E-01 -0.11465805102E-01  0.23612690637E-01  0.00000000000E+00 0.  1.
     999901    1    3    3    0    0 -0.14125136820E+00  0.16584236649E-01  0.34509539892E-01  0.89208625943E+00  0.88000000000E+00 0. -1.
        -11    1    4    4    0    0  0.44650875065E-01  0.52511710627E-02 -0.12874030330E-01  0.46768335651E-01  0.51100000000E-03 0.  1.
         11    1    4    4    0    0  0.80302141700E-01 -0.91681975576E-02 -0.10169704461E-01  0.81462714280E-01  0.51100000000E-03 0. -1.
</event>
<event>
 8    1  0.1135368E+005  0.1043930E+01  0.7957747E-01            NaN
         13   -1    0    0    0    0  0.00000000000E+00  0.00000000000E+00  0.74505805969E-08  0.10566000000E+00  0.10566000000E+00 0.  1.
     999900   -1    0    0    0    0 -0.00000000000E+00 -0.00000000000E+00 -0.74505805969E-08  0.93827000000E+00  0.93827000000E+00 0. -1.
     999902    2    1    2    0    0  0.93263880822E-02  0.20011019669E-02 -0.20505740896E-01  0.10213142680E+01  0.10210638387E+01 0.  0.
     999903    2    3    3    0    0  0.54500886040E-02  0.56260003581E-01  0.11459660417E+00  0.12934358590E+00  0.20062154883E-01 0.  0.
         14    1    1    2    0    0 -0.93263880822E-02 -0.20011019669E-02  0.20505740896E-01  0.22615731990E-01  0.00000000000E+00 0.  1.
     999901    1    3    3    0    0  0.38762994781E-02 -0.54258901614E-01 -0.13510234506E+00  0.89197068211E+00  0.88000000000E+00 0. -1.
        -11    1    4    4    0    0  0.97502159193E-02  0.22177214500E-01  0.61493459386E-01  0.66095402425E-01  0.51100000000E-03 0.  1.
         11    1    4    4    0    0 -0.43001273152E-02  0.34082789081E-01  0.53103144780E-01  0.63248183476E-01  0.51100000000E-03 0. -1.
</event>
<event>
 8    1  0.1135368E+005  0.1043930E+01  0.7957747E-01            NaN
         13   -1    0    0    0    0  0.00000000000E+00  0.00000000000E+00  0.74505805969E-08  0.10566000000E+00  0.10566000000E+00 0. -1.
     999900   -1    0    0    0    0 -0.00000000000E+00 -0.00000000000E+00 -0.74505805969E-08  0.93827000000E+00  0.93827000000E+00 0.  1.
     999902    2    1    2    0    0 -0.19372943160E-01 -0.39349311453E-02 -0.14637762934E-01  0.10193320588E+01  0.10190352238E+01 0.  0.
     999903    2    3    3    0    0  0.58154378592E-01 -0.87250878372E-01 -0.74247081825E-01  0.13000348979E+00  0.19840127816E-01 0.  0.
         14    1    1    2    0    0  0.19372943160E-01  0.39349311453E-02  0.14637762934E-01  0.24597941245E-01  0.00000000000E+00 0.  1.
     999901    1    3    3    0    0 -0.77527321751E-01  0.83315947227E-01  0.59609318891E-01  0.88932856897E+00  0.88000000000E+00 0. -1.
        -11    1    4    4    0    0  0.34444660433E-01 -0.41237938747E-01 -0.47590550799E-01  0.71778296656E-01  0.51100000000E-03 0. -1.
         11    1    4    4    0    0  0.23709718159E-01 -0.46012939625E-01 -0.26656531026E-01  0.58225193133E-01  0.51100000000E-03 0.  1.
</event>
<event>
 7    1  0.1135368E+005  0.1043930E+01  0.7957747E-01            NaN
         13   -1    0    0    0    0  0.00000000000E+00  0.00000000000E+00  0.74505805969E-08  0.10566000000E+00  0.10566000000E+00 0.  1.
     999900   -1    0    0    0    0 -0.00000000000E+00 -0.00000000000E+00 -0.74505805969E-08  0.93827000000E+00  0.93827000000E+00 0. -1.
     999903    2    1    2    0    0 -0.55525012803E-01  0.36875428871E-01 -0.94520351304E-01  0.11734042882E+00  0.19795330861E-01 0.  0.
         14    1    1    2    0    0 -0.20285136805E-01 -0.28535980993E-01  0.19587603127E-01  0.40118115393E-01  0.00000000000E+00 0.  1.
     999901    1    1    2    0    0  0.75810149609E-01 -0.83394478777E-02  0.74932748177E-01  0.88647145579E+00  0.88000000000E+00 0.  1.
        -11    1    3    3    0    0 -0.41527992483E-01  0.36818481574E-01 -0.76684149234E-01  0.94662001932E-01  0.51100000000E-03 0. -1.
         11    1    3    3    0    0 -0.13997020321E-01  0.56947297310E-04 -0.17836202070E-01  0.22678426889E-01  0.51100000000E-03 0.  1.
</event>
<event>
 8    1  0.1135368E+005  0.1043930E+01  0.7957747E-01            NaN
         13   -1    0    0    0    0  0.00000000000E+00  0.00000000000E+00  0.74505805969E-08  0.10566000000E+00  0.10566000000E+00 0.  1.
     999900   -1    0    0    0    0 -0.00000000000E+00 -0.00000000000E+00 -0.74505805969E-08  0.93827000000E+00  0.93827000000E+00 0.  1.
     999902    2    1    2    0    0  0.74619199741E-02 -0.13932054634E-01  0.17376116896E-01  0.10204414531E+01  0.10201710873E+01 0.  0.
     999903    2    3    3    0    0  0.77614140924E-01  0.31123265215E-01 -0.96473626246E-01  0.12919901699E+00  0.19814462421E-01 0.  0.
         14    1    1    2    0    0 -0.74619199741E-02  0.13932054634E-01 -0.17376116896E-01  0.23488546877E-01  0.00000000000E+00 0. -1.
     999901    1    3    3    0    0 -0.70152220950E-01 -0.45055319848E-01  0.11384974314E+00  0.89124243613E+00  0.88000000000E+00 0. -1.
        -11    1    4    4    0    0  0.46202295830E-01  0.26750121948E-01 -0.51624148346E-01  0.74266647815E-01  0.51100000000E-03 0. -1.
         11    1    4    4    0    0  0.31411845094E-01  0.43731432664E-02 -0.44849477900E-01  0.54932369175E-01  0.51100000000E-03 0.  1.
</event>
<event>
 8    1  0.1135368E+005  0.1043930E+01  0.7957747E-01            NaN
         13   -1    0    0    0    0  0.00000000000E+00  0.00000000000E+00  0.74505805969E-08  0.10566000000E+00  0.10566000000E+00 0. -1.
     999900   -1    0    0    0    0 -0.00000000000E+00 -0.00000000000E+00 -0.74505805969E-08  0.93827000000E+00  0.93827000000E+00 0. -1.
     999902    2    1    2    0    0  0.10013300941E-01 -0.13113664755E-01  0.17157712774E-01  0.10201261871E+01  0.10198484280E+01 0.  0.
     999903    2    3    3    0    0  0.71086062443E-02  0.52210910225E-01 -0.11480811004E+00  0.12788702877E+00  0.19941879733E-01 0.  0.
         14    1    1    2    0    0 -0.10013300941E-01  0.13113664755E-01 -0.17157712774E-01  0.23803812860E-01  0.00000000000E+00 0.  1.
     999901    1    3    3    0    0  0.29046946968E-02 -0.65324574980E-01  0.13196582281E+00  0.89223915837E+00  0.88000000000E+00 0.  1.
        -11    1    4    4    0    0  0.31305024503E-02  0.30585201521E-01 -0.87961030645E-01  0.93180784665E-01  0.51100000000E-03 0. -1.
         11    1    4    4    0    0  0.39781037940E-02  0.21625708704E-01 -0.26847079390E-01  0.34706244100E-01  0.51100000000E-03 0.  1.
</event>
<event>
 8    1  0.1135368E+005  0.1043930E+01  0.7957747E-01            NaN
         13   -1    0    0    0    0  0.00000000000E+00  0.00000000000E+00  0.74505805969E-08  0.10566000000E+00  0.10566000000E+00 0. -1.
     999900   -1    0    0    0    0 -0.00000000000E+00 -0.00000000000E+00 -0.74505805969E-08  0.93827000000E+00  0.93827000000E+00 0. -1.
     999902    2    1    2    0    0  0.14758279722E-02 -0.16706402800E-01 -0.36928030278E-02  0.10267568012E+01  0.10266131745E+01 0.  0.
     999903    2    3    3    0    0  0.13387536597E+00 -0.94575240859E-03 -0.18125671508E-01  0.13659594863E+00  0.20159492842E-01 0.  0.
         14    1    1    2    0    0 -0.14758279722E-02  0.16706402800E-01  0.36928030278E-02  0.17173198797E-01  0.00000000000E+00 0. -1.
     999901    1    3    3    0    0 -0.13239953800E+00 -0.15760650392E-01  0.14432868480E-01  0.89016085257E+00  0.88000000000E+00 0.  1.
        -11    1    4    4    0    0  0.66288837295E-01 -0.15219170884E-02  0.11224414552E-02  0.66317774219E-01  0.51100000000E-03 0. -1.
         11    1    4    4    0    0  0.67586528679E-01  0.57616467984E-03 -0.19248112963E-01  0.70278174409E-01  0.51100000000E-03 0.  1.
</event>
<event>
 8    1  0.1135368E+005  0.1043930E+01  0.7957747E-01            NaN
         13   -1    0    0    0    0  0.00000000000E+00  0.00000000000E+00  0.74505805969E-08  0.10566000000E+00  0.10566000000E+00 0.  1.
     999900   -1    0    0    0    0 -0.00000000000E+00 -0.00000000000E+00 -0.74505805969E-08  0.93827000000E+00  0.93827000000E+00 0. -1.
     999902    2    1    2    0    0 -0.17765424536E-01  0.15429303189E-01  0.29487007942E-02  0.10202156891E+01  0.10199400393E+01 0.  0.
     999903    2    3    3    0    0 -0.14131527410E-01  0.82959416639E-01 -0.99390463592E-01  0.13170748653E+00  0.19657896127E-01 0.  0.
         14    1    1    2    0    0  0.17765424536E-01 -0.15429303189E-01 -0.29487007942E-02  0.23714310916E-01  0.00000000000E+00 0.  1.
     999901    1    3    3    0    0 -0.36338971260E-02 -0.67530113450E-01  0.10233916439E+00  0.88850820255E+00  0.88000000000E+00 0.  1.
        -11    1    4    4    0    0 -0.15700200795E-01  0.35108954168E-01 -0.47067560315E-01  0.60784466131E-01  0.51100000000E-03 0. -1.
         11    1    4    4    0    0  0.15686733847E-02  0.47850462471E-01 -0.52322903276E-01  0.70923020403E-01  0.51100000000E-03 0.  1.
</event>
<event>
 8    1  0.1135368E+005  0.1043930E+01  0.7957747E-01            NaN
         13   -1    0    0    0    0  0.00000000000E+00  0.00000000000E+00  0.74505805969E-08  0.10566000000E+00  0.10566000000E+00 0.  1.
     999900   -1    0    0    0    0 -0.00000000000E+00 -0.00000000000E+00 -0.74505805969E-08  0.93827000000E+00  0.93827000000E+00 0.  1.
     999902    2    1    2    0    0 -0.17906124955E-01 -0.13359445934E-01  0.12542169841E-01  0.10183094978E+01  0.10179871430E+01 0.  0.
     999903    2    3    3    0    0  0.59713043362E-01  0.96678984409E-02  0.11209244410E+00  0.12900344761E+00  0.20446458441E-01 0.  0.
         14    1    1    2    0    0  0.17906124955E-01  0.13359445934E-01 -0.12542169841E-01  0.25620502160E-01  0.00000000000E+00 0. -1.
     999901    1    3    3    0    0 -0.77619168317E-01 -0.23027344375E-01 -0.99550274255E-01  0.88930605023E+00  0.88000000000E+00 0.  1.
        -11    1    4    4    0    0  0.11628831388E-01 -0.52242824925E-02  0.15459224577E-01  0.20044240882E-01  0.51100000000E-03 0.  1.
         11    1    4    4    0    0  0.48084211974E-01  0.14892180933E-01  0.96633219520E-01  0.10895920672E+00  0.51100000000E-03 0. -1.
</event>
<event>
 8    1  0.1135368E+005  0.1043930E+01  0.7957747E-01            NaN
         13   -1    0    0    0    0  0.00000000000E+00  0.00000000000E+00  0.74505805969E-08  0.10566000000E+00  0.10566000000E+00 0. -1.
     999900   -1    0    0    0    0 -0.00000000000E+00 -0.00000000000E+00 -0.74505805969E-08  0.93827000000E+00  0.93827000000E+00 0. -1.
     999902    2    1    2    0    0 -0.10702622068E-01 -0.20999557919E-01  0.24349446030E-02  0.10202349265E+01  0.10199597290E+01 0.  0.
     999903    2    3    3    0    0  0.11499416324E+00 -0.52122004049E-01  0.26245358225E-01  0.13043988030E+00  0.19631165507E-01 0.  0.
         14    1    1    2    0    0  0.10702622068E-01  0.20999557919E-01 -0.24349446030E-02  0.23695073479E-01  0.00000000000E+00 0.  1.
     999901    1    3    3    0    0 -0.12569678530E+00  0.31122446129E-01 -0.23810413622E-01  0.88979504622E+00  0.88000000000E+00 0.  1.
        -11    1    4    4    0    0  0.10352537632E+00 -0.42711354029E-01  0.28147223442E-01  0.11547419891E+00  0.51100000000E-03 0.  1.
         11    1    4    4    0    0  0.11468786919E-01 -0.94106500198E-02 -0.19018652166E-02  0.14965681391E-01  0.51100000000E-03 0. -1.
</event>
<event>
 8    1  0.1135368E+005  0.1043930E+01  0.7957747E-01            NaN
         13   -1    0    0    0    0  0.00000000000E+00  0.00000000000E+00  0.74505805969E-08  0.10566000000E+00  0.10566000000E+00 0. -1.
     999900   -1    0    0    0    0 -0.00000000000E+00 -0.00000000000E+00 -0.74505805969E-08  0.93827000000E+00  0.93827000000E+00 0. -1.
     999902    2    1    2    0    0  0.19861348027E-01 -0.49600335282E-02  0.98948802504E-02  0.10211927237E+01  0.10209395649E+01 0.  0.
     999903    2    3    3    0    0  0.12520570155E+00  0.41597934531E-01 -0.11641954944E-01  0.13342647492E+00  0.16131746250E-01 0.  0.
         14    1    1    2    0    0 -0.19861348027E-01  0.49600335282E-02 -0.98948802504E-02  0.22737276293E-01  0.00000000000E+00 0.  1.
     999901    1    3    3    0    0 -0.10534435352E+00 -0.46557968059E-01  0.21536835194E-01  0.88776624878E+00  0.88000000000E+00 0.  1.
        -11    1    4    4    0    0  0.85465951541E-01  0.36168373025E-01 -0.81147483488E-02  0.93159488738E-01  0.51100000000E-03 0. -1.
         11    1    4    4    0    0  0.39739750011E-01  0.54295615056E-02 -0.35272065951E-02  0.40266986185E-01  0.51100000000E-03 0.  1.
</event>
<event>
 8    1  0.1135368E+005  0.1043930E+01  0.7957747E-01            NaN
         13   -1    0    0    0    0  0.00000000000E+00  0.00000000000E+00  0.74505805969E-08  0.10566000000E+00  0.10566000000E+00 0. -1.
     999900   -1    0    0    0    0 -0.00000000000E+00 -0.00000000000E+00 -0.74505805969E-08  0.93827000000E+00  0.93827000000E+00 0. -1.
     999902    2    1    2    0    0 -0.26370081243E-02  0.21498344050E-01 -0.10202849792E-01  0.10199877622E+01  0.10197067246E+01 0.  0.
     999903    2    3    3    0    0  0.94642355635E-01 -0.81817674786E-01 -0.21366835397E-01  0.12854953719E+00  0.20423870113E-01 0.  0.
         14    1    1    2    0    0  0.26370081243E-02 -0.21498344050E-01  0.10202849792E-01  0.23942237837E-01  0.00000000000E+00 0. -1.
     999901    1    3    3    0    0 -0.97279363759E-01  0.10331601884E+00  0.11163985605E-01  0.89143822497E+00  0.88000000000E+00 0.  1.
        -11    1    4    4    0    0  0.32620976902E-01 -0.19281794929E-01 -0.13047055750E-01  0.40079951778E-01  0.51100000000E-03 0.  1.
         11    1    4    4    0    0  0.62021378732E-01 -0.62535879857E-01 -0.83197796468E-02  0.88469585416E-01  0.51100000000E-03 0. -1.
</event>
<event>
 8    1  0.1135368E+005  0.1043930E+01  0.7957747E-01            NaN
         13   -1    0    0    0    0  0.00000000000E+00  0.00000000000E+00  0.74505805969E-08  0.10566000000E+00  0.10566000000E+00 0.  1.
     999900   -1    0    0    0    0 -0.00000000000E+00 -0.00000000000E+00 -0.74505805969E-08  0.93827000000E+00  0.93827000000E+00 0. -1.
     999902    2    1    2    0    0  0.18391026000E-01 -0.13873090926E-01 -0.47522445617E-02  0.10204081736E+01  0.10201370322E+01 0.  0.
     999903    2    3    3    0    0 -0.50678837818E-01 -0.33742170336E-01  0.11281864262E+00  0.12968468119E+00  0.19575284162E-01 0.  0.
         14    1    1    2    0    0 -0.18391026000E-01  0.13873090926E-01  0.47522445617E-02  0.23521826408E-01  0.00000000000E+00 0. -1.
     999901    1    3    3    0    0  0.69069863818E-01  0.19869079410E-01 -0.11757088719E+00  0.89072349240E+00  0.88000000000E+00 0. -1.
        -11    1    4    4    0    0 -0.10163315818E-01 -0.49769597682E-02  0.39659648852E-01  0.41245751115E-01  0.51100000000E-03 0. -1.
         11    1    4    4    0    0 -0.40515522000E-01 -0.28765210568E-01  0.73158993772E-01  0.88438930075E-01  0.51100000000E-03 0.  1.
</event>
<event>
 8    1  0.1135368E+005  0.1043930E+01  0.7957747E-01            NaN
         13   -1    0    0    0    0  0.00000000000E+00  0.00000000000E+00  0.74505805969E-08  0.10566000000E+00  0.10566000000E+00 0.  1.
     999900   -1    0    0    0    0 -0.00000000000E+00 -0.00000000000E+00 -0.74505805969E-08  0.93827000000E+00  0.93827000000E+00 0.  1.
     999902    2    1    2    0    0  0.12677898110E-02  0.48929413282E-02 -0.23148619936E-01  0.10202359761E+01  0.10199608032E+01 0.  0.
     999903    2    3    3    0    0 -0.61852323697E-02  0.16211656667E-01 -0.13100400647E+00  0.13354750468E+00  0.19282411249E-01 0.  0.
         14    1    1    2    0    0 -0.12677898110E-02 -0.48929413282E-02  0.23148619936E-01  0.23694023947E-01  0.00000000000E+00 0.  1.
     999901    1    3    3    0    0  0.74530221807E-02 -0.11318715339E-01  0.10785538654E+00  0.88668847137E+00  0.88000000000E+00 0. -1.
        -11    1    4    4    0    0  0.65311596318E-02  0.51939382801E-02 -0.29690444267E-01  0.30845042434E-01  0.51100000000E-03 0. -1.
         11    1    4    4    0    0 -0.12716392001E-01  0.11017718387E-01 -0.10131356221E+00  0.10270246225E+00  0.51100000000E-03 0.  1.
</event>
<event>
 8    1  0.1135368E+005  0.1043930E+01  0.7957747E-01            NaN
         13   -1    0    0    0    0  0.00000000000E+00  0.00000000000E+00  0.74505805969E-08  0.10566000000E+00  0.10566000000E+00 0.  1.
     999900   -1    0    0    0    0 -0.00000000000E+00 -0.00000000000E+00 -0.74505805969E-08  0.93827000000E+00  0.93827000000E+00 0. -1.
     999902    2    1    2    0    0 -0.16038479142E-01 -0.11376088374E-01  0.57481074465E-02  0.10234436890E+01  0.10232386308E+01 0.  0.
     999903    2    3    3    0    0  0.12287958519E+00 -0.32676632827E-01 -0.27715726930E-01  0.13166357595E+00  0.19999523039E-01 0.  0.
         14    1    1    2    0    0  0.16038479142E-01  0.11376088374E-01 -0.57481074465E-02  0.20486311017E-01  0.00000000000E+00 0.  1.
     999901    1    3    3    0    0 -0.13891806434E+00  0.21300544453E-01  0.33463834376E-01  0.89178011303E+00  0.88000000000E+00 0. -1.
        -11    1    4    4    0    0  0.51635397169E-01 -0.41771500618E-02 -0.78391023891E-02  0.52396330699E-01  0.51100000000E-03 0. -1.
         11    1    4    4    0    0  0.71244188025E-01 -0.28499482766E-01 -0.19876624541E-01  0.79267245249E-01  0.51100000000E-03 0.  1.
</event>
<event>
 8    1  0.1135368E+005  0.1043930E+01  0.7957747E-01            NaN
         13   -1    0    0    0    0  0.00000000000E+00  0.00000000000E+00  0.74505805969E-08  0.10566000000E+00  0.10566000000E+00 0.  1.
     999900   -1    0    0    0    0 -0.00000000000E+00 -0.00000000000E+00 -0.74505805969E-08  0.93827000000E+00  0.93827000000E+00 0. -1.
     999902    2    1    2    0    0  0.22144540640E-01 -0.94693556305E-02  0.18410466338E-01  0.10136150755E+01  0.10131616488E+01 0.  0.
     999903    2    3    3    0    0 -0.11791857969E+00  0.83730655500E-02 -0.19384361607E-01  0.12155875515E+00  0.20636807301E-01 0.  0.
         14    1    1    2    0    0 -0.22144540640E-01  0.94693556305E-02 -0.18410466338E-01  0.30314924493E-01  0.00000000000E+00 0. -1.
     999901    1    3    3    0    0  0.14006312033E+00 -0.17842421181E-01  0.37794827945E-01  0.89205632036E+00  0.88000000000E+00 0.  1.
        -11    1    4    4    0    0 -0.95020690872E-01  0.14198054512E-02 -0.21801097535E-01  0.97501264177E-01  0.51100000000E-03 0. -1.
         11    1    4    4    0    0 -0.22897888819E-01  0.69532600988E-02  0.24167359284E-02  0.24057490973E-01  0.51100000000E-03 0.  1.
</event>
<event>
 8    1  0.1135368E+005  0.1043930E+01  0.7957747E-01            NaN
         13   -1    0    0    0    0  0.00000000000E+00  0.00000000000E+00  0.74505805969E-08  0.10566000000E+00  0.10566000000E+00 0. -1.
     999900   -1    0    0    0    0 -0.00000000000E+00 -0.00000000000E+00 -0.74505805969E-08  0.93827000000E+00  0.93827000000E+00 0. -1.
     999902    2    1    2    0    0 -0.21767506615E-01 -0.53816048017E-02 -0.45429788557E-02  0.10210515238E+01  0.10207951752E+01 0.  0.
     999903    2    3    3    0    0  0.10432798030E+00  0.40908660729E-01 -0.60618467730E-01  0.12909450640E+00  0.20807377468E-01 0.  0.
         14    1    1    2    0    0  0.21767506615E-01  0.53816048017E-02  0.45429788557E-02  0.22878476159E-01  0.00000000000E+00 0.  1.
     999901    1    3    3    0    0 -0.12609548692E+00 -0.46290265531E-01  0.56075488875E-01  0.89195701744E+00  0.88000000000E+00 0.  1.
        -11    1    4    4    0    0  0.82182860845E-01  0.28621365823E-01 -0.37361828611E-01  0.94706771439E-01  0.51100000000E-03 0. -1.
         11    1    4    4    0    0  0.22145119457E-01  0.12287294906E-01 -0.23256639120E-01  0.34387734965E-01  0.51100000000E-03 0.  1.
</event>
<event>
 8    1  0.1135368E+005  0.1043930E+01  0.7957747E-01            NaN
         13   -1    0    0    0    0  0.00000000000E+00  0.00000000000E+00  0.74505805969E-08  0.10566000000E+00  0.10566000000E+00 0. -1.
     999900   -1    0    0    0    0 -0.00000000000E+00 -0.00000000000E+00 -0.74505805969E-08  0.93827000000E+00  0.93827000000E+00 0.  1.
     999902    2    1    2    0    0  0.23247324979E-02 -0.27635156676E-01  0.74305227680E-03  0.10161872822E+01  0.10158085125E+01 0.  0.
     999903    2    3    3    0    0  0.21208119840E-01  0.11980101343E+00  0.10266531134E-01  0.12367134213E+00  0.19675671217E-01 0.  0.
         14    1    1    2    0    0 -0.23247324979E-02  0.27635156676E-01 -0.74305227680E-03  0.27742717827E-01  0.00000000000E+00 0.  1.
     999901    1    3    3    0    0 -0.18883387342E-01 -0.14743617011E+00 -0.95234788572E-02  0.89251594004E+00  0.88000000000E+00 0. -1.
        -11    1    4    4    0    0  0.15081260509E-01  0.37178615085E-01 -0.47530267710E-03  0.40127059098E-01  0.51100000000E-03 0. -1.
         11    1    4    4    0    0  0.61268593309E-02  0.82622398345E-01  0.10741833811E-01  0.83544283037E-01  0.51100000000E-03 0.  1.
</event>
<event>
 8    1  0.1135368E+005  0.1043930E+01  0.7957747E-01            NaN
         13   -1    0    0    0    0  0.00000000000E+00  0.00000000000E+00  0.74505805969E-08  0.10566000000E+00  0.10566000000E+00 0.  1.
     999900   -1    0    0    0    0 -0.00000000000E+00 -0.00000000000E+00 -0.74505805969E-08  0.93827000000E+00  0.93827000000E+00 0.  1.
     999902    2    1    2    0    0  0.12950111729E-01 -0.15019512414E-01 -0.10129608950E-01  0.10216611849E+01  0.10214184631E+01 0.  0.
     999903    2    3    3    0    0  0.94921017035E-01  0.69967468340E-01 -0.56871923958E-01  0.13254541057E+00  0.20698406387E-01 0.  0.
         14    1    1    2    0    0 -0.12950111729E-01  0.15019512414E-01  0.10129608950E-01  0.22268815066E-01  0.00000000000E+00 0. -1.
     999901    1    3    3    0    0 -0.81970905306E-01 -0.84986980755E-01  0.46742315008E-01  0.88911577437E+00  0.88000000000E+00 0. -1.
        -11    1    4    4    0    0  0.68330538687E-01  0.60771796820E-01 -0.40764966064E-01  0.10012151310E+00  0.51100000000E-03 0. -1.
         11    1    4    4    0    0  0.26590478348E-01  0.91956715205E-02 -0.16106957894E-01  0.32423897469E-01  0.51100000000E-03 0.  1.
</event>
<event>
 8    1  0.1135368E+005  0.1043930E+01  0.7957747E-01            NaN
         13   -1    0    0    0    0  0.00000000000E+00  0.00000000000E+00  0.74505805969E-08  0.10566000000E+00  0.10566000000E+00 0. -1.
     999900   -1    0    0    0    0 -0.00000000000E+00 -0.00000000000E+00 -0.74505805969E-08  0.93827000000E+00  0.93827000000E+00 0. -1.
     999902    2    1    2    0    0  0.21855984006E-02 -0.10299032120E-01 -0.20947592954E-01  0.10204854153E+01  0.10202160723E+01 0.  0.
     999903    2    3    3    0    0 -0.10833875897E-01 -0.10302358559E+00  0.76511449561E-01  0.13016771102E+00  0.18931429500E-01 0.  0.
         14    1    1    2    0    0 -0.21855984006E-02  0.10299032120E-01  0.20947592954E-01  0.23444584739E-01  0.00000000000E+00 0. -1.
     999901    1    3    3    0    0  0.13019474297E-01  0.92724553466E-01 -0.97459042515E-01  0.89031770425E+00  0.88000000000E+00 0. -1.
        -11    1    4    4    0    0 -0.14602090921E-01 -0.62343607529E-01  0.52286753099E-01  0.82668688932E-01  0.51100000000E-03 0.  1.
         11    1    4    4    0    0  0.37682150244E-02 -0.40679978057E-01  0.24224696462E-01  0.47499022084E-01  0.51100000000E-03 0. -1.
</event>
<event>
 8    1  0.1135368E+005  0.1043930E+01  0.7957747E-01            NaN
         13   -1    0    0    0    0  0.00000000000E+00  0.00000000000E+00  0.74505805969E-08  0.10566000000E+00  0.10566000000E+00 0.  1.
     999900   -1    0    0    0    0 -0.00000000000E+00 -0.00000000000E+00 -0.74505805969E-08  0.93827000000E+00  0.93827000000E+00 0. -1.
     999902    2    1    2    0    0  0.10719500203E-01  0.19550012020E-01  0.20886991807E-01  0.10133787794E+01  0.10129181474E+01 0.  0.
     999903    2    3    3    0    0  0.59918648727E-01  0.92535962803E-01 -0.57246426480E-01  0.12554301964E+00  0.18186466331E-01 0.  0.
         14    1    1    2    0    0 -0.10719500203E-01 -0.19550012020E-01 -0.20886991807E-01  0.30551220619E-01  0.00000000000E+00 0. -1.
     999901    1    3    3    0    0 -0.49199148524E-01 -0.72985950782E-01  0.78133418287E-01  0.88783575974E+00  0.88000000000E+00 0.  1.
        -11    1    4    4    0    0 -0.68149586369E-04  0.80937916337E-02 -0.33068545165E-02  0.87584539257E-02  0.51100000000E-03 0. -1.
         11    1    4    4    0    0  0.59986798314E-01  0.84442171169E-01 -0.53939571963E-01  0.11678456571E+00  0.51100000000E-03 0.  1.
</event>
<event>
 8    1  0.1135368E+005  0.1043930E+01  0.7957747E-01            NaN
         13   -1    0    0    0    0  0.00000000000E+00  0.00000000000E+00  0.74505805969E-08  0.10566000000E+00  0.10566000000E+00 0.  1.
     999900   -1    0    0    0    0 -0.00000000000E+00 -0.00000000000E+00 -0.74505805969E-08  0.93827000000E+00  0.93827000000E+00 0.  1.
     999902    2    1    2    0    0 -0.12137809558E-02  0.18701398033E-01 -0.13692664934E-01  0.10207199887E+01  0.10204560699E+01 0.  0.
     999903    2    3    3    0    0 -0.71094188142E-02  0.79359406433E-01 -0.10565771001E+00  0.13383120081E+00  0.19969461671E-01 0.  0.
         14    1    1    2    0    0  0.12137809558E-02 -0.18701398033E-01  0.13692664934E-01  0.23210011323E-01  0.00000000000E+00 0.  1.
     999901    1    3    3    0    0  0.58956378584E-02 -0.60658008400E-01  0.91965045080E-01  0.88688878787E+00  0.88000000000E+00 0. -1.
        -11    1    4    4    0    0 -0.22231218127E-02  0.21749574525E-01 -0.15802344871E-01  0.26980761424E-01  0.51100000000E-03 0. -1.
         11    1    4    4    0    0 -0.48862970015E-02  0.57609831908E-01 -0.89855365143E-01  0.10685043939E+00  0.51100000000E-03 0.  1.
</event>
<event>
 8    1  0.1135368E+005  0.1043930E+01  0.7957747E-01            NaN
         13   -1    0    0    0    0  0.00000000000E+00  0.00000000000E+00  0.74505805969E-08  0.10566000000E+00  0.10566000000E+00 0.  1.
     999900   -1    0    0    0    0 -0.00000000000E+00 -0.00000000000E+00 -0.74505805969E-08  0.93827000000E+00  0.93827000000E+00 0. -1.
     999902    2    1    2    0    0  0.48681374035E-02  0.21602266912E-01  0.84389164219E-02  0.10202324894E+01  0.10199572346E+01 0.  0.
     999903    2    3    3    0    0  0.17150959939E-01 -0.12460126061E+00  0.14939540435E-01  0.12806176735E+00  0.18894359385E-01 0.  0.
         14    1    1    2    0    0 -0.48681374035E-02 -0.21602266912E-01 -0.84389164219E-02  0.23697510584E-01  0.00000000000E+00 0. -1.
     999901    1    3    3    0    0 -0.12282822536E-01  0.14620352752E+00 -0.65006240131E-02  0.89217072206E+00  0.88000000000E+00 0. -1.
        -11    1    4    4    0    0  0.15864220741E-01 -0.85619903852E-01  0.18057903257E-01  0.88931380437E-01  0.51100000000E-03 0. -1.
         11    1    4    4    0    0  0.12867391981E-02 -0.38981356760E-01 -0.31183628224E-02  0.39130386918E-01  0.51100000000E-03 0.  1.
</event>
<event>
 8    1  0.1135368E+005  0.1043930E+01  0.7957747E-01            NaN
         13   -1    0    0    0    0  0.00000000000E+00  0.00000000000E+00  0.74505805969E-08  0.10566000000E+00  0.10566000000E+00 0. -1.
     999900   -1    0    0    0    0 -0.00000000000E+00 -0.00000000000E+00 -0.74505805969E-08  0.93827000000E+00  0.93827000000E+00 0.  1.
     999902    2    1    2    0    0  0.92915920540E-02  0.10819050697E-01  0.18990615950E-01  0.10201807045E+01  0.10199042312E+01 0.  0.
     999903    2    3    3    0    0 -0.96132281532E-02  0.12724320754E+00 -0.22927292210E-01  0.13132239887E+00  0.20896499652E-01 0.  0.
         14    1    1    2    0    0 -0.92915920540E-02 -0.10819050697E-01 -0.18990615950E-01  0.23749295464E-01  0.00000000000E+00 0.  1.
     999901    1    3    3    0    0  0.18904820207E-01 -0.11642415684E+00  0.41917908160E-01  0.88885830566E+00  0.88000000000E+00 0. -1.
        -11    1    4    4    0    0 -0.14198186296E-01  0.70423086491E-01 -0.18250251023E-01  0.74123763992E-01  0.51100000000E-03 0. -1.
         11    1    4    4    0    0  0.45849581427E-02  0.56820121046E-01 -0.46770411868E-02  0.57198634880E-01  0.51100000000E-03 0.  1.
</event>
<event>
 8    1  0.1135368E+005  0.1043930E+01  0.7957747E-01            NaN
         13   -1    0    0    0    0  0.00000000000E+00  0.00000000000E+00  0.74505805969E-08  0.10566000000E+00  0.10566000000E+00 0. -1.
     999900   -1    0    0    0    0 -0.00000000000E+00 -0.00000000000E+00 -0.74505805969E-08  0.93827000000E+00  0.93827000000E+00 0. -1.
     999902    2    1    2    0    0 -0.12910235815E-01  0.11886011262E-01  0.11402720836E-01  0.10230021837E+01  0.10227880985E+01 0.  0.
     999903    2    3    3    0    0  0.78134773496E-01 -0.29050475553E-01 -0.98376666261E-01  0.13058047649E+00  0.20599014943E-01 0.  0.
         14    1    1    2    0    0  0.12910235815E-01 -0.11886011262E-01 -0.11402720836E-01  0.20927816297E-01  0.00000000000E+00 0. -1.
     999901    1    3    3    0    0 -0.91045009311E-01  0.40936486814E-01  0.10977938710E+00  0.89242170721E+00  0.88000000000E+00 0.  1.
        -11    1    4    4    0    0  0.12431223989E-01 -0.10226867024E-01 -0.29117867167E-01  0.33275147608E-01  0.51100000000E-03 0. -1.
         11    1    4    4    0    0  0.65703549507E-01 -0.18823608529E-01 -0.69258799094E-01  0.97305328882E-01  0.51100000000E-03 0.  1.
</event>
<event>
 8    1  0.1135368E+005  0.1043930E+01  0.7957747E-01            NaN
         13   -1    0    0    0    0  0.00000000000E+00  0.00000000000E+00  0.74505805969E-08  0.10566000000E+00  0.10566000000E+00 0.  1.
     999900   -1    0    0    0    0 -0.00000000000E+00 -0.00000000000E+00 -0.74505805969E-08  0.93827000000E+00  0.93827000000E+00 0.  1.
     999902    2    1    2    0    0 -0.67854899729E-02 -0.22601625178E-01 -0.43557157006E-02  0.10199331545E+01  0.10196508182E+01 0.  0.
     999903    2    3    3    0    0  0.29630967944E-01 -0.35182202068E-01  0.12026331680E+00  0.13031844431E+00  0.20096018422E-01 0.  0.
         14    1    1    2    0    0  0.67854899729E-02  0.22601625178E-01  0.43557157006E-02  0.23996845504E-01  0.00000000000E+00 0.  1.
     999901    1    3    3    0    0 -0.36416457917E-01  0.12580576889E-01 -0.12461903250E+00  0.88961471019E+00  0.88000000000E+00 0.  1.
        -11    1    4    4    0    0  0.24647235448E-01 -0.13841089498E-01  0.68366953780E-01  0.73982183422E-01  0.51100000000E-03 0. -1.
         11    1    4    4    0    0  0.49837324952E-02 -0.21341112570E-01  0.51896363016E-01  0.56336260886E-01  0.51100000000E-03 0.  1.
</event>
<event>
 8    1  0.1135368E+005  0.1043930E+01  0.7957747E-01            NaN
         13   -1    0    0    0    0  0.00000000000E+00  0.00000000000E+00  0.74505805969E-08  0.10566000000E+00  0.10566000000E+00 0.  1.
     999900   -1    0    0    0    0 -0.00000000000E+00 -0.00000000000E+00 -0.74505805969E-08  0.93827000000E+00  0.93827000000E+00 0. -1.
     999902    2    1    2    0    0  0.28432430412E-02  0.20611087303E-01 -0.11833864654E-01  0.10199938077E+01  0.10197129137E+01 0.  0.
     999903    2    3    3    0    0 -0.15968029764E-01  0.12037733650E+00 -0.51148171091E-01  0.13328484574E+00  0.20075696270E-01 0.  0.
         14    1    1    2    0    0 -0.28432430412E-02 -0.20611087303E-01  0.11833864654E-01  0.23936192334E-01  0.00000000000E+00 0. -1.
     999901    1    3    3    0    0  0.18811272805E-01 -0.99766249200E-01  0.39314306437E-01  0.88670896192E+00  0.88000000000E+00 0.  1.
        -11    1    4    4    0    0  0.11576944488E-02  0.10478150758E-01  0.67896701885E-03  0.10576105945E-01  0.51100000000E-03 0.  1.
         11    1    4    4    0    0 -0.17125724212E-01  0.10989918574E+00 -0.51827138109E-01  0.12270873980E+00  0.51100000000E-03 0. -1.
</event>
<event>
 8    1  0.1135368E+005  0.1043930E+01  0.7957747E-01            NaN
         13   -1    0    0    0    0  0.00000000000E+00  0.00000000000E+00  0.74505805969E-08  0.10566000000E+00  0.10566000000E+00 0.  1.
     999900   -1    0    0    0    0 -0.00000000000E+00 -0.00000000000E+00 -0.74505805969E-08  0.93827000000E+00  0.93827000000E+00 0.  1.
     999902    2    1    2    0    0  0.11358378344E-01 -0.28275359642E-02 -0.20626469854E-01  0.10202137824E+01  0.10199380877E+01 0.  0.
     999903    2    3    3    0    0  0.82875447496E-01  0.76458226092E-01  0.61426935958E-01  0.12997017269E+00  0.20119075331E-01 0.  0.
         14    1    1    2    0    0 -0.11358378344E-01  0.28275359642E-02  0.20626469854E-01  0.23716217592E-01  0.00000000000E+00 0.  1.
     999901    1    3    3    0    0 -0.71517069152E-01 -0.79285762056E-01 -0.82053405812E-01  0.89024360972E+00  0.88000000000E+00 0.  1.
        -11    1    4    4    0    0  0.49916731711E-01  0.39480818219E-01  0.24555378258E-01  0.68217613813E-01  0.51100000000E-03 0. -1.
         11    1    4    4    0    0  0.32958715784E-01  0.36977407873E-01  0.36871557699E-01  0.61752558873E-01  0.51100000000E-03 0.  1.
</event>
<event>
 8    1  0.1135368E+005  0.1043930E+01  0.7957747E-01            NaN
         13   -1    0    0    0    0  0.00000000000E+00  0.00000000000E+00  0.74505805969E-08  0.10566000000E+00  0.10566000000E+00 0.  1.
     999900   -1    0    0    0    0 -0.00000000000E+00 -0.00000000000E+00 -0.74505805969E-08  0.93827000000E+00  0.93827000000E+00 0. -1.
     999902    2    1    2    0    0 -0.12249348689E-01 -0.19077639778E-01  0.64302130485E-02  0.10203641238E+01  0.10200919540E+01 0.  0.
     999903    2    3    3    0    0 -0.19896781961E-01  0.41355725242E-01  0.12077654436E+00  0.13087789097E+00  0.20877517450E-01 0.  0.
         14    1    1    2    0    0  0.12249348689E-01  0.19077639778E-01 -0.64302130485E-02  0.23565876234E-01  0.00000000000E+00 0. -1.
     999901    1    3    3    0    0  0.76474332714E-02 -0.60433365021E-01 -0.11434633131E+00  0.88948623279E+00  0.88000000000E+00 0. -1.
        -11    1    4    4    0    0 -0.22887618724E-01  0.25475931445E-01  0.81721237823E-01  0.88608622640E-01  0.51100000000E-03 0.  1.
         11    1    4    4    0    0  0.29908367627E-02  0.15879793797E-01  0.39055306538E-01  0.42269268333E-01  0.51100000000E-03 0. -1.
</event>
<event>
 8    1  0.1135368E+005  0.1043930E+01  0.7957747E-01            NaN
         13   -1    0    0    0    0  0.00000000000E+00  0.00000000000E+00  0.74505805969E-08  0.10566000000E+00  0.10566000000E+00 0. -1.
     999900   -1    0    0    0    0 -0.00000000000E+00 -0.00000000000E+00 -0.74505805969E-08  0.93827000000E+00  0.93827000000E+00 0.  1.
     999902    2    1    2    0    0 -0.24619890931E-03 -0.22168628667E-01 -0.78363345795E-02  0.10204158160E+01  0.10201448528E+01 0.  0.
     999903    2    3    3    0    0 -0.56538636381E-01 -0.98984710655E-01 -0.66048791421E-01  0.13336551351E+00  0.20720207479E-01 0.  0.
         14    1    1    2    0    0  0.24619890931E-03  0.22168628667E-01  0.78363345795E-02  0.23514184028E-01  0.00000000000E+00 0. -1.
     999901    1    3    3    0    0  0.56292437472E-01  0.76816081988E-01  0.58212456842E-01  0.88705030246E+00  0.88000000000E+00 0. -1.
        -11    1    4    4    0    0 -0.48809869818E-01 -0.85263341796E-01 -0.64511736748E-01  0.11753410631E+00  0.51100000000E-03 0.  1.
         11    1    4    4    0    0 -0.77287665634E-02 -0.13721368858E-01 -0.15370546726E-02  0.15831407202E-01  0.51100000000E-03 0. -1.
</event>
<event>
 8    1  0.1135368E+005  0.1043930E+01  0.7957747E-01            NaN
         13   -1    0    0    0    0  0.00000000000E+00  0.00000000000E+00  0.74505805969E-08  0.10566000000E+00  0.10566000000E+00 0. -1.
     999900   -1    0    0    0    0 -0.00000000000E+00 -0.00000000000E+00 -0.74505805969E-08  0.93827000000E+00  0.93827000000E+00 0. -1.
     999902    2    1    2    0    0  0.13249264697E-01  0.71857075417E-02  0.18881136413E-01  0.10197706391E+01  0.10194844195E+01 0.  0.
     999903    2    3    3    0    0  0.40591219618E-01 -0.11062310217E+00  0.53589075270E-01  0.13082118092E+00  0.18901707458E-01 0.  0.
         14    1    1    2    0    0 -0.13249264697E-01 -0.71857075417E-02 -0.18881136413E-01  0.24159360921E-01  0.00000000000E+00 0.  1.
     999901    1    3    3    0    0 -0.27341954921E-01  0.11780880971E+00 -0.34707938857E-01  0.88894945816E+00  0.88000000000E+00 0. -1.
        -11    1    4    4    0    0  0.28519356805E-01 -0.50941956699E-01  0.28397913606E-01  0.64924104022E-01  0.51100000000E-03 0.  1.
         11    1    4    4    0    0  0.12071862813E-01 -0.59681145470E-01  0.25191161664E-01  0.65897076896E-01  0.51100000000E-03 0. -1.
</event>
<event>
 8    1  0.1135368E+005  0.1043930E+01  0.7957747E-01            NaN
         13   -1    0    0    0    0  0.00000000000E+00  0.00000000000E+00  0.74505805969E-08  0.10566000000E+00  0.10566000000E+00 0.  1.
     999900   -1    0    0    0    0 -0.00000000000E+00 -0.00000000000E+00 -0.74505805969E-08  0.93827000000E+00  0.93827000000E+00 0. -1.
     999902    2    1    2    0    0  0.64059398222E-02  0.16478425813E-01  0.18081342845E-01  0.10186414741E+01  0.10183275226E+01 0.  0.
     999903    2    3    3    0    0  0.56637988382E-01 -0.89462516162E-01 -0.66695919310E-01  0.12682651233E+00  0.20620743221E-01 0.  0.
         14    1    1    2    0    0 -0.64059398222E-02 -0.16478425813E-01 -0.18081342845E-01  0.25288525884E-01  0.00000000000E+00 0. -1.
     999901    1    3    3    0    0 -0.50232048559E-01  0.10594094198E+00  0.84777262155E-01  0.89181496179E+00  0.88000000000E+00 0.  1.
        -11    1    4    4    0    0  0.24889669492E-01 -0.49235192108E-01 -0.44910341256E-01  0.71139297593E-01  0.51100000000E-03 0. -1.
         11    1    4    4    0    0  0.31748318890E-01 -0.40227324055E-01 -0.21785578053E-01  0.55687214736E-01  0.51100000000E-03 0.  1.
</event>
<event>
 8    1  0.1135368E+005  0.1043930E+01  0.7957747E-01            NaN
         13   -1    0    0    0    0  0.00000000000E+00  0.00000000000E+00  0.74505805969E-08  0.10566000000E+00  0.10566000000E+00 0.  1.
     999900   -1    0    0    0    0 -0.00000000000E+00 -0.00000000000E+00 -0.74505805969E-08  0.93827000000E+00  0.93827000000E+00 0.  1.
     999902    2    1    2    0    0  0.83919689572E-02 -0.18650407912E-01 -0.13245533179E-01  0.10195638963E+01  0.10192726974E+01 0.  0.
     999903    2    3    3    0    0 -0.43773371712E-01 -0.94077882148E-01 -0.79611726116E-01  0.13231252373E+00  0.20045473814E-01 0.  0.
         14    1    1    2    0    0 -0.83919689572E-02  0.18650407912E-01  0.13245533179E-01  0.24366103657E-01  0.00000000000E+00 0.  1.
     999901    1    3    3    0    0  0.52165340669E-01  0.75427474236E-01  0.66366192937E-01  0.88725137261E+00  0.88000000000E+00 0. -1.
        -11    1    4    4    0    0  0.21540280832E-03 -0.45574538292E-02 -0.89984716519E-02  0.10101999646E-01  0.51100000000E-03 0.  1.
         11    1    4    4    0    0 -0.43988774520E-01 -0.89520428319E-01 -0.70613254464E-01  0.12221052409E+00  0.51100000000E-03 0. -1.
</event>
<event>
 8    1  0.1135368E+005  0.1043930E+01  0.7957747E-01            NaN
         13   -1    0    0    0    0  0.00000000000E+00  0.00000000000E+00  0.74505805969E-08  0.10566000000E+00  0.10566000000E+00 0.  1.
     999900   -1    0    0    0    0 -0.00000000000E+00 -0.00000000000E+00 -0.74505805969E-08  0.93827000000E+00  0.93827000000E+00 0.  1.
     999902    2    1    2    0    0  0.17669821755E-01  0.13599298497E-01  0.45063188074E-02  0.10211820236E+01  0.10209286238E+01 0.  0.
     999903    2    3    3    0    0  0.22450609859E-02  0.12619660405E+00 -0.37057735997E-01  0.13290073533E+00  0.18939548086E-01 0.  0.
         14    1    1    2    0    0 -0.17669821755E-01 -0.13599298497E-01 -0.45063188074E-02  0.22747976386E-01  0.00000000000E+00 0.  1.
     999901    1    3    3    0    0  0.15424760769E-01 -0.11259730555E+00  0.41564054805E-01  0.88828128828E+00  0.88000000000E+00 0. -1.
        -11    1    4    4    0    0  0.64684696949E-02  0.27499739589E-01 -0.13638197953E-01  0.31374166795E-01  0.51100000000E-03 0.  1.
         11    1    4    4    0    0 -0.42234087090E-02  0.98696864461E-01 -0.23419538044E-01  0.10152656854E+00  0.51100000000E-03 0. -1.
</event>
<event>
 8    1  0.1135368E+005  0.1043930E+01  0.7957747E-01            NaN
         13   -1    0    0    0    0  0.00000000000E+00  0.00000000000E+00  0.74505805969E-08  0.10566000000E+00  0.10566000000E+00 0. -1.
     999900   -1    0    0    0    0 -0.00000000000E+00 -0.00000000000E+00 -0.74505805969E-08  0.93827000000E+00  0.93827000000E+00 0.  1.
     999902    2    1    2    0    0 -0.10967012717E-02 -0.41919519184E-02  0.23936187478E-01  0.10196047809E+01  0.10193145701E+01 0.  0.
     999903    2    3    3    0    0  0.31406442670E-01 -0.43526099331E-03  0.12760571192E+00  0.13291546810E+00  0.19918580598E-01 0.  0.
         14    1    1    2    0    0  0.10967012717E-02  0.41919519184E-02 -0.23936187478E-01  0.24325219126E-01  0.00000000000E+00 0.  1.
     999901    1    3    3    0    0 -0.32503143942E-01 -0.37566909251E-02 -0.10366952444E+00  0.88668931278E+00  0.88000000000E+00 0.  1.
        -11    1    4    4    0    0  0.22106407403E-01 -0.54762452859E-03  0.11571826673E+00  0.11781329092E+00  0.51100000000E-03 0. -1.
         11    1    4    4    0    0  0.93000352672E-02  0.11236353528E-03  0.11887445182E-01  0.15102177177E-01  0.51100000000E-03 0.  1.
</event>
<event>
 8    1  0.1135368E+005  0.1043930E+01  0.7957747E-01            NaN
         13   -1    0    0    0    0  0.00000000000E+00  0.00000000000E+00  0.74505805969E-08  0.10566000000E+00  0.10566000000E+00 0. -1.
     999900   -1    0    0    0    0 -0.00000000000E+00 -0.00000000000E+00 -0.74505805969E-08  0.93827000000E+00  0.93827000000E+00 0.  1.
     999902    2    1    2    0    0  0.64362111209E-02  0.18590752812E-01 -0.96074358235E-02  0.10220360801E+01  0.10218015489E+01 0.  0.
     999903    2    3    3    0    0  0.99173231238E-01 -0.78509137863E-01 -0.31776787817E-01  0.13157551176E+00  0.17416559051E-01 0.  0.
         14    1    1    2    0    0 -0.64362111209E-02 -0.18590752812E-01  0.96074358235E-02  0.21893919860E-01  0.00000000000E+00 0. -1.
     999901    1    3    3    0    0 -0.92737020117E-01  0.97099890676E-01  0.22169351994E-01  0.89046056838E+00  0.88000000000E+00 0. -1.
        -11    1    4    4    0    0  0.64549959249E-01 -0.41679314643E-01 -0.23494013199E-01  0.80349811981E-01  0.51100000000E-03 0. -1.
         11    1    4    4    0    0  0.34623271989E-01 -0.36829823221E-01 -0.82827746181E-02  0.51225699781E-01  0.51100000000E-03 0.  1.
</event>
<event>
 8    1  0.1135368E+005  0.1043930E+01  0.7957747E-01            NaN
         13   -1    0    0    0    0  0.00000000000E+00  0.00000000000E+00  0.74505805969E-08  0.10566000000E+00  0.10566000000E+00 0.  1.
     999900   -1    0    0    0    0 -0.00000000000E+00 -0.00000000000E+00 -0.74505805969E-08  0.93827000000E+00  0.93827000000E+00 0. -1.
     999902    2    1    2    0    0  0.16947495291E-02  0.16409843687E-01 -0.17266290665E-01  0.10200494653E+01  0.10197698915E+01 0.  0.
     999903    2    3    3    0    0 -0.13135563272E-01  0.45997392713E-01 -0.12181936241E+00  0.13324243663E+00  0.25005733369E-01 0.  0.
         14    1    1    2    0    0 -0.16947495291E-02 -0.16409843687E-01  0.17266290665E-01  0.23880534733E-01  0.00000000000E+00 0.  1.
     999901    1    3    3    0    0  0.14830312802E-01 -0.29587549026E-01  0.10455307175E+00  0.88680702864E+00  0.88000000000E+00 0.  1.
        -11    1    4    4    0    0  0.26981503547E-02  0.26564082753E-01 -0.81493959445E-01  0.85758131130E-01  0.51100000000E-03 0.  1.
         11    1    4    4    0    0 -0.15833713627E-01  0.19433309960E-01 -0.40325402965E-01  0.47484305497E-01  0.51100000000E-03 0. -1.
</event>
<event>
 8    1  0.1135368E+005  0.1043930E+01  0.7957747E-01            NaN
         13   -1    0    0    0    0  0.00000000000E+00  0.00000000000E+00  0.74505805969E-08  0.10566000000E+00  0.10566000000E+00 0.  1.
     999900   -1    0    0    0    0 -0.00000000000E+00 -0.00000000000E+00 -0.74505805969E-08  0.93827000000E+00  0.93827000000E+00 0.  1.
     999902    2    1    2    0    0  0.11130553385E-01 -0.93613409533E-02  0.13301518461E-01  0.10242207556E+01  0.10240311039E+01 0.  0.
     999903    2    3    3    0    0 -0.10831108211E-01  0.91251780262E-02 -0.13005238468E+00  0.13215887009E+00  0.18755330012E-01 0.  0.
         14    1    1    2    0    0 -0.11130553385E-01  0.93613409533E-02 -0.13301518461E-01  0.19709244442E-01  0.00000000000E+00 0. -1.
     999901    1    3    3    0    0  0.21961661596E-01 -0.18486518979E-01  0.14335390314E+00  0.89206188547E+00  0.88000000000E+00 0. -1.
        -11    1    4    4    0    0 -0.61306048940E-02 -0.48557096056E-02 -0.63977879393E-01  0.64456127752E-01  0.51100000000E-03 0.  1.
         11    1    4    4    0    0 -0.47005033166E-02  0.13980887632E-01 -0.66074505283E-01  0.67702742336E-01  0.51100000000E-03 0. -1.
</event>
<event>
 8    1  0.1135368E+005  0.1043930E+01  0.7957747E-01            NaN
         13   -1    0    0    0    0  0.00000000000E+00  0.00000000000E+00  0.74505805969E-08  0.10566000000E+00  0.10566000000E+00 0.  1.
     999900   -1    0    0    0    0 -0.00000000000E+00 -0.00000000000E+00 -0.74505805969E-08  0.93827000000E+00  0.93827000000E+00 0.  1.
     999902    2    1    2    0    0  0.91486232598E-02 -0.80187136934E-02 -0.21052909113E-01  0.10196149417E+01  0.10193249763E+01 0.  0.
     999903    2    3    3    0    0 -0.62272846086E-01 -0.10497987079E-01  0.10857614671E+00  0.12725242279E+00  0.20403048286E-01 0.  0.
         14    1    1    2    0    0 -0.91486232598E-02  0.80187136934E-02  0.21052909113E-01  0.24315058276E-01  0.00000000000E+00 0.  1.
     999901    1    3    3    0    0  0.71421469346E-01  0.24792733853E-02 -0.12962905582E+00  0.89236251893E+00  0.88000000000E+00 0.  1.
        -11    1    4    4    0    0 -0.36025186692E-01 -0.82843749183E-02  0.43754808193E-01  0.57281666395E-01  0.51100000000E-03 0.  1.
         11    1    4    4    0    0 -0.26247659394E-01 -0.22136121603E-02  0.64821338518E-01  0.69970756397E-01  0.51100000000E-03 0. -1.
</event>
<event>
 8    1  0.1135368E+005  0.1043930E+01  0.7957747E-01            NaN
         13   -1    0    0    0    0  0.00000000000E+00  0.00000000000E+00  0.74505805969E-08  0.10566000000E+00  0.10566000000E+00 0. -1.
     999900   -1    0    0    0    0 -0.00000000000E+00 -0.00000000000E+00 -0.74505805969E-08  0.93827000000E+00  0.93827000000E+00 0. -1.
     999902    2    1    2    0    0 -0.11003074022E-01 -0.93766631682E-02  0.18875187800E-01  0.10201547573E+01  0.10198776724E+01 0.  0.
     999903    2    3    3    0    0  0.24470046364E-01  0.11170000963E+00  0.61009622290E-01  0.13015856995E+00  0.11975140865E-01 0.  0.
         14    1    1    2    0    0  0.11003074022E-01  0.93766631682E-02 -0.18875187800E-01  0.23775242682E-01  0.00000000000E+00 0.  1.
     999901    1    3    3    0    0 -0.35473120386E-01 -0.12107667280E+00 -0.42134434490E-01  0.88999618737E+00  0.88000000000E+00 0.  1.
        -11    1    4    4    0    0  0.15302054600E-01  0.44281718871E-01  0.27268324229E-01  0.54211125504E-01  0.51100000000E-03 0.  1.
         11    1    4    4    0    0  0.91679917640E-02  0.67418290757E-01  0.33741298060E-01  0.75947444443E-01  0.51100000000E-03 0. -1.
</event>
<event>
 8    1  0.1135368E+005  0.1043930E+01  0.7957747E-01            NaN
         13   -1    0    0    0    0  0.00000000000E+00  0.00000000000E+00  0.74505805969E-08  0.10566000000E+00  0.10566000000E+00 0. -1.
     999900   -1    0    0    0    0 -0.00000000000E+00 -0.00000000000E+00 -0.74505805969E-08  0.93827000000E+00  0.93827000000E+00 0. -1.
     999902    2    1    2    0    0 -0.10074021863E-01 -0.16534122203E-01 -0.11885745145E-01  0.10212114162E+01  0.10209586781E+01 0.  0.
     999903    2    3    3    0    0 -0.10996540548E+00  0.15271879107E-01  0.67486441151E-01  0.13144186500E+00  0.19922937526E-01 0.  0.
         14    1    1    2    0    0  0.10074021863E-01  0.16534122203E-01  0.11885745145E-01  0.22718583828E-01  0.00000000000E+00 0. -1.
     999901    1    3    3    0    0  0.99891383621E-01 -0.31806001310E-01 -0.79372186296E-01  0.88976955118E+00  0.88000000000E+00 0.  1.
        -11    1    4    4    0    0 -0.87931366543E-01  0.10335358925E-01  0.62321796104E-01  0.10827286020E+00  0.51100000000E-03 0. -1.
         11    1    4    4    0    0 -0.22034038941E-01  0.49365201825E-02  0.51646450468E-02  0.23169004792E-01  0.51100000000E-03 0.  1.
</event>
<event>
 8    1  0.1135368E+005  0.1043930E+01  0.7957747E-01            NaN
         13   -1    0    0    0    0  0.00000000000E+00  0.00000000000E+00  0.74505805969E-08  0.10566000000E+00  0.10566000000E+00 0.  1.
     999900   -1    0    0    0    0 -0.00000000000E+00 -0.00000000000E+00 -0.74505805969E-08  0.93827000000E+00  0.93827000000E+00 0. -1.
     999902    2    1    2    0    0 -0.42825297510E-02  0.22119172202E-01  0.53334669775E-02  0.10207773822E+01  0.10205147820E+01 0.  0.
     999903    2    3    3    0    0  0.49851346016E-02  0.50746259004E-01  0.12082217127E+00  0.13272161792E+00  0.20420490265E-01 0.  0.
         14    1    1    2    0    0  0.42825297510E-02 -0.22119172202E-01 -0.53334669775E-02  0.23152617777E-01  0.00000000000E+00 0.  1.
     999901    1    3    3    0    0 -0.92676643526E-02 -0.28627086802E-01 -0.11548870429E+00  0.88805576431E+00  0.88000000000E+00 0. -1.
        -11    1    4    4    0    0  0.11589719972E-01  0.29436912357E-01  0.58237996277E-01  0.66278041231E-01  0.51100000000E-03 0. -1.
         11    1    4    4    0    0 -0.66045853700E-02  0.21309346647E-01  0.62584174989E-01  0.66443576684E-01  0.51100000000E-03 0.  1.
</event>
<event>
 8    1  0.1135368E+005  0.1043930E+01  0.7957747E-01            NaN
         13   -1    0    0    0    0  0.00000000000E+00  0.00000000000E+00  0.74505805969E-08  0.10566000000E+00  0.10566000000E+00 0.  1.
     999900   -1    0    0    0    0 -0.00000000000E+00 -0.00000000000E+00 -0.74505805969E-08  0.93827000000E+00  0.93827000000E+00 0. -1.
     999902    2    1    2    0    0  0.15647555575E-01 -0.33614347483E-02  0.17719294935E-01  0.10200528425E+01  0.10197733487E+01 0.  0.
     999903    2    3    3    0    0 -0.37221004870E-01  0.63935945892E-01 -0.10224781577E+00  0.12779944248E+00  0.20121463381E-01 0.  0.
         14    1    1    2    0    0 -0.15647555575E-01  0.33614347483E-02 -0.17719294935E-01  0.23877157537E-01  0.00000000000E+00 0. -1.
     999901    1    3    3    0    0  0.52868560445E-01 -0.67297380640E-01  0.11996711071E+00  0.89225339998E+00  0.88000000000E+00 0.  1.
        -11    1    4    4    0    0 -0.14500254469E-01  0.41440165968E-01 -0.49990706935E-01  0.66534777643E-01  0.51100000000E-03 0.  1.
         11    1    4    4    0    0 -0.22720750401E-01  0.22495779924E-01 -0.52257108836E-01  0.61264664841E-01  0.51100000000E-03 0. -1.
</event>
<event>
 8    1  0.1135368E+005  0.1043930E+01  0.7957747E-01            NaN
         13   -1    0    0    0    0  0.00000000000E+00  0.00000000000E+00  0.74505805969E-08  0.10566000000E+00  0.10566000000E+00 0.  1.
     999900   -1    0    0    0    0 -0.00000000000E+00 -0.00000000000E+00 -0.74505805969E-08  0.93827000000E+00  0.93827000000E+00 0. -1.
     999902    2    1    2    0    0 -0.73211847462E-02 -0.21235089344E-01  0.98799911277E-02  0.10193913980E+01  0.10190960108E+01 0.  0.
     999903    2    3    3    0    0 -0.76496150438E-01 -0.10261401506E+00  0.29050531123E-01  0.13272617645E+00  0.19773908009E-01 0.  0.
         14    1    1    2    0    0  0.73211847462E-02  0.21235089344E-01 -0.98799911277E-02  0.24538602043E-01  0.00000000000E+00 0. -1.
     999901    1    3    3    0    0  0.69174965692E-01  0.81378925714E-01 -0.19170539996E-01  0.88666522151E+00  0.88000000000E+00 0.  1.
        -11    1    4    4    0    0 -0.46590667723E-01 -0.55541406014E-01  0.25467227087E-01  0.76839956256E-01  0.51100000000E-03 0.  1.
         11    1    4    4    0    0 -0.29905482716E-01 -0.47072609044E-01  0.35833040361E-02  0.55886220193E-01  0.51100000000E-03 0. -1.
</event>
<event>
 8    1  0.1135368E+005  0.1043930E+01  0.7957747E-01            NaN
         13   -1    0    0    0    0  0.00000000000E+00  0.00000000000E+00  0.74505805969E-08  0.10566000000E+00  0.10566000000E+00 0. -1.
     999900   -1    0    0    0    0 -0.00000000000E+00 -0.00000000000E+00 -0.74505805969E-08  0.93827000000E+00  0.93827000000E+00 0. -1.
     999902    2    1    2    0    0  0.16479414047E-01  0.17747938979E-01  0.10143897298E-01  0.10176724472E+01  0.10173336477E+01 0.  0.
     999903    2    3    3    0    0 -0.14212020025E-01  0.45025096196E-01  0.11925565226E+00  0.12998366026E+00  0.21085552806E-01 0.  0.
         14    1    1    2    0    0 -0.16479414047E-01 -0.17747938979E-01 -0.10143897298E-01  0.26257552775E-01  0.00000000000E+00 0.  1.
     999901    1    3    3    0    0  0.30691434072E-01 -0.27277157217E-01 -0.10911175497E+00  0.88768878696E+00  0.88000000000E+00 0. -1.
        -11    1    4    4    0    0  0.47145094693E-02  0.81853020960E-02  0.32476150254E-01  0.33825836668E-01  0.51100000000E-03 0. -1.
         11    1    4    4    0    0 -0.18926529494E-01  0.36839794100E-01  0.86779502009E-01  0.96157823592E-01  0.51100000000E-03 0.  1.
</event>
<event>
 8    1  0.1135368E+005  0.1043930E+01  0.7957747E-01            NaN
         13   -1    0    0    0    0  0.00000000000E+00  0.00000000000E+00  0.74505805969E-08  0.10566000000E+00  0.10566000000E+00 0. -1.
     999900   -1    0    0    0    0 -0.00000000000E+00 -0.00000000000E+00 -0.74505805969E-08  0.93827000000E+00  0.93827000000E+00 0.  1.
     999902    2    1    2    0    0 -0.92784822525E-02 -0.75198523841E-02 -0.20070800570E-01  0.10205745842E+01  0.10203073098E+01 0.  0.
     999903    2    3    3    0    0 -0.10323534925E+00  0.78336191304E-01 -0.53763504089E-02  0.13129674235E+00  0.20391988737E-01 0.  0.
         14    1    1    2    0    0  0.92784822525E-02  0.75198523841E-02  0.20070800570E-01  0.23355415824E-01  0.00000000000E+00 0. -1.
     999901    1    3    3    0    0  0.93956867002E-01 -0.85856043688E-01 -0.14694450161E-01  0.88927784182E+00  0.88000000000E+00 0.  1.
        -11    1    4    4    0    0 -0.87218280303E-01  0.63962621212E-01 -0.11876866787E-01  0.10880977170E+00  0.51100000000E-03 0. -1.
         11    1    4    4    0    0 -0.16017068952E-01  0.14373570092E-01  0.65005163777E-02  0.22486970653E-01  0.51100000000E-03 0.  1.
</event>
<event>
 8    1  0.1135368E+005  0.1043930E+01  0.7957747E-01            NaN
         13   -1    0    0    0    0  0.00000000000E+00  0.00000000000E+00  0.74505805969E-08  0.10566000000E+00  0.10566000000E+00 0. -1.
     999900   -1    0    0    0    0 -0.00000000000E+00 -0.00000000000E+00 -0.74505805969E-08  0.93827000000E+00  0.93827000000E+00 0. -1.
     999902    2    1    2    0    0  0.30192249132E-03 -0.87637405475E-02  0.23585834689E-01  0.10187668145E+01  0.10184560061E+01 0.  0.
     999903    2    3    3    0    0  0.82751056465E-01  0.77622763254E-01 -0.54125707666E-01  0.12730757734E+00  0.20114579222E-01 0.  0.
         14    1    1    2    0    0 -0.30192249132E-03  0.87637405475E-02 -0.23585834689E-01  0.25163185481E-01  0.00000000000E+00 0.  1.
     999901    1    3    3    0    0 -0.82449133973E-01 -0.86386503801E-01  0.77711542355E-01  0.89145923718E+00  0.88000000000E+00 0. -1.
        -11    1    4    4    0    0  0.87901826474E-02  0.16747837758E-01 -0.46129457821E-02  0.19475568549E-01  0.51100000000E-03 0. -1.
         11    1    4    4    0    0  0.73960873817E-01  0.60874925496E-01 -0.49512761884E-01  0.10783200879E+00  0.51100000000E-03 0.  1.
</event>
<event>
 8    1  0.1135368E+005  0.1043930E+01  0.7957747E-01            NaN
         13   -1    0    0    0    0  0.00000000000E+00  0.00000000000E+00  0.74505805969E-08  0.10566000000E+00  0.10566000000E+00 0. -1.
     999900   -1    0    0    0    0 -0.00000000000E+00 -0.00000000000E+00 -0.74505805969E-08  0.93827000000E+00  0.93827000000E+00 0. -1.
     999902    2    1    2    0    0  0.14573944881E-01  0.12790325745E-01  0.14722430337E-01  0.10195837014E+01  0.10192929814E+01 0.  0.
     999903    2    3    3    0    0 -0.46215456205E-03  0.10454246634E+00 -0.71914037482E-01  0.13045467971E+00  0.30289500099E-01 0.  0.
         14    1    1    2    0    0 -0.14573944881E-01 -0.12790325745E-01 -0.14722430337E-01  0.24346298632E-01  0.00000000000E+00 0.  1.
     999901    1    3    3    0    0  0.15036099443E-01 -0.91752140600E-01  0.86636467819E-01  0.88912902165E+00  0.88000000000E+00 0. -1.
        -11    1    4    4    0    0  0.86546332487E-02  0.72974855609E-01 -0.61948692458E-01  0.96115211315E-01  0.51100000000E-03 0.  1.
         11    1    4    4    0    0 -0.91167878107E-02  0.31567610735E-01 -0.99653450238E-02  0.34339468399E-01  0.51100000000E-03 0. -1.
</event>
<event>
 8    1  0.1135368E+005  0.1043930E+01  0.7957747E-01            NaN
         13   -1    0    0    0    0  0.00000000000E+00  0.00000000000E+00  0.74505805969E-08  0.10566000000E+00  0.10566000000E+00 0.  1.
     999900   -1    0    0    0    0 -0.00000000000E+00 -0.00000000000E+00 -0.74505805969E-08  0.93827000000E+00  0.93827000000E+00 0.  1.
     999902    2    1    2    0    0  0.95838030183E-02  0.20947530017E-01 -0.50718168940E-02  0.10203424690E+01  0.10200697929E+01 0.  0.
     999903    2    3    3    0    0  0.10579108468E+00 -0.50447906990E-01 -0.54522655673E-01  0.13084905418E+00  0.20298031452E-01 0.  0.
         14    1    1    2    0    0 -0.95838030183E-02 -0.20947530017E-01  0.50718168940E-02  0.23587531043E-01  0.00000000000E+00 0.  1.
     999901    1    3    3    0    0 -0.96207281664E-01  0.71395437007E-01  0.49450838779E-01  0.88949341477E+00  0.88000000000E+00 0. -1.
        -11    1    4    4    0    0  0.49384855692E-01 -0.31889154883E-01 -0.19658578746E-01  0.61987926326E-01  0.51100000000E-03 0. -1.
         11    1    4    4    0    0  0.56406228990E-01 -0.18558752107E-01 -0.34864076927E-01  0.68861127856E-01  0.51100000000E-03 0.  1.
</event>
<event>
 8    1  0.1135368E+005  0.1043930E+01  0.7957747E-01            NaN
         13   -1    0    0    0    0  0.00000000000E+00  0.00000000000E+00  0.74505805969E-08  0.10566000000E+00  0.10566000000E+00 0. -1.
     999900   -1    0    0    0    0 -0.00000000000E+00 -0.00000000000E+00 -0.74505805969E-08  0.93827000000E+00  0.93827000000E+00 0. -1.
     999902    2    1    2    0    0  0.12049402918E-01 -0.90820403492E-02  0.24878930403E-01  0.10148330458E+01  0.10144158309E+01 0.  0.
     999903    2    3    3    0    0 -0.85051738950E-01 -0.82404044879E-01 -0.33004083821E-01  0.12457735697E+00  0.20150022582E-01 0.  0.
         14    1    1    2    0    0 -0.12049402918E-01  0.90820403492E-02 -0.24878930403E-01  0.29096954232E-01  0.00000000000E+00 0.  1.
     999901    1    3    3    0    0  0.97101141868E-01  0.73322004530E-01  0.57883014224E-01  0.89025568880E+00  0.88000000000E+00 0.  1.
        -11    1    4    4    0    0 -0.82649887491E-01 -0.75289493353E-01 -0.34288401835E-01  0.11694215379E+00  0.51100000000E-03 0. -1.
         11    1    4    4    0    0 -0.24018514590E-02 -0.71145515259E-02  0.12843180142E-02  0.76352031805E-02  0.51100000000E-03 0.  1.
</event>
<event>
 8    1  0.1135368E+005  0.1043930E+01  0.7957747E-01            NaN
         13   -1    0    0    0    0  0.00000000000E+00  0.00000000000E+00  0.74505805969E-08  0.10566000000E+00  0.10566000000E+00 0.  1.
     999900   -1    0    0    0    0 -0.00000000000E+00 -0.00000000000E+00 -0.74505805969E-08  0.93827000000E+00  0.93827000000E+00 0. -1.
     999902    2    1    2    0    0 -0.17686651986E-01 -0.42977080637E-02 -0.15043383120E-01  0.10203166282E+01  0.10200433473E+01 0.  0.
     999903    2    3    3    0    0  0.98291669320E-01 -0.75951074164E-01 -0.31695463796E-01  0.12966379588E+00  0.19449411638E-01 0.  0.
         14    1    1    2    0    0  0.17686651986E-01  0.42977080637E-02  0.15043383120E-01  0.23613371821E-01  0.00000000000E+00 0.  1.
     999901    1    3    3    0    0 -0.11597832131E+00  0.71653366100E-01  0.16652080675E-01  0.89065283230E+00  0.88000000000E+00 0.  1.
        -11    1    4    4    0    0  0.12215016363E-01 -0.16456449984E-01 -0.99609484595E-02  0.22792608145E-01  0.51100000000E-03 0.  1.
         11    1    4    4    0    0  0.86076652957E-01 -0.59494624180E-01 -0.21734515336E-01  0.10687118774E+00  0.51100000000E-03 0. -1.
</event>
<event>
 8    1  0.1135368E+005  0.1043930E+01  0.7957747E-01            NaN
         13   -1    0    0    0    0  0.00000000000E+00  0.00000000000E+00  0.74505805969E-08  0.10566000000E+00  0.10566000000E+00 0. -1.
     999900   -1    0    0    0    0 -0.00000000000E+00 -0.00000000000E+00 -0.74505805969E-08  0.93827000000E+00  0.93827000000E+00 0.  1.
     999902    2    1    2    0    0 -0.58288346908E-02  0.22564842026E-01  0.46245216451E-02  0.10201700840E+01  0.10198933604E+01 0.  0.
     999903    2    3    3    0    0 -0.88023777564E-01 -0.28182954027E-01 -0.89086581860E-01  0.12993802525E+00  0.20124786337E-01 0.  0.
         14    1    1    2    0    0  0.58288346908E-02 -0.22564842026E-01 -0.46245216451E-02  0.23759916034E-01  0.00000000000E+00 0.  1.
     999901    1    3    3    0    0  0.82194942873E-01  0.50747796052E-01  0.93711103505E-01  0.89023205871E+00  0.88000000000E+00 0. -1.
        -11    1    4    4    0    0 -0.23225300550E-01 -0.14698954080E-01 -0.18283993053E-01  0.33015744117E-01  0.51100000000E-03 0. -1.
         11    1    4    4    0    0 -0.64798477014E-01 -0.13483999947E-01 -0.70802588807E-01  0.96922281137E-01  0.51100000000E-03 0.  1.
</event>
<event>
 7    1  0.1662076E+005  0.1043930E+01  0.7957747E-01            NaN
         13   -1    0    0    0    0  0.00000000000E+00  0.00000000000E+00  0.74505805969E-08  0.10566000000E+00  0.10566000000E+00 0. -1.
     999900   -1    0    0    0    0 -0.00000000000E+00 -0.00000000000E+00 -0.74505805969E-08  0.93827000000E+00  0.93827000000E+00 0.  1.
     999902    2    1    2    0    0 -0.34765955999E-01 -0.12053158777E-01 -0.10522772162E-03  0.10071337854E+01  0.10064613755E+01 0.  0.
         14    1    1    2    0    0  0.34765955999E-01  0.12053158777E-01  0.10522772162E-03  0.36796214559E-01  0.00000000000E+00 0. -1.
     999901    1    3    3    0    0 -0.14519178739E-01 -0.12768833177E+00  0.85621801397E-02  0.88937530185E+00  0.88000000000E+00 0. -1.
        -11    1    3    3    0    0 -0.89122655588E-02  0.50507002450E-01 -0.22596569788E-02  0.51339584577E-01  0.51100000000E-03 0. -1.
         11    1    3    3    0    0 -0.11334511701E-01  0.65128170539E-01 -0.64077508825E-02  0.66418899009E-01  0.51100000000E-03 0.  1.
</event>
<event>
 8    1  0.1135368E+005  0.1043930E+01  0.7957747E-01            NaN
         13   -1    0    0    0    0  0.00000000000E+00  0.00000000000E+00  0.74505805969E-08  0.10566000000E+00  0.10566000000E+00 0. -1.
     999900   -1    0    0    0    0 -0.00000000000E+00 -0.00000000000E+00 -0.74505805969E-08  0.93827000000E+00  0.93827000000E+00 0. -1.
     999902    2    1    2    0    0  0.20086738967E-01  0.79771785202E-02 -0.78567799276E-02  0.10209334470E+01  0.10206744151E+01 0.  0.
     999903    2    3    3    0    0  0.64391760247E-01 -0.10877475698E-02  0.11291380923E+00  0.13153441225E+00  0.20106996502E-01 0.  0.
         14    1    1    2    0    0 -0.20086738967E-01 -0.79771785202E-02  0.78567799276E-02  0.22996553009E-01  0.00000000000E+00 0. -1.
     999901    1    3    3    0    0 -0.44305021280E-01  0.90649260900E-02 -0.12077058916E+00  0.88939903474E+00  0.88000000000E+00 0. -1.
        -11    1    4    4    0    0  0.18506788242E-02  0.15642225425E-02  0.15801985314E-01  0.15994863711E-01  0.51100000000E-03 0. -1.
         11    1    4    4    0    0  0.62541081423E-01 -0.26519701123E-02  0.97111823916E-01  0.11553954854E+00  0.51100000000E-03 0.  1.
</event>
<event>
 8    1  0.1135368E+005  0.1043930E+01  0.7957747E-01            NaN
         13   -1    0    0    0    0  0.00000000000E+00  0.00000000000E+00  0.74505805969E-08  0.10566000000E+00  0.10566000000E+00 0.  1.
     999900   -1    0    0    0    0 -0.00000000000E+00 -0.00000000000E+00 -0.74505805969E-08  0.93827000000E+00  0.93827000000E+00 0.  1.
     999902    2    1    2    0    0  0.84426681835E-02 -0.12985432951E-01  0.17335972977E-01  0.10206827190E+01  0.10204179422E+01 0.  0.
     999903    2    3    3    0    0  0.44101460930E-01 -0.26311247503E-01 -0.11723569535E+00  0.12963913939E+00  0.20612559220E-01 0.  0.
         14    1    1    2    0    0 -0.84426681835E-02  0.12985432951E-01 -0.17335972977E-01  0.23247281004E-01  0.00000000000E+00 0. -1.
     999901    1    3    3    0    0 -0.35658792746E-01  0.13325814551E-01  0.13457166833E+00  0.89104357960E+00  0.88000000000E+00 0. -1.
        -11    1    4    4    0    0  0.14111995401E-01 -0.19733342150E-01 -0.44466657077E-01  0.50656667075E-01  0.51100000000E-03 0. -1.
         11    1    4    4    0    0  0.29989465529E-01 -0.65779053532E-02 -0.72769038272E-01  0.78982472319E-01  0.51100000000E-03 0.  1.
</event>
<event>
 8    1  0.1135368E+005  0.1043930E+01  0.7957747E-01            NaN
         13   -1    0    0    0    0  0.00000000000E+00  0.00000000000E+00  0.74505805969E-08  0.10566000000E+00  0.10566000000E+00 0. -1.
     999900   -1    0    0    0    0 -0.00000000000E+00 -0.00000000000E+00 -0.74505805969E-08  0.93827000000E+00  0.93827000000E+00 0.  1.
     999902    2    1    2    0    0 -0.12542241977E-01  0.20073391058E-01 -0.58214813584E-02  0.10195550434E+01  0.10192636303E+01 0.  0.
     999903    2    3    3    0    0 -0.12464802855E+00 -0.11542719169E-01 -0.34853632082E-01  0.13140519595E+00  0.19549538768E-01 0.  0.
         14    1    1    2    0    0  0.12542241977E-01 -0.20073391058E-01  0.58214813584E-02  0.24374956566E-01  0.00000000000E+00 0. -1.
     999901    1    3    3    0    0  0.11210578657E+00  0.31616110228E-01  0.29032150724E-01  0.88814984748E+00  0.88000000000E+00 0. -1.
        -11    1    4    4    0    0 -0.14131225183E-01  0.45358316040E-02 -0.19503340991E-02  0.14977657280E-01  0.51100000000E-03 0. -1.
         11    1    4    4    0    0 -0.11051680337E+00 -0.16078550773E-01 -0.32903297983E-01  0.11642753867E+00  0.51100000000E-03 0.  1.
</event>
<event>
 8    1  0.1135368E+005  0.1043930E+01  0.7957747E-01            NaN
         13   -1    0    0    0    0  0.00000000000E+00  0.00000000000E+00  0.74505805969E-08  0.10566000000E+00  0.10566000000E+00 0. -1.
     999900   -1    0    0    0    0 -0.00000000000E+00 -0.00000000000E+00 -0.74505805969E-08  0.93827000000E+00  0.93827000000E+00 0. -1.
     999902    2    1    2    0    0  0.77502956443E-02  0.73895063230E-02 -0.20778782890E-01  0.10205541641E+01  0.10202864167E+01 0.  0.
     999903    2    3    3    0    0 -0.13930619550E-01  0.85864985644E-01 -0.99081680678E-01  0.13333389451E+00  0.19846663687E-01 0.  0.
         14    1    1    2    0    0 -0.77502956443E-02 -0.73895063230E-02  0.20778782890E-01  0.23375835914E-01  0.00000000000E+00 0. -1.
     999901    1    3    3    0    0  0.21680915195E-01 -0.78475479321E-01  0.78302897787E-01  0.88722026957E+00  0.88000000000E+00 0.  1.
        -11    1    4    4    0    0 -0.45794544166E-03  0.26265375268E-01 -0.43011448933E-01  0.50401641960E-01  0.51100000000E-03 0. -1.
         11    1    4    4    0    0 -0.13472674109E-01  0.59599610376E-01 -0.56070231745E-01  0.82932252554E-01  0.51100000000E-03 0.  1.
</event>
<event>
 8    1  0.1135368E+005  0.1043930E+01  0.7957747E-01            NaN
         13   -1    0    0    0    0  0.00000000000E+00  0.00000000000E+00  0.74505805969E-08  0.10566000000E+00  0.10566000000E+00 0.  1.
     999900   -1    0    0    0    0 -0.00000000000E+00 -0.00000000000E+00 -0.74505805969E-08  0.93827000000E+00  0.93827000000E+00 0.  1.
     999902    2    1    2    0    0 -0.16386156332E-01  0.10521629792E-01 -0.13418317240E-01  0.10202812780E+01  0.10200071687E+01 0.  0.
     999903    2    3    3    0    0 -0.33135886899E-02 -0.10971185187E+00 -0.67258890299E-01  0.13037915452E+00  0.20671122345E-01 0.  0.
         14    1    1    2    0    0  0.16386156332E-01 -0.10521629792E-01  0.13418317240E-01  0.23648721961E-01  0.00000000000E+00 0.  1.
     999901    1    3    3    0    0 -0.13072567642E-01  0.12023348166E+00  0.53840573059E-01  0.88990212352E+00  0.88000000000E+00 0.  1.
        -11    1    4    4    0    0  0.17079683330E-02 -0.10021913432E+00 -0.56025377820E-01  0.11482985727E+00  0.51100000000E-03 0.  1.
         11    1    4    4    0    0 -0.50215570229E-02 -0.94927175468E-02 -0.11233512479E-01  0.15549297250E-01  0.51100000000E-03 0. -1.
</event>
<event>
 8    1  0.1135368E+005  0.1043930E+01  0.7957747E-01            NaN
         13   -1    0    0    0    0  0.00000000000E+00  0.00000000000E+00  0.74505805969E-08  0.10566000000E+00  0.10566000000E+00 0.  1.
     999900   -1    0    0    0    0 -0.00000000000E+00 -0.00000000000E+00 -0.74505805969E-08  0.93827000000E+00  0.93827000000E+00 0.  1.
     999902    2    1    2    0    0 -0.89582078145E-02  0.20832414924E-01 -0.38624585545E-02  0.10209265745E+01  0.10206673860E+01 0.  0.
     999903    2    3    3    0    0  0.52595913159E-03 -0.12425240946E+00  0.25692177821E-01  0.12850681215E+00  0.20370932184E-01 0.  0.
         14    1    1    2    0    0  0.89582078145E-02 -0.20832414924E-01  0.38624585545E-02  0.23003425503E-01  0.00000000000E+00 0. -1.
     999901    1    3    3    0    0 -0.94841669461E-02  0.14508482439E+00 -0.29554636376E-01  0.89241976234E+00  0.88000000000E+00 0. -1.
        -11    1    4    4    0    0  0.57662601886E-02 -0.15261467967E-01 -0.34192000912E-03  0.16326058660E-01  0.51100000000E-03 0.  1.
         11    1    4    4    0    0 -0.52403010570E-02 -0.10899094150E+00  0.26034097830E-01  0.11218075349E+00  0.51100000000E-03 0. -1.
</event>
<event>
 8    1  0.1135368E+005  0.1043930E+01  0.7957747E-01            NaN
         13   -1    0    0    0    0  0.00000000000E+00  0.00000000000E+00  0.74505805969E-08  0.10566000000E+00  0.10566000000E+00 0.  1.
     999900   -1    0    0    0    0 -0.00000000000E+00 -0.00000000000E+00 -0.74505805969E-08  0.93827000000E+00  0.93827000000E+00 0.  1.
     999902    2    1    2    0    0 -0.20544474737E-01  0.75497290910E-02 -0.84236498336E-02  0.10204772448E+01  0.10202077119E+01 0.  0.
     999903    2    3    3    0    0  0.66723016525E-01  0.73689802466E-01  0.80719438430E-01  0.12922160550E+00  0.17333426259E-01 0.  0.
         14    1    1    2    0    0  0.20544474737E-01 -0.75497290910E-02  0.84236498336E-02  0.23452755234E-01  0.00000000000E+00 0.  1.
     999901    1    3    3    0    0 -0.87267491262E-01 -0.66140073375E-01 -0.89143088264E-01  0.89125563927E+00  0.88000000000E+00 0.  1.
        -11    1    4    4    0    0  0.15022380804E-01  0.26040622757E-01  0.30414680616E-01  0.42767977233E-01  0.51100000000E-03 0. -1.
         11    1    4    4    0    0  0.51700635721E-01  0.47649179710E-01  0.50304757814E-01  0.86453628268E-01  0.51100000000E-03 0.  1.
</event>
<event>
 8    1  0.1135368E+005  0.1043930E+01  0.7957747E-01            NaN
         13   -1    0    0    0    0  0.00000000000E+00  0.00000000000E+00  0.74505805969E-08  0.10566000000E+00  0.10566000000E+00 0. -1.
     999900   -1    0    0    0    0 -0.00000000000E+00 -0.00000000000E+00 -0.74505805969E-08  0.93827000000E+00  0.93827000000E+00 0. -1.
     999902    2    1    2    0    0  0.41759523963E-02 -0.18167296993E-01 -0.16883991468E-01  0.10187792858E+01  0.10184687893E+01 0.  0.
     999903    2    3    3    0    0  0.76743296667E-01  0.78810657370E-01 -0.64918485553E-01  0.12918496491E+00  0.19331117229E-01 0.  0.
         14    1    1    2    0    0 -0.41759523963E-02  0.18167296993E-01  0.16883991468E-01  0.25150714231E-01  0.00000000000E+00 0. -1.
     999901    1    3    3    0    0 -0.72567344271E-01 -0.96977954363E-01  0.48034494085E-01  0.88959432086E+00  0.88000000000E+00 0.  1.
        -11    1    4    4    0    0  0.29641794046E-01  0.40309555212E-01 -0.21595882629E-01  0.54498985891E-01  0.51100000000E-03 0. -1.
         11    1    4    4    0    0  0.47101502621E-01  0.38501102158E-01 -0.43322602924E-01  0.74685979017E-01  0.51100000000E-03 0.  1.
</event>
<event>
 8    1  0.1135368E+005  0.1043930E+01  0.7957747E-01            NaN
         13   -1    0    0    0    0  0.00000000000E+00  0.00000000000E+00  0.74505805969E-08  0.10566000000E+00  0.10566000000E+00 0.  1.
     999900   -1    0    0    0    0 -0.00000000000E+00 -0.00000000000E+00 -0.74505805969E-08  0.93827000000E+00  0.93827000000E+00 0. -1.
     999902    2    1    2    0    0 -0.73000670203E-02  0.12610677820E-01  0.18592127476E-01  0.10203082436E+01  0.10200347663E+01 0.  0.
     999903    2    3    3    0    0 -0.12480679836E+00 -0.22943421972E-01  0.28288606772E-01  0.13173300890E+00  0.21217983689E-01 0.  0.
         14    1    1    2    0    0  0.73000670203E-02 -0.12610677820E-01 -0.18592127476E-01  0.23621756447E-01  0.00000000000E+00 0.  1.
     999901    1    3    3    0    0  0.11750673134E+00  0.35554099792E-01 -0.96964792960E-02  0.88857523465E+00  0.88000000000E+00 0. -1.
        -11    1    4    4    0    0 -0.10648290345E+00 -0.12263509743E-01  0.26669962025E-01  0.11045610166E+00  0.51100000000E-03 0.  1.
         11    1    4    4    0    0 -0.18323894915E-01 -0.10679912229E-01  0.16186447469E-02  0.21276907244E-01  0.51100000000E-03 0. -1.
</event>
<event>
 8    1  0.1135368E+005  0.1043930E+01  0.7957747E-01            NaN
         13   -1    0    0    0    0  0.00000000000E+00  0.00000000000E+00  0.74505805969E-08  0.10566000000E+00  0.10566000000E+00 0. -1.
     999900   -1    0    0    0    0 -0.00000000000E+00 -0.00000000000E+00 -0.74505805969E-08  0.93827000000E+00  0.93827000000E+00 0. -1.
     999902    2    1    2    0    0 -0.23378427985E-02  0.83924097631E-02 -0.22029252500E-01  0.10202406350E+01  0.10199655716E+01 0.  0.
     999903    2    3    3    0    0 -0.10067368956E+00 -0.83328242674E-03  0.78363313878E-01  0.12904272229E+00  0.19373411769E-01 0.  0.
         14    1    1    2    0    0  0.23378427985E-02 -0.83924097631E-02  0.22029252500E-01  0.23689365046E-01  0.00000000000E+00 0. -1.
     999901    1    3    3    0    0  0.98335846766E-01  0.92256921898E-02 -0.10039256638E+00  0.89119791267E+00  0.88000000000E+00 0. -1.
        -11    1    4    4    0    0 -0.61244661355E-01  0.69511469560E-02  0.40010407659E-01  0.73486875226E-01  0.51100000000E-03 0.  1.
         11    1    4    4    0    0 -0.39429028210E-01 -0.77844293828E-02  0.38352906219E-01  0.55555847063E-01  0.51100000000E-03 0. -1.
</event>
<event>
 8    1  0.1135368E+005  0.1043930E+01  0.7957747E-01            NaN
         13   -1    0    0    0    0  0.00000000000E+00  0.00000000000E+00  0.74505805969E-08  0.10566000000E+00  0.10566000000E+00 0. -1.
     999900   -1    0    0    0    0 -0.00000000000E+00 -0.00000000000E+00 -0.74505805969E-08  0.93827000000E+00  0.93827000000E+00 0. -1.
     999902    2    1    2    0    0  0.14278874011E-01 -0.56497232054E-02 -0.18978119049E-01  0.10195174086E+01  0.10192250840E+01 0.  0.
     999903    2    3    3    0    0 -0.12413940457E+00  0.21506398316E-01 -0.14543741817E-01  0.12827292001E+00  0.19217300661E-01 0.  0.
         14    1    1    2    0    0 -0.14278874011E-01  0.56497232054E-02  0.18978119049E-01  0.24412591381E-01  0.00000000000E+00 0. -1.
     999901    1    3    3    0    0  0.13841827858E+00 -0.27156121521E-01 -0.44343772324E-02  0.89124448861E+00  0.88000000000E+00 0. -1.
        -11    1    4    4    0    0 -0.49462604812E-01  0.16849780067E-02  0.79715086031E-03  0.49500353496E-01  0.51100000000E-03 0. -1.
         11    1    4    4    0    0 -0.74676799760E-01  0.19821420309E-01 -0.15340892677E-01  0.78772566510E-01  0.51100000000E-03 0.  1.
</event>
<event>
 8    1  0.1135368E+005  0.1043930E+01  0.7957747E-01            NaN
         13   -1    0    0    0    0  0.00000000000E+00  0.00000000000E+00  0.74505805969E-08  0.10566000000E+00  0.10566000000E+00 0. -1.
     999900   -1    0    0    0    0 -0.00000000000E+00 -0.00000000000E+00 -0.74505805969E-08  0.93827000000E+00  0.93827000000E+00 0. -1.
     999902    2    1    2    0    0  0.28768404071E-01  0.12245700845E-01  0.75922914767E-02  0.10117551472E+01  0.10112434211E+01 0.  0.
     999903    2    3    3    0    0 -0.43652757514E-01 -0.10618046833E+00  0.30824326357E-01  0.12057092965E+00  0.20183034658E-01 0.  0.
         14    1    1    2    0    0 -0.28768404071E-01 -0.12245700845E-01 -0.75922914767E-02  0.32174852786E-01  0.00000000000E+00 0.  1.
     999901    1    3    3    0    0  0.72421161584E-01  0.11842616917E+00 -0.23232034880E-01  0.89118421756E+00  0.88000000000E+00 0. -1.
        -11    1    4    4    0    0 -0.17945280542E-02 -0.13763476320E-01 -0.17844974981E-02  0.14003541112E-01  0.51100000000E-03 0.  1.
         11    1    4    4    0    0 -0.41858229459E-01 -0.92416992009E-01  0.32608823855E-01  0.10656738854E+00  0.51100000000E-03 0. -1.
</event>
<event>
 8    1  0.1135368E+005  0.1043930E+01  0.7957747E-01            NaN
         13   -1    0    0    0    0  0.00000000000E+00  0.00000000000E+00  0.74505805969E-08  0.10566000000E+00  0.10566000000E+00 0.  1.
     999900   -1    0    0    0    0 -0.00000000000E+00 -0.00000000000E+00 -0.74505805969E-08  0.93827000000E+00  0.93827000000E+00 0.  1.
     999902    2    1    2    0    0  0.98033587423E-02 -0.22570420582E-01 -0.41479464203E-02  0.10189753374E+01  0.10186697222E+01 0.  0.
     999903    2    3    3    0    0  0.10474378078E+00 -0.66703002220E-01 -0.40133008364E-01  0.13203887223E+00  0.20076237262E-01 0.  0.
         14    1    1    2    0    0 -0.98033587423E-02  0.22570420582E-01  0.41479464203E-02  0.24954662638E-01  0.00000000000E+00 0.  1.
     999901    1    3    3    0    0 -0.94940422035E-01  0.44132581637E-01  0.35985061944E-01  0.88693646513E+00  0.88000000000E+00 0.  1.
        -11    1    4    4    0    0  0.77881544381E-01 -0.56539064612E-01 -0.24397422972E-01  0.99285931284E-01  0.51100000000E-03 0. -1.
         11    1    4    4    0    0  0.26862236397E-01 -0.10163937608E-01 -0.15735585392E-01  0.32752940945E-01  0.51100000000E-03 0.  1.
</event>
<event>
 8    1  0.1135368E+005  0.1043930E+01  0.7957747E-01            NaN
         13   -1    0    0    0    0  0.00000000000E+00  0.00000000000E+00  0.74505805969E-08  0.10566000000E+00  0.10566000000E+00 0. -1.
     999900   -1    0    0    0    0 -0.00000000000E+00 -0.00000000000E+00 -0.74505805969E-08  0.93827000000E+00  0.93827000000E+00 0.  1.
     999902    2    1    2    0    0 -0.26684598621E-03 -0.20110424446E-01 -0.13784859242E-01  0.10195471634E+01  0.10192555595E+01 0.  0.
     999903    2    3    3    0    0  0.68661815340E-01 -0.55240452575E-01  0.93512337718E-01  0.12966067189E+00  0.17360300780E-01 0.  0.
         14    1    1    2    0    0  0.26684598621E-03  0.20110424446E-01  0.13784859242E-01  0.24382836638E-01  0.00000000000E+00 0. -1.
     999901    1    3    3    0    0 -0.68928661326E-01  0.35130028129E-01 -0.10729719696E+00  0.88988649147E+00  0.88000000000E+00 0.  1.
        -11    1    4    4    0    0  0.49506418595E-01 -0.33148326982E-01  0.53329483027E-01  0.79962440838E-01  0.51100000000E-03 0.  1.
         11    1    4    4    0    0  0.19155396745E-01 -0.22092125593E-01  0.40182854691E-01  0.49698231053E-01  0.51100000000E-03 0. -1.
</event>
<event>
 8    1  0.1135368E+005  0.1043930E+01  0.7957747E-01            NaN
         13   -1    0    0    0    0  0.00000000000E+00  0.00000000000E+00  0.74505805969E-08  0.10566000000E+00  0.10566000000E+00 0.  1.
     999900   -1    0    0    0    0 -0.00000000000E+00 -0.00000000000E+00 -0.74505805969E-08  0.93827000000E+00  0.93827000000E+00 0.  1.
     999902    2    1    2    0    0  0.16251332162E-01  0.15643996663E-01 -0.25202006291E-02  0.10212321622E+01  0.10209798907E+01 0.  0.
     999903    2    3    3    0    0 -0.59697935837E-01 -0.35968459350E-01 -0.10770905569E+00  0.13022327778E+00  0.22344748499E-01 0.  0.
         14    1    1    2    0    0 -0.16251332162E-01 -0.15643996663E-01  0.25202006291E-02  0.22697837779E-01  0.00000000000E+00 0. -1.
     999901    1    3    3    0    0  0.75949268000E-01  0.51612456013E-01  0.10518885507E+00  0.89100888444E+00  0.88000000000E+00 0. -1.
        -11    1    4    4    0    0 -0.35790671107E-01 -0.33512483969E-01 -0.68740100952E-01  0.84436492822E-01  0.51100000000E-03 0.  1.
         11    1    4    4    0    0 -0.23907264731E-01 -0.24559753802E-02 -0.38968954743E-01  0.45786784957E-01  0.51100000000E-03 0. -1.
</event>
<event>
 8    1  0.1135368E+005  0.1043930E+01  0.7957747E-01            NaN
         13   -1    0    0    0    0  0.00000000000E+00  0.00000000000E+00  0.74505805969E-08  0.10566000000E+00  0.10566000000E+00 0. -1.
     999900   -1    0    0    0    0 -0.00000000000E+00 -0.00000000000E+00 -0.74505805969E-08  0.93827000000E+00  0.93827000000E+00 0. -1.
     999902    2    1    2    0    0  0.16004704975E-01 -0.15777217143E-01 -0.74590302462E-02  0.10202507201E+01  0.10199758937E+01 0.  0.
     999903    2    3    3    0    0 -0.19071257155E-01  0.17344100109E-01 -0.12674585091E+00  0.13089326088E+00  0.20099859744E-01 0.  0.
         14    1    1    2    0    0 -0.16004704975E-01  0.15777217143E-01  0.74590302462E-02  0.23679279852E-01  0.00000000000E+00 0. -1.
     999901    1    3    3    0    0  0.35075962130E-01 -0.33121317252E-01  0.11928682067E+00  0.88935745927E+00  0.88000000000E+00 0.  1.
        -11    1    4    4    0    0 -0.12388447607E-01  0.61564230992E-02 -0.27434738464E-01  0.30729483807E-01  0.51100000000E-03 0.  1.
         11    1    4    4    0    0 -0.66828095482E-02  0.11187677010E-01 -0.99311112447E-01  0.10016377707E+00  0.51100000000E-03 0. -1.
</event>
<event>
 8    1  0.1135368E+005  0.1043930E+01  0.7957747E-01            NaN
         13   -1    0    0    0    0  0.00000000000E+00  0.00000000000E+00  0.74505805969E-08  0.10566000000E+00  0.10566000000E+00 0.  1.
     999900   -1    0    0    0    0 -0.00000000000E+00 -0.00000000000E+00 -0.74505805969E-08  0.93827000000E+00  0.93827000000E+00 0. -1.
     999902    2    1    2    0    0  0.24174501167E-01 -0.16390557920E-02 -0.41940360075E-02  0.10193396981E+01  0.10190430497E+01 0.  0.
     999903    2    3    3    0    0  0.14828568823E-01 -0.10903731575E+00 -0.68562560542E-01  0.13042741914E+00  0.14193811222E-01 0.  0.
         14    1    1    2    0    0 -0.24174501167E-01  0.16390557920E-02  0.41940360075E-02  0.24590301922E-01  0.00000000000E+00 0.  1.
     999901    1    3    3    0    0  0.93459323448E-02  0.10739825996E+00  0.64368524534E-01  0.88891227894E+00  0.88000000000E+00 0.  1.
        -11    1    4    4    0    0  0.39323160768E-03 -0.38232902378E-01 -0.18217136551E-01  0.42356046091E-01  0.51100000000E-03 0. -1.
         11    1    4    4    0    0  0.14435337215E-01 -0.70804413370E-01 -0.50345423991E-01  0.88071373051E-01  0.51100000000E-03 0.  1.
</event>
<event>
 8    1  0.1135368E+005  0.1043930E+01  0.7957747E-01            NaN
         13   -1    0    0    0    0  0.00000000000E+00  0.00000000000E+00  0.74505805969E-08  0.10566000000E+00  0.10566000000E+00 0. -1.
     999900   -1    0    0    0    0 -0.00000000000E+00 -0.00000000000E+00 -0.74505805969E-08  0.93827000000E+00  0.93827000000E+00 0.  1.
     999902    2    1    2    0    0 -0.12063388587E-01 -0.17422351542E-01  0.99952911558E-02  0.10204999014E+01  0.10202308950E+01 0.  0.
     999903    2    3    3    0    0 -0.66988308945E-01  0.32436174416E-01  0.10731205778E+00  0.13203314758E+00  0.19425122116E-01 0.  0.
         14    1    1    2    0    0  0.12063388587E-01  0.17422351542E-01 -0.99952911558E-02  0.23430098649E-01  0.00000000000E+00 0. -1.
     999901    1    3    3    0    0  0.54924920358E-01 -0.49858525957E-01 -0.97316766624E-01  0.88846675377E+00  0.88000000000E+00 0.  1.
        -11    1    4    4    0    0 -0.47499167714E-01  0.12771487170E-01  0.66563358163E-01  0.82766077526E-01  0.51100000000E-03 0. -1.
         11    1    4    4    0    0 -0.19489141231E-01  0.19664687245E-01  0.40748699617E-01  0.49267070055E-01  0.51100000000E-03 0.  1.
</event>
<event>
 8    1  0.1135368E+005  0.1043930E+01  0.7957747E-01            NaN
         13   -1    0    0    0    0  0.00000000000E+00  0.00000000000E+00  0.74505805969E-08  0.10566000000E+00  0.10566000000E+00 0. -1.
     999900   -1    0    0    0    0 -0.00000000000E+00 -0.00000000000E+00 -0.74505805969E-08  0.93827000000E+00  0.93827000000E+00 0. -1.
     999902    2    1    2    0    0 -0.53830337692E-03  0.23509369549E-01 -0.12491577894E-02  0.10203813138E+01  0.10201095455E+01 0.  0.
     999903    2    3    3    0    0  0.12471728273E+00 -0.14274723523E-01 -0.28373999218E-01  0.13029572433E+00  0.20340196745E-01 0.  0.
         14    1    1    2    0    0  0.53830337692E-03 -0.23509369549E-01  0.12491577894E-02  0.23548686212E-01  0.00000000000E+00 0.  1.
     999901    1    3    3    0    0 -0.12525558611E+00  0.37784093073E-01  0.27124841429E-01  0.89008558946E+00  0.88000000000E+00 0.  1.
        -11    1    4    4    0    0  0.41159810168E-01 -0.12761600721E-01 -0.42167771685E-02  0.43301625336E-01  0.51100000000E-03 0. -1.
         11    1    4    4    0    0  0.83557472561E-01 -0.15131228026E-02 -0.24157222050E-01  0.86994098993E-01  0.51100000000E-03 0.  1.
</event>
<event>
 8    1  0.1135368E+005  0.1043930E+01  0.7957747E-01            NaN
         13   -1    0    0    0    0  0.00000000000E+00  0.00000000000E+00  0.74505805969E-08  0.10566000000E+00  0.10566000000E+00 0. -1.
     999900   -1    0    0    0    0 -0.00000000000E+00 -0.00000000000E+00 -0.74505805969E-08  0.93827000000E+00  0.93827000000E+00 0. -1.
     999902    2    1    2    0    0 -0.59907980566E-02 -0.10029255796E-01  0.19338771608E-01  0.10213365558E+01  0.10210866254E+01 0.  0.
     999903    2    3    3    0    0  0.76049009024E-01  0.79337814250E-01  0.69486633464E-01  0.13159962210E+00  0.20300930107E-01 0.  0.
         14    1    1    2    0    0  0.59907980566E-02  0.10029255796E-01 -0.19338771608E-01  0.22593444192E-01  0.00000000000E+00 0.  1.
     999901    1    3    3    0    0 -0.82039807081E-01 -0.89367070046E-01 -0.50147861856E-01  0.88973693371E+00  0.88000000000E+00 0.  1.
        -11    1    4    4    0    0  0.29507340420E-01  0.45072623853E-01  0.36123140300E-01  0.64864219303E-01  0.51100000000E-03 0.  1.
         11    1    4    4    0    0  0.46541668604E-01  0.34265190398E-01  0.33363493164E-01  0.66735402797E-01  0.51100000000E-03 0. -1.
</event>
<event>
 8    1  0.1135368E+005  0.1043930E+01  0.7957747E-01            NaN
         13   -1    0    0    0    0  0.00000000000E+00  0.00000000000E+00  0.74505805969E-08  0.10566000000E+00  0.10566000000E+00 0. -1.
     999900   -1    0    0    0    0 -0.00000000000E+00 -0.00000000000E+00 -0.74505805969E-08  0.93827000000E+00  0.93827000000E+00 0. -1.
     999902    2    1    2    0    0  0.79139530091E-02 -0.16605480427E-02 -0.23539929364E-01  0.10190399147E+01  0.10187358987E+01 0.  0.
     999903    2    3    3    0    0  0.22644843506E-01  0.10563228086E+00  0.67657552123E-01  0.12772306256E+00  0.80416823117E-02 0.  0.
         14    1    1    2    0    0 -0.79139530091E-02  0.16605480427E-02  0.23539929364E-01  0.24890085305E-01  0.00000000000E+00 0. -1.
     999901    1    3    3    0    0 -0.14730890497E-01 -0.10729282890E+00 -0.91197481487E-01  0.89131685213E+00  0.88000000000E+00 0.  1.
        -11    1    4    4    0    0  0.97655131665E-02  0.63807771371E-01  0.41282190193E-01  0.76624260407E-01  0.51100000000E-03 0.  1.
         11    1    4    4    0    0  0.12879330340E-01  0.41824509486E-01  0.26375361930E-01  0.51098802155E-01  0.51100000000E-03 0. -1.
</event>
<event>
 8    1  0.1135368E+005  0.1043930E+01  0.7957747E-01            NaN
         13   -1    0    0    0    0  0.00000000000E+00  0.00000000000E+00  0.74505805969E-08  0.10566000000E+00  0.10566000000E+00 0. -1.
     999900   -1    0    0    0    0 -0.00000000000E+00 -0.00000000000E+00 -0.74505805969E-08  0.93827000000E+00  0.93827000000E+00 0. -1.
     999902    2    1    2    0    0 -0.23350001501E-01  0.41049645401E-02 -0.39437000538E-02  0.10198961473E+01  0.10196129291E+01 0.  0.
     999903    2    3    3    0    0 -0.10352635213E-01  0.74225776023E-01  0.10474145752E+00  0.13034664157E+00  0.20070654265E-01 0.  0.
         14    1    1    2    0    0  0.23350001501E-01 -0.41049645401E-02  0.39437000538E-02  0.24033852668E-01  0.00000000000E+00 0. -1.
     999901    1    3    3    0    0 -0.12997366288E-01 -0.70120811483E-01 -0.10868515757E+00  0.88954950577E+00  0.88000000000E+00 0. -1.
        -11    1    4    4    0    0 -0.94964583422E-02  0.35217508357E-01  0.35700478971E-01  0.51041560866E-01  0.51100000000E-03 0.  1.
         11    1    4    4    0    0 -0.85617687061E-03  0.39008267666E-01  0.69040978546E-01  0.79305080699E-01  0.51100000000E-03 0. -1.
</event>
<event>
 8    1  0.1135368E+005  0.1043930E+01  0.7957747E-01            NaN
         13   -1    0    0    0    0  0.00000000000E+00  0.00000000000E+00  0.74505805969E-08  0.10566000000E+00  0.10566000000E+00 0. -1.
     999900   -1    0    0    0    0 -0.00000000000E+00 -0.00000000000E+00 -0.74505805969E-08  0.93827000000E+00  0.93827000000E+00 0.  1.
     999902    2    1    2    0    0 -0.23728422405E-01 -0.47272855574E-02  0.11916558188E-02  0.10197059355E+01  0.10194181623E+01 0.  0.
     999903    2    3    3    0    0 -0.58950151000E-01  0.11514102126E+00  0.14421768788E-02  0.13088140616E+00  0.19881839058E-01 0.  0.
         14    1    1    2    0    0  0.23728422405E-01  0.47272855574E-02 -0.11916558188E-02  0.24224064526E-01  0.00000000000E+00 0.  1.
     999901    1    3    3    0    0  0.35221728595E-01 -0.11986830682E+00 -0.25052106001E-03  0.88882452931E+00  0.88000000000E+00 0.  1.
        -11    1    4    4    0    0 -0.54892050772E-01  0.10242800585E+00  0.69889611842E-02  0.11642053221E+00  0.51100000000E-03 0.  1.
         11    1    4    4    0    0 -0.40581002284E-02  0.12713015413E-01 -0.55467843055E-02  0.14460873953E-01  0.51100000000E-03 0. -1.
</event>
<event>
 8    1  0.1135368E+005  0.1043930E+01  0.7957747E-01            NaN
         13   -1    0    0    0    0  0.00000000000E+00  0.00000000000E+00  0.74505805969E-08  0.10566000000E+00  0.10566000000E+00 0. -1.
     999900   -1    0    0    0    0 -0.00000000000E+00 -0.00000000000E+00 -0.74505805969E-08  0.93827000000E+00  0.93827000000E+00 0. -1.
     999902    2    1    2    0    0  0.19665149511E-01 -0.11703825112E-01  0.44540625084E-03  0.10210412251E+01  0.10207846430E+01 0.  0.
     999903    2    3    3    0    0 -0.75344764527E-01 -0.53829009842E-01  0.89642636817E-01  0.13044728799E+00  0.20156804482E-01 0.  0.
         14    1    1    2    0    0 -0.19665149511E-01  0.11703825112E-01 -0.44540625084E-03  0.22888774853E-01  0.00000000000E+00 0. -1.
     999901    1    3    3    0    0  0.95009914039E-01  0.42125184730E-01 -0.89197230566E-01  0.89059393715E+00  0.88000000000E+00 0. -1.
        -11    1    4    4    0    0 -0.52448192119E-01 -0.34568564545E-01  0.47470929026E-01  0.78737213151E-01  0.51100000000E-03 0. -1.
         11    1    4    4    0    0 -0.22896572409E-01 -0.19260445297E-01  0.42171707792E-01  0.51710074842E-01  0.51100000000E-03 0.  1.
</event>
<event>
 8    1  0.1270535E+005  0.1043930E+01  0.7957747E-01            NaN
         13   -1    0    0    0    0  0.00000000000E+00  0.00000000000E+00  0.74505805969E-08  0.10566000000E+00  0.10566000000E+00 0.  1.
     999900   -1    0    0    0    0 -0.00000000000E+00 -0.00000000000E+00 -0.74505805969E-08  0.93827000000E+00  0.93827000000E+00 0. -1.
     999902    2    1    2    0    0  0.96890840038E-02 -0.19706289658E-01  0.91923483958E-02  0.10201242135E+01  0.10198464078E+01 0.  0.
     999903    2    3    3    0    0 -0.25794589333E-01 -0.96716227580E-02 -0.12467456592E+00  0.12923693874E+00  0.19988442239E-01 0.  0.
         14    1    1    2    0    0 -0.96890840038E-02  0.19706289658E-01 -0.91923483958E-02  0.23805786480E-01  0.00000000000E+00 0.  1.
     999901    1    3    3    0    0  0.35483673337E-01 -0.10034666900E-01  0.13386691431E+00  0.89088727478E+00  0.88000000000E+00 0.  1.
        -11    1    4    4    0    0 -0.61345570122E-02 -0.12062438364E-01 -0.63736094427E-01  0.65158929264E-01  0.51100000000E-03 0.  1.
         11    1    4    4    0    0 -0.19660032321E-01  0.23908156060E-02 -0.60938471490E-01  0.64078009478E-01  0.51100000000E-03 0. -1.
</event>
<event>
 8    1  0.1135368E+005  0.1043930E+01  0.7957747E-01            NaN
         13   -1    0    0    0    0  0.00000000000E+00  0.00000000000E+00  0.74505805969E-08  0.10566000000E+00  0.10566000000E+00 0. -1.
     999900   -1    0    0    0    0 -0.00000000000E+00 -0.00000000000E+00 -0.74505805969E-08  0.93827000000E+00  0.93827000000E+00 0. -1.
     999902    2    1    2    0    0  0.23079487297E-04 -0.24152663967E-01  0.54679741816E-02  0.10191661059E+01  0.10188652025E+01 0.  0.
     999903    2    3    3    0    0 -0.27271345205E-01 -0.90197546269E-01 -0.88967553833E-01  0.13123312360E+00  0.20678091630E-01 0.  0.
         14    1    1    2    0    0 -0.23079487297E-04  0.24152663967E-01 -0.54679741816E-02  0.24763894100E-01  0.00000000000E+00 0. -1.
     999901    1    3    3    0    0  0.27294424692E-01  0.66044882302E-01  0.94435528015E-01  0.88793298230E+00  0.88000000000E+00 0. -1.
        -11    1    4    4    0    0 -0.47503651865E-03 -0.22960224192E-01 -0.13403997691E-01  0.26595597939E-01  0.51100000000E-03 0.  1.
         11    1    4    4    0    0 -0.26796308686E-01 -0.67237322077E-01 -0.75563556142E-01  0.10463752566E+00  0.51100000000E-03 0. -1.
</event>
<event>
 8    1  0.1135368E+005  0.1043930E+01  0.7957747E-01            NaN
         13   -1    0    0    0    0  0.00000000000E+00  0.00000000000E+00  0.74505805969E-08  0.10566000000E+00  0.10566000000E+00 0. -1.
     999900   -1    0    0    0    0 -0.00000000000E+00 -0.00000000000E+00 -0.74505805969E-08  0.93827000000E+00  0.93827000000E+00 0. -1.
     999902    2    1    2    0    0  0.23869899239E-02  0.18422213066E-01  0.15320539877E-01  0.10198510757E+01  0.10195667815E+01 0.  0.
     999903    2    3    3    0    0 -0.50386528112E-01  0.10996608674E-01 -0.11521666899E+00  0.12862711576E+00  0.24704786550E-01 0.  0.
         14    1    1    2    0    0 -0.23869899239E-02 -0.18422213066E-01 -0.15320539877E-01  0.24078924338E-01  0.00000000000E+00 0.  1.
     999901    1    3    3    0    0  0.52773518036E-01  0.74256043925E-02  0.13053720886E+00  0.89122395990E+00  0.88000000000E+00 0.  1.
        -11    1    4    4    0    0 -0.13160330887E-01 -0.79405237700E-02 -0.33074447587E-01  0.36475011048E-01  0.51100000000E-03 0.  1.
         11    1    4    4    0    0 -0.37226197225E-01  0.18937132444E-01 -0.82142221400E-01  0.92152104711E-01  0.51100000000E-03 0. -1.
</event>
<event>
 8    1  0.1135368E+005  0.1043930E+01  0.7957747E-01            NaN
         13   -1    0    0    0    0  0.00000000000E+00  0.00000000000E+00  0.74505805969E-08  0.10566000000E+00  0.10566000000E+00 0.  1.
     999900   -1    0    0    0    0 -0.00000000000E+00 -0.00000000000E+00 -0.74505805969E-08  0.93827000000E+00  0.93827000000E+00 0. -1.
     999902    2    1    2    0    0 -0.21591815468E-01  0.30547979484E-02 -0.92194342997E-02  0.10202543531E+01  0.10199796120E+01 0.  0.
     999903    2    3    3    0    0 -0.28219632217E-01  0.11222016595E+00  0.58375579350E-01  0.13091184802E+00  0.18452381986E-01 0.  0.
         14    1    1    2    0    0  0.21591815468E-01 -0.30547979484E-02  0.92194342997E-02  0.23675646866E-01  0.00000000000E+00 0.  1.
     999901    1    3    3    0    0  0.66278167495E-02 -0.10916536800E+00 -0.67595013649E-01  0.88934250511E+00  0.88000000000E+00 0. -1.
        -11    1    4    4    0    0 -0.25480756660E-01  0.78867037972E-01  0.34383679601E-01  0.89731695528E-01  0.51100000000E-03 0. -1.
         11    1    4    4    0    0 -0.27388755575E-02  0.33353127976E-01  0.23991899749E-01  0.41180152497E-01  0.51100000000E-03 0.  1.
</event>
<event>
 8    1  0.1135368E+005  0.1043930E+01  0.7957747E-01            NaN
         13   -1    0    0    0    0  0.00000000000E+00  0.00000000000E+00  0.74505805969E-08  0.10566000000E+00  0.10566000000E+00 0. -1.
     999900   -1    0    0    0    0 -0.00000000000E+00 -0.00000000000E+00 -0.74505805969E-08  0.93827000000E+00  0.93827000000E+00 0. -1.
     999902    2    1    2    0    0  0.89868836258E-02 -0.14480228598E-01 -0.16955145668E-01  0.10198900736E+01  0.10196067105E+01 0.  0.
     999903    2    3    3    0    0 -0.10371085351E+00  0.11560504341E-01 -0.75480872864E-01  0.13039349659E+00  0.20384194602E-01 0.  0.
         14    1    1    2    0    0 -0.89868836258E-02  0.14480228598E-01  0.16955145668E-01  0.24039926418E-01  0.00000000000E+00 0.  1.
     999901    1    3    3    0    0  0.11269773714E+00 -0.26040732940E-01  0.58525727196E-01  0.88949657699E+00  0.88000000000E+00 0. -1.
        -11    1    4    4    0    0 -0.24012886138E-01 -0.58210851107E-02 -0.19054455853E-01  0.31206363796E-01  0.51100000000E-03 0. -1.
         11    1    4    4    0    0 -0.79697967372E-01  0.17381589452E-01 -0.56426417011E-01  0.99187132799E-01  0.51100000000E-03 0.  1.
</event>
<event>
 8    1  0.1135368E+005  0.1043930E+01  0.7957747E-01            NaN
         13   -1    0    0    0    0  0.00000000000E+00  0.00000000000E+00  0.74505805969E-08  0.10566000000E+00  0.10566000000E+00 0. -1.
     999900   -1    0    0    0    0 -0.00000000000E+00 -0.00000000000E+00 -0.74505805969E-08  0.93827000000E+00  0.93827000000E+00 0. -1.
     999902    2    1    2    0    0 -0.18199491132E-01  0.14529102062E-01  0.31988591840E-02  0.10204236395E+01  0.10201528587E+01 0.  0.
     999903    2    3    3    0    0 -0.12066476779E+00 -0.48516734667E-01  0.12096422179E-01  0.13219333317E+00  0.20368951270E-01 0.  0.
         14    1    1    2    0    0  0.18199491132E-01 -0.14529102062E-01 -0.31988591840E-02  0.23506360507E-01  0.00000000000E+00 0.  1.
     999901    1    3    3    0    0  0.10246527666E+00  0.63045836730E-01 -0.88975629955E-02  0.88823030633E+00  0.88000000000E+00 0.  1.
        -11    1    4    4    0    0 -0.49405452607E-01 -0.28176459897E-01 -0.12623586345E-02  0.56891706864E-01  0.51100000000E-03 0. -1.
         11    1    4    4    0    0 -0.71259315182E-01 -0.20340274771E-01  0.13358780814E-01  0.75301626303E-01  0.51100000000E-03 0.  1.
</event>
<event>
 8    1  0.1135368E+005  0.1043930E+01  0.7957747E-01            NaN
         13   -1    0    0    0    0  0.00000000000E+00  0.00000000000E+00  0.74505805969E-08  0.10566000000E+00  0.10566000000E+00 0. -1.
     999900   -1    0    0    0    0 -0.00000000000E+00 -0.00000000000E+00 -0.74505805969E-08  0.93827000000E+00  0.93827000000E+00 0. -1.
     999902    2    1    2    0    0  0.38842508496E-02  0.28778740219E-02 -0.24628195396E-01  0.10188318413E+01  0.10185226572E+01 0.  0.
     999903    2    3    3    0    0  0.54341365711E-01  0.47099156711E-01  0.10304855913E+00  0.12709040120E+00  0.19017096164E-01 0.  0.
         14    1    1    2    0    0 -0.38842508496E-02 -0.28778740219E-02  0.24628195396E-01  0.25098158738E-01  0.00000000000E+00 0. -1.
     999901    1    3    3    0    0 -0.50457114861E-01 -0.44221282689E-01 -0.12767675453E+00  0.89174144007E+00  0.88000000000E+00 0. -1.
        -11    1    4    4    0    0  0.36686830626E-01  0.30838364704E-01  0.52241470827E-01  0.70896831199E-01  0.51100000000E-03 0.  1.
         11    1    4    4    0    0  0.17654535085E-01  0.16260792008E-01  0.50807088307E-01  0.56193569997E-01  0.51100000000E-03 0. -1.
</event>
<event>
 8    1  0.1135368E+005  0.1043930E+01  0.7957747E-01            NaN
         13   -1    0    0    0    0  0.00000000000E+00  0.00000000000E+00  0.74505805969E-08  0.10566000000E+00  0.10566000000E+00 0.  1.
     999900   -1    0    0    0    0 -0.00000000000E+00 -0.00000000000E+00 -0.74505805969E-08  0.93827000000E+00  0.93827000000E+00 0. -1.
     999902    2    1    2    0    0  0.15037703334E-01  0.14440926763E-01 -0.39603152282E-02  0.10227083840E+01  0.10224881817E+01 0.  0.
     999903    2    3    3    0    0  0.29783492839E-01  0.53394517193E-01 -0.11796592387E+00  0.13437730875E+00  0.20081608544E-01 0.  0.
         14    1    1    2    0    0 -0.15037703334E-01 -0.14440926763E-01  0.39603152282E-02  0.21221615962E-01  0.00000000000E+00 0.  1.
     999901    1    3    3    0    0 -0.14745789504E-01 -0.38953590430E-01  0.11400560864E+00  0.88833107528E+00  0.88000000000E+00 0.  1.
        -11    1    4    4    0    0  0.27211245543E-01  0.29786202835E-01 -0.79869826197E-01  0.89482512376E-01  0.51100000000E-03 0.  1.
         11    1    4    4    0    0  0.25722472953E-02  0.23608314359E-01 -0.38096097670E-01  0.44894796377E-01  0.51100000000E-03 0. -1.
</event>
<event>
 8    1  0.1135368E+005  0.1043930E+01  0.7957747E-01            NaN
         13   -1    0    0    0    0  0.00000000000E+00  0.00000000000E+00  0.74505805969E-08  0.10566000000E+00  0.10566000000E+00 0. -1.
     999900   -1    0    0    0    0 -0.00000000000E+00 -0.00000000000E+00 -0.74505805969E-08  0.93827000000E+00  0.93827000000E+00 0. -1.
     999902    2    1    2    0    0  0.52440406462E-02 -0.22283657765E-01  0.16148244248E-02  0.10209807293E+01  0.10207227737E+01 0.  0.
     999903    2    3    3    0    0  0.27241267146E-01 -0.30020830184E-01  0.12429519429E+00  0.13216454196E+00  0.19360628803E-01 0.  0.
         14    1    1    2    0    0 -0.52440406462E-02  0.22283657765E-01 -0.16148244248E-02  0.22949270656E-01  0.00000000000E+00 0.  1.
     999901    1    3    3    0    0 -0.21997226500E-01  0.77371724191E-02 -0.12268036986E+00  0.88881618739E+00  0.88000000000E+00 0. -1.
        -11    1    4    4    0    0  0.68923688071E-02 -0.63687517518E-03  0.84785134695E-02  0.10957037438E-01  0.51100000000E-03 0.  1.
         11    1    4    4    0    0  0.20348898339E-01 -0.29383955009E-01  0.11581668082E+00  0.12120750452E+00  0.51100000000E-03 0. -1.
</event>
<event>
 8    1  0.1135368E+005  0.1043930E+01  0.7957747E-01            NaN
         13   -1    0    0    0    0  0.00000000000E+00  0.00000000000E+00  0.74505805969E-08  0.10566000000E+00  0.10566000000E+00 0.  1.
     999900   -1    0    0    0    0 -0.00000000000E+00 -0.00000000000E+00 -0.74505805969E-08  0.93827000000E+00  0.93827000000E+00 0. -1.
     999902    2    1    2    0    0  0.10198215419E-01 -0.88978464408E-02  0.18776194923E-01  0.10207843575E+01  0.10205219174E+01 0.  0.
     999903    2    3    3    0    0  0.10005999562E+00  0.76077052681E-01  0.36283024244E-01  0.13196358703E+00  0.17268751703E-01 0.  0.
         14    1    1    2    0    0 -0.10198215419E-01  0.88978464408E-02 -0.18776194923E-01  0.23145642458E-01  0.00000000000E+00 0.  1.
     999901    1    3    3    0    0 -0.89861780200E-01 -0.84974899122E-01 -0.17506829321E-01  0.88882077051E+00  0.88000000000E+00 0.  1.
        -11    1    4    4    0    0  0.55582831331E-01  0.42368363868E-01  0.11227528015E-01  0.70787342809E-01  0.51100000000E-03 0. -1.
         11    1    4    4    0    0  0.44477164288E-01  0.33708688813E-01  0.25055496229E-01  0.61176244220E-01  0.51100000000E-03 0.  1.
</event>
<event>
 8    1  0.1135368E+005  0.1043930E+01  0.7957747E-01            NaN
         13   -1    0    0    0    0  0.00000000000E+00  0.00000000000E+00  0.74505805969E-08  0.10566000000E+00  0.10566000000E+00 0. -1.
     999900   -1    0    0    0    0 -0.00000000000E+00 -0.00000000000E+00 -0.74505805969E-08  0.93827000000E+00  0.93827000000E+00 0. -1.
     999902    2    1    2    0    0 -0.22273979355E-01 -0.11996490000E-01  0.67842985680E-02  0.10177370117E+01  0.10173998980E+01 0.  0.
     999903    2    3    3    0    0 -0.74256678071E-01 -0.23305265484E-01 -0.10160826604E+00  0.12949209198E+00  0.19666532993E-01 0.  0.
         14    1    1    2    0    0  0.22273979355E-01  0.11996490000E-01 -0.67842985680E-02  0.26192988292E-01  0.00000000000E+00 0. -1.
     999901    1    3    3    0    0  0.51982698716E-01  0.11308775483E-01  0.10839256460E+00  0.88824491973E+00  0.88000000000E+00 0.  1.
        -11    1    4    4    0    0 -0.50837086380E-01 -0.76463175391E-02 -0.57298947447E-01  0.76982504656E-01  0.51100000000E-03 0. -1.
         11    1    4    4    0    0 -0.23419591691E-01 -0.15658947945E-01 -0.44309318588E-01  0.52509587320E-01  0.51100000000E-03 0.  1.
</event>
<event>
 8    1  0.1135368E+005  0.1043930E+01  0.7957747E-01            NaN
         13   -1    0    0    0    0  0.00000000000E+00  0.00000000000E+00  0.74505805969E-08  0.10566000000E+00  0.10566000000E+00 0.  1.
     999900   -1    0    0    0    0 -0.00000000000E+00 -0.00000000000E+00 -0.74505805969E-08  0.93827000000E+00  0.93827000000E+00 0.  1.
     999902    2    1    2    0    0  0.57112887402E-02 -0.71985220463E-02  0.22568293021E-01  0.10195626984E+01  0.10192714705E+01 0.  0.
     999903    2    3    3    0    0 -0.55860526967E-01  0.78912444529E-01  0.86015427612E-01  0.13095045113E+00  0.20044812056E-01 0.  0.
         14    1    1    2    0    0 -0.57112887402E-02  0.71985220463E-02 -0.22568293021E-01  0.24367301627E-01  0.00000000000E+00 0. -1.
     999901    1    3    3    0    0  0.61571815707E-01 -0.86110966576E-01 -0.63447134592E-01  0.88861224724E+00  0.88000000000E+00 0.  1.
        -11    1    4    4    0    0 -0.18300785153E-01  0.11773081238E-01  0.20519467748E-01  0.29913773696E-01  0.51100000000E-03 0. -1.
         11    1    4    4    0    0 -0.37559741813E-01  0.67139363291E-01  0.65495959865E-01  0.10103667744E+00  0.51100000000E-03 0.  1.
</event>
<event>
 8    1  0.1135368E+005  0.1043930E+01  0.7957747E-01            NaN
         13   -1    0    0    0    0  0.00000000000E+00  0.00000000000E+00  0.74505805969E-08  0.10566000000E+00  0.10566000000E+00 0. -1.
     999900   -1    0    0    0    0 -0.00000000000E+00 -0.00000000000E+00 -0.74505805969E-08  0.93827000000E+00  0.93827000000E+00 0.  1.
     999902    2    1    2    0    0  0.52661024567E-03  0.24407836212E-02  0.23827268402E-01  0.10199722567E+01  0.10196908507E+01 0.  0.
     999903    2    3    3    0    0 -0.51421585456E-01 -0.36120805698E-01  0.11531132623E+00  0.13286744666E+00  0.20203078259E-01 0.  0.
         14    1    1    2    0    0 -0.52661024567E-03 -0.24407836212E-02 -0.23827268402E-01  0.23957743269E-01  0.00000000000E+00 0.  1.
     999901    1    3    3    0    0  0.51948195702E-01  0.38561589319E-01 -0.91484057828E-01  0.88710481007E+00  0.88000000000E+00 0.  1.
        -11    1    4    4    0    0 -0.29961917327E-01 -0.21475227488E-01  0.46689136853E-01  0.59489818512E-01  0.51100000000E-03 0. -1.
         11    1    4    4    0    0 -0.21459668129E-01 -0.14645578210E-01  0.68622189377E-01  0.73377628152E-01  0.51100000000E-03 0.  1.
</event>
<event>
 8    1  0.1135368E+005  0.1043930E+01  0.7957747E-01            NaN
         13   -1    0    0    0    0  0.00000000000E+00  0.00000000000E+00  0.74505805969E-08  0.10566000000E+00  0.10566000000E+00 0.  1.
     999900   -1    0    0    0    0 -0.00000000000E+00 -0.00000000000E+00 -0.74505805969E-08  0.93827000000E+00  0.93827000000E+00 0. -1.
     999902    2    1    2    0    0  0.20689792331E-01 -0.50689276136E-03 -0.77341667861E-02  0.10218360691E+01  0.10215971859E+01 0.  0.
     999903    2    3    3    0    0  0.11232948861E+00 -0.52220232588E-01  0.46829020774E-01  0.13388942380E+00  0.19711771010E-01 0.  0.
         14    1    1    2    0    0 -0.20689792331E-01  0.50689276136E-03  0.77341667861E-02  0.22093930905E-01  0.00000000000E+00 0.  1.
     999901    1    3    3    0    0 -0.91639696279E-01  0.51713339827E-01 -0.54563187560E-01  0.88794664529E+00  0.88000000000E+00 0.  1.
        -11    1    4    4    0    0  0.91961887212E-01 -0.35663902382E-01  0.41952136977E-01  0.10718743187E+00  0.51100000000E-03 0. -1.
         11    1    4    4    0    0  0.20367601398E-01 -0.16556330206E-01  0.48768837965E-02  0.26701991933E-01  0.51100000000E-03 0.  1.
</event>
<event>
 8    1  0.1135368E+005  0.1043930E+01  0.7957747E-01            NaN
         13   -1    0    0    0    0  0.00000000000E+00  0.00000000000E+00  0.74505805969E-08  0.10566000000E+00  0.10566000000E+00 0.  1.
     999900   -1    0    0    0    0 -0.00000000000E+00 -0.00000000000E+00 -0.74505805969E-08  0.93827000000E+00  0.93827000000E+00 0. -1.
     999902    2    1    2    0    0 -0.23494161677E-02 -0.21229703292E-01  0.10578851029E-01  0.10200944772E+01  0.10198159688E+01 0.  0.
     999903    2    3    3    0    0 -0.37329787569E-01  0.26086728961E-02  0.12468960429E+00  0.13171777862E+00  0.20043891171E-01 0.  0.
         14    1    1    2    0    0  0.23494161677E-02  0.21229703292E-01 -0.10578851029E-01  0.23835522803E-01  0.00000000000E+00 0. -1.
     999901    1    3    3    0    0  0.34980371401E-01 -0.23838376188E-01 -0.11411075326E+00  0.88837669858E+00  0.88000000000E+00 0. -1.
        -11    1    4    4    0    0 -0.17558361495E-01 -0.61715219581E-02  0.37295791250E-01  0.41684780287E-01  0.51100000000E-03 0. -1.
         11    1    4    4    0    0 -0.19771426074E-01  0.87801948542E-02  0.87393813039E-01  0.90032998335E-01  0.51100000000E-03 0.  1.
</event>
<event>
 8    1  0.1135368E+005  0.1043930E+01  0.7957747E-01            NaN
         13   -1    0    0    0    0  0.00000000000E+00  0.00000000000E+00  0.74505805969E-08  0.10566000000E+00  0.10566000000E+00 0.  1.
     999900   -1    0    0    0    0 -0.00000000000E+00 -0.00000000000E+00 -0.74505805969E-08  0.93827000000E+00  0.93827000000E+00 0.  1.
     999902    2    1    2    0    0 -0.20323862600E-02  0.22733646378E-01 -0.52659605960E-02  0.10205060889E+01  0.10202372262E+01 0.  0.
     999903    2    3    3    0    0 -0.99682113342E-01 -0.43567842805E-01 -0.68633080292E-01  0.13036747690E+00  0.21224954074E-01 0.  0.
         14    1    1    2    0    0  0.20323862600E-02 -0.22733646378E-01  0.52659605960E-02  0.23423911129E-01  0.00000000000E+00 0.  1.
     999901    1    3    3    0    0  0.97649727082E-01  0.66301489183E-01  0.63367119696E-01  0.89013861197E+00  0.88000000000E+00 0. -1.
        -11    1    4    4    0    0 -0.84272314138E-01 -0.32608711017E-01 -0.64456152410E-01  0.11099552995E+00  0.51100000000E-03 0.  1.
         11    1    4    4    0    0 -0.15409799203E-01 -0.10959131788E-01 -0.41769278828E-02  0.19371946948E-01  0.51100000000E-03 0. -1.
</event>
<event>
 8    1  0.1135368E+005  0.1043930E+01  0.7957747E-01            NaN
         13   -1    0    0    0    0  0.00000000000E+00  0.00000000000E+00  0.74505805969E-08  0.10566000000E+00  0.10566000000E+00 0.  1.
     999900   -1    0    0    0    0 -0.00000000000E+00 -0.00000000000E+00 -0.74505805969E-08  0.93827000000E+00  0.93827000000E+00 0.  1.
     999902    2    1    2    0    0 -0.21029458171E-01  0.16710699903E-01  0.51468796121E-02  0.10165808506E+01  0.10162128959E+01 0.  0.
     999903    2    3    3    0    0  0.76544676784E-01  0.43004328907E-01 -0.88079146261E-01  0.12590517528E+00  0.19639687050E-01 0.  0.
         14    1    1    2    0    0  0.21029458171E-01 -0.16710699903E-01 -0.51468796121E-02  0.27349149383E-01  0.00000000000E+00 0. -1.
     999901    1    3    3    0    0 -0.97574134955E-01 -0.26293629004E-01  0.93226025873E-01  0.89067567534E+00  0.88000000000E+00 0. -1.
        -11    1    4    4    0    0  0.34813046029E-01  0.86015506065E-02 -0.36342100852E-01  0.51058243820E-01  0.51100000000E-03 0. -1.
         11    1    4    4    0    0  0.41731630755E-01  0.34402778301E-01 -0.51737045409E-01  0.74846931460E-01  0.51100000000E-03 0.  1.
</event>
<event>
 7    1  0.1135368E+005  0.1043930E+01  0.7957747E-01            NaN
         13   -1    0    0    0    0  0.00000000000E+00  0.00000000000E+00  0.74505805969E-08  0.10566000000E+00  0.10566000000E+00 0. -1.
     999900   -1    0    0    0    0 -0.00000000000E+00 -0.00000000000E+00 -0.74505805969E-08  0.93827000000E+00  0.93827000000E+00 0. -1.
     999903    2    1    2    0    0  0.92077259565E-01  0.37836650346E-01 -0.36222177160E-02  0.10159662016E+00  0.19972954930E-01 0.  0.
         14    1    1    2    0    0 -0.89989402463E-02 -0.55206965057E-01  0.15945351853E-01  0.58163942113E-01  0.00000000000E+00 0. -1.
     999901    1    1    2    0    0 -0.83078319318E-01  0.17370314712E-01 -0.12323134137E-01  0.88416943773E+00  0.88000000000E+00 0.  1.
        -11    1    3    3    0    0  0.56655619176E-01  0.26137757752E-01 -0.11550489718E-01  0.63456414161E-01  0.51100000000E-03 0.  1.
         11    1    3    3    0    0  0.35421640389E-01  0.11698892594E-01  0.79282720018E-02  0.38140206000E-01  0.51100000000E-03 0. -1.
</event>
<event>
 8    1  0.1135368E+005  0.1043930E+01  0.7957747E-01            NaN
         13   -1    0    0    0    0  0.00000000000E+00  0.00000000000E+00  0.74505805969E-08  0.10566000000E+00  0.10566000000E+00 0.  1.
     999900   -1    0    0    0    0 -0.00000000000E+00 -0.00000000000E+00 -0.74505805969E-08  0.93827000000E+00  0.93827000000E+00 0.  1.
     999902    2    1    2    0    0  0.15313308752E-01 -0.89120587936E-02  0.15654478004E-01  0.10202871385E+01  0.10200131667E+01 0.  0.
     999903    2    3    3    0    0 -0.10550333634E+00 -0.12887478990E-01 -0.68554276481E-01  0.12804077119E+00  0.19942647009E-01 0.  0.
         14    1    1    2    0    0 -0.15313308752E-01  0.89120587936E-02 -0.15654478004E-01  0.23642861469E-01  0.00000000000E+00 0. -1.
     999901    1    3    3    0    0  0.12081664509E+00  0.39754201960E-02  0.84208754484E-01  0.89224636734E+00  0.88000000000E+00 0. -1.
        -11    1    4    4    0    0 -0.12348295596E-01  0.43490763097E-02 -0.53337972196E-02  0.14145860972E-01  0.51100000000E-03 0.  1.
         11    1    4    4    0    0 -0.93155040746E-01 -0.17236555299E-01 -0.63220479261E-01  0.11389491022E+00  0.51100000000E-03 0. -1.
</event>
<event>
 8    1  0.1135368E+005  0.1043930E+01  0.7957747E-01            NaN
         13   -1    0    0    0    0  0.00000000000E+00  0.00000000000E+00  0.74505805969E-08  0.10566000000E+00  0.10566000000E+00 0. -1.
     999900   -1    0    0    0    0 -0.00000000000E+00 -0.00000000000E+00 -0.74505805969E-08  0.93827000000E+00  0.93827000000E+00 0.  1.
     999902    2    1    2    0    0  0.60878622453E-02  0.19292630991E-01 -0.11733618872E-01  0.10205431343E+01  0.10202751312E+01 0.  0.
     999903    2    3    3    0    0 -0.10957994754E+00  0.15154249838E-01  0.64658086695E-01  0.12968295382E+00  0.19989600903E-01 0.  0.
         14    1    1    2    0    0 -0.60878622453E-02 -0.19292630991E-01  0.11733618872E-01  0.23386865739E-01  0.00000000000E+00 0.  1.
     999901    1    3    3    0    0  0.11566780979E+00  0.41383811524E-02 -0.76391705567E-01  0.89086018044E+00  0.88000000000E+00 0. -1.
        -11    1    4    4    0    0 -0.54260465896E-01 -0.27645958724E-03  0.24112899550E-01  0.59379858831E-01  0.51100000000E-03 0.  1.
         11    1    4    4    0    0 -0.55319481647E-01  0.15430709425E-01  0.40545187145E-01  0.70303094987E-01  0.51100000000E-03 0. -1.
</event>
<event>
 8    1  0.1135368E+005  0.1043930E+01  0.7957747E-01            NaN
         13   -1    0    0    0    0  0.00000000000E+00  0.00000000000E+00  0.74505805969E-08  0.10566000000E+00  0.10566000000E+00 0. -1.
     999900   -1    0    0    0    0 -0.00000000000E+00 -0.00000000000E+00 -0.74505805969E-08  0.93827000000E+00  0.93827000000E+00 0.  1.
     999902    2    1    2    0    0  0.65943130527E-02  0.19360043318E-01 -0.11643553295E-01  0.10203955874E+01  0.10201241524E+01 0.  0.
     999903    2    3    3    0    0  0.41270979528E-01  0.10992859828E+00  0.57664771851E-01  0.13235911392E+00  0.20152385817E-01 0.  0.
         14    1    1    2    0    0 -0.65943130527E-02 -0.19360043318E-01  0.11643553295E-01  0.23534412575E-01  0.00000000000E+00 0. -1.
     999901    1    3    3    0    0 -0.34676666475E-01 -0.90568554959E-01 -0.69308325146E-01  0.88803647351E+00  0.88000000000E+00 0.  1.
        -11    1    4    4    0    0  0.19577064524E-01  0.69054953148E-01  0.26253724320E-01  0.76428837302E-01  0.51100000000E-03 0. -1.
         11    1    4    4    0    0  0.21693915004E-01  0.40873645129E-01  0.31411047530E-01  0.55930276616E-01  0.51100000000E-03 0.  1.
</event>
<event>
 8    1  0.1135368E+005  0.1043930E+01  0.7957747E-01            NaN
         13   -1    0    0    0    0  0.00000000000E+00  0.00000000000E+00  0.74505805969E-08  0.10566000000E+00  0.10566000000E+00 0.  1.
     999900   -1    0    0    0    0 -0.00000000000E+00 -0.00000000000E+00 -0.74505805969E-08  0.93827000000E+00  0.93827000000E+00 0.  1.
     999902    2    1    2    0    0 -0.17997037126E-02  0.29894467809E-02  0.23842981901E-01  0.10198330394E+01  0.10195483141E+01 0.  0.
     999903    2    3    3    0    0  0.54047575519E-01  0.99913864420E-01 -0.57727149855E-01  0.12900929265E+00  0.20175555428E-01 0.  0.
         14    1    1    2    0    0  0.17997037126E-02 -0.29894467809E-02 -0.23842981901E-01  0.24096960626E-01  0.00000000000E+00 0. -1.
     999901    1    3    3    0    0 -0.55847279231E-01 -0.96924417640E-01  0.81570131756E-01  0.89082374672E+00  0.88000000000E+00 0. -1.
        -11    1    4    4    0    0  0.34510272250E-01  0.44423331827E-01 -0.32760694020E-01  0.65099274152E-01  0.51100000000E-03 0.  1.
         11    1    4    4    0    0  0.19537303268E-01  0.55490532594E-01 -0.24966455835E-01  0.63910018498E-01  0.51100000000E-03 0. -1.
</event>
<event>
 8    1  0.1135368E+005  0.1043930E+01  0.7957747E-01            NaN
         13   -1    0    0    0    0  0.00000000000E+00  0.00000000000E+00  0.74505805969E-08  0.10566000000E+00  0.10566000000E+00 0. -1.
     999900   -1    0    0    0    0 -0.00000000000E+00 -0.00000000000E+00 -0.74505805969E-08  0.93827000000E+00  0.93827000000E+00 0. -1.
     999902    2    1    2    0    0 -0.23357883969E-01 -0.40656129909E-02  0.14451638792E-03  0.10202204906E+01  0.10199449537E+01 0.  0.
     999903    2    3    3    0    0 -0.62066113436E-01  0.10423969096E+00 -0.46836705746E-01  0.13149353524E+00  0.19461685332E-01 0.  0.
         14    1    1    2    0    0  0.23357883969E-01  0.40656129909E-02 -0.14451638792E-03  0.23709509432E-01  0.00000000000E+00 0.  1.
     999901    1    3    3    0    0  0.38708229467E-01 -0.10830530395E+00  0.46981222134E-01  0.88872695533E+00  0.88000000000E+00 0. -1.
        -11    1    4    4    0    0 -0.42532767408E-01  0.84324828323E-01 -0.41144757324E-01  0.10301876116E+00  0.51100000000E-03 0. -1.
         11    1    4    4    0    0 -0.19533346028E-01  0.19914862639E-01 -0.56919484216E-02  0.28474774079E-01  0.51100000000E-03 0.  1.
</event>
<event>
 8    1  0.1135368E+005  0.1043930E+01  0.7957747E-01            NaN
         13   -1    0    0    0    0  0.00000000000E+00  0.00000000000E+00  0.74505805969E-08  0.10566000000E+00  0.10566000000E+00 0.  1.
     999900   -1    0    0    0    0 -0.00000000000E+00 -0.00000000000E+00 -0.74505805969E-08  0.93827000000E+00  0.93827000000E+00 0. -1.
     999902    2    1    2    0    0  0.32013100862E-03 -0.21672687253E-01 -0.11532733177E-01  0.10193777742E+01  0.10190820550E+01 0.  0.
     999903    2    3    3    0    0  0.12386989795E+00  0.29759209608E-01  0.63309565069E-02  0.12908069102E+00  0.19808624604E-01 0.  0.
         14    1    1    2    0    0 -0.32013100862E-03  0.21672687253E-01  0.11532733177E-01  0.24552225789E-01  0.00000000000E+00 0.  1.
     999901    1    3    3    0    0 -0.12354976695E+00 -0.51431896861E-01 -0.17863689684E-01  0.89029708319E+00  0.88000000000E+00 0. -1.
        -11    1    4    4    0    0  0.31427168303E-01  0.18000419471E-03  0.61057185514E-02  0.32019372715E-01  0.51100000000E-03 0.  1.
         11    1    4    4    0    0  0.92442729651E-01  0.29579205413E-01  0.22523795548E-03  0.97061318306E-01  0.51100000000E-03 0. -1.
</event>
<event>
 8    1  0.1135368E+005  0.1043930E+01  0.7957747E-01            NaN
         13   -1    0    0    0    0  0.00000000000E+00  0.00000000000E+00  0.74505805969E-08  0.10566000000E+00  0.10566000000E+00 0. -1.
     999900   -1    0    0    0    0 -0.00000000000E+00 -0.00000000000E+00 -0.74505805969E-08  0.93827000000E+00  0.93827000000E+00 0.  1.
     999902    2    1    2    0    0 -0.18650443460E-01  0.96229270151E-02 -0.13028535406E-01  0.10192281276E+01  0.10189287480E+01 0.  0.
     999903    2    3    3    0    0  0.77136840570E-01  0.99258269735E-01  0.20277156788E-01  0.12888046090E+00  0.19917676359E-01 0.  0.
         14    1    1    2    0    0  0.18650443460E-01 -0.96229270151E-02  0.13028535406E-01  0.24701872407E-01  0.00000000000E+00 0.  1.
     999901    1    3    3    0    0 -0.95787284030E-01 -0.89635342719E-01 -0.33305692194E-01  0.89034766669E+00  0.88000000000E+00 0.  1.
        -11    1    4    4    0    0  0.33253604444E-01  0.34390398621E-01  0.15997243101E-01  0.50444768149E-01  0.51100000000E-03 0.  1.
         11    1    4    4    0    0  0.43883236127E-01  0.64867871113E-01  0.42799136875E-02  0.78435692755E-01  0.51100000000E-03 0. -1.
</event>
<event>
 8    1  0.1135368E+005  0.1043930E+01  0.7957747E-01            NaN
         13   -1    0    0    0    0  0.00000000000E+00  0.00000000000E+00  0.74505805969E-08  0.10566000000E+00  0.10566000000E+00 0.  1.
     999900   -1    0    0    0    0 -0.00000000000E+00 -0.00000000000E+00 -0.74505805969E-08  0.93827000000E+00  0.93827000000E+00 0. -1.
     999902    2    1    2    0    0  0.16553292600E-01  0.14297632458E-01  0.11782835137E-01  0.10190851013E+01  0.10187822018E+01 0.  0.
     999903    2    3    3    0    0  0.11971825748E+00  0.44707154418E-01  0.30012364522E-01  0.13234947845E+00  0.16865692725E-01 0.  0.
         14    1    1    2    0    0 -0.16553292600E-01 -0.14297632458E-01 -0.11782835137E-01  0.24844898745E-01  0.00000000000E+00 0. -1.
     999901    1    3    3    0    0 -0.10316496488E+00 -0.30409521961E-01 -0.18229529385E-01  0.88673562280E+00  0.88000000000E+00 0. -1.
        -11    1    4    4    0    0  0.31867304467E-01  0.13520208535E-01  0.15773562976E-01  0.38044546821E-01  0.51100000000E-03 0.  1.
         11    1    4    4    0    0  0.87850953017E-01  0.31186945884E-01  0.14238801545E-01  0.94304931631E-01  0.51100000000E-03 0. -1.
</event>
<event>
 8    1  0.1135368E+005  0.1043930E+01  0.7957747E-01            NaN
         13   -1    0    0    0    0  0.00000000000E+00  0.00000000000E+00  0.74505805969E-08  0.10566000000E+00  0.10566000000E+00 0.  1.
     999900   -1    0    0    0    0 -0.00000000000E+00 -0.00000000000E+00 -0.74505805969E-08  0.93827000000E+00  0.93827000000E+00 0.  1.
     999902    2    1    2    0    0 -0.63504531558E-02 -0.54062797014E-02  0.22882800185E-01  0.10195747406E+01  0.10192838040E+01 0.  0.
     999903    2    3    3    0    0  0.13112166492E-01 -0.28253342898E-01 -0.12177013943E+00  0.12726019137E+00  0.19925088576E-01 0.  0.
         14    1    1    2    0    0  0.63504531558E-02  0.54062797014E-02 -0.22882800185E-01  0.24355259386E-01  0.00000000000E+00 0. -1.
     999901    1    3    3    0    0 -0.19462619647E-01  0.22847063197E-01  0.14465293961E+00  0.89231454925E+00  0.88000000000E+00 0. -1.
        -11    1    4    4    0    0  0.10450718900E-01 -0.19783994057E-01 -0.48059403102E-01  0.53015010081E-01  0.51100000000E-03 0.  1.
         11    1    4    4    0    0  0.26614475919E-02 -0.84693488407E-02 -0.73710736327E-01  0.74245181284E-01  0.51100000000E-03 0. -1.
</event>
<event>
 8    1  0.1135368E+005  0.1043930E+01  0.7957747E-01            NaN
         13   -1    0    0    0    0  0.00000000000E+00  0.00000000000E+00  0.74505805969E-08  0.10566000000E+00  0.10566000000E+00 0.  1.
     999900   -1    0    0    0    0 -0.00000000000E+00 -0.00000000000E+00 -0.74505805969E-08  0.93827000000E+00  0.93827000000E+00 0.  1.
     999902    2    1    2    0    0 -0.23575322451E-01 -0.21055541916E-02 -0.10750149307E-02  0.10202364388E+01  0.10199612768E+01 0.  0.
     999903    2    3    3    0    0  0.28328034773E-01  0.11198013000E+00  0.55509294740E-01  0.12955620100E+00  0.19013162448E-01 0.  0.
         14    1    1    2    0    0  0.23575322451E-01  0.21055541916E-02  0.10750149307E-02  0.23693561239E-01  0.00000000000E+00 0.  1.
     999901    1    3    3    0    0 -0.51903357223E-01 -0.11408568420E+00 -0.56584309671E-01  0.89068023776E+00  0.88000000000E+00 0. -1.
        -11    1    4    4    0    0  0.25354579857E-01  0.94186166459E-01  0.53886017971E-01  0.11143541953E+00  0.51100000000E-03 0. -1.
         11    1    4    4    0    0  0.29734549160E-02  0.17793963544E-01  0.16232767689E-02  0.18120781474E-01  0.51100000000E-03 0.  1.
</event>
<event>
 8    1  0.1135368E+005  0.1043930E+01  0.7957747E-01            NaN
         13   -1    0    0    0    0  0.00000000000E+00  0.00000000000E+00  0.74505805969E-08  0.10566000000E+00  0.10566000000E+00 0. -1.
     999900   -1    0    0    0    0 -0.00000000000E+00 -0.00000000000E+00 -0.74505805969E-08  0.93827000000E+00  0.93827000000E+00 0. -1.
     999902    2    1    2    0    0 -0.20747244232E-01  0.19553307880E-01 -0.16968585989E-01  0.10107530064E+01  0.10102083583E+01 0.  0.
     999903    2    3    3    0    0 -0.30795631251E-01 -0.10595708739E+00  0.40695869070E-01  0.11992248451E+00  0.23451508660E-01 0.  0.
         14    1    1    2    0    0  0.20747244232E-01 -0.19553307880E-01  0.16968585989E-01  0.33176993576E-01  0.00000000000E+00 0. -1.
     999901    1    3    3    0    0  0.10048387019E-01  0.12551039527E+00 -0.57664455059E-01  0.89083052192E+00  0.88000000000E+00 0.  1.
        -11    1    4    4    0    0 -0.14177977241E-01 -0.33055105297E-01  0.24191154262E-01  0.43348911063E-01  0.51100000000E-03 0. -1.
         11    1    4    4    0    0 -0.16617654010E-01 -0.72901982094E-01  0.16504714808E-01  0.76573573443E-01  0.51100000000E-03 0.  1.
</event>
<event>
 8    1  0.1135368E+005  0.1043930E+01  0.7957747E-01            NaN
         13   -1    0    0    0    0  0.00000000000E+00  0.00000000000E+00  0.74505805969E-08  0.10566000000E+00  0.10566000000E+00 0. -1.
     999900   -1    0    0    0    0 -0.00000000000E+00 -0.00000000000E+00 -0.74505805969E-08  0.93827000000E+00  0.93827000000E+00 0. -1.
     999902    2    1    2    0    0 -0.13732068046E-01 -0.17149650445E-01  0.64609031122E-02  0.10210297058E+01  0.10207728625E+01 0.  0.
     999903    2    3    3    0    0  0.26864768126E-01  0.60583547241E-01  0.11047525814E+00  0.13057502470E+00  0.21283149459E-01 0.  0.
         14    1    1    2    0    0  0.13732068046E-01  0.17149650445E-01 -0.64609031122E-02  0.22900294151E-01  0.00000000000E+00 0.  1.
     999901    1    3    3    0    0 -0.40596836172E-01 -0.77733197685E-01 -0.10401435503E+00  0.89045468115E+00  0.88000000000E+00 0. -1.
        -11    1    4    4    0    0  0.11700183610E-01  0.42864091432E-01  0.85765620405E-01  0.96593102214E-01  0.51100000000E-03 0.  1.
         11    1    4    4    0    0  0.15164584517E-01  0.17719455808E-01  0.24709637736E-01  0.33981922485E-01  0.51100000000E-03 0. -1.
</event>
<event>
 8    1  0.1135368E+005  0.1043930E+01  0.7957747E-01            NaN
         13   -1    0    0    0    0  0.00000000000E+00  0.00000000000E+00  0.74505805969E-08  0.10566000000E+00  0.10566000000E+00 0.  1.
     999900   -1    0    0    0    0 -0.00000000000E+00 -0.00000000000E+00 -0.74505805969E-08  0.93827000000E+00  0.93827000000E+00 0.  1.
     999902    2    1    2    0    0  0.40879971486E-02 -0.23474064667E-01  0.29685107547E-02  0.10199184301E+01  0.10196357431E+01 0.  0.
     999903    2    3    3    0    0 -0.74632632008E-02 -0.54066935509E-01 -0.11751121383E+00  0.13110758443E+00  0.20034457937E-01 0.  0.
         14    1    1    2    0    0 -0.40879971486E-02  0.23474064667E-01 -0.29685107547E-02  0.24011569894E-01  0.00000000000E+00 0. -1.
     999901    1    3    3    0    0  0.11551260349E-01  0.30592870842E-01  0.12047972459E+00  0.88881084568E+00  0.88000000000E+00 0. -1.
        -11    1    4    4    0    0  0.46120160105E-02 -0.16514085965E-01 -0.50647764708E-01  0.53473759152E-01  0.51100000000E-03 0.  1.
         11    1    4    4    0    0 -0.12075279211E-01 -0.37552849544E-01 -0.66863449124E-01  0.77633825274E-01  0.51100000000E-03 0. -1.
</event>
<event>
 8    1  0.1135368E+005  0.1043930E+01  0.7957747E-01            NaN
         13   -1    0    0    0    0  0.00000000000E+00  0.00000000000E+00  0.74505805969E-08  0.10566000000E+00  0.10566000000E+00 0.  1.
     999900   -1    0    0    0    0 -0.00000000000E+00 -0.00000000000E+00 -0.74505805969E-08  0.93827000000E+00  0.93827000000E+00 0. -1.
     999902    2    1    2    0    0  0.18845691729E-01 -0.90317013420E-02  0.12766071749E-01  0.10194411390E+01  0.10191469627E+01 0.  0.
     999903    2    3    3    0    0 -0.78011232347E-01 -0.47198096155E-01 -0.87175229652E-01  0.12768657569E+00  0.19771906671E-01 0.  0.
         14    1    1    2    0    0 -0.18845691729E-01  0.90317013420E-02 -0.12766071749E-01  0.24488861014E-01  0.00000000000E+00 0. -1.
     999901    1    3    3    0    0  0.96856924076E-01  0.38166394813E-01  0.99941301401E-01  0.89175456330E+00  0.88000000000E+00 0.  1.
        -11    1    4    4    0    0 -0.43083860633E-01 -0.36835994957E-01 -0.56844349082E-01  0.80278581920E-01  0.51100000000E-03 0. -1.
         11    1    4    4    0    0 -0.34927371714E-01 -0.10362101198E-01 -0.30330880570E-01  0.47407993769E-01  0.51100000000E-03 0.  1.
</event>
<event>
 8    1  0.1135368E+005  0.1043930E+01  0.7957747E-01            NaN
         13   -1    0    0    0    0  0.00000000000E+00  0.00000000000E+00  0.74505805969E-08  0.10566000000E+00  0.10566000000E+00 0.  1.
     999900   -1    0    0    0    0 -0.00000000000E+00 -0.00000000000E+00 -0.74505805969E-08  0.93827000000E+00  0.93827000000E+00 0.  1.
     999902    2    1    2    0    0  0.68306377321E-02 -0.47756684470E-02  0.22153766883E-01  0.10202603146E+01  0.10199857134E+01 0.  0.
     999903    2    3    3    0    0 -0.91351671878E-01 -0.13389230950E-01  0.92267913482E-01  0.13198673457E+00  0.19563506450E-01 0.  0.
         14    1    1    2    0    0 -0.68306377321E-02  0.47756684470E-02 -0.22153766883E-01  0.23669685423E-01  0.00000000000E+00 0. -1.
     999901    1    3    3    0    0  0.98182309610E-01  0.86135625027E-02 -0.70114146599E-01  0.88827358000E+00  0.88000000000E+00 0.  1.
        -11    1    4    4    0    0 -0.34958350647E-01 -0.71072136444E-02  0.23020446540E-01  0.42459402324E-01  0.51100000000E-03 0.  1.
         11    1    4    4    0    0 -0.56393321231E-01 -0.62820173054E-02  0.69247466942E-01  0.89527332249E-01  0.51100000000E-03 0. -1.
</event>
<event>
 8    1  0.1135368E+005  0.1043930E+01  0.7957747E-01            NaN
         13   -1    0    0    0    0  0.00000000000E+00  0.00000000000E+00  0.74505805969E-08  0.10566000000E+00  0.10566000000E+00 0.  1.
     999900   -1    0    0    0    0 -0.00000000000E+00 -0.00000000000E+00 -0.74505805969E-08  0.93827000000E+00  0.93827000000E+00 0.  1.
     999902    2    1    2    0    0 -0.72638215203E-02 -0.20494547925E-01 -0.88432380906E-02  0.10204567715E+01  0.10201867623E+01 0.  0.
     999903    2    3    3    0    0  0.11534640427E+00  0.40694675543E-01  0.35446717407E-01  0.12875110888E+00  0.18961241194E-01 0.  0.
         14    1    1    2    0    0  0.72638215203E-02  0.20494547925E-01  0.88432380906E-02  0.23473228531E-01  0.00000000000E+00 0. -1.
     999901    1    3    3    0    0 -0.12261022579E+00 -0.61189223468E-01 -0.44289955498E-01  0.89170566259E+00  0.88000000000E+00 0.  1.
        -11    1    4    4    0    0  0.75310129426E-01  0.26461195038E-01  0.32392718786E-01  0.86147314458E-01  0.51100000000E-03 0. -1.
         11    1    4    4    0    0  0.40036274842E-01  0.14233480504E-01  0.30539986214E-02  0.42603794421E-01  0.51100000000E-03 0.  1.
</event>
<event>
 8    1  0.1135368E+005  0.1043930E+01  0.7957747E-01            NaN
         13   -1    0    0    0    0  0.00000000000E+00  0.00000000000E+00  0.74505805969E-08  0.10566000000E+00  0.10566000000E+00 0. -1.
     999900   -1    0    0    0    0 -0.00000000000E+00 -0.00000000000E+00 -0.74505805969E-08  0.93827000000E+00  0.93827000000E+00 0. -1.
     999902    2    1    2    0    0 -0.10816927172E-01 -0.15778499262E-01  0.13717395247E-01  0.10203899515E+01  0.10201183849E+01 0.  0.
     999903    2    3    3    0    0  0.46607353122E-01  0.37247587531E-01 -0.11159888478E+00  0.12808199797E+00  0.19775211188E-01 0.  0.
         14    1    1    2    0    0  0.10816927172E-01  0.15778499262E-01 -0.13717395247E-01  0.23540048530E-01  0.00000000000E+00 0. -1.
     999901    1    3    3    0    0 -0.57424280294E-01 -0.53026086792E-01  0.12531628002E+00  0.89230795350E+00  0.88000000000E+00 0.  1.
        -11    1    4    4    0    0  0.19055221281E-01  0.45628136152E-02 -0.27897176770E-01  0.34094491035E-01  0.51100000000E-03 0.  1.
         11    1    4    4    0    0  0.27552131841E-01  0.32684773915E-01 -0.83701708007E-01  0.93987506931E-01  0.51100000000E-03 0. -1.
</event>
<event>
 8    1  0.1135368E+005  0.1043930E+01  0.7957747E-01            NaN
         13   -1    0    0    0    0  0.00000000000E+00  0.00000000000E+00  0.74505805969E-08  0.10566000000E+00  0.10566000000E+00 0.  1.
     999900   -1    0    0    0    0 -0.00000000000E+00 -0.00000000000E+00 -0.74505805969E-08  0.93827000000E+00  0.93827000000E+00 0.  1.
     999902    2    1    2    0    0  0.22095243495E-02  0.13982990980E-01 -0.17243475221E-01  0.10216198348E+01  0.10213762007E+01 0.  0.
     999903    2    3    3    0    0  0.11069402294E+00 -0.30070643317E-01  0.59118844475E-01  0.13058627031E+00  0.20008146276E-01 0.  0.
         14    1    1    2    0    0 -0.22095243495E-02 -0.13982990980E-01  0.17243475221E-01  0.22310165223E-01  0.00000000000E+00 0.  1.
     999901    1    3    3    0    0 -0.10848449859E+00  0.44053634297E-01 -0.76362319696E-01  0.89103356446E+00  0.88000000000E+00 0.  1.
        -11    1    4    4    0    0  0.32324503683E-01 -0.11638980694E-01  0.81956140700E-02  0.35323768498E-01  0.51100000000E-03 0. -1.
         11    1    4    4    0    0  0.78369519261E-01 -0.18431662623E-01  0.50923230405E-01  0.95262501816E-01  0.51100000000E-03 0.  1.
</event>
<event>
 8    1  0.1135368E+005  0.1043930E+01  0.7957747E-01            NaN
         13   -1    0    0    0    0  0.00000000000E+00  0.00000000000E+00  0.74505805969E-08  0.10566000000E+00  0.10566000000E+00 0. -1.
     999900   -1    0    0    0    0 -0.00000000000E+00 -0.00000000000E+00 -0.74505805969E-08  0.93827000000E+00  0.93827000000E+00 0. -1.
     999902    2    1    2    0    0 -0.19512445264E-01 -0.12490588420E-01 -0.48137561772E-02  0.10202673170E+01  0.10199928801E+01 0.  0.
     999903    2    3    3    0    0  0.89943690400E-01 -0.48332820572E-01  0.76299720993E-01  0.12906323967E+00  0.20242120000E-01 0.  0.
         14    1    1    2    0    0  0.19512445264E-01  0.12490588420E-01  0.48137561772E-02  0.23662683022E-01  0.00000000000E+00 0. -1.
     999901    1    3    3    0    0 -0.10945613566E+00  0.35842232151E-01 -0.81113477171E-01  0.89120407731E+00  0.88000000000E+00 0. -1.
        -11    1    4    4    0    0  0.89073795982E-01 -0.49993076773E-01  0.74679667749E-01  0.12653364277E+00  0.51100000000E-03 0. -1.
         11    1    4    4    0    0  0.86989441859E-03  0.16602562015E-02  0.16200532448E-02  0.25295968988E-02  0.51100000000E-03 0.  1.
</event>
<event>
 8    1  0.1135368E+005  0.1043930E+01  0.7957747E-01            NaN
         13   -1    0    0    0    0  0.00000000000E+00  0.00000000000E+00  0.74505805969E-08  0.10566000000E+00  0.10566000000E+00 0. -1.
     999900   -1    0    0    0    0 -0.00000000000E+00 -0.00000000000E+00 -0.74505805969E-08  0.93827000000E+00  0.93827000000E+00 0.  1.
     999902    2    1    2    0    0  0.15179359435E-01  0.97588346371E-02  0.17691969566E-01  0.10186584034E+01  0.10183448774E+01 0.  0.
     999903    2    3    3    0    0  0.11602995339E+00 -0.45998556011E-01 -0.29763582548E-01  0.12987735145E+00  0.20085774444E-01 0.  0.
         14    1    1    2    0    0 -0.15179359435E-01 -0.97588346371E-02 -0.17691969566E-01  0.25271596576E-01  0.00000000000E+00 0.  1.
     999901    1    3    3    0    0 -0.10085059396E+00  0.55757390648E-01  0.47455552114E-01  0.88878105197E+00  0.88000000000E+00 0. -1.
        -11    1    4    4    0    0  0.67465165655E-01 -0.20870326909E-01 -0.81983463478E-02  0.71095661794E-01  0.51100000000E-03 0.  1.
         11    1    4    4    0    0  0.48564787740E-01 -0.25128229102E-01 -0.21565236200E-01  0.58781689661E-01  0.51100000000E-03 0. -1.
</event>
<event>
 8    1  0.1135368E+005  0.1043930E+01  0.7957747E-01            NaN
         13   -1    0    0    0    0  0.00000000000E+00  0.00000000000E+00  0.74505805969E-08  0.10566000000E+00  0.10566000000E+00 0. -1.
     999900   -1    0    0    0    0 -0.00000000000E+00 -0.00000000000E+00 -0.74505805969E-08  0.93827000000E+00  0.93827000000E+00 0. -1.
     999902    2    1    2    0    0 -0.18757532556E-01  0.90432567651E-02 -0.10542266761E-01  0.10205898006E+01  0.10203228784E+01 0.  0.
     999903    2    3    3    0    0 -0.45614906826E-01  0.69919715956E-01  0.99348299719E-01  0.13126241517E+00  0.19754760831E-01 0.  0.
         14    1    1    2    0    0  0.18757532556E-01 -0.90432567651E-02  0.10542266761E-01  0.23340199420E-01  0.00000000000E+00 0. -1.
     999901    1    3    3    0    0  0.26857374270E-01 -0.60876459191E-01 -0.10989056648E+00  0.88932738541E+00  0.88000000000E+00 0. -1.
        -11    1    4    4    0    0 -0.10135365058E-01  0.32908716385E-01  0.42686949724E-01  0.54846568140E-01  0.51100000000E-03 0.  1.
         11    1    4    4    0    0 -0.35479541768E-01  0.37010999571E-01  0.56661349995E-01  0.76415847031E-01  0.51100000000E-03 0. -1.
</event>
<event>
 8    1  0.1135368E+005  0.1043930E+01  0.7957747E-01            NaN
         13   -1    0    0    0    0  0.00000000000E+00  0.00000000000E+00  0.74505805969E-08  0.10566000000E+00  0.10566000000E+00 0.  1.
     999900   -1    0    0    0    0 -0.00000000000E+00 -0.00000000000E+00 -0.74505805969E-08  0.93827000000E+00  0.93827000000E+00 0.  1.
     999902    2    1    2    0    0 -0.17574684494E-01  0.33639043499E-02 -0.15429027174E-01  0.10203028913E+01  0.10200292886E+01 0.  0.
     999903    2    3    3    0    0 -0.88675718542E-01 -0.90127727759E-01 -0.34059502078E-01  0.13230337724E+00  0.18914110535E-01 0.  0.
         14    1    1    2    0    0  0.17574684494E-01 -0.33639043499E-02  0.15429027174E-01  0.23627108733E-01  0.00000000000E+00 0. -1.
     999901    1    3    3    0    0  0.71101034048E-01  0.93491632109E-01  0.18630474904E-01  0.88799951403E+00  0.88000000000E+00 0. -1.
        -11    1    4    4    0    0 -0.53683141280E-01 -0.41167402793E-01 -0.18832858574E-01  0.70225154990E-01  0.51100000000E-03 0.  1.
         11    1    4    4    0    0 -0.34992577262E-01 -0.48960324966E-01 -0.15226643505E-01  0.62078222250E-01  0.51100000000E-03 0. -1.
</event>
<event>
 8    1  0.1135368E+005  0.1043930E+01  0.7957747E-01            NaN
         13   -1    0    0    0    0  0.00000000000E+00  0.00000000000E+00  0.74505805969E-08  0.10566000000E+00  0.10566000000E+00 0.  1.
     999900   -1    0    0    0    0 -0.00000000000E+00 -0.00000000000E+00 -0.74505805969E-08  0.93827000000E+00  0.93827000000E+00 0.  1.
     999902    2    1    2    0    0 -0.45689894525E-02  0.20390703748E-01  0.11767688738E-01  0.10199480284E+01  0.10196660461E+01 0.  0.
     999903    2    3    3    0    0 -0.10797225118E+00  0.38527960471E-01 -0.59512845261E-01  0.13084617307E+00  0.20893336066E-01 0.  0.
         14    1    1    2    0    0  0.45689894525E-02 -0.20390703748E-01 -0.11767688738E-01  0.23981971608E-01  0.00000000000E+00 0. -1.
     999901    1    3    3    0    0  0.10340326173E+00 -0.18137256722E-01  0.71280533999E-01  0.88910185533E+00  0.88000000000E+00 0.  1.
        -11    1    4    4    0    0 -0.92348685790E-01  0.34514457019E-01 -0.58581607357E-01  0.11468039655E+00  0.51100000000E-03 0.  1.
         11    1    4    4    0    0 -0.15623565390E-01  0.40135034514E-02 -0.93123790475E-03  0.16165776520E-01  0.51100000000E-03 0. -1.
</event>
<event>
 8    1  0.1135368E+005  0.1043930E+01  0.7957747E-01            NaN
         13   -1    0    0    0    0  0.00000000000E+00  0.00000000000E+00  0.74505805969E-08  0.10566000000E+00  0.10566000000E+00 0.  1.
     999900   -1    0    0    0    0 -0.00000000000E+00 -0.00000000000E+00 -0.74505805969E-08  0.93827000000E+00  0.93827000000E+00 0.  1.
     999902    2    1    2    0    0  0.23874540542E-01 -0.18517023426E-02  0.29917275536E-03  0.10199818896E+01  0.10197007125E+01 0.  0.
     999903    2    3    3    0    0 -0.77365785853E-01 -0.99756728406E-01  0.25521137838E-03  0.12878325868E+00  0.25459632745E-01 0.  0.
         14    1    1    2    0    0 -0.23874540542E-01  0.18517023426E-02 -0.29917275536E-03  0.23948110406E-01  0.00000000000E+00 0. -1.
     999901    1    3    3    0    0  0.10124032640E+00  0.97905026063E-01  0.43961376974E-04  0.89119863092E+00  0.88000000000E+00 0. -1.
        -11    1    4    4    0    0 -0.73461527199E-01 -0.92313952196E-01 -0.62497546238E-02  0.11814305863E+00  0.51100000000E-03 0. -1.
         11    1    4    4    0    0 -0.39042586545E-02 -0.74427762098E-02  0.65049660022E-02  0.10640200047E-01  0.51100000000E-03 0.  1.
</event>
<event>
 8    1  0.1135368E+005  0.1043930E+01  0.7957747E-01            NaN
         13   -1    0    0    0    0  0.00000000000E+00  0.00000000000E+00  0.74505805969E-08  0.10566000000E+00  0.10566000000E+00 0.  1.
     999900   -1    0    0    0    0 -0.00000000000E+00 -0.00000000000E+00 -0.74505805969E-08  0.93827000000E+00  0.93827000000E+00 0. -1.
     999902    2    1    2    0    0  0.33461073687E-02  0.16131060864E-01  0.15623523040E-01  0.10212253302E+01  0.10209729051E+01 0.  0.
     999903    2    3    3    0    0  0.84507316390E-01  0.28101101055E-01 -0.93542749403E-01  0.13069307431E+00  0.19981874382E-01 0.  0.
         14    1    1    2    0    0 -0.33461073687E-02 -0.16131060864E-01 -0.15623523040E-01  0.22704669813E-01  0.00000000000E+00 0. -1.
     999901    1    3    3    0    0 -0.81161209021E-01 -0.11970040191E-01  0.10916627244E+00  0.89053225587E+00  0.88000000000E+00 0.  1.
        -11    1    4    4    0    0  0.24675279717E-01  0.50108186478E-02 -0.39395385525E-01  0.46757194680E-01  0.51100000000E-03 0.  1.
         11    1    4    4    0    0  0.59832036672E-01  0.23090282407E-01 -0.54147363878E-01  0.83935879634E-01  0.51100000000E-03 0. -1.
</event>
<event>
 8    1  0.1135368E+005  0.1043930E+01  0.7957747E-01            NaN
         13   -1    0    0    0    0  0.00000000000E+00  0.00000000000E+00  0.74505805969E-08  0.10566000000E+00  0.10566000000E+00 0.  1.
     999900   -1    0    0    0    0 -0.00000000000E+00 -0.00000000000E+00 -0.74505805969E-08  0.93827000000E+00  0.93827000000E+00 0.  1.
     999902    2    1    2    0    0  0.10991431062E-01  0.19489218203E-01 -0.79766059335E-02  0.10201756862E+01  0.10198990946E+01 0.  0.
     999903    2    3    3    0    0 -0.93726501339E-01  0.84390477386E-01 -0.30293488171E-01  0.13131345723E+00  0.20472393572E-01 0.  0.
         14    1    1    2    0    0 -0.10991431062E-01 -0.19489218203E-01  0.79766059335E-02  0.23754313822E-01  0.00000000000E+00 0.  1.
     999901    1    3    3    0    0  0.10471793240E+00 -0.64901259183E-01  0.22316882237E-01  0.88886222894E+00  0.88000000000E+00 0.  1.
        -11    1    4    4    0    0 -0.54901265964E-01  0.44759503739E-01 -0.26746875926E-01  0.75718020789E-01  0.51100000000E-03 0.  1.
         11    1    4    4    0    0 -0.38825235375E-01  0.39630973647E-01 -0.35466122453E-02  0.55595436445E-01  0.51100000000E-03 0. -1.
</event>
<event>
 8    1  0.1135368E+005  0.1043930E+01  0.7957747E-01            NaN
         13   -1    0    0    0    0  0.00000000000E+00  0.00000000000E+00  0.74505805969E-08  0.10566000000E+00  0.10566000000E+00 0. -1.
     999900   -1    0    0    0    0 -0.00000000000E+00 -0.00000000000E+00 -0.74505805969E-08  0.93827000000E+00  0.93827000000E+00 0.  1.
     999902    2    1    2    0    0  0.10561816682E-01 -0.16255603269E-01 -0.14152400645E-01  0.10199281865E+01  0.10196457318E+01 0.  0.
     999903    2    3    3    0    0 -0.43284067943E-01  0.11222048364E+00 -0.40636836441E-01  0.12857701574E+00  0.20340821412E-01 0.  0.
         14    1    1    2    0    0 -0.10561816682E-01  0.16255603269E-01  0.14152400645E-01  0.24001813542E-01  0.00000000000E+00 0. -1.
     999901    1    3    3    0    0  0.53845884625E-01 -0.12847608691E+00  0.26484435796E-01  0.89135117072E+00  0.88000000000E+00 0. -1.
        -11    1    4    4    0    0 -0.35828776507E-01  0.75264904513E-01 -0.20543034116E-01  0.85853272792E-01  0.51100000000E-03 0.  1.
         11    1    4    4    0    0 -0.74552914357E-02  0.36955579124E-01 -0.20093802325E-01  0.42723742950E-01  0.51100000000E-03 0. -1.
</event>
<event>
 8    1  0.1135368E+005  0.1043930E+01  0.7957747E-01            NaN
         13   -1    0    0    0    0  0.00000000000E+00  0.00000000000E+00  0.74505805969E-08  0.10566000000E+00  0.10566000000E+00 0.  1.
     999900   -1    0    0    0    0 -0.00000000000E+00 -0.00000000000E+00 -0.74505805969E-08  0.93827000000E+00  0.93827000000E+00 0.  1.
     999902    2    1    2    0    0  0.19074078542E-01  0.51102200431E-02 -0.13493927201E-01  0.10200130417E+01  0.10197326044E+01 0.  0.
     999903    2    3    3    0    0 -0.29993047271E-01 -0.10631484746E+00  0.62102723434E-01  0.12842009533E+00  0.20797666962E-01 0.  0.
         14    1    1    2    0    0 -0.19074078542E-01 -0.51102200431E-02  0.13493927201E-01  0.23916958260E-01  0.00000000000E+00 0.  1.
     999901    1    3    3    0    0  0.49067125813E-01  0.11142506750E+00 -0.75596650635E-01  0.89159294641E+00  0.88000000000E+00 0.  1.
        -11    1    4    4    0    0 -0.11476248516E-01 -0.70843984560E-01  0.33316009703E-01  0.79125166994E-01  0.51100000000E-03 0.  1.
         11    1    4    4    0    0 -0.18516798755E-01 -0.35470862900E-01  0.28786713731E-01  0.49294928334E-01  0.51100000000E-03 0. -1.
</event>
<event>
 8    1  0.1135368E+005  0.1043930E+01  0.7957747E-01            NaN
         13   -1    0    0    0    0  0.00000000000E+00  0.00000000000E+00  0.74505805969E-08  0.10566000000E+00  0.10566000000E+00 0.  1.
     999900   -1    0    0    0    0 -0.00000000000E+00 -0.00000000000E+00 -0.74505805969E-08  0.93827000000E+00  0.93827000000E+00 0.  1.
     999902    2    1    2    0    0 -0.20314748537E-01  0.32621646799E-02  0.98451680078E-02  0.10211208339E+01  0.10208660536E+01 0.  0.
     999903    2    3    3    0    0  0.93068394440E-01  0.63647878053E-01 -0.59458433350E-01  0.12909776205E+00  0.20448678349E-01 0.  0.
         14    1    1    2    0    0  0.20314748537E-01 -0.32621646799E-02 -0.98451680078E-02  0.22809166131E-01  0.00000000000E+00 0. -1.
     999901    1    3    3    0    0 -0.11338314298E+00 -0.60385713373E-01  0.69303601358E-01  0.89202307182E+00  0.88000000000E+00 0. -1.
        -11    1    4    4    0    0  0.54021501792E-01  0.41297636334E-01 -0.46131143688E-01  0.82171533767E-01  0.51100000000E-03 0. -1.
         11    1    4    4    0    0  0.39046892648E-01  0.22350241720E-01 -0.13327289662E-01  0.46926228286E-01  0.51100000000E-03 0.  1.
</event>
<event>
 8    1  0.1135368E+005  0.1043930E+01  0.7957747E-01            NaN
         13   -1    0    0    0    0  0.00000000000E+00  0.00000000000E+00  0.74505805969E-08  0.10566000000E+00  0.10566000000E+00 0.  1.
     999900   -1    0    0    0    0 -0.00000000000E+00 -0.00000000000E+00 -0.74505805969E-08  0.93827000000E+00  0.93827000000E+00 0. -1.
     999902    2    1    2    0    0 -0.23020855304E-01 -0.29335236627E-02 -0.45754212907E-02  0.10202762515E+01  0.10200020242E+01 0.  0.
     999903    2    3    3    0    0 -0.11747236967E+00  0.29961687495E-01  0.50627026434E-01  0.13289217806E+00  0.19994370022E-01 0.  0.
         14    1    1    2    0    0  0.23020855304E-01  0.29335236627E-02  0.45754212907E-02  0.23653748540E-01  0.00000000000E+00 0.  1.
     999901    1    3    3    0    0  0.94451514361E-01 -0.32895211158E-01 -0.55202447724E-01  0.88738407340E+00  0.88000000000E+00 0.  1.
        -11    1    4    4    0    0 -0.65078164152E-01  0.11517006319E-01  0.36811533402E-01  0.75651563079E-01  0.51100000000E-03 0. -1.
         11    1    4    4    0    0 -0.52394205513E-01  0.18444681176E-01  0.13815493032E-01  0.57240614984E-01  0.51100000000E-03 0.  1.
</event>
<event>
 8    1  0.1135368E+005  0.1043930E+01  0.7957747E-01            NaN
         13   -1    0    0    0    0  0.00000000000E+00  0.00000000000E+00  0.74505805969E-08  0.10566000000E+00  0.10566000000E+00 0. -1.
     999900   -1    0    0    0    0 -0.00000000000E+00 -0.00000000000E+00 -0.74505805969E-08  0.93827000000E+00  0.93827000000E+00 0.  1.
     999902    2    1    2    0    0  0.13870752409E-01 -0.24494124460E-01  0.14983099943E-01  0.10120418644E+01  0.10115393627E+01 0.  0.
     999903    2    3    3    0    0  0.24788111522E-01  0.11586886217E+00 -0.92489416711E-02  0.12052173086E+00  0.19997524660E-01 0.  0.
         14    1    1    2    0    0 -0.13870752409E-01  0.24494124460E-01 -0.14983099943E-01  0.31888135558E-01  0.00000000000E+00 0.  1.
     999901    1    3    3    0    0 -0.10917359113E-01 -0.14036298663E+00  0.24232041614E-01  0.89152013359E+00  0.88000000000E+00 0.  1.
        -11    1    4    4    0    0  0.18893128594E-01  0.95518827873E-01  0.69434147610E-04  0.97370748833E-01  0.51100000000E-03 0.  1.
         11    1    4    4    0    0  0.58949829282E-02  0.20350034301E-01 -0.93183758187E-02  0.23150982024E-01  0.51100000000E-03 0. -1.
</event>
<event>
 8    1  0.1135368E+005  0.1043930E+01  0.7957747E-01            NaN
         13   -1    0    0    0    0  0.00000000000E+00  0.00000000000E+00  0.74505805969E-08  0.10566000000E+00  0.10566000000E+00 0.  1.
     999900   -1    0    0    0    0 -0.00000000000E+00 -0.00000000000E+00 -0.74505805969E-08  0.93827000000E+00  0.93827000000E+00 0. -1.
     999902    2    1    2    0    0  0.64565831513E-02 -0.22811792810E-01 -0.59413799846E-02  0.10194889412E+01  0.10191959262E+01 0.  0.
     999903    2    3    3    0    0 -0.80015246344E-01  0.64653351854E-01  0.72521357888E-01  0.12747776975E+00  0.20217291542E-01 0.  0.
         14    1    1    2    0    0 -0.64565831513E-02  0.22811792810E-01  0.59413799846E-02  0.24441058760E-01  0.00000000000E+00 0.  1.
     999901    1    3    3    0    0  0.86471829495E-01 -0.87465144664E-01 -0.78462737872E-01  0.89201117149E+00  0.88000000000E+00 0. -1.
        -11    1    4    4    0    0 -0.22020732841E-01  0.29337100766E-01  0.29689422012E-01  0.47194290508E-01  0.51100000000E-03 0. -1.
         11    1    4    4    0    0 -0.57994513503E-01  0.35316251089E-01  0.42831935875E-01  0.80283479242E-01  0.51100000000E-03 0.  1.
</event>
<event>
 8    1  0.1135368E+005  0.1043930E+01  0.7957747E-01            NaN
         13   -1    0    0    0    0  0.00000000000E+00  0.00000000000E+00  0.74505805969E-08  0.10566000000E+00  0.10566000000E+00 0. -1.
     999900   -1    0    0    0    0 -0.00000000000E+00 -0.00000000000E+00 -0.74505805969E-08  0.93827000000E+00  0.93827000000E+00 0. -1.
     999902    2    1    2    0    0 -0.89678676689E-02 -0.13693981758E-01 -0.16874406455E-01  0.10204205683E+01  0.10201497159E+01 0.  0.
     999903    2    3    3    0    0 -0.20528263050E-01  0.68719957284E-01 -0.10863810400E+00  0.13174386875E+00  0.20257522062E-01 0.  0.
         14    1    1    2    0    0  0.89678676689E-02  0.13693981758E-01  0.16874406455E-01  0.23509431727E-01  0.00000000000E+00 0. -1.
     999901    1    3    3    0    0  0.11560395381E-01 -0.82413939042E-01  0.91763697542E-01  0.88867669952E+00  0.88000000000E+00 0.  1.
        -11    1    4    4    0    0 -0.23509012456E-01  0.57525730385E-01 -0.83768972216E-01  0.10430429114E+00  0.51100000000E-03 0. -1.
         11    1    4    4    0    0  0.29807494061E-02  0.11194226899E-01 -0.24869131780E-01  0.27439577610E-01  0.51100000000E-03 0.  1.
</event>
<event>
 8    1  0.1135368E+005  0.1043930E+01  0.7957747E-01            NaN
         13   -1    0    0    0    0  0.00000000000E+00  0.00000000000E+00  0.74505805969E-08  0.10566000000E+00  0.10566000000E+00 0. -1.
     999900   -1    0    0    0    0 -0.00000000000E+00 -0.00000000000E+00 -0.74505805969E-08  0.93827000000E+00  0.93827000000E+00 0.  1.
     999902    2    1    2    0    0  0.17260835635E-01 -0.24239098235E-01 -0.37145361032E-02  0.10139422007E+01  0.10134986523E+01 0.  0.
     999903    2    3    3    0    0  0.10014710326E+00  0.32986902233E-01 -0.66098410575E-01  0.12600262149E+00  0.19750512182E-01 0.  0.
         14    1    1    2    0    0 -0.17260835635E-01  0.24239098235E-01  0.37145361032E-02  0.29987799328E-01  0.00000000000E+00 0.  1.
     999901    1    3    3    0    0 -0.82886267621E-01 -0.57226000468E-01  0.62383874471E-01  0.88793957919E+00  0.88000000000E+00 0. -1.
        -11    1    4    4    0    0  0.20019559270E-01 -0.10470718361E-02 -0.97273688658E-02  0.22288156919E-01  0.51100000000E-03 0.  1.
         11    1    4    4    0    0  0.80127543987E-01  0.34033974069E-01 -0.56371041709E-01  0.10371446457E+00  0.51100000000E-03 0. -1.
</event>
<event>
 8    1  0.1135368E+005  0.1043930E+01  0.7957747E-01            NaN
         13   -1    0    0    0    0  0.00000000000E+00  0.00000000000E+00  0.74505805969E-08  0.10566000000E+00  0.10566000000E+00 0.  1.
     999900   -1    0    0    0    0 -0.00000000000E+00 -0.00000000000E+00 -0.74505805969E-08  0.93827000000E+00  0.93827000000E+00 0. -1.
     999902    2    1    2    0    0 -0.11067344145E-03 -0.17791766940E-01 -0.14879180897E-01  0.10207362671E+01  0.10204727227E+01 0.  0.
     999903    2    3    3    0    0 -0.40748790430E-01 -0.78842657575E-01 -0.98392413160E-01  0.13374521434E+00  0.18168291502E-01 0.  0.
         14    1    1    2    0    0  0.11067344145E-03  0.17791766940E-01  0.14879180897E-01  0.23193732853E-01  0.00000000000E+00 0.  1.
     999901    1    3    3    0    0  0.40638116989E-01  0.61050890635E-01  0.83513232263E-01  0.88699105281E+00  0.88000000000E+00 0.  1.
        -11    1    4    4    0    0 -0.13103944640E-01 -0.20057230074E-01 -0.38716281742E-01  0.45532597514E-01  0.51100000000E-03 0.  1.
         11    1    4    4    0    0 -0.27644845790E-01 -0.58785427500E-01 -0.59676131418E-01  0.88212616825E-01  0.51100000000E-03 0. -1.
</event>
<event>
 8    1  0.1135368E+005  0.1043930E+01  0.7957747E-01            NaN
         13   -1    0    0    0    0  0.00000000000E+00  0.00000000000E+00  0.74505805969E-08  0.10566000000E+00  0.10566000000E+00 0. -1.
     999900   -1    0    0    0    0 -0.00000000000E+00 -0.00000000000E+00 -0.74505805969E-08  0.93827000000E+00  0.93827000000E+00 0. -1.
     999902    2    1    2    0    0  0.28330213039E-02 -0.25143599757E-02  0.23384033248E-01  0.10202411624E+01  0.10199661114E+01 0.  0.
     999903    2    3    3    0    0  0.79546732639E-01 -0.86318593075E-01 -0.51721635033E-01  0.12976432138E+00  0.19623184964E-01 0.  0.
         14    1    1    2    0    0 -0.28330213039E-02  0.25143599757E-02 -0.23384033248E-01  0.23688837598E-01  0.00000000000E+00 0.  1.
     999901    1    3    3    0    0 -0.76713711335E-01  0.83804233100E-01  0.75105668281E-01  0.89047684102E+00  0.88000000000E+00 0.  1.
        -11    1    4    4    0    0  0.12686890454E-01 -0.18334924261E-01 -0.24590818658E-02  0.22437353713E-01  0.51100000000E-03 0.  1.
         11    1    4    4    0    0  0.66859842185E-01 -0.67983668815E-01 -0.49262553167E-01  0.10732696766E+00  0.51100000000E-03 0. -1.
</event>
<event>
 8    1  0.1135368E+005  0.1043930E+01  0.7957747E-01            NaN
         13   -1    0    0    0    0  0.00000000000E+00  0.00000000000E+00  0.74505805969E-08  0.10566000000E+00  0.10566000000E+00 0.  1.
     999900   -1    0    0    0    0 -0.00000000000E+00 -0.00000000000E+00 -0.74505805969E-08  0.93827000000E+00  0.93827000000E+00 0. -1.
     999902    2    1    2    0    0 -0.26641090405E-02 -0.41206567903E-02 -0.23371956752E-01  0.10200485082E+01  0.10197689118E+01 0.  0.
     999903    2    3    3    0    0  0.12355919374E-01  0.88414706851E-01 -0.95258667880E-01  0.13215431740E+00  0.20511476535E-01 0.  0.
         14    1    1    2    0    0  0.26641090405E-02  0.41206567903E-02  0.23371956752E-01  0.23881491825E-01  0.00000000000E+00 0.  1.
     999901    1    3    3    0    0 -0.15020028415E-01 -0.92535363641E-01  0.71886711128E-01  0.88789419078E+00  0.88000000000E+00 0.  1.
        -11    1    4    4    0    0  0.97316072504E-02  0.19985503426E-01 -0.31718289485E-01  0.38735455796E-01  0.51100000000E-03 0.  1.
         11    1    4    4    0    0  0.26243121240E-02  0.68429203425E-01 -0.63540378395E-01  0.93418861603E-01  0.51100000000E-03 0. -1.
</event>
<event>
 8    1  0.1135368E+005  0.1043930E+01  0.7957747E-01            NaN
         13   -1    0    0    0    0  0.00000000000E+00  0.00000000000E+00  0.74505805969E-08  0.10566000000E+00  0.10566000000E+00 0.  1.
     999900   -1    0    0    0    0 -0.00000000000E+00 -0.00000000000E+00 -0.74505805969E-08  0.93827000000E+00  0.93827000000E+00 0. -1.
     999902    2    1    2    0    0  0.29466197287E-02 -0.17212933808E-01  0.14651304332E-01  0.10211346413E+01  0.10208801729E+01 0.  0.
     999903    2    3    3    0    0  0.59203623803E-02 -0.13119893180E+00  0.16882481311E-01  0.13377528401E+00  0.19042007281E-01 0.  0.
         14    1    1    2    0    0 -0.29466197287E-02  0.17212933808E-01 -0.14651304332E-01  0.22795358666E-01  0.00000000000E+00 0. -1.
     999901    1    3    3    0    0 -0.29737426516E-02  0.11398599799E+00 -0.22311769790E-02  0.88735935733E+00  0.88000000000E+00 0.  1.
        -11    1    4    4    0    0 -0.55422483615E-02 -0.80932731753E-01  0.11527802643E-01  0.81938848788E-01  0.51100000000E-03 0.  1.
         11    1    4    4    0    0  0.11462610742E-01 -0.50266200043E-01  0.53546786679E-02  0.51836435221E-01  0.51100000000E-03 0. -1.
</event>
<event>
 8    1  0.1135368E+005  0.1043930E+01  0.7957747E-01            NaN
         13   -1    0    0    0    0  0.00000000000E+00  0.00000000000E+00  0.74505805969E-08  0.10566000000E+00  0.10566000000E+00 0. -1.
     999900   -1    0    0    0    0 -0.00000000000E+00 -0.00000000000E+00 -0.74505805969E-08  0.93827000000E+00  0.93827000000E+00 0.  1.
     999902    2    1    2    0    0  0.18783852308E-02  0.74261154799E-02  0.24701749061E-01  0.10180678282E+01  0.10177392844E+01 0.  0.
     999903    2    3    3    0    0 -0.69134010968E-01  0.17235145689E-01 -0.10222454507E+00  0.12607608968E+00  0.19203152210E-01 0.  0.
         14    1    1    2    0    0 -0.18783852308E-02 -0.74261154799E-02 -0.24701749061E-01  0.25862171774E-01  0.00000000000E+00 0.  1.
     999901    1    3    3    0    0  0.71012396199E-01 -0.98090302090E-02  0.12692629413E+00  0.89199173854E+00  0.88000000000E+00 0. -1.
        -11    1    4    4    0    0 -0.48400402993E-01  0.38936624364E-02 -0.60122728888E-01  0.77283654591E-01  0.51100000000E-03 0.  1.
         11    1    4    4    0    0 -0.20733607975E-01  0.13341483253E-01 -0.42101816186E-01  0.48792435091E-01  0.51100000000E-03 0. -1.
</event>
<event>
 8    1  0.1135368E+005  0.1043930E+01  0.7957747E-01            NaN
         13   -1    0    0    0    0  0.00000000000E+00  0.00000000000E+00  0.74505805969E-08  0.10566000000E+00  0.10566000000E+00 0. -1.
     999900   -1    0    0    0    0 -0.00000000000E+00 -0.00000000000E+00 -0.74505805969E-08  0.93827000000E+00  0.93827000000E+00 0.  1.
     999902    2    1    2    0    0 -0.11368770780E-01 -0.11826971852E-01 -0.17169766007E-01  0.10201828512E+01  0.10199064284E+01 0.  0.
     999903    2    3    3    0    0 -0.11079199472E+00 -0.68153008657E-01  0.15358142318E-01  0.13219880589E+00  0.17915162836E-01 0.  0.
         14    1    1    2    0    0  0.11368770780E-01  0.11826971852E-01  0.17169766007E-01  0.23747148818E-01  0.00000000000E+00 0. -1.
     999901    1    3    3    0    0  0.99423223939E-01  0.56326036804E-01 -0.32527908325E-01  0.88798404530E+00  0.88000000000E+00 0.  1.
        -11    1    4    4    0    0 -0.57128804101E-01 -0.45566621905E-01  0.88626937766E-02  0.73612673853E-01  0.51100000000E-03 0.  1.
         11    1    4    4    0    0 -0.53663190619E-01 -0.22586386752E-01  0.64954485415E-02  0.58586132033E-01  0.51100000000E-03 0. -1.
</event>
<event>
 8    1  0.1135368E+005  0.1043930E+01  0.7957747E-01            NaN
         13   -1    0    0    0    0  0.00000000000E+00  0.00000000000E+00  0.74505805969E-08  0.10566000000E+00  0.10566000000E+00 0.  1.
     999900   -1    0    0    0    0 -0.00000000000E+00 -0.00000000000E+00 -0.74505805969E-08  0.93827000000E+00  0.93827000000E+00 0.  1.
     999902    2    1    2    0    0 -0.10835886100E-01  0.15929016329E-01 -0.16552014392E-01  0.10185308038E+01  0.10182140635E+01 0.  0.
     999903    2    3    3    0    0 -0.71783490741E-01  0.10756969617E+00  0.10425581486E-01  0.13126510771E+00  0.19943085925E-01 0.  0.
         14    1    1    2    0    0  0.10835886100E-01 -0.15929016329E-01  0.16552014392E-01  0.25399196232E-01  0.00000000000E+00 0.  1.
     999901    1    3    3    0    0  0.60947604641E-01 -0.91640679844E-01 -0.26977595878E-01  0.88726569605E+00  0.88000000000E+00 0. -1.
        -11    1    4    4    0    0 -0.57228845999E-01  0.86423903570E-01  0.27576643029E-03  0.10365601329E+00  0.51100000000E-03 0. -1.
         11    1    4    4    0    0 -0.14554644742E-01  0.21145792603E-01  0.10149815056E-01  0.27609094426E-01  0.51100000000E-03 0.  1.
</event>
<event>
 8    1  0.1135368E+005  0.1043930E+01  0.7957747E-01            NaN
         13   -1    0    0    0    0  0.00000000000E+00  0.00000000000E+00  0.74505805969E-08  0.10566000000E+00  0.10566000000E+00 0. -1.
     999900   -1    0    0    0    0 -0.00000000000E+00 -0.00000000000E+00 -0.74505805969E-08  0.93827000000E+00  0.93827000000E+00 0.  1.
     999902    2    1    2    0    0 -0.14765474498E-01 -0.29436807125E-02 -0.18224726889E-01  0.10202905169E+01  0.10200166242E+01 0.  0.
     999903    2    3    3    0    0 -0.12043768866E+00  0.20239775472E-01  0.44443250528E-01  0.13145343117E+00  0.19746308231E-01 0.  0.
         14    1    1    2    0    0  0.14765474498E-01  0.29436807125E-02  0.18224726889E-01  0.23639483147E-01  0.00000000000E+00 0. -1.
     999901    1    3    3    0    0  0.10567221416E+00 -0.23183456185E-01 -0.62667977417E-01  0.88883708568E+00  0.88000000000E+00 0.  1.
        -11    1    4    4    0    0 -0.83280375177E-01  0.91386362863E-02  0.21910883974E-01  0.86599558431E-01  0.51100000000E-03 0. -1.
         11    1    4    4    0    0 -0.37157313482E-01  0.11101139186E-01  0.22532366554E-01  0.44853872742E-01  0.51100000000E-03 0.  1.
</event>
<event>
 8    1  0.1135368E+005  0.1043930E+01  0.7957747E-01            NaN
         13   -1    0    0    0    0  0.00000000000E+00  0.00000000000E+00  0.74505805969E-08  0.10566000000E+00  0.10566000000E+00 0. -1.
     999900   -1    0    0    0    0 -0.00000000000E+00 -0.00000000000E+00 -0.74505805969E-08  0.93827000000E+00  0.93827000000E+00 0. -1.
     999902    2    1    2    0    0 -0.17242400213E-01  0.12800485465E-01 -0.73896071208E-02  0.10212196700E+01  0.10209671177E+01 0.  0.
     999903    2    3    3    0    0  0.26697314205E-01  0.10049993889E+00  0.78136421613E-01  0.13164865308E+00  0.20324447683E-01 0.  0.
         14    1    1    2    0    0  0.17242400213E-01 -0.12800485465E-01  0.73896071208E-02  0.22710329955E-01  0.00000000000E+00 0. -1.
     999901    1    3    3    0    0 -0.43939714419E-01 -0.87699453421E-01 -0.85526028733E-01  0.88957101697E+00  0.88000000000E+00 0. -1.
        -11    1    4    4    0    0  0.22058885697E-01  0.43634945872E-01  0.36267360569E-01  0.60878448593E-01  0.51100000000E-03 0.  1.
         11    1    4    4    0    0  0.46384285080E-02  0.56864993014E-01  0.41869061044E-01  0.70770204487E-01  0.51100000000E-03 0. -1.
</event>
<event>
 8    1  0.1135368E+005  0.1043930E+01  0.7957747E-01            NaN
         13   -1    0    0    0    0  0.00000000000E+00  0.00000000000E+00  0.74505805969E-08  0.10566000000E+00  0.10566000000E+00 0. -1.
     999900   -1    0    0    0    0 -0.00000000000E+00 -0.00000000000E+00 -0.74505805969E-08  0.93827000000E+00  0.93827000000E+00 0.  1.
     999902    2    1    2    0    0 -0.84623767849E-02 -0.19606238477E-01 -0.97657846227E-02  0.10204483698E+01  0.10201781651E+01 0.  0.
     999903    2    3    3    0    0 -0.47395358689E-01 -0.44589130433E-01  0.11183341981E+00  0.13088314537E+00  0.19727477739E-01 0.  0.
         14    1    1    2    0    0  0.84623767849E-02  0.19606238477E-01  0.97657846227E-02  0.23481630211E-01  0.00000000000E+00 0.  1.
     999901    1    3    3    0    0  0.38932981904E-01  0.24982891956E-01 -0.12159920443E+00  0.88956522442E+00  0.88000000000E+00 0.  1.
        -11    1    4    4    0    0 -0.21628191248E-01 -0.77047720330E-02  0.35791059022E-01  0.42525324169E-01  0.51100000000E-03 0. -1.
         11    1    4    4    0    0 -0.25767167441E-01 -0.36884358400E-01  0.76042360790E-01  0.88357821205E-01  0.51100000000E-03 0.  1.
</event>
<event>
 7    1  0.1135368E+005  0.1043930E+01  0.7957747E-01            NaN
         13   -1    0    0    0    0  0.00000000000E+00  0.00000000000E+00  0.74505805969E-08  0.10566000000E+00  0.10566000000E+00 0. -1.
     999900   -1    0    0    0    0 -0.00000000000E+00 -0.00000000000E+00 -0.74505805969E-08  0.93827000000E+00  0.93827000000E+00 0.  1.
     999902    2    1    2    0    0  0.19705539156E-02  0.22013411800E-01 -0.82699952715E-02  0.10203319873E+01  0.10200590660E+01 0.  0.
         14    1    1    2    0    0 -0.19705539156E-02 -0.22013411800E-01  0.82699952715E-02  0.23598012704E-01  0.00000000000E+00 0.  1.
     999901    1    3    3    0    0  0.21079253971E-01  0.13429849987E+00 -0.13502084838E-01  0.89054069436E+00  0.88000000000E+00 0. -1.
        -11    1    3    3    0    0  0.16084246636E-01 -0.22729570713E-01 -0.14750457731E-01  0.31514655303E-01  0.51100000000E-03 0. -1.
         11    1    3    3    0    0 -0.35192946691E-01 -0.89555517362E-01  0.19982547297E-01  0.98276637632E-01  0.51100000000E-03 0.  1.
</event>
<event>
 8    1  0.1135368E+005  0.1043930E+01  0.7957747E-01            NaN
         13   -1    0    0    0    0  0.00000000000E+00  0.00000000000E+00  0.74505805969E-08  0.10566000000E+00  0.10566000000E+00 0. -1.
     999900   -1    0    0    0    0 -0.00000000000E+00 -0.00000000000E+00 -0.74505805969E-08  0.93827000000E+00  0.93827000000E+00 0.  1.
     999902    2    1    2    0    0 -0.16255989351E-01  0.50117197662E-02 -0.16778477602E-01  0.10200366571E+01  0.10197567798E+01 0.  0.
     999903    2    3    3    0    0 -0.49475924292E-01 -0.68551352637E-02  0.11767479389E+00  0.12912584868E+00  0.18200761411E-01 0.  0.
         14    1    1    2    0    0  0.16255989351E-01 -0.50117197662E-02  0.16778477602E-01  0.23893342910E-01  0.00000000000E+00 0. -1.
     999901    1    3    3    0    0  0.33219934941E-01  0.11866855030E-01 -0.13445327149E+00  0.89091080841E+00  0.88000000000E+00 0.  1.
        -11    1    4    4    0    0 -0.30496974445E-01 -0.11249895000E-01  0.59908666042E-01  0.68161095763E-01  0.51100000000E-03 0.  1.
         11    1    4    4    0    0 -0.18978949847E-01  0.43947597358E-02  0.57766127850E-01  0.60964752917E-01  0.51100000000E-03 0. -1.
</event>
<event>
 8    1  0.1135368E+005  0.1043930E+01  0.7957747E-01            NaN
         13   -1    0    0    0    0  0.00000000000E+00  0.00000000000E+00  0.74505805969E-08  0.10566000000E+00  0.10566000000E+00 0.  1.
     999900   -1    0    0    0    0 -0.00000000000E+00 -0.00000000000E+00 -0.74505805969E-08  0.93827000000E+00  0.93827000000E+00 0.  1.
     999902    2    1    2    0    0  0.14958284699E-01 -0.18356292580E-01  0.57105578764E-02  0.10195719576E+01  0.10192809537E+01 0.  0.
     999903    2    3    3    0    0 -0.37815246367E-01 -0.77772808308E-01  0.96805705264E-01  0.13130752974E+00  0.19791923213E-01 0.  0.
         14    1    1    2    0    0 -0.14958284699E-01  0.18356292580E-01 -0.57105578764E-02  0.24358042402E-01  0.00000000000E+00 0. -1.
     999901    1    3    3    0    0  0.52773531066E-01  0.59416515728E-01 -0.91095147387E-01  0.88826442786E+00  0.88000000000E+00 0. -1.
        -11    1    4    4    0    0 -0.18388109266E-01 -0.30047317358E-01  0.26237810771E-01  0.43927755210E-01  0.51100000000E-03 0. -1.
         11    1    4    4    0    0 -0.19427137101E-01 -0.47725490950E-01  0.70567894493E-01  0.87379774528E-01  0.51100000000E-03 0.  1.
</event>
<event>
 8    1  0.1135368E+005  0.1043930E+01  0.7957747E-01            NaN
         13   -1    0    0    0    0  0.00000000000E+00  0.00000000000E+00  0.74505805969E-08  0.10566000000E+00  0.10566000000E+00 0. -1.
     999900   -1    0    0    0    0 -0.00000000000E+00 -0.00000000000E+00 -0.74505805969E-08  0.93827000000E+00  0.93827000000E+00 0.  1.
     999902    2    1    2    0    0 -0.65122895275E-02 -0.21296977311E-01  0.71014848471E-02  0.10205547515E+01  0.10202870177E+01 0.  0.
     999903    2    3    3    0    0  0.75394087878E-02  0.12634528652E+00  0.13499613418E-03  0.12811751542E+00  0.19852088652E-01 0.  0.
         14    1    1    2    0    0  0.65122895275E-02  0.21296977311E-01 -0.71014848471E-02  0.23375248544E-01  0.00000000000E+00 0.  1.
     999901    1    3    3    0    0 -0.14051698315E-01 -0.14764226383E+00  0.69664887130E-02  0.89243723603E+00  0.88000000000E+00 0.  1.
        -11    1    4    4    0    0  0.13767858932E-01  0.68309891320E-01  0.20444534415E-02  0.69715393584E-01  0.51100000000E-03 0. -1.
         11    1    4    4    0    0 -0.62284501440E-02  0.58035395198E-01 -0.19094573073E-02  0.58402121838E-01  0.51100000000E-03 0.  1.
</event>
<event>
 8    1  0.1135368E+005  0.1043930E+01  0.7957747E-01            NaN
         13   -1    0    0    0    0  0.00000000000E+00  0.00000000000E+00  0.74505805969E-08  0.10566000000E+00  0.10566000000E+00 0. -1.
     999900   -1    0    0    0    0 -0.00000000000E+00 -0.00000000000E+00 -0.74505805969E-08  0.93827000000E+00  0.93827000000E+00 0. -1.
     999902    2    1    2    0    0 -0.27781943541E-02  0.10316024289E-01 -0.21011280771E-01  0.10203585630E+01  0.10200862633E+01 0.  0.
     999903    2    3    3    0    0  0.70249548589E-01  0.26961248423E-01 -0.10787492145E+00  0.13291537792E+00  0.19172663312E-01 0.  0.
         14    1    1    2    0    0  0.27781943541E-02 -0.10316024289E-01  0.21011280771E-01  0.23571436966E-01  0.00000000000E+00 0. -1.
     999901    1    3    3    0    0 -0.73027742944E-01 -0.16645224134E-01  0.86863640675E-01  0.88744318511E+00  0.88000000000E+00 0.  1.
        -11    1    4    4    0    0  0.43822474487E-01  0.22302836998E-01 -0.56126439717E-01  0.74620802493E-01  0.51100000000E-03 0. -1.
         11    1    4    4    0    0  0.26427074103E-01  0.46584114244E-02 -0.51748481728E-01  0.58294575432E-01  0.51100000000E-03 0.  1.
</event>
<event>
 8    1  0.1135368E+005  0.1043930E+01  0.7957747E-01            NaN
         13   -1    0    0    0    0  0.00000000000E+00  0.00000000000E+00  0.74505805969E-08  0.10566000000E+00  0.10566000000E+00 0. -1.
     999900   -1    0    0    0    0 -0.00000000000E+00 -0.00000000000E+00 -0.74505805969E-08  0.93827000000E+00  0.93827000000E+00 0. -1.
     999902    2    1    2    0    0  0.10704061297E-01 -0.22043884752E-01 -0.50911744470E-02  0.10189014195E+01  0.10185939686E+01 0.  0.
     999903    2    3    3    0    0 -0.83695737910E-01  0.33684885428E-02  0.94135211423E-01  0.12794519925E+00  0.22185867593E-01 0.  0.
         14    1    1    2    0    0 -0.10704061297E-01  0.22043884752E-01  0.50911744470E-02  0.25028580472E-01  0.00000000000E+00 0. -1.
     999901    1    3    3    0    0  0.94399799208E-01 -0.25412373295E-01 -0.99226385870E-01  0.89095622028E+00  0.88000000000E+00 0. -1.
        -11    1    4    4    0    0 -0.50789801492E-01  0.98727227862E-02  0.45748886781E-01  0.69067332029E-01  0.51100000000E-03 0.  1.
         11    1    4    4    0    0 -0.32905936418E-01 -0.65042342434E-02  0.48386324642E-01  0.58877867216E-01  0.51100000000E-03 0. -1.
</event>
<event>
 8    1  0.1135368E+005  0.1043930E+01  0.7957747E-01            NaN
         13   -1    0    0    0    0  0.00000000000E+00  0.00000000000E+00  0.74505805969E-08  0.10566000000E+00  0.10566000000E+00 0.  1.
     999900   -1    0    0    0    0 -0.00000000000E+00 -0.00000000000E+00 -0.74505805969E-08  0.93827000000E+00  0.93827000000E+00 0. -1.
     999902    2    1    2    0    0  0.17951209197E-01 -0.13046432687E-01  0.10595965696E-01  0.10193387453E+01  0.10190420737E+01 0.  0.
     999903    2    3    3    0    0 -0.11000170296E+00 -0.62983401346E-01 -0.53845663584E-02  0.12854077386E+00  0.20650750361E-01 0.  0.
         14    1    1    2    0    0 -0.17951209197E-01  0.13046432687E-01 -0.10595965696E-01  0.24591254676E-01  0.00000000000E+00 0. -1.
     999901    1    3    3    0    0  0.12795291215E+00  0.49936968659E-01  0.15980532054E-01  0.89079797147E+00  0.88000000000E+00 0. -1.
        -11    1    4    4    0    0 -0.54225526025E-01 -0.19236751688E-01 -0.27465638556E-02  0.57604383706E-01  0.51100000000E-03 0. -1.
         11    1    4    4    0    0 -0.55776176931E-01 -0.43746649658E-01 -0.26380025028E-02  0.70936390150E-01  0.51100000000E-03 0.  1.
</event>
<event>
 8    1  0.1135368E+005  0.1043930E+01  0.7957747E-01            NaN
         13   -1    0    0    0    0  0.00000000000E+00  0.00000000000E+00  0.74505805969E-08  0.10566000000E+00  0.10566000000E+00 0.  1.
     999900   -1    0    0    0    0 -0.00000000000E+00 -0.00000000000E+00 -0.74505805969E-08  0.93827000000E+00  0.93827000000E+00 0. -1.
     999902    2    1    2    0    0 -0.45869082918E-02  0.16755952219E-01  0.15592396377E-01  0.10205863823E+01  0.10203193810E+01 0.  0.
     999903    2    3    3    0    0 -0.69217469532E-01  0.79131270959E-01  0.79996150389E-01  0.13367283896E+00  0.20401658425E-01 0.  0.
         14    1    1    2    0    0  0.45869082918E-02 -0.16755952219E-01 -0.15592396377E-01  0.23343617698E-01  0.00000000000E+00 0. -1.
     999901    1    3    3    0    0  0.64630561240E-01 -0.62375318741E-01 -0.64403754011E-01  0.88691354334E+00  0.88000000000E+00 0. -1.
        -11    1    4    4    0    0 -0.28781184598E-01  0.47513460121E-01  0.45730464795E-01  0.71954305020E-01  0.51100000000E-03 0. -1.
         11    1    4    4    0    0 -0.40436284934E-01  0.31617810838E-01  0.34265685593E-01  0.61718533939E-01  0.51100000000E-03 0.  1.
</event>
<event>
 8    1  0.1135368E+005  0.1043930E+01  0.7957747E-01            NaN
         13   -1    0    0    0    0  0.00000000000E+00  0.00000000000E+00  0.74505805969E-08  0.10566000000E+00  0.10566000000E+00 0.  1.
     999900   -1    0    0    0    0 -0.00000000000E+00 -0.00000000000E+00 -0.74505805969E-08  0.93827000000E+00  0.93827000000E+00 0.  1.
     999902    2    1    2    0    0 -0.23594624083E-01  0.20150625678E-03  0.15840117985E-02  0.10202814063E+01  0.10200073000E+01 0.  0.
     999903    2    3    3    0    0  0.79739518408E-01 -0.65827997886E-01  0.74137153978E-01  0.12882091988E+00  0.20169176889E-01 0.  0.
         14    1    1    2    0    0  0.23594624083E-01 -0.20150625678E-03 -0.15840117985E-02  0.23648593695E-01  0.00000000000E+00 0.  1.
     999901    1    3    3    0    0 -0.10333414249E+00  0.66029504143E-01 -0.72553142179E-01  0.89146048643E+00  0.88000000000E+00 0.  1.
        -11    1    4    4    0    0  0.25127727699E-01 -0.17425775007E-01  0.11580457092E-01  0.32702116773E-01  0.51100000000E-03 0.  1.
         11    1    4    4    0    0  0.54611790709E-01 -0.48402222879E-01  0.62556696886E-01  0.96118803105E-01  0.51100000000E-03 0. -1.
</event>
<event>
 8    1  0.1135368E+005  0.1043930E+01  0.7957747E-01            NaN
         13   -1    0    0    0    0  0.00000000000E+00  0.00000000000E+00  0.74505805969E-08  0.10566000000E+00  0.10566000000E+00 0. -1.
     999900   -1    0    0    0    0 -0.00000000000E+00 -0.00000000000E+00 -0.74505805969E-08  0.93827000000E+00  0.93827000000E+00 0.  1.
     999902    2    1    2    0    0 -0.18950113895E-01 -0.45157789079E-02  0.13646970480E-01  0.10201447340E+01  0.10198674127E+01 0.  0.
     999903    2    3    3    0    0 -0.44393130005E-01  0.92920270698E-01  0.79870576690E-01  0.13192927767E+00  0.20520686813E-01 0.  0.
         14    1    1    2    0    0  0.18950113895E-01  0.45157789079E-02 -0.13646970480E-01  0.23785266008E-01  0.00000000000E+00 0.  1.
     999901    1    3    3    0    0  0.25443016110E-01 -0.97436049605E-01 -0.66223606210E-01  0.88821545632E+00  0.88000000000E+00 0.  1.
        -11    1    4    4    0    0 -0.10727146226E-01  0.42399154026E-01  0.40191635120E-01  0.59400240596E-01  0.51100000000E-03 0.  1.
         11    1    4    4    0    0 -0.33665983780E-01  0.50521116671E-01  0.39678941570E-01  0.72529037073E-01  0.51100000000E-03 0. -1.
</event>
<event>
 8    1  0.1135368E+005  0.1043930E+01  0.7957747E-01            NaN
         13   -1    0    0    0    0  0.00000000000E+00  0.00000000000E+00  0.74505805969E-08  0.10566000000E+00  0.10566000000E+00 0. -1.
     999900   -1    0    0    0    0 -0.00000000000E+00 -0.00000000000E+00 -0.74505805969E-08  0.93827000000E+00  0.93827000000E+00 0. -1.
     999902    2    1    2    0    0 -0.75801813505E-04 -0.53447868693E-02 -0.24782536259E-01  0.10185775525E+01  0.10182619917E+01 0.  0.
     999903    2    3    3    0    0 -0.85899963826E-01 -0.94881516450E-01 -0.92129387076E-02  0.12974403313E+00  0.19165853580E-01 0.  0.
         14    1    1    2    0    0  0.75801813505E-04  0.53447868693E-02  0.24782536259E-01  0.25352447535E-01  0.00000000000E+00 0. -1.
     999901    1    3    3    0    0  0.85824162012E-01  0.89536729581E-01 -0.15569597552E-01  0.88883351934E+00  0.88000000000E+00 0. -1.
        -11    1    4    4    0    0 -0.44472733456E-01 -0.56025384600E-01  0.31959226299E-02  0.71604069598E-01  0.51100000000E-03 0.  1.
         11    1    4    4    0    0 -0.41427230370E-01 -0.38856131850E-01 -0.12408861338E-01  0.58139963529E-01  0.51100000000E-03 0. -1.
</event>
<event>
 8    1  0.1135368E+005  0.1043930E+01  0.7957747E-01            NaN
         13   -1    0    0    0    0  0.00000000000E+00  0.00000000000E+00  0.74505805969E-08  0.10566000000E+00  0.10566000000E+00 0. -1.
     999900   -1    0    0    0    0 -0.00000000000E+00 -0.00000000000E+00 -0.74505805969E-08  0.93827000000E+00  0.93827000000E+00 0.  1.
     999902    2    1    2    0    0  0.26138131964E-03 -0.17304436247E-01  0.14908784592E-01  0.10210874149E+01  0.10208318790E+01 0.  0.
     999903    2    3    3    0    0  0.28351380395E-01  0.30876432642E-01 -0.12052242565E+00  0.12898200812E+00  0.18802884654E-01 0.  0.
         14    1    1    2    0    0 -0.26138131964E-03  0.17304436247E-01 -0.14908784592E-01  0.22842585056E-01  0.00000000000E+00 0.  1.
     999901    1    3    3    0    0 -0.28089999075E-01 -0.48180868889E-01  0.13543121024E+00  0.89210540682E+00  0.88000000000E+00 0. -1.
        -11    1    4    4    0    0  0.40849729707E-02  0.41241541830E-02 -0.43748137330E-01  0.44134524952E-01  0.51100000000E-03 0. -1.
         11    1    4    4    0    0  0.24266407424E-01  0.26752278459E-01 -0.76774288321E-01  0.84847483170E-01  0.51100000000E-03 0.  1.
</event>
<event>
 8    1  0.1135368E+005  0.1043930E+01  0.7957747E-01            NaN
         13   -1    0    0    0    0  0.00000000000E+00  0.00000000000E+00  0.74505805969E-08  0.10566000000E+00  0.10566000000E+00 0.  1.
     999900   -1    0    0    0    0 -0.00000000000E+00 -0.00000000000E+00 -0.74505805969E-08  0.93827000000E+00  0.93827000000E+00 0. -1.
     999902    2    1    2    0    0  0.12817932030E-01  0.11306474980E-01  0.15422853517E-01  0.10209082675E+01  0.10206486616E+01 0.  0.
     999903    2    3    3    0    0 -0.46072346835E-01  0.10668401032E+00 -0.56694256172E-01  0.13087129256E+00  0.20221704504E-01 0.  0.
         14    1    1    2    0    0 -0.12817932030E-01 -0.11306474980E-01 -0.15422853517E-01  0.23021732528E-01  0.00000000000E+00 0. -1.
     999901    1    3    3    0    0  0.58890278865E-01 -0.95377535342E-01  0.72117109689E-01  0.89003697491E+00  0.88000000000E+00 0.  1.
        -11    1    4    4    0    0 -0.34971289044E-01  0.60823693444E-01 -0.40325093685E-01  0.80925194120E-01  0.51100000000E-03 0. -1.
         11    1    4    4    0    0 -0.11101057790E-01  0.45860316879E-01 -0.16369162487E-01  0.49946098444E-01  0.51100000000E-03 0.  1.
</event>
<event>
 8    1  0.1135368E+005  0.1043930E+01  0.7957747E-01            NaN
         13   -1    0    0    0    0  0.00000000000E+00  0.00000000000E+00  0.74505805969E-08  0.10566000000E+00  0.10566000000E+00 0. -1.
     999900   -1    0    0    0    0 -0.00000000000E+00 -0.00000000000E+00 -0.74505805969E-08  0.93827000000E+00  0.93827000000E+00 0.  1.
     999902    2    1    2    0    0  0.39328366772E-02 -0.55219227356E-02 -0.23200538664E-01  0.10197592774E+01  0.10194727854E+01 0.  0.
     999903    2    3    3    0    0 -0.57544380845E-01 -0.69344646649E-01  0.88981611332E-01  0.12822261350E+00  0.20081724820E-01 0.  0.
         14    1    1    2    0    0 -0.39328366772E-02  0.55219227356E-02  0.23200538664E-01  0.24170722566E-01  0.00000000000E+00 0. -1.
     999901    1    3    3    0    0  0.61477217522E-01  0.63822723914E-01 -0.11218215000E+00  0.89153666393E+00  0.88000000000E+00 0.  1.
        -11    1    4    4    0    0 -0.24530579357E-01 -0.42612454805E-01  0.55366709534E-01  0.74049336754E-01  0.51100000000E-03 0.  1.
         11    1    4    4    0    0 -0.33013801488E-01 -0.26732191844E-01  0.33614901798E-01  0.54173276746E-01  0.51100000000E-03 0. -1.
</event>
<event>
 8    1  0.1135368E+005  0.1043930E+01  0.7957747E-01            NaN
         13   -1    0    0    0    0  0.00000000000E+00  0.00000000000E+00  0.74505805969E-08  0.10566000000E+00  0.10566000000E+00 0. -1.
     999900   -1    0    0    0    0 -0.00000000000E+00 -0.00000000000E+00 -0.74505805969E-08  0.93827000000E+00  0.93827000000E+00 0. -1.
     999902    2    1    2    0    0  0.12556696805E-01  0.19711242680E-01 -0.14194635175E-02  0.10205159316E+01  0.10202472975E+01 0.  0.
     999903    2    3    3    0    0 -0.38749454421E-01  0.13374324117E-01 -0.12255112801E+00  0.13071519107E+00  0.19679670659E-01 0.  0.
         14    1    1    2    0    0 -0.12556696805E-01 -0.19711242680E-01  0.14194635175E-02  0.23414068406E-01  0.00000000000E+00 0. -1.
     999901    1    3    3    0    0  0.51306151226E-01  0.63369185623E-02  0.12113166449E+00  0.88980074052E+00  0.88000000000E+00 0.  1.
        -11    1    4    4    0    0 -0.34515865771E-01  0.15022346213E-01 -0.85997224681E-01  0.93876512768E-01  0.51100000000E-03 0.  1.
         11    1    4    4    0    0 -0.42335886501E-02 -0.16480220954E-02 -0.36553903328E-01  0.36838678304E-01  0.51100000000E-03 0. -1.
</event>
<event>
 8    1  0.1135368E+005  0.1043930E+01  0.7957747E-01            NaN
         13   -1    0    0    0    0  0.00000000000E+00  0.00000000000E+00  0.74505805969E-08  0.10566000000E+00  0.10566000000E+00 0. -1.
     999900   -1    0    0    0    0 -0.00000000000E+00 -0.00000000000E+00 -0.74505805969E-08  0.93827000000E+00  0.93827000000E+00 0. -1.
     999902    2    1    2    0    0  0.83168277610E-02 -0.19490557467E-01 -0.11509549719E-01  0.10198152496E+01  0.10195300986E+01 0.  0.
     999903    2    3    3    0    0  0.18293395823E-01 -0.88319397717E-01 -0.95769417635E-01  0.13305898851E+00  0.19948652207E-01 0.  0.
         14    1    1    2    0    0 -0.83168277610E-02  0.19490557467E-01  0.11509549719E-01  0.24114750447E-01  0.00000000000E+00 0. -1.
     999901    1    3    3    0    0 -0.99765680615E-02  0.68828840250E-01  0.84259867916E-01  0.88675626104E+00  0.88000000000E+00 0.  1.
        -11    1    4    4    0    0  0.73934384165E-02 -0.14400611625E-01 -0.89160553644E-02  0.18487771933E-01  0.51100000000E-03 0. -1.
         11    1    4    4    0    0  0.10899957406E-01 -0.73918786092E-01 -0.86853362271E-01  0.11457121658E+00  0.51100000000E-03 0.  1.
</event>
<event>
 8    1  0.1135368E+005  0.1043930E+01  0.7957747E-01            NaN
         13   -1    0    0    0    0  0.00000000000E+00  0.00000000000E+00  0.74505805969E-08  0.10566000000E+00  0.10566000000E+00 0.  1.
     999900   -1    0    0    0    0 -0.00000000000E+00 -0.00000000000E+00 -0.74505805969E-08  0.93827000000E+00  0.93827000000E+00 0.  1.
     999902    2    1    2    0    0  0.22798683091E-01  0.21639906182E-02  0.48589323226E-02  0.10205190618E+01  0.10202505003E+01 0.  0.
     999903    2    3    3    0    0  0.68904076114E-01  0.92517371370E-01  0.62851348022E-01  0.13279581606E+00  0.19421665827E-01 0.  0.
         14    1    1    2    0    0 -0.22798683091E-01 -0.21639906182E-02 -0.48589323226E-02  0.23410938243E-01  0.00000000000E+00 0.  1.
     999901    1    3    3    0    0 -0.46105393022E-01 -0.90353380752E-01 -0.57992415700E-01  0.88772324570E+00  0.88000000000E+00 0.  1.
        -11    1    4    4    0    0  0.54284706444E-01  0.78340184436E-01  0.43760423588E-01  0.10487730758E+00  0.51100000000E-03 0.  1.
         11    1    4    4    0    0  0.14619369669E-01  0.14177186934E-01  0.19090924434E-01  0.27918508478E-01  0.51100000000E-03 0. -1.
</event>
<event>
 8    1  0.1135368E+005  0.1043930E+01  0.7957747E-01            NaN
         13   -1    0    0    0    0  0.00000000000E+00  0.00000000000E+00  0.74505805969E-08  0.10566000000E+00  0.10566000000E+00 0. -1.
     999900   -1    0    0    0    0 -0.00000000000E+00 -0.00000000000E+00 -0.74505805969E-08  0.93827000000E+00  0.93827000000E+00 0. -1.
     999902    2    1    2    0    0  0.23948392627E-01  0.36742929031E-02 -0.33421727313E-03  0.10196990768E+01  0.10194111386E+01 0.  0.
     999903    2    3    3    0    0  0.20431200714E-01 -0.46220947825E-01  0.11840419535E+00  0.13031686632E+00  0.20226769160E-01 0.  0.
         14    1    1    2    0    0 -0.23948392627E-01 -0.36742929031E-02  0.33421727313E-03  0.24230923196E-01  0.00000000000E+00 0.  1.
     999901    1    3    3    0    0  0.35171919133E-02  0.49895240728E-01 -0.11873841263E+00  0.88938221048E+00  0.88000000000E+00 0. -1.
        -11    1    4    4    0    0  0.11137149133E-01 -0.32339232219E-01  0.98805514551E-01  0.10455932698E+00  0.51100000000E-03 0. -1.
         11    1    4    4    0    0  0.92940515813E-02 -0.13881715606E-01  0.19598680802E-01  0.25757539345E-01  0.51100000000E-03 0.  1.
</event>
<event>
 8    1  0.1135368E+005  0.1043930E+01  0.7957747E-01            NaN
         13   -1    0    0    0    0  0.00000000000E+00  0.00000000000E+00  0.74505805969E-08  0.10566000000E+00  0.10566000000E+00 0.  1.
     999900   -1    0    0    0    0 -0.00000000000E+00 -0.00000000000E+00 -0.74505805969E-08  0.93827000000E+00  0.93827000000E+00 0. -1.
     999902    2    1    2    0    0 -0.22791651981E-01 -0.68462576007E-02  0.96608690596E-02  0.10182460939E+01  0.10179221211E+01 0.  0.
     999903    2    3    3    0    0 -0.28845512368E-01  0.79378212401E-01  0.96519055579E-01  0.12975543381E+00  0.19687059826E-01 0.  0.
         14    1    1    2    0    0  0.22791651981E-01  0.68462576007E-02 -0.96608690596E-02  0.25683906131E-01  0.00000000000E+00 0.  1.
     999901    1    3    3    0    0  0.60538603863E-02 -0.86224470002E-01 -0.86858186520E-01  0.88849066006E+00  0.88000000000E+00 0. -1.
        -11    1    4    4    0    0 -0.29690535404E-01  0.57105394367E-01  0.73793632375E-01  0.97919943110E-01  0.51100000000E-03 0.  1.
         11    1    4    4    0    0  0.84502303692E-03  0.22272818034E-01  0.22725423204E-01  0.31835490697E-01  0.51100000000E-03 0. -1.
</event>
<event>
 8    1  0.1135368E+005  0.1043930E+01  0.7957747E-01            NaN
         13   -1    0    0    0    0  0.00000000000E+00  0.00000000000E+00  0.74505805969E-08  0.10566000000E+00  0.10566000000E+00 0.  1.
     999900   -1    0    0    0    0 -0.00000000000E+00 -0.00000000000E+00 -0.74505805969E-08  0.93827000000E+00  0.93827000000E+00 0. -1.
     999902    2    1    2    0    0  0.10110376204E-01 -0.18818303351E-01  0.10671003629E-01  0.10200507503E+01  0.10197712070E+01 0.  0.
     999903    2    3    3    0    0 -0.33966271356E-01 -0.11395051442E+00 -0.53156588958E-01  0.13153127948E+00  0.18341952088E-01 0.  0.
         14    1    1    2    0    0 -0.10110376204E-01  0.18818303351E-01 -0.10671003629E-01  0.23879249705E-01  0.00000000000E+00 0.  1.
     999901    1    3    3    0    0  0.44076647560E-01  0.95132211065E-01  0.63827592588E-01  0.88851947082E+00  0.88000000000E+00 0.  1.
        -11    1    4    4    0    0 -0.11787690011E-01 -0.16086514987E-01 -0.95902789709E-02  0.22135043979E-01  0.51100000000E-03 0.  1.
         11    1    4    4    0    0 -0.22178581344E-01 -0.97863999429E-01 -0.43566309988E-01  0.10939623550E+00  0.51100000000E-03 0. -1.
</event>
<event>
 8    1  0.1135368E+005  0.1043930E+01  0.7957747E-01            NaN
         13   -1    0    0    0    0  0.00000000000E+00  0.00000000000E+00  0.74505805969E-08  0.10566000000E+00  0.10566000000E+00 0. -1.
     999900   -1    0    0    0    0 -0.00000000000E+00 -0.00000000000E+00 -0.74505805969E-08  0.93827000000E+00  0.93827000000E+00 0. -1.
     999902    2    1    2    0    0  0.18516118800E-01  0.10153564481E-01 -0.11505231051E-01  0.10198818843E+01  0.10195983258E+01 0.  0.
     999903    2    3    3    0    0  0.35589104447E-01 -0.12911548783E-01 -0.12522301635E+00  0.13210081839E+00  0.18344752628E-01 0.  0.
         14    1    1    2    0    0 -0.18516118800E-01 -0.10153564481E-01  0.11505231051E-01  0.24048115698E-01  0.00000000000E+00 0.  1.
     999901    1    3    3    0    0 -0.17072985647E-01  0.23065113264E-01  0.11371778530E+00  0.88778106591E+00  0.88000000000E+00 0.  1.
        -11    1    4    4    0    0  0.19032166273E-01 -0.83611737328E-02 -0.39143111464E-01  0.44323547639E-01  0.51100000000E-03 0.  1.
         11    1    4    4    0    0  0.16556938174E-01 -0.45503750500E-02 -0.86079904888E-01  0.87777270756E-01  0.51100000000E-03 0. -1.
</event>
<event>
 8    1  0.1135368E+005  0.1043930E+01  0.7957747E-01            NaN
         13   -1    0    0    0    0  0.00000000000E+00  0.00000000000E+00  0.74505805969E-08  0.10566000000E+00  0.10566000000E+00 0.  1.
     999900   -1    0    0    0    0 -0.00000000000E+00 -0.00000000000E+00 -0.74505805969E-08  0.93827000000E+00  0.93827000000E+00 0. -1.
     999902    2    1    2    0    0 -0.21103463591E-01 -0.76294980705E-02  0.75317869517E-02  0.10202594860E+01  0.10199848654E+01 0.  0.
     999903    2    3    3    0    0  0.97721819664E-01 -0.36488849400E-01  0.73578115885E-01  0.12935296588E+00  0.20915555840E-01 0.  0.
         14    1    1    2    0    0  0.21103463591E-01  0.76294980705E-02 -0.75317869517E-02  0.23670513958E-01  0.00000000000E+00 0. -1.
     999901    1    3    3    0    0 -0.11882528325E+00  0.28859351330E-01 -0.66046328933E-01  0.89090652016E+00  0.88000000000E+00 0. -1.
        -11    1    4    4    0    0  0.74020742122E-01 -0.20047595138E-01  0.60483814469E-01  0.97670513815E-01  0.51100000000E-03 0.  1.
         11    1    4    4    0    0  0.23701077542E-01 -0.16441254263E-01  0.13094301416E-01  0.31682452066E-01  0.51100000000E-03 0. -1.
</event>
<event>
 8    1  0.1135368E+005  0.1043930E+01  0.7957747E-01            NaN
         13   -1    0    0    0    0  0.00000000000E+00  0.00000000000E+00  0.74505805969E-08  0.10566000000E+00  0.10566000000E+00 0.  1.
     999900   -1    0    0    0    0 -0.00000000000E+00 -0.00000000000E+00 -0.74505805969E-08  0.93827000000E+00  0.93827000000E+00 0. -1.
     999902    2    1    2    0    0 -0.15802322875E-01 -0.96789962720E-02 -0.14649582167E-01  0.10203078359E+01  0.10200343492E+01 0.  0.
     999903    2    3    3    0    0 -0.32908076347E-01  0.80990080591E-01  0.92787066137E-01  0.12898515492E+00  0.19631502877E-01 0.  0.
         14    1    1    2    0    0  0.15802322875E-01  0.96789962720E-02  0.14649582167E-01  0.23622164057E-01  0.00000000000E+00 0. -1.
     999901    1    3    3    0    0  0.17105753472E-01 -0.90669076863E-01 -0.10743664830E+00  0.89132268102E+00  0.88000000000E+00 0. -1.
        -11    1    4    4    0    0 -0.54641224754E-02  0.26572727101E-01  0.18240954698E-01  0.32694953881E-01  0.51100000000E-03 0.  1.
         11    1    4    4    0    0 -0.27443953872E-01  0.54417353490E-01  0.74546111439E-01  0.96290201042E-01  0.51100000000E-03 0. -1.
</event>
<event>
 8    1  0.1135368E+005  0.1043930E+01  0.7957747E-01            NaN
         13   -1    0    0    0    0  0.00000000000E+00  0.00000000000E+00  0.74505805969E-08  0.10566000000E+00  0.10566000000E+00 0. -1.
     999900   -1    0    0    0    0 -0.00000000000E+00 -0.00000000000E+00 -0.74505805969E-08  0.93827000000E+00  0.93827000000E+00 0. -1.
     999902    2    1    2    0    0  0.93423823187E-02 -0.19108362359E-01  0.98219027479E-02  0.10205018248E+01  0.10202328631E+01 0.  0.
     999903    2    3    3    0    0  0.26870767187E-01  0.10696185971E+00  0.65190299802E-01  0.12962214462E+00  0.19729359480E-01 0.  0.
         14    1    1    2    0    0 -0.93423823187E-02  0.19108362359E-01 -0.98219027479E-02  0.23428175196E-01  0.00000000000E+00 0.  1.
     999901    1    3    3    0    0 -0.17528384868E-01 -0.12607022207E+00 -0.55368397054E-01  0.89087968018E+00  0.88000000000E+00 0. -1.
        -11    1    4    4    0    0  0.11902105766E-01  0.74633052198E-01  0.36780255939E-01  0.84052370281E-01  0.51100000000E-03 0. -1.
         11    1    4    4    0    0  0.14968661421E-01  0.32328807516E-01  0.28410043863E-01  0.45569774340E-01  0.51100000000E-03 0.  1.
</event>
<event>
 8    1  0.1135368E+005  0.1043930E+01  0.7957747E-01            NaN
         13   -1    0    0    0    0  0.00000000000E+00  0.00000000000E+00  0.74505805969E-08  0.10566000000E+00  0.10566000000E+00 0. -1.
     999900   -1    0    0    0    0 -0.00000000000E+00 -0.00000000000E+00 -0.74505805969E-08  0.93827000000E+00  0.93827000000E+00 0.  1.
     999902    2    1    2    0    0  0.13953713320E-01 -0.16597443054E-01  0.10623513181E-01  0.10197837733E+01  0.10194978686E+01 0.  0.
     999903    2    3    3    0    0  0.65522972028E-01 -0.50929911916E-01 -0.99092623599E-01  0.13080923062E+00  0.20114446890E-01 0.  0.
         14    1    1    2    0    0 -0.13953713320E-01  0.16597443054E-01 -0.10623513181E-01  0.24146226696E-01  0.00000000000E+00 0.  1.
     999901    1    3    3    0    0 -0.51569258707E-01  0.34332468862E-01  0.10971613678E+00  0.88897454268E+00  0.88000000000E+00 0. -1.
        -11    1    4    4    0    0  0.36905320769E-01 -0.28288265411E-01 -0.39917619200E-01  0.61285447740E-01  0.51100000000E-03 0. -1.
         11    1    4    4    0    0  0.28617651258E-01 -0.22641646506E-01 -0.59175004399E-01  0.69523782885E-01  0.51100000000E-03 0.  1.
</event>
<event>
 8    1  0.1135368E+005  0.1043930E+01  0.7957747E-01            NaN
         13   -1    0    0    0    0  0.00000000000E+00  0.00000000000E+00  0.74505805969E-08  0.10566000000E+00  0.10566000000E+00 0.  1.
     999900   -1    0    0    0    0 -0.00000000000E+00 -0.00000000000E+00 -0.74505805969E-08  0.93827000000E+00  0.93827000000E+00 0. -1.
     999902    2    1    2    0    0  0.25580716646E-01  0.24183979423E-02  0.83411433951E-02  0.10169152561E+01  0.10165563643E+01 0.  0.
     999903    2    3    3    0    0  0.82343585050E-01 -0.71320003249E-01  0.67949985876E-01  0.13000342899E+00  0.20412792692E-01 0.  0.
         14    1    1    2    0    0 -0.25580716646E-01 -0.24183979423E-02 -0.83411433951E-02  0.27014743861E-01  0.00000000000E+00 0. -1.
     999901    1    3    3    0    0 -0.56762868404E-01  0.73738401191E-01 -0.59608842481E-01  0.88691182715E+00  0.88000000000E+00 0. -1.
        -11    1    4    4    0    0  0.49049730644E-01 -0.33091183551E-01  0.28019532382E-01  0.65469518258E-01  0.51100000000E-03 0. -1.
         11    1    4    4    0    0  0.33293854406E-01 -0.38228819698E-01  0.39930453494E-01  0.64533910729E-01  0.51100000000E-03 0.  1.
</event>
<event>
 8    1  0.1135368E+005  0.1043930E+01  0.7957747E-01            NaN
         13   -1    0    0    0    0  0.00000000000E+00  0.00000000000E+00  0.74505805969E-08  0.10566000000E+00  0.10566000000E+00 0. -1.
     999900   -1    0    0    0    0 -0.00000000000E+00 -0.00000000000E+00 -0.74505805969E-08  0.93827000000E+00  0.93827000000E+00 0. -1.
     999902    2    1    2    0    0  0.16717904527E-01 -0.12681175154E-01 -0.57391324747E-02  0.10221759618E+01  0.10219444499E+01 0.  0.
     999903    2    3    3    0    0 -0.80321098940E-01  0.64663074998E-01  0.74600231799E-01  0.12984580170E+00  0.25728300215E-01 0.  0.
         14    1    1    2    0    0 -0.16717904527E-01  0.12681175154E-01  0.57391324747E-02  0.21754038168E-01  0.00000000000E+00 0. -1.
     999901    1    3    3    0    0  0.97039003467E-01 -0.77344250152E-01 -0.80339364274E-01  0.89233016013E+00  0.88000000000E+00 0.  1.
        -11    1    4    4    0    0 -0.19281566696E-01  0.29542834301E-01  0.18690432486E-01  0.39926823819E-01  0.51100000000E-03 0. -1.
         11    1    4    4    0    0 -0.61039532244E-01  0.35120240697E-01  0.55909799313E-01  0.89918977883E-01  0.51100000000E-03 0.  1.
</event>
<event>
 8    1  0.1135368E+005  0.1043930E+01  0.7957747E-01            NaN
         13   -1    0    0    0    0  0.00000000000E+00  0.00000000000E+00  0.74505805969E-08  0.10566000000E+00  0.10566000000E+00 0.  1.
     999900   -1    0    0    0    0 -0.00000000000E+00 -0.00000000000E+00 -0.74505805969E-08  0.93827000000E+00  0.93827000000E+00 0. -1.
     999902    2    1    2    0    0  0.10703324393E-01 -0.15485792946E-01 -0.13956808161E-01  0.10204957637E+01  0.10202266613E+01 0.  0.
     999903    2    3    3    0    0  0.33787258396E-01  0.11992319195E+00  0.26344615121E-01  0.12892823070E+00  0.20132042356E-01 0.  0.
         14    1    1    2    0    0 -0.10703324393E-01  0.15485792946E-01  0.13956808161E-01  0.23434236285E-01  0.00000000000E+00 0. -1.
     999901    1    3    3    0    0 -0.23083934003E-01 -0.13540898490E+00 -0.40301423282E-01  0.89156753301E+00  0.88000000000E+00 0.  1.
        -11    1    4    4    0    0  0.50054551441E-02  0.38101385324E-01  0.54995444337E-03  0.38436099121E-01  0.51100000000E-03 0. -1.
         11    1    4    4    0    0  0.28781803252E-01  0.81821806626E-01  0.25794660678E-01  0.90492131583E-01  0.51100000000E-03 0.  1.
</event>
<event>
 8    1  0.1135368E+005  0.1043930E+01  0.7957747E-01            NaN
         13   -1    0    0    0    0  0.00000000000E+00  0.00000000000E+00  0.74505805969E-08  0.10566000000E+00  0.10566000000E+00 0.  1.
     999900   -1    0    0    0    0 -0.00000000000E+00 -0.00000000000E+00 -0.74505805969E-08  0.93827000000E+00  0.93827000000E+00 0.  1.
     999902    2    1    2    0    0  0.20328990211E-01  0.57370637810E-02 -0.99235949812E-02  0.10205920592E+01  0.10203251892E+01 0.  0.
     999903    2    3    3    0    0  0.89870204768E-01  0.96119010951E-01 -0.74728014032E-02  0.13323030473E+00  0.19466724581E-01 0.  0.
         14    1    1    2    0    0 -0.20328990211E-01 -0.57370637810E-02  0.99235949812E-02  0.23337940808E-01  0.00000000000E+00 0.  1.
     999901    1    3    3    0    0 -0.69541214557E-01 -0.90381947170E-01 -0.24507935780E-02  0.88736175446E+00  0.88000000000E+00 0. -1.
        -11    1    4    4    0    0  0.46149263465E-01  0.57759277485E-01 -0.11948258160E-01  0.74892660842E-01  0.51100000000E-03 0.  1.
         11    1    4    4    0    0  0.43720941302E-01  0.38359733467E-01  0.44754567572E-02  0.58337643886E-01  0.51100000000E-03 0. -1.
</event>
<event>
 8    1  0.1135368E+005  0.1043930E+01  0.7957747E-01            NaN
         13   -1    0    0    0    0  0.00000000000E+00  0.00000000000E+00  0.74505805969E-08  0.10566000000E+00  0.10566000000E+00 0.  1.
     999900   -1    0    0    0    0 -0.00000000000E+00 -0.00000000000E+00 -0.74505805969E-08  0.93827000000E+00  0.93827000000E+00 0. -1.
     999902    2    1    2    0    0 -0.17828440551E-01  0.64871626832E-02 -0.13887158352E-01  0.10204185190E+01  0.10201476188E+01 0.  0.
     999903    2    3    3    0    0 -0.30147842822E-01  0.64205108044E-01  0.10729004234E+00  0.13015617403E+00  0.19957157252E-01 0.  0.
         14    1    1    2    0    0  0.17828440551E-01 -0.64871626832E-02  0.13887158352E-01  0.23511481009E-01  0.00000000000E+00 0.  1.
     999901    1    3    3    0    0  0.12319402271E-01 -0.57717945361E-01 -0.12117720070E+00  0.89026234496E+00  0.88000000000E+00 0.  1.
        -11    1    4    4    0    0 -0.16198197168E-01  0.45450175568E-01  0.56892098154E-01  0.74599410212E-01  0.51100000000E-03 0. -1.
         11    1    4    4    0    0 -0.13949645654E-01  0.18754932476E-01  0.50397944191E-01  0.55556763816E-01  0.51100000000E-03 0.  1.
</event>
<event>
 8    1  0.1135368E+005  0.1043930E+01  0.7957747E-01            NaN
         13   -1    0    0    0    0  0.00000000000E+00  0.00000000000E+00  0.74505805969E-08  0.10566000000E+00  0.10566000000E+00 0. -1.
     999900   -1    0    0    0    0 -0.00000000000E+00 -0.00000000000E+00 -0.74505805969E-08  0.93827000000E+00  0.93827000000E+00 0.  1.
     999902    2    1    2    0    0 -0.28552754354E-01  0.44694210941E-03  0.21205784192E-01  0.10083611257E+01  0.10077336032E+01 0.  0.
     999903    2    3    3    0    0 -0.10327270837E+00  0.37335221095E-01  0.51825715288E-01  0.12389439546E+00  0.24591572407E-01 0.  0.
         14    1    1    2    0    0  0.28552754354E-01 -0.44694210941E-03 -0.21205784192E-01  0.35568874337E-01  0.00000000000E+00 0.  1.
     999901    1    3    3    0    0  0.74719954015E-01 -0.36888278985E-01 -0.30619931096E-01  0.88446673020E+00  0.88000000000E+00 0.  1.
        -11    1    4    4    0    0 -0.69558537062E-01  0.24631532110E-01  0.21670130589E-01  0.76908764994E-01  0.51100000000E-03 0.  1.
         11    1    4    4    0    0 -0.33714171307E-01  0.12703688985E-01  0.30155584699E-01  0.46985630466E-01  0.51100000000E-03 0. -1.
</event>
<event>
 8    1  0.1135368E+005  0.1043930E+01  0.7957747E-01            NaN
         13   -1    0    0    0    0  0.00000000000E+00  0.00000000000E+00  0.74505805969E-08  0.10566000000E+00  0.10566000000E+00 0.  1.
     999900   -1    0    0    0    0 -0.00000000000E+00 -0.00000000000E+00 -0.74505805969E-08  0.93827000000E+00  0.93827000000E+00 0. -1.
     999902    2    1    2    0    0  0.12430306652E-01  0.21455676767E-02  0.20870692879E-01  0.10195434913E+01  0.10192517986E+01 0.  0.
     999903    2    3    3    0    0 -0.75167302533E-01  0.84953718531E-01  0.61176246568E-01  0.13041185392E+00  0.19936419825E-01 0.  0.
         14    1    1    2    0    0 -0.12430306652E-01 -0.21455676767E-02 -0.20870692879E-01  0.24386508675E-01  0.00000000000E+00 0. -1.
     999901    1    3    3    0    0  0.87597609185E-01 -0.82808150855E-01 -0.40305553689E-01  0.88913163741E+00  0.88000000000E+00 0.  1.
        -11    1    4    4    0    0 -0.33879166331E-01  0.24937671643E-01  0.26597631919E-01  0.49773291261E-01  0.51100000000E-03 0.  1.
         11    1    4    4    0    0 -0.41288136202E-01  0.60016046888E-01  0.34578614649E-01  0.80638562655E-01  0.51100000000E-03 0. -1.
</event>
<event>
 8    1  0.1135368E+005  0.1043930E+01  0.7957747E-01            NaN
         13   -1    0    0    0    0  0.00000000000E+00  0.00000000000E+00  0.74505805969E-08  0.10566000000E+00  0.10566000000E+00 0.  1.
     999900   -1    0    0    0    0 -0.00000000000E+00 -0.00000000000E+00 -0.74505805969E-08  0.93827000000E+00  0.93827000000E+00 0. -1.
     999902    2    1    2    0    0 -0.16359109198E-01  0.16414944176E-01  0.41757910462E-02  0.10203820048E+01  0.10201102527E+01 0.  0.
     999903    2    3    3    0    0 -0.12756186718E+00 -0.14590754656E-01 -0.26478400503E-01  0.13231270223E+00  0.17906015706E-01 0.  0.
         14    1    1    2    0    0  0.16359109198E-01 -0.16414944176E-01 -0.41757910462E-02  0.23547995178E-01  0.00000000000E+00 0. -1.
     999901    1    3    3    0    0  0.11120275798E+00  0.31005698831E-01  0.30654191549E-01  0.88806930259E+00  0.88000000000E+00 0. -1.
        -11    1    4    4    0    0 -0.82105311391E-01 -0.12447345193E-01 -0.88791923694E-02  0.83518379648E-01  0.51100000000E-03 0. -1.
         11    1    4    4    0    0 -0.45456555791E-01 -0.21434094625E-02 -0.17599208133E-01  0.48794322584E-01  0.51100000000E-03 0.  1.
</event>
<event>
 8    1  0.1135368E+005  0.1043930E+01  0.7957747E-01            NaN
         13   -1    0    0    0    0  0.00000000000E+00  0.00000000000E+00  0.74505805969E-08  0.10566000000E+00  0.10566000000E+00 0.  1.
     999900   -1    0    0    0    0 -0.00000000000E+00 -0.00000000000E+00 -0.74505805969E-08  0.93827000000E+00  0.93827000000E+00 0. -1.
     999902    2    1    2    0    0 -0.53800109371E-02 -0.17524915922E-01 -0.15972671023E-01  0.10196155307E+01  0.10193255795E+01 0.  0.
     999903    2    3    3    0    0  0.29105320123E-01 -0.12708034879E+00 -0.63461668981E-03  0.13201940252E+00  0.20789064310E-01 0.  0.
         14    1    1    2    0    0  0.53800109371E-02  0.17524915922E-01  0.15972671023E-01  0.24314469259E-01  0.00000000000E+00 0.  1.
     999901    1    3    3    0    0 -0.34485331060E-01  0.10955543287E+00 -0.15338054333E-01  0.88759612822E+00  0.88000000000E+00 0.  1.
        -11    1    4    4    0    0  0.13875200334E-01 -0.61172808897E-01 -0.10679659134E-01  0.63631359979E-01  0.51100000000E-03 0.  1.
         11    1    4    4    0    0  0.15230119788E-01 -0.65907539891E-01  0.10045042444E-01  0.68388042537E-01  0.51100000000E-03 0. -1.
</event>
<event>
 8    1  0.1135368E+005  0.1043930E+01  0.7957747E-01            NaN
         13   -1    0    0    0    0  0.00000000000E+00  0.00000000000E+00  0.74505805969E-08  0.10566000000E+00  0.10566000000E+00 0. -1.
     999900   -1    0    0    0    0 -0.00000000000E+00 -0.00000000000E+00 -0.74505805969E-08  0.93827000000E+00  0.93827000000E+00 0. -1.
     999902    2    1    2    0    0  0.17619712518E-01  0.14778230904E-01 -0.51798013746E-02  0.10203571190E+01  0.10200847855E+01 0.  0.
     999903    2    3    3    0    0 -0.64980244015E-01  0.10393846337E+00  0.41015917909E-01  0.13080310467E+00  0.20037724146E-01 0.  0.
         14    1    1    2    0    0 -0.17619712518E-01 -0.14778230904E-01  0.51798013746E-02  0.23572881032E-01  0.00000000000E+00 0.  1.
     999901    1    3    3    0    0  0.82599956534E-01 -0.89160232467E-01 -0.46195719284E-01  0.88955401430E+00  0.88000000000E+00 0. -1.
        -11    1    4    4    0    0 -0.43406964361E-01  0.82253903853E-01  0.25176193231E-01  0.96353365695E-01  0.51100000000E-03 0. -1.
         11    1    4    4    0    0 -0.21573279654E-01  0.21684559518E-01  0.15839724678E-01  0.34449738975E-01  0.51100000000E-03 0.  1.
</event>
<event>
 8    1  0.1135368E+005  0.1043930E+01  0.7957747E-01            NaN
         13   -1    0    0    0    0  0.00000000000E+00  0.00000000000E+00  0.74505805969E-08  0.10566000000E+00  0.10566000000E+00 0. -1.
     999900   -1    0    0    0    0 -0.00000000000E+00 -0.00000000000E+00 -0.74505805969E-08  0.93827000000E+00  0.93827000000E+00 0.  1.
     999902    2    1    2    0    0 -0.48420478926E-03  0.14808946793E-01  0.19002083155E-01  0.10198339729E+01  0.10195492699E+01 0.  0.
     999903    2    3    3    0    0  0.47435772291E-01  0.23660835542E-01 -0.11500682384E+00  0.12835594886E+00  0.20944986187E-01 0.  0.
         14    1    1    2    0    0  0.48420478926E-03 -0.14808946793E-01 -0.19002083155E-01  0.24096027134E-01  0.00000000000E+00 0.  1.
     999901    1    3    3    0    0 -0.47919977080E-01 -0.88518887486E-02  0.13400890699E+00  0.89147802401E+00  0.88000000000E+00 0. -1.
        -11    1    4    4    0    0  0.33987837597E-01  0.21682522109E-01 -0.64628013814E-01  0.76173132797E-01  0.51100000000E-03 0.  1.
         11    1    4    4    0    0  0.13447934694E-01  0.19783134327E-02 -0.50378810024E-01  0.52182816060E-01  0.51100000000E-03 0. -1.
</event>
<event>
 8    1  0.1135368E+005  0.1043930E+01  0.7957747E-01            NaN
         13   -1    0    0    0    0  0.00000000000E+00  0.00000000000E+00  0.74505805969E-08  0.10566000000E+00  0.10566000000E+00 0. -1.
     999900   -1    0    0    0    0 -0.00000000000E+00 -0.00000000000E+00 -0.74505805969E-08  0.93827000000E+00  0.93827000000E+00 0.  1.
     999902    2    1    2    0    0 -0.12886712308E-01 -0.21484178376E-02  0.20209701807E-01  0.10198651896E+01  0.10195812326E+01 0.  0.
     999903    2    3    3    0    0  0.30454198213E-01  0.94704302907E-01  0.83319579769E-01  0.13124730729E+00  0.19680958285E-01 0.  0.
         14    1    1    2    0    0  0.12886712308E-01  0.21484178376E-02 -0.20209701807E-01  0.24064810418E-01  0.00000000000E+00 0.  1.
     999901    1    3    3    0    0 -0.43340910521E-01 -0.96852720744E-01 -0.63109877961E-01  0.88861788230E+00  0.88000000000E+00 0.  1.
        -11    1    4    4    0    0  0.14025991865E-02  0.12318255400E-01  0.19285916510E-01  0.22932823577E-01  0.51100000000E-03 0. -1.
         11    1    4    4    0    0  0.29051599026E-01  0.82386047506E-01  0.64033663259E-01  0.10831448371E+00  0.51100000000E-03 0.  1.
</event>
<event>
 8    1  0.1135368E+005  0.1043930E+01  0.7957747E-01            NaN
         13   -1    0    0    0    0  0.00000000000E+00  0.00000000000E+00  0.74505805969E-08  0.10566000000E+00  0.10566000000E+00 0.  1.
     999900   -1    0    0    0    0 -0.00000000000E+00 -0.00000000000E+00 -0.74505805969E-08  0.93827000000E+00  0.93827000000E+00 0.  1.
     999902    2    1    2    0    0  0.36912491179E-02 -0.22021032151E-01 -0.68023824582E-02  0.10205885437E+01  0.10203215924E+01 0.  0.
     999903    2    3    3    0    0 -0.22147292307E-01 -0.11446011429E+00 -0.62330934375E-01  0.13362967527E+00  0.19496779580E-01 0.  0.
         14    1    1    2    0    0 -0.36912491179E-02  0.22021032151E-01  0.68023824582E-02  0.23341456342E-01  0.00000000000E+00 0.  1.
     999901    1    3    3    0    0  0.25838541425E-01  0.92439082137E-01  0.55528551916E-01  0.88695886839E+00  0.88000000000E+00 0. -1.
        -11    1    4    4    0    0 -0.20015811169E-01 -0.10735869221E+00 -0.63148665478E-01  0.12615283018E+00  0.51100000000E-03 0.  1.
         11    1    4    4    0    0 -0.21314811380E-02 -0.71014220770E-02  0.81773110375E-03  0.74768450911E-02  0.51100000000E-03 0. -1.
</event>
<event>
 8    1  0.1135368E+005  0.1043930E+01  0.7957747E-01            NaN
         13   -1    0    0    0    0  0.00000000000E+00  0.00000000000E+00  0.74505805969E-08  0.10566000000E+00  0.10566000000E+00 0.  1.
     999900   -1    0    0    0    0 -0.00000000000E+00 -0.00000000000E+00 -0.74505805969E-08  0.93827000000E+00  0.93827000000E+00 0.  1.
     999902    2    1    2    0    0  0.23270646234E-01 -0.97402963491E-02  0.22258054485E-02  0.10186051000E+01  0.10182902333E+01 0.  0.
     999903    2    3    3    0    0 -0.74076940906E-01 -0.68912443240E-01  0.75688108753E-01  0.12822618871E+00  0.21839131353E-01 0.  0.
         14    1    1    2    0    0 -0.23270646234E-01  0.97402963491E-02 -0.22258054485E-02  0.25324899981E-01  0.00000000000E+00 0.  1.
     999901    1    3    3    0    0  0.97347587141E-01  0.59172146891E-01 -0.73462303305E-01  0.89037891130E+00  0.88000000000E+00 0.  1.
        -11    1    4    4    0    0 -0.21728449288E-01 -0.86004519958E-02  0.13385152143E-01  0.26935417240E-01  0.51100000000E-03 0.  1.
         11    1    4    4    0    0 -0.52348491619E-01 -0.60311991244E-01  0.62302956610E-01  0.10129077147E+00  0.51100000000E-03 0. -1.
</event>
<event>
 8    1  0.1135368E+005  0.1043930E+01  0.7957747E-01            NaN
         13   -1    0    0    0    0  0.00000000000E+00  0.00000000000E+00  0.74505805969E-08  0.10566000000E+00  0.10566000000E+00 0. -1.
     999900   -1    0    0    0    0 -0.00000000000E+00 -0.00000000000E+00 -0.74505805969E-08  0.93827000000E+00  0.93827000000E+00 0. -1.
     999902    2    1    2    0    0 -0.16663758117E-01  0.49375369885E-02 -0.15873795728E-01  0.10203919989E+01  0.10201204801E+01 0.  0.
     999903    2    3    3    0    0 -0.12933524297E+00 -0.22435014648E-01 -0.66461125158E-02  0.13273819800E+00  0.18555954288E-01 0.  0.
         14    1    1    2    0    0  0.16663758117E-01 -0.49375369885E-02  0.15873795728E-01  0.23538001124E-01  0.00000000000E+00 0.  1.
     999901    1    3    3    0    0  0.11267148485E+00  0.27372551636E-01 -0.92276832122E-02  0.88765380088E+00  0.88000000000E+00 0. -1.
        -11    1    4    4    0    0 -0.15425693671E-01 -0.68622257628E-02  0.37391793459E-02  0.17299848289E-01  0.51100000000E-03 0.  1.
         11    1    4    4    0    0 -0.11390954930E+00 -0.15572788885E-01 -0.10385291862E-01  0.11543834971E+00  0.51100000000E-03 0. -1.
</event>
<event>
 8    1  0.1135368E+005  0.1043930E+01  0.7957747E-01            NaN
         13   -1    0    0    0    0  0.00000000000E+00  0.00000000000E+00  0.74505805969E-08  0.10566000000E+00  0.10566000000E+00 0.  1.
     999900   -1    0    0    0    0 -0.00000000000E+00 -0.00000000000E+00 -0.74505805969E-08  0.93827000000E+00  0.93827000000E+00 0. -1.
     999902    2    1    2    0    0  0.23045536468E-02  0.18127304231E-01  0.31941848632E-02  0.10253797185E+01  0.10252119070E+01 0.  0.
     999903    2    3    3    0    0  0.12064820535E+00  0.47041181385E-01  0.37533375406E-01  0.13632380790E+00  0.20163435471E-01 0.  0.
         14    1    1    2    0    0 -0.23045536468E-02 -0.18127304231E-01 -0.31941848632E-02  0.18550281484E-01  0.00000000000E+00 0.  1.
     999901    1    3    3    0    0 -0.11834365171E+00 -0.28913877154E-01 -0.34339190542E-01  0.88905591061E+00  0.88000000000E+00 0.  1.
        -11    1    4    4    0    0  0.36172080605E-01  0.16883861031E-01  0.21019318072E-01  0.45117147869E-01  0.51100000000E-03 0.  1.
         11    1    4    4    0    0  0.84476124750E-01  0.30157320354E-01  0.16514057333E-01  0.91206660032E-01  0.51100000000E-03 0. -1.
</event>
<event>
 8    1  0.1135368E+005  0.1043930E+01  0.7957747E-01            NaN
         13   -1    0    0    0    0  0.00000000000E+00  0.00000000000E+00  0.74505805969E-08  0.10566000000E+00  0.10566000000E+00 0.  1.
     999900   -1    0    0    0    0 -0.00000000000E+00 -0.00000000000E+00 -0.74505805969E-08  0.93827000000E+00  0.93827000000E+00 0.  1.
     999902    2    1    2    0    0  0.22534679198E-01 -0.55099426033E-02 -0.44471418657E-03  0.10207272199E+01  0.10204634675E+01 0.  0.
     999903    2    3    3    0    0  0.77143332769E-01 -0.78255936391E-01  0.72471334209E-01  0.13303874144E+00  0.19290595418E-01 0.  0.
         14    1    1    2    0    0 -0.22534679198E-01  0.55099426033E-02  0.44471418657E-03  0.23202780109E-01  0.00000000000E+00 0. -1.
     999901    1    3    3    0    0 -0.54608653571E-01  0.72745993787E-01 -0.72916048395E-01  0.88768847845E+00  0.88000000000E+00 0.  1.
        -11    1    4    4    0    0  0.28033226969E-01 -0.28419972214E-01  0.37683247315E-01  0.54898496192E-01  0.51100000000E-03 0. -1.
         11    1    4    4    0    0  0.49110105800E-01 -0.49835964177E-01  0.34788086894E-01  0.78140245251E-01  0.51100000000E-03 0.  1.
</event>
<event>
 8    1  0.1135368E+005  0.1043930E+01  0.7957747E-01            NaN
         13   -1    0    0    0    0  0.00000000000E+00  0.00000000000E+00  0.74505805969E-08  0.10566000000E+00  0.10566000000E+00 0. -1.
     999900   -1    0    0    0    0 -0.00000000000E+00 -0.00000000000E+00 -0.74505805969E-08  0.93827000000E+00  0.93827000000E+00 0.  1.
     999902    2    1    2    0    0  0.13728565946E-01 -0.17558471093E-01  0.10587133735E-01  0.10192548945E+01  0.10189561714E+01 0.  0.
     999903    2    3    3    0    0 -0.97462927752E-01 -0.83045536188E-01  0.79012659523E-02  0.12983973957E+00  0.20008613143E-01 0.  0.
         14    1    1    2    0    0 -0.13728565946E-01  0.17558471093E-01 -0.10587133735E-01  0.24675105487E-01  0.00000000000E+00 0. -1.
     999901    1    3    3    0    0  0.11119149370E+00  0.65487065095E-01  0.26858677823E-02  0.88941515495E+00  0.88000000000E+00 0. -1.
        -11    1    4    4    0    0 -0.27679245783E-01 -0.25207408165E-01  0.11388464598E-01  0.39134541270E-01  0.51100000000E-03 0. -1.
         11    1    4    4    0    0 -0.69783681969E-01 -0.57838128023E-01 -0.34871986452E-02  0.90705198295E-01  0.51100000000E-03 0.  1.
</event>
<event>
 7    1  0.1135368E+005  0.1043930E+01  0.7957747E-01            NaN
         13   -1    0    0    0    0  0.00000000000E+00  0.00000000000E+00  0.74505805969E-08  0.10566000000E+00  0.10566000000E+00 0. -1.
     999900   -1    0    0    0    0 -0.00000000000E+00 -0.00000000000E+00 -0.74505805969E-08  0.93827000000E+00  0.93827000000E+00 0. -1.
     999903    2    1    2    0    0 -0.45682566791E-01 -0.30980345944E-01 -0.92844720915E-01  0.10937356704E+00  0.17197564433E-01 0.  0.
         14    1    1    2    0    0 -0.15381820879E-01 -0.33444272747E-01  0.30659508344E-01  0.47907465441E-01  0.00000000000E+00 0. -1.
     999901    1    1    2    0    0  0.61064387670E-01  0.64424618691E-01  0.62185212572E-01  0.88664896752E+00  0.88000000000E+00 0.  1.
        -11    1    3    3    0    0 -0.84569503708E-02 -0.92207333769E-02 -0.10181590768E-01  0.16139016238E-01  0.51100000000E-03 0. -1.
         11    1    3    3    0    0 -0.37225616420E-01 -0.21759612567E-01 -0.82663130147E-01  0.93234550804E-01  0.51100000000E-03 0.  1.
</event>
<event>
 8    1  0.1135368E+005  0.1043930E+01  0.7957747E-01            NaN
         13   -1    0    0    0    0  0.00000000000E+00  0.00000000000E+00  0.74505805969E-08  0.10566000000E+00  0.10566000000E+00 0.  1.
     999900   -1    0    0    0    0 -0.00000000000E+00 -0.00000000000E+00 -0.74505805969E-08  0.93827000000E+00  0.93827000000E+00 0. -1.
     999902    2    1    2    0    0 -0.17745014871E-01  0.59433161898E-02  0.15868749822E-01  0.10193937863E+01  0.10190984574E+01 0.  0.
     999903    2    3    3    0    0  0.60012891063E-01  0.67408278774E-01 -0.88043018947E-01  0.12775378653E+00  0.20592077286E-01 0.  0.
         14    1    1    2    0    0  0.17745014871E-01 -0.59433161898E-02 -0.15868749822E-01  0.24536213665E-01  0.00000000000E+00 0.  1.
     999901    1    3    3    0    0 -0.77757905934E-01 -0.61464962584E-01  0.10391176877E+00  0.89163999980E+00  0.88000000000E+00 0.  1.
        -11    1    4    4    0    0  0.21507897282E-01  0.11031404835E-01 -0.20212076929E-01  0.31513024496E-01  0.51100000000E-03 0. -1.
         11    1    4    4    0    0  0.38504993782E-01  0.56376873938E-01 -0.67830942018E-01  0.96240762036E-01  0.51100000000E-03 0.  1.
</event>
<event>
 8    1  0.1135368E+005  0.1043930E+01  0.7957747E-01            NaN
         13   -1    0    0    0    0  0.00000000000E+00  0.00000000000E+00  0.74505805969E-08  0.10566000000E+00  0.10566000000E+00 0. -1.
     999900   -1    0    0    0    0 -0.00000000000E+00 -0.00000000000E+00 -0.74505805969E-08  0.93827000000E+00  0.93827000000E+00 0.  1.
     999902    2    1    2    0    0  0.30840112867E-02  0.42506825373E-03 -0.25165925841E-01  0.10185722471E+01  0.10182565526E+01 0.  0.
     999903    2    3    3    0    0 -0.29427474105E-01 -0.29321630091E-01  0.11656925724E+00  0.12614257207E+00  0.24450409662E-01 0.  0.
         14    1    1    2    0    0 -0.30840112867E-02 -0.42506825373E-03  0.25165925841E-01  0.25357752899E-01  0.00000000000E+00 0. -1.
     999901    1    3    3    0    0  0.32511485392E-01  0.29746698345E-01 -0.14173518308E+00  0.89242967503E+00  0.88000000000E+00 0.  1.
        -11    1    4    4    0    0 -0.12023910319E-01 -0.20125964935E-01  0.90406328727E-01  0.93398042157E-01  0.51100000000E-03 0.  1.
         11    1    4    4    0    0 -0.17403563786E-01 -0.91956651566E-02  0.26162928514E-01  0.32744529918E-01  0.51100000000E-03 0. -1.
</event>
<event>
 8    1  0.1135368E+005  0.1043930E+01  0.7957747E-01            NaN
         13   -1    0    0    0    0  0.00000000000E+00  0.00000000000E+00  0.74505805969E-08  0.10566000000E+00  0.10566000000E+00 0. -1.
     999900   -1    0    0    0    0 -0.00000000000E+00 -0.00000000000E+00 -0.74505805969E-08  0.93827000000E+00  0.93827000000E+00 0.  1.
     999902    2    1    2    0    0 -0.69219765444E-02 -0.18215181531E-01  0.14331817304E-01  0.10197410028E+01  0.10194540722E+01 0.  0.
     999903    2    3    3    0    0  0.51061855657E-01 -0.11260197013E+00  0.44262066822E-01  0.13229139270E+00  0.15980151504E-01 0.  0.
         14    1    1    2    0    0  0.69219765444E-02  0.18215181531E-01 -0.14331817304E-01  0.24188997183E-01  0.00000000000E+00 0.  1.
     999901    1    3    3    0    0 -0.57983832201E-01  0.94386788603E-01 -0.29930249518E-01  0.88744961012E+00  0.88000000000E+00 0.  1.
        -11    1    4    4    0    0  0.25948527380E-01 -0.48982662996E-01  0.12243810117E-01  0.56769704549E-01  0.51100000000E-03 0.  1.
         11    1    4    4    0    0  0.25113328277E-01 -0.63619307138E-01  0.32018256705E-01  0.75521688152E-01  0.51100000000E-03 0. -1.
</event>
<event>
 8    1  0.1135368E+005  0.1043930E+01  0.7957747E-01            NaN
         13   -1    0    0    0    0  0.00000000000E+00  0.00000000000E+00  0.74505805969E-08  0.10566000000E+00  0.10566000000E+00 0. -1.
     999900   -1    0    0    0    0 -0.00000000000E+00 -0.00000000000E+00 -0.74505805969E-08  0.93827000000E+00  0.93827000000E+00 0. -1.
     999902    2    1    2    0    0  0.16318911457E-01 -0.14877510490E-01  0.30975555870E-02  0.10216310754E+01  0.10213876894E+01 0.  0.
     999903    2    3    3    0    0  0.13289755087E-01  0.12255735753E+00  0.37038456619E-01  0.13031210692E+00  0.20309467410E-01 0.  0.
         14    1    1    2    0    0 -0.16318911457E-01  0.14877510490E-01 -0.30975555870E-02  0.22298924641E-01  0.00000000000E+00 0.  1.
     999901    1    3    3    0    0  0.30291563701E-02 -0.13743486802E+00 -0.33940901032E-01  0.89131896844E+00  0.88000000000E+00 0. -1.
        -11    1    4    4    0    0  0.99412372234E-02  0.57944747072E-01  0.77916631017E-02  0.59307613724E-01  0.51100000000E-03 0.  1.
         11    1    4    4    0    0  0.33485178638E-02  0.64612610457E-01  0.29246793518E-01  0.71004493196E-01  0.51100000000E-03 0. -1.
</event>
<event>
 8    1  0.1135368E+005  0.1043930E+01  0.7957747E-01            NaN
         13   -1    0    0    0    0  0.00000000000E+00  0.00000000000E+00  0.74505805969E-08  0.10566000000E+00  0.10566000000E+00 0. -1.
     999900   -1    0    0    0    0 -0.00000000000E+00 -0.00000000000E+00 -0.74505805969E-08  0.93827000000E+00  0.93827000000E+00 0. -1.
     999902    2    1    2    0    0 -0.15407294769E-02  0.23229187992E-01 -0.53391084285E-02  0.10200453794E+01  0.10197657089E+01 0.  0.
     999903    2    3    3    0    0  0.51575731434E-01  0.10577213878E+00 -0.60131590545E-01  0.13289437014E+00  0.14046494897E-01 0.  0.
         14    1    1    2    0    0  0.15407294769E-02 -0.23229187992E-01  0.53391084285E-02  0.23884620593E-01  0.00000000000E+00 0. -1.
     999901    1    3    3    0    0 -0.53116460911E-01 -0.82542950788E-01  0.54792482116E-01  0.88715100927E+00  0.88000000000E+00 0.  1.
        -11    1    4    4    0    0  0.23252546486E-01  0.61398801928E-01 -0.29420818650E-01  0.71946782327E-01  0.51100000000E-03 0.  1.
         11    1    4    4    0    0  0.28323184948E-01  0.44373336852E-01 -0.30710771895E-01  0.60947587814E-01  0.51100000000E-03 0. -1.
</event>
<event>
 8    1  0.1135368E+005  0.1043930E+01  0.7957747E-01            NaN
         13   -1    0    0    0    0  0.00000000000E+00  0.00000000000E+00  0.74505805969E-08  0.10566000000E+00  0.10566000000E+00 0.  1.
     999900   -1    0    0    0    0 -0.00000000000E+00 -0.00000000000E+00 -0.74505805969E-08  0.93827000000E+00  0.93827000000E+00 0.  1.
     999902    2    1    2    0    0 -0.11187630081E-02  0.30426894127E-01 -0.12039639147E-01  0.10111885824E+01  0.10106583739E+01 0.  0.
     999903    2    3    3    0    0  0.22030986470E-01 -0.10786524788E+00 -0.41888970280E-01  0.11958799355E+00  0.20647670666E-01 0.  0.
         14    1    1    2    0    0  0.11187630081E-02 -0.30426894127E-01  0.12039639147E-01  0.32741417619E-01  0.00000000000E+00 0. -1.
     999901    1    3    3    0    0 -0.23149749478E-01  0.13829214201E+00  0.29849331132E-01  0.89160058884E+00  0.88000000000E+00 0.  1.
        -11    1    4    4    0    0  0.76952565753E-02 -0.31340708566E-01 -0.26031808009E-02  0.32380467237E-01  0.51100000000E-03 0. -1.
         11    1    4    4    0    0  0.14335729894E-01 -0.76524539315E-01 -0.39285789479E-01  0.87207526309E-01  0.51100000000E-03 0.  1.
</event>
<event>
 8    1  0.1135368E+005  0.1043930E+01  0.7957747E-01            NaN
         13   -1    0    0    0    0  0.00000000000E+00  0.00000000000E+00  0.74505805969E-08  0.10566000000E+00  0.10566000000E+00 0.  1.
     999900   -1    0    0    0    0 -0.00000000000E+00 -0.00000000000E+00 -0.74505805969E-08  0.93827000000E+00  0.93827000000E+00 0. -1.
     999902    2    1    2    0    0 -0.92366657933E-02 -0.21888908620E-01  0.36332425163E-02  0.10198958417E+01  0.10196126162E+01 0.  0.
     999903    2    3    3    0    0 -0.91422877980E-02  0.12416551425E+00  0.20037189846E-01  0.12770696434E+00  0.20172342655E-01 0.  0.
         14    1    1    2    0    0  0.92366657933E-02  0.21888908620E-01 -0.36332425163E-02  0.24034158332E-01  0.00000000000E+00 0. -1.
     999901    1    3    3    0    0 -0.94377995342E-04 -0.14605442287E+00 -0.16403947330E-01  0.89218887733E+00  0.88000000000E+00 0.  1.
        -11    1    4    4    0    0  0.60513101609E-02  0.39994371634E-01  0.36377380980E-02  0.40616035953E-01  0.51100000000E-03 0. -1.
         11    1    4    4    0    0 -0.15193597959E-01  0.84171142615E-01  0.16399451748E-01  0.87090928383E-01  0.51100000000E-03 0.  1.
</event>
<event>
 8    1  0.1135368E+005  0.1043930E+01  0.7957747E-01            NaN
         13   -1    0    0    0    0  0.00000000000E+00  0.00000000000E+00  0.74505805969E-08  0.10566000000E+00  0.10566000000E+00 0.  1.
     999900   -1    0    0    0    0 -0.00000000000E+00 -0.00000000000E+00 -0.74505805969E-08  0.93827000000E+00  0.93827000000E+00 0. -1.
     999902    2    1    2    0    0  0.12708579353E-01  0.84014918384E-02 -0.18385739290E-01  0.10200526370E+01  0.10197731384E+01 0.  0.
     999903    2    3    3    0    0  0.10477676291E+00 -0.41845743281E-01 -0.66565989922E-01  0.13251521717E+00  0.20000387230E-01 0.  0.
         14    1    1    2    0    0 -0.12708579353E-01 -0.84014918384E-02  0.18385739290E-01  0.23877362993E-01  0.00000000000E+00 0.  1.
     999901    1    3    3    0    0 -0.92068183562E-01  0.50247235119E-01  0.48180250632E-01  0.88753741984E+00  0.88000000000E+00 0. -1.
        -11    1    4    4    0    0  0.53745493018E-01 -0.19578285533E-01 -0.45088618653E-01  0.72836336654E-01  0.51100000000E-03 0. -1.
         11    1    4    4    0    0  0.51031269897E-01 -0.22267457748E-01 -0.21477371269E-01  0.59678880514E-01  0.51100000000E-03 0.  1.
</event>
<event>
 8    1  0.1135368E+005  0.1043930E+01  0.7957747E-01            NaN
         13   -1    0    0    0    0  0.00000000000E+00  0.00000000000E+00  0.74505805969E-08  0.10566000000E+00  0.10566000000E+00 0. -1.
     999900   -1    0    0    0    0 -0.00000000000E+00 -0.00000000000E+00 -0.74505805969E-08  0.93827000000E+00  0.93827000000E+00 0.  1.
     999902    2    1    2    0    0  0.98039253154E-02 -0.88306436845E-02 -0.19741718242E-01  0.10201848393E+01  0.10199084633E+01 0.  0.
     999903    2    3    3    0    0  0.89727055725E-01  0.59876637030E-01 -0.73850383163E-01  0.13224557061E+00  0.19971371020E-01 0.  0.
         14    1    1    2    0    0 -0.98039253154E-02  0.88306436845E-02  0.19741718242E-01  0.23745160741E-01  0.00000000000E+00 0. -1.
     999901    1    3    3    0    0 -0.79923130409E-01 -0.68707280714E-01  0.54108664921E-01  0.88793926865E+00  0.88000000000E+00 0.  1.
        -11    1    4    4    0    0  0.56630957551E-01  0.48400517534E-01 -0.46721541278E-01  0.87936562311E-01  0.51100000000E-03 0. -1.
         11    1    4    4    0    0  0.33096098174E-01  0.11476119496E-01 -0.27128841885E-01  0.44309008295E-01  0.51100000000E-03 0.  1.
</event>
<event>
 8    1  0.1135368E+005  0.1043930E+01  0.7957747E-01            NaN
         13   -1    0    0    0    0  0.00000000000E+00  0.00000000000E+00  0.74505805969E-08  0.10566000000E+00  0.10566000000E+00 0. -1.
     999900   -1    0    0    0    0 -0.00000000000E+00 -0.00000000000E+00 -0.74505805969E-08  0.93827000000E+00  0.93827000000E+00 0. -1.
     999902    2    1    2    0    0  0.20587679079E-02  0.58576876618E-03 -0.24190195636E-01  0.10196452884E+01  0.10193560551E+01 0.  0.
     999903    2    3    3    0    0  0.73264364158E-01  0.83863553034E-01 -0.67425471575E-01  0.13179692562E+00  0.20578454815E-01 0.  0.
         14    1    1    2    0    0 -0.20587679079E-02 -0.58576876618E-03  0.24190195636E-01  0.24284711554E-01  0.00000000000E+00 0. -1.
     999901    1    3    3    0    0 -0.71205596250E-01 -0.83277784268E-01  0.43235275939E-01  0.88784836283E+00  0.88000000000E+00 0.  1.
        -11    1    4    4    0    0  0.33742477667E-01  0.53528570400E-01 -0.34439729533E-01  0.72043172747E-01  0.51100000000E-03 0. -1.
         11    1    4    4    0    0  0.39521886491E-01  0.30334982634E-01 -0.32985742042E-01  0.59753752872E-01  0.51100000000E-03 0.  1.
</event>
<event>
 8    1  0.1135368E+005  0.1043930E+01  0.7957747E-01            NaN
         13   -1    0    0    0    0  0.00000000000E+00  0.00000000000E+00  0.74505805969E-08  0.10566000000E+00  0.10566000000E+00 0.  1.
     999900   -1    0    0    0    0 -0.00000000000E+00 -0.00000000000E+00 -0.74505805969E-08  0.93827000000E+00  0.93827000000E+00 0. -1.
     999902    2    1    2    0    0 -0.57009662068E-02  0.21497486316E-02  0.23664246951E-01  0.10194939811E+01  0.10192010884E+01 0.  0.
     999903    2    3    3    0    0  0.65178244065E-01  0.71761993241E-01  0.86734327045E-01  0.13166091007E+00  0.20341203979E-01 0.  0.
         14    1    1    2    0    0  0.57009662068E-02 -0.21497486316E-02 -0.23664246951E-01  0.24436018879E-01  0.00000000000E+00 0. -1.
     999901    1    3    3    0    0 -0.70879210272E-01 -0.69612244609E-01 -0.63070080094E-01  0.88783307105E+00  0.88000000000E+00 0. -1.
        -11    1    4    4    0    0  0.35465956954E-01  0.24339699798E-01  0.40204874646E-01  0.58880796150E-01  0.51100000000E-03 0. -1.
         11    1    4    4    0    0  0.29712287110E-01  0.47422293443E-01  0.46529452399E-01  0.72780113921E-01  0.51100000000E-03 0.  1.
</event>
<event>
 8    1  0.1135368E+005  0.1043930E+01  0.7957747E-01            NaN
         13   -1    0    0    0    0  0.00000000000E+00  0.00000000000E+00  0.74505805969E-08  0.10566000000E+00  0.10566000000E+00 0.  1.
     999900   -1    0    0    0    0 -0.00000000000E+00 -0.00000000000E+00 -0.74505805969E-08  0.93827000000E+00  0.93827000000E+00 0.  1.
     999902    2    1    2    0    0 -0.57269409251E-02 -0.20105114105E-01 -0.11171084666E-01  0.10202275403E+01  0.10199521691E+01 0.  0.
     999903    2    3    3    0    0  0.12218033649E+00  0.40052287943E-01  0.95154903722E-03  0.12886558073E+00  0.85564043743E-02 0.  0.
         14    1    1    2    0    0  0.57269409251E-02  0.20105114105E-01  0.11171084666E-01  0.23702459749E-01  0.00000000000E+00 0.  1.
     999901    1    3    3    0    0 -0.12790727742E+00 -0.60157402047E-01 -0.12122633703E-01  0.89136195952E+00  0.88000000000E+00 0. -1.
        -11    1    4    4    0    0  0.30432821603E-01  0.13865281072E-01 -0.11923122300E-03  0.33446643883E-01  0.51100000000E-03 0. -1.
         11    1    4    4    0    0  0.91747514890E-01  0.26187006870E-01  0.10707802602E-02  0.95418936845E-01  0.51100000000E-03 0.  1.
</event>
<event>
 8    1  0.1135368E+005  0.1043930E+01  0.7957747E-01            NaN
         13   -1    0    0    0    0  0.00000000000E+00  0.00000000000E+00  0.74505805969E-08  0.10566000000E+00  0.10566000000E+00 0.  1.
     999900   -1    0    0    0    0 -0.00000000000E+00 -0.00000000000E+00 -0.74505805969E-08  0.93827000000E+00  0.93827000000E+00 0.  1.
     999902    2    1    2    0    0  0.41318953070E-02 -0.16315288358E-01  0.17812409610E-01  0.10194240185E+01  0.10191294257E+01 0.  0.
     999903    2    3    3    0    0 -0.11710164852E+00  0.36915057115E-02  0.53875925919E-01  0.13015554320E+00  0.17647286807E-01 0.  0.
         14    1    1    2    0    0 -0.41318953070E-02  0.16315288358E-01 -0.17812409610E-01  0.24505981498E-01  0.00000000000E+00 0.  1.
     999901    1    3    3    0    0  0.12123354383E+00 -0.20006794070E-01 -0.36063516309E-01  0.88926847530E+00  0.88000000000E+00 0.  1.
        -11    1    4    4    0    0 -0.64983407296E-01 -0.17966411208E-02  0.21131646911E-01  0.68358457892E-01  0.51100000000E-03 0.  1.
         11    1    4    4    0    0 -0.52118241223E-01  0.54881468323E-02  0.32744279008E-01  0.61797085308E-01  0.51100000000E-03 0. -1.
</event>
<event>
 8    1  0.1135368E+005  0.1043930E+01  0.7957747E-01            NaN
         13   -1    0    0    0    0  0.00000000000E+00  0.00000000000E+00  0.74505805969E-08  0.10566000000E+00  0.10566000000E+00 0. -1.
     999900   -1    0    0    0    0 -0.00000000000E+00 -0.00000000000E+00 -0.74505805969E-08  0.93827000000E+00  0.93827000000E+00 0. -1.
     999902    2    1    2    0    0 -0.22422733979E-01 -0.32288700318E-02  0.65214411146E-02  0.10203559932E+01  0.10200836334E+01 0.  0.
     999903    2    3    3    0    0 -0.41384807181E-01  0.12096463915E+00  0.28227868963E-01  0.13116829823E+00  0.79475583789E-02 0.  0.
         14    1    1    2    0    0  0.22422733979E-01  0.32288700318E-02 -0.65214411146E-02  0.23574006766E-01  0.00000000000E+00 0.  1.
     999901    1    3    3    0    0  0.18962073201E-01 -0.12419350918E+00 -0.21706427849E-01  0.88918769501E+00  0.88000000000E+00 0. -1.
        -11    1    4    4    0    0 -0.11675964954E-01  0.45862201558E-01  0.10580258725E-01  0.48496109999E-01  0.51100000000E-03 0.  1.
         11    1    4    4    0    0 -0.29708842226E-01  0.75102437589E-01  0.17647610239E-01  0.82672188228E-01  0.51100000000E-03 0. -1.
</event>
<event>
 8    1  0.1135368E+005  0.1043930E+01  0.7957747E-01            NaN
         13   -1    0    0    0    0  0.00000000000E+00  0.00000000000E+00  0.74505805969E-08  0.10566000000E+00  0.10566000000E+00 0.  1.
     999900   -1    0    0    0    0 -0.00000000000E+00 -0.00000000000E+00 -0.74505805969E-08  0.93827000000E+00  0.93827000000E+00 0. -1.
     999902    2    1    2    0    0  0.29985765837E-01 -0.38679849225E-02  0.20186420382E-01  0.10075761965E+01  0.10069201521E+01 0.  0.
     999903    2    3    3    0    0 -0.10627299429E-01  0.98196591854E-01  0.64722636129E-01  0.11962908468E+00  0.19146491280E-01 0.  0.
         14    1    1    2    0    0 -0.29985765837E-01  0.38679849225E-02 -0.20186420382E-01  0.36353803488E-01  0.00000000000E+00 0. -1.
     999901    1    3    3    0    0  0.40613065266E-01 -0.10206457678E+00 -0.44536215747E-01  0.88794711183E+00  0.88000000000E+00 0. -1.
        -11    1    4    4    0    0 -0.62790759615E-02  0.76516153000E-01  0.40408194554E-01  0.86759620636E-01  0.51100000000E-03 0. -1.
         11    1    4    4    0    0 -0.43482234673E-02  0.21680438854E-01  0.24314441575E-01  0.32869464041E-01  0.51100000000E-03 0.  1.
</event>
<event>
 8    1  0.1135368E+005  0.1043930E+01  0.7957747E-01            NaN
         13   -1    0    0    0    0  0.00000000000E+00  0.00000000000E+00  0.74505805969E-08  0.10566000000E+00  0.10566000000E+00 0. -1.
     999900   -1    0    0    0    0 -0.00000000000E+00 -0.00000000000E+00 -0.74505805969E-08  0.93827000000E+00  0.93827000000E+00 0.  1.
     999902    2    1    2    0    0 -0.18749495828E-01  0.61506705212E-02  0.10926638214E-01  0.10213741634E+01  0.10211250736E+01 0.  0.
     999903    2    3    3    0    0 -0.88168183398E-01 -0.93806234666E-01  0.25910587603E-01  0.13287269700E+00  0.20262202030E-01 0.  0.
         14    1    1    2    0    0  0.18749495828E-01 -0.61506705212E-02 -0.10926638214E-01  0.22555836591E-01  0.00000000000E+00 0. -1.
     999901    1    3    3    0    0  0.69418687570E-01  0.99956905187E-01 -0.14983949388E-01  0.88850146641E+00  0.88000000000E+00 0.  1.
        -11    1    4    4    0    0 -0.57942403876E-01 -0.47827065684E-01  0.11681172857E-01  0.76035921111E-01  0.51100000000E-03 0.  1.
         11    1    4    4    0    0 -0.30225779522E-01 -0.45979168982E-01  0.14229414745E-01  0.56836775885E-01  0.51100000000E-03 0. -1.
</event>
<event>
 8    1  0.1135368E+005  0.1043930E+01  0.7957747E-01            NaN
         13   -1    0    0    0    0  0.00000000000E+00  0.00000000000E+00  0.74505805969E-08  0.10566000000E+00  0.10566000000E+00 0.  1.
     999900   -1    0    0    0    0 -0.00000000000E+00 -0.00000000000E+00 -0.74505805969E-08  0.93827000000E+00  0.93827000000E+00 0.  1.
     999902    2    1    2    0    0 -0.35621636210E-02  0.17698896024E-01 -0.15355480860E-01  0.10202291409E+01  0.10199538074E+01 0.  0.
     999903    2    3    3    0    0 -0.52880140720E-01 -0.91872740243E-01  0.69137764304E-01  0.12805353328E+00  0.19513258303E-01 0.  0.
         14    1    1    2    0    0  0.35621636210E-02 -0.17698896024E-01  0.15355480860E-01  0.23700859110E-01  0.00000000000E+00 0. -1.
     999901    1    3    3    0    0  0.49317977099E-01  0.10957163627E+00 -0.84493245164E-01  0.89217560761E+00  0.88000000000E+00 0.  1.
        -11    1    4    4    0    0 -0.56349784744E-02 -0.88647610190E-02  0.14831143534E-01  0.18181334106E-01  0.51100000000E-03 0.  1.
         11    1    4    4    0    0 -0.47245162246E-01 -0.83007979224E-01  0.54306620770E-01  0.10987219917E+00  0.51100000000E-03 0. -1.
</event>
<event>
 8    1  0.1135368E+005  0.1043930E+01  0.7957747E-01            NaN
         13   -1    0    0    0    0  0.00000000000E+00  0.00000000000E+00  0.74505805969E-08  0.10566000000E+00  0.10566000000E+00 0. -1.
     999900   -1    0    0    0    0 -0.00000000000E+00 -0.00000000000E+00 -0.74505805969E-08  0.93827000000E+00  0.93827000000E+00 0. -1.
     999902    2    1    2    0    0 -0.10807342479E-01 -0.21576842634E-01  0.48625639793E-02  0.10193128654E+01  0.10190155613E+01 0.  0.
     999903    2    3    3    0    0  0.10891285792E+00 -0.43273582611E-01 -0.50918602078E-01  0.12919196717E+00  0.19059033851E-01 0.  0.
         14    1    1    2    0    0  0.10807342479E-01  0.21576842634E-01 -0.48625639793E-02  0.24617134642E-01  0.00000000000E+00 0. -1.
     999901    1    3    3    0    0 -0.11972020040E+00  0.21696739977E-01  0.55781166057E-01  0.89012089819E+00  0.88000000000E+00 0.  1.
        -11    1    4    4    0    0  0.59124220868E-01 -0.25567271553E-01 -0.37998152266E-01  0.74789568555E-01  0.51100000000E-03 0.  1.
         11    1    4    4    0    0  0.49788637050E-01 -0.17706311059E-01 -0.12920449812E-01  0.54402398613E-01  0.51100000000E-03 0. -1.
</event>
<event>
 8    1  0.1135368E+005  0.1043930E+01  0.7957747E-01            NaN
         13   -1    0    0    0    0  0.00000000000E+00  0.00000000000E+00  0.74505805969E-08  0.10566000000E+00  0.10566000000E+00 0. -1.
     999900   -1    0    0    0    0 -0.00000000000E+00 -0.00000000000E+00 -0.74505805969E-08  0.93827000000E+00  0.93827000000E+00 0.  1.
     999902    2    1    2    0    0  0.11536454708E-01  0.14789071594E-01 -0.14902055922E-01  0.10199742555E+01  0.10196928970E+01 0.  0.
     999903    2    3    3    0    0  0.81884334032E-03  0.12122522950E+00 -0.50612313061E-01  0.13277712665E+00  0.19285547875E-01 0.  0.
         14    1    1    2    0    0 -0.11536454708E-01 -0.14789071594E-01  0.14902055922E-01  0.23955744542E-01  0.00000000000E+00 0.  1.
     999901    1    3    3    0    0  0.10717611368E-01 -0.10643615790E+00  0.35710257139E-01  0.88719712881E+00  0.88000000000E+00 0.  1.
        -11    1    4    4    0    0  0.76960439472E-02  0.25090350307E-01 -0.13284903692E-01  0.29419458833E-01  0.51100000000E-03 0.  1.
         11    1    4    4    0    0 -0.68772006069E-02  0.96134879190E-01 -0.37327409369E-01  0.10335766782E+00  0.51100000000E-03 0. -1.
</event>
<event>
 8    1  0.1135368E+005  0.1043930E+01  0.7957747E-01            NaN
         13   -1    0    0    0    0  0.00000000000E+00  0.00000000000E+00  0.74505805969E-08  0.10566000000E+00  0.10566000000E+00 0.  1.
     999900   -1    0    0    0    0 -0.00000000000E+00 -0.00000000000E+00 -0.74505805969E-08  0.93827000000E+00  0.93827000000E+00 0.  1.
     999902    2    1    2    0    0  0.13005137535E-01 -0.47858528598E-02 -0.15169866009E-01  0.10233833987E+01  0.10231771195E+01 0.  0.
     999903    2    3    3    0    0  0.73519683464E-01 -0.74129011260E-01  0.80662577327E-01  0.13340905016E+00  0.19780523640E-01 0.  0.
         14    1    1    2    0    0 -0.13005137535E-01  0.47858528598E-02  0.15169866009E-01  0.20546601291E-01  0.00000000000E+00 0.  1.
     999901    1    3    3    0    0 -0.60514545929E-01  0.69343158400E-01 -0.95832443336E-01  0.88997434855E+00  0.88000000000E+00 0.  1.
        -11    1    4    4    0    0  0.15312359560E-01 -0.11623490208E-01  0.65223953664E-02  0.20307058926E-01  0.51100000000E-03 0.  1.
         11    1    4    4    0    0  0.58207323904E-01 -0.62505521052E-01  0.74140181961E-01  0.11310199123E+00  0.51100000000E-03 0. -1.
</event>
<event>
 8    1  0.1135368E+005  0.1043930E+01  0.7957747E-01            NaN
         13   -1    0    0    0    0  0.00000000000E+00  0.00000000000E+00  0.74505805969E-08  0.10566000000E+00  0.10566000000E+00 0. -1.
     999900   -1    0    0    0    0 -0.00000000000E+00 -0.00000000000E+00 -0.74505805969E-08  0.93827000000E+00  0.93827000000E+00 0.  1.
     999902    2    1    2    0    0  0.18303875809E-01  0.37322286916E-02  0.16443981789E-01  0.10190429363E+01  0.10187389951E+01 0.  0.
     999903    2    3    3    0    0 -0.25860552269E-01  0.78338837333E-01 -0.95622275515E-01  0.12770939114E+00  0.18982292108E-01 0.  0.
         14    1    1    2    0    0 -0.18303875809E-01 -0.37322286916E-02 -0.16443981789E-01  0.24887063662E-01  0.00000000000E+00 0.  1.
     999901    1    3    3    0    0  0.44164428078E-01 -0.74606608641E-01  0.11206625730E+00  0.89133354519E+00  0.88000000000E+00 0. -1.
        -11    1    4    4    0    0 -0.13619917499E-01  0.65453982310E-01 -0.74543029702E-01  0.10013316309E+00  0.51100000000E-03 0.  1.
         11    1    4    4    0    0 -0.12240634770E-01  0.12884855023E-01 -0.21079245813E-01  0.27576228052E-01  0.51100000000E-03 0. -1.
</event>
<event>
 8    1  0.1135368E+005  0.1043930E+01  0.7957747E-01            NaN
         13   -1    0    0    0    0  0.00000000000E+00  0.00000000000E+00  0.74505805969E-08  0.10566000000E+00  0.10566000000E+00 0. -1.
     999900   -1    0    0    0    0 -0.00000000000E+00 -0.00000000000E+00 -0.74505805969E-08  0.93827000000E+00  0.93827000000E+00 0.  1.
     999902    2    1    2    0    0  0.46331536852E-02 -0.20269851609E-01  0.15715275635E-01  0.10178665604E+01  0.10175328161E+01 0.  0.
     999903    2    3    3    0    0 -0.81024500141E-01  0.94431969143E-01  0.73271849016E-02  0.12625896652E+00  0.20131382663E-01 0.  0.
         14    1    1    2    0    0 -0.46331536852E-02  0.20269851609E-01 -0.15715275635E-01  0.26063439635E-01  0.00000000000E+00 0.  1.
     999901    1    3    3    0    0  0.85657653826E-01 -0.11470182075E+00  0.83880907336E-02  0.89160759385E+00  0.88000000000E+00 0. -1.
        -11    1    4    4    0    0 -0.99409557327E-02  0.22584676353E-01 -0.19855543537E-02  0.24760730077E-01  0.51100000000E-03 0. -1.
         11    1    4    4    0    0 -0.71083544408E-01  0.71847292789E-01  0.93127392553E-02  0.10149823644E+00  0.51100000000E-03 0.  1.
</event>
<event>
 8    1  0.1135368E+005  0.1043930E+01  0.7957747E-01            NaN
         13   -1    0    0    0    0  0.00000000000E+00  0.00000000000E+00  0.74505805969E-08  0.10566000000E+00  0.10566000000E+00 0.  1.
     999900   -1    0    0    0    0 -0.00000000000E+00 -0.00000000000E+00 -0.74505805969E-08  0.93827000000E+00  0.93827000000E+00 0. -1.
     999902    2    1    2    0    0 -0.23792595372E-01  0.40919902081E-02 -0.13763819690E-02  0.10197488833E+01  0.10194621418E+01 0.  0.
     999903    2    3    3    0    0  0.59526451807E-01 -0.99215663205E-01  0.51197495504E-01  0.12824535134E+00  0.20941353920E-01 0.  0.
         14    1    1    2    0    0  0.23792595372E-01 -0.40919902081E-02  0.13763819690E-02  0.24181116718E-01  0.00000000000E+00 0. -1.
     999901    1    3    3    0    0 -0.83319047179E-01  0.10330765341E+00 -0.52573877473E-01  0.89150353194E+00  0.88000000000E+00 0. -1.
        -11    1    4    4    0    0  0.56960278876E-01 -0.97382967460E-01  0.45371058134E-01  0.12160061578E+00  0.51100000000E-03 0.  1.
         11    1    4    4    0    0  0.25661729308E-02 -0.18326957448E-02  0.58264373700E-02  0.66447355575E-02  0.51100000000E-03 0. -1.
</event>
<event>
 8    1  0.1135368E+005  0.1043930E+01  0.7957747E-01            NaN
         13   -1    0    0    0    0  0.00000000000E+00  0.00000000000E+00  0.74505805969E-08  0.10566000000E+00  0.10566000000E+00 0. -1.
     999900   -1    0    0    0    0 -0.00000000000E+00 -0.00000000000E+00 -0.74505805969E-08  0.93827000000E+00  0.93827000000E+00 0.  1.
     999902    2    1    2    0    0  0.17902563896E-01  0.90368133280E-02 -0.11043855833E-01  0.10210360589E+01  0.10207793596E+01 0.  0.
     999903    2    3    3    0    0  0.10572685013E+00  0.79361705748E-01 -0.52914772509E-02  0.13385412397E+00  0.20309593619E-01 0.  0.
         14    1    1    2    0    0 -0.17902563896E-01 -0.90368133280E-02  0.11043855833E-01  0.22893941138E-01  0.00000000000E+00 0. -1.
     999901    1    3    3    0    0 -0.87824286236E-01 -0.70324892420E-01 -0.57523785825E-02  0.88718193490E+00  0.88000000000E+00 0. -1.
        -11    1    4    4    0    0  0.51612358878E-01  0.38505556554E-01  0.75657687956E-02  0.64838379475E-01  0.51100000000E-03 0. -1.
         11    1    4    4    0    0  0.54114491254E-01  0.40856149194E-01 -0.12857246046E-01  0.69015744490E-01  0.51100000000E-03 0.  1.
</event>
<event>
 8    1  0.1135368E+005  0.1043930E+01  0.7957747E-01            NaN
         13   -1    0    0    0    0  0.00000000000E+00  0.00000000000E+00  0.74505805969E-08  0.10566000000E+00  0.10566000000E+00 0. -1.
     999900   -1    0    0    0    0 -0.00000000000E+00 -0.00000000000E+00 -0.74505805969E-08  0.93827000000E+00  0.93827000000E+00 0.  1.
     999902    2    1    2    0    0 -0.18972477241E-01 -0.13817164629E-01  0.35095382763E-02  0.10201984642E+01  0.10199224091E+01 0.  0.
     999903    2    3    3    0    0  0.10676559933E+00 -0.41353978292E-01 -0.55601129076E-01  0.12887225515E+00  0.20187319543E-01 0.  0.
         14    1    1    2    0    0  0.18972477241E-01  0.13817164629E-01 -0.35095382763E-02  0.23731535769E-01  0.00000000000E+00 0. -1.
     999901    1    3    3    0    0 -0.12573807657E+00  0.27536813663E-01  0.59110667352E-01  0.89132620909E+00  0.88000000000E+00 0. -1.
        -11    1    4    4    0    0  0.72629332649E-01 -0.19594882449E-01 -0.42034059557E-01  0.86174837761E-01  0.51100000000E-03 0.  1.
         11    1    4    4    0    0  0.34136266683E-01 -0.21759095843E-01 -0.13567069518E-01  0.42697417384E-01  0.51100000000E-03 0. -1.
</event>
<event>
 8    1  0.1135368E+005  0.1043930E+01  0.7957747E-01            NaN
         13   -1    0    0    0    0  0.00000000000E+00  0.00000000000E+00  0.74505805969E-08  0.10566000000E+00  0.10566000000E+00 0.  1.
     999900   -1    0    0    0    0 -0.00000000000E+00 -0.00000000000E+00 -0.74505805969E-08  0.93827000000E+00  0.93827000000E+00 0. -1.
     999902    2    1    2    0    0 -0.12232121112E-01 -0.10439724392E-01 -0.17902319856E-01  0.10198653851E+01  0.10195814328E+01 0.  0.
     999903    2    3    3    0    0  0.62095357883E-01  0.88062531923E-01 -0.69313134383E-01  0.12976969338E+00  0.20616006469E-01 0.  0.
         14    1    1    2    0    0  0.12232121112E-01  0.10439724392E-01  0.17902319856E-01  0.24064614863E-01  0.00000000000E+00 0.  1.
     999901    1    3    3    0    0 -0.74327478995E-01 -0.98502256315E-01  0.51410814527E-01  0.89009569176E+00  0.88000000000E+00 0. -1.
        -11    1    4    4    0    0  0.55985540221E-01  0.71578916231E-01 -0.64802933869E-01  0.11161363412E+00  0.51100000000E-03 0. -1.
         11    1    4    4    0    0  0.61098176617E-02  0.16483615692E-01 -0.45102005133E-02  0.18156059259E-01  0.51100000000E-03 0.  1.
</event>
<event>
 8    1  0.1135368E+005  0.1043930E+01  0.7957747E-01            NaN
         13   -1    0    0    0    0  0.00000000000E+00  0.00000000000E+00  0.74505805969E-08  0.10566000000E+00  0.10566000000E+00 0.  1.
     999900   -1    0    0    0    0 -0.00000000000E+00 -0.00000000000E+00 -0.74505805969E-08  0.93827000000E+00  0.93827000000E+00 0.  1.
     999902    2    1    2    0    0  0.21586798414E-01  0.51003802453E-02  0.75976704228E-02  0.10204837137E+01  0.10202143312E+01 0.  0.
     999903    2    3    3    0    0 -0.15705132570E-02 -0.22743008198E-01  0.12795255789E+00  0.13155356219E+00  0.20365945111E-01 0.  0.
         14    1    1    2    0    0 -0.21586798414E-01 -0.51003802453E-02 -0.75976704228E-02  0.23446286279E-01  0.00000000000E+00 0.  1.
     999901    1    3    3    0    0  0.23157311671E-01  0.27843388444E-01 -0.12035488747E+00  0.88893015153E+00  0.88000000000E+00 0.  1.
        -11    1    4    4    0    0  0.53735796047E-02 -0.20385875077E-01  0.69173479507E-01  0.72316600089E-01  0.51100000000E-03 0. -1.
         11    1    4    4    0    0 -0.69440928617E-02 -0.23571331218E-02  0.58779078384E-01  0.59236962101E-01  0.51100000000E-03 0.  1.
</event>
<event>
 8    1  0.1135368E+005  0.1043930E+01  0.7957747E-01            NaN
         13   -1    0    0    0    0  0.00000000000E+00  0.00000000000E+00  0.74505805969E-08  0.10566000000E+00  0.10566000000E+00 0.  1.
     999900   -1    0    0    0    0 -0.00000000000E+00 -0.00000000000E+00 -0.74505805969E-08  0.93827000000E+00  0.93827000000E+00 0. -1.
     999902    2    1    2    0    0 -0.22085102305E-01 -0.69063503675E-02 -0.38280401068E-02  0.10204757187E+01  0.10202061503E+01 0.  0.
     999903    2    3    3    0    0 -0.11267782401E+00  0.50235721447E-01  0.44473694055E-01  0.13266644015E+00  0.20063776963E-01 0.  0.
         14    1    1    2    0    0  0.22085102305E-01  0.69063503675E-02  0.38280401068E-02  0.23454281278E-01  0.00000000000E+00 0.  1.
     999901    1    3    3    0    0  0.90592721704E-01 -0.57142071814E-01 -0.48301734162E-01  0.88780927857E+00  0.88000000000E+00 0. -1.
        -11    1    4    4    0    0 -0.74665386324E-01  0.38597933932E-01  0.21543187514E-01  0.86770331727E-01  0.51100000000E-03 0. -1.
         11    1    4    4    0    0 -0.38012437686E-01  0.11637787515E-01  0.22930506541E-01  0.45896108422E-01  0.51100000000E-03 0.  1.
</event>
<event>
 8    1  0.1135368E+005  0.1043930E+01  0.7957747E-01            NaN
         13   -1    0    0    0    0  0.00000000000E+00  0.00000000000E+00  0.74505805969E-08  0.10566000000E+00  0.10566000000E+00 0. -1.
     999900   -1    0    0    0    0 -0.00000000000E+00 -0.00000000000E+00 -0.74505805969E-08  0.93827000000E+00  0.93827000000E+00 0.  1.
     999902    2    1    2    0    0  0.49320551150E-02  0.12069554760E-01 -0.20189275188E-01  0.10198965618E+01  0.10196133535E+01 0.  0.
     999903    2    3    3    0    0  0.69080333213E-01  0.10152997715E+00  0.38678426863E-01  0.13108635983E+00  0.24641110589E-01 0.  0.
         14    1    1    2    0    0 -0.49320551150E-02 -0.12069554760E-01  0.20189275188E-01  0.24033438214E-01  0.00000000000E+00 0. -1.
     999901    1    3    3    0    0 -0.64148278098E-01 -0.89460422393E-01 -0.58867702051E-01  0.88881020196E+00  0.88000000000E+00 0.  1.
        -11    1    4    4    0    0  0.16541741236E-01  0.28902562814E-01 -0.37787074251E-03  0.33307525390E-01  0.51100000000E-03 0.  1.
         11    1    4    4    0    0  0.52538591978E-01  0.72627414340E-01  0.39056297605E-01  0.97778834439E-01  0.51100000000E-03 0. -1.
</event>
<event>
 8    1  0.1135368E+005  0.1043930E+01  0.7957747E-01            NaN
         13   -1    0    0    0    0  0.00000000000E+00  0.00000000000E+00  0.74505805969E-08  0.10566000000E+00  0.10566000000E+00 0. -1.
     999900   -1    0    0    0    0 -0.00000000000E+00 -0.00000000000E+00 -0.74505805969E-08  0.93827000000E+00  0.93827000000E+00 0. -1.
     999902    2    1    2    0    0  0.67015254903E-02 -0.22582071417E-01 -0.34644278808E-02  0.10201211224E+01  0.10198432437E+01 0.  0.
     999903    2    3    3    0    0 -0.55047795561E-01  0.16084398638E-01  0.11413594217E+00  0.12931366753E+00  0.20150524573E-01 0.  0.
         14    1    1    2    0    0 -0.67015254903E-02  0.22582071417E-01  0.34644278808E-02  0.23808877628E-01  0.00000000000E+00 0. -1.
     999901    1    3    3    0    0  0.61749321052E-01 -0.38666470055E-01 -0.11760037005E+00  0.89080745484E+00  0.88000000000E+00 0. -1.
        -11    1    4    4    0    0 -0.74349929758E-02  0.77285412750E-02  0.34707138989E-01  0.36329823680E-01  0.51100000000E-03 0.  1.
         11    1    4    4    0    0 -0.47612802585E-01  0.83558573626E-02  0.79428803181E-01  0.92983843855E-01  0.51100000000E-03 0. -1.
</event>
<event>
 8    1  0.1135368E+005  0.1043930E+01  0.7957747E-01            NaN
         13   -1    0    0    0    0  0.00000000000E+00  0.00000000000E+00  0.74505805969E-08  0.10566000000E+00  0.10566000000E+00 0.  1.
     999900   -1    0    0    0    0 -0.00000000000E+00 -0.00000000000E+00 -0.74505805969E-08  0.93827000000E+00  0.93827000000E+00 0. -1.
     999902    2    1    2    0    0  0.24099943975E-03  0.89559328521E-03 -0.24843997031E-01  0.10190686976E+01  0.10187653931E+01 0.  0.
     999903    2    3    3    0    0  0.49371123101E-01 -0.10088955488E+00  0.57807944693E-01  0.12799893103E+00  0.20633899211E-01 0.  0.
         14    1    1    2    0    0 -0.24099943975E-03 -0.89559328521E-03  0.24843997031E-01  0.24861302390E-01  0.00000000000E+00 0.  1.
     999901    1    3    3    0    0 -0.49130123662E-01  0.10178514816E+00 -0.82651941723E-01  0.89106976658E+00  0.88000000000E+00 0. -1.
        -11    1    4    4    0    0  0.27464384565E-01 -0.68434541065E-01  0.46733487036E-01  0.87303257452E-01  0.51100000000E-03 0.  1.
         11    1    4    4    0    0  0.21906738536E-01 -0.32455013811E-01  0.11074457656E-01  0.40695673580E-01  0.51100000000E-03 0. -1.
</event>
<event>
 8    1  0.1135368E+005  0.1043930E+01  0.7957747E-01            NaN
         13   -1    0    0    0    0  0.00000000000E+00  0.00000000000E+00  0.74505805969E-08  0.10566000000E+00  0.10566000000E+00 0.  1.
     999900   -1    0    0    0    0 -0.00000000000E+00 -0.00000000000E+00 -0.74505805969E-08  0.93827000000E+00  0.93827000000E+00 0. -1.
     999902    2    1    2    0    0  0.19750898400E-01  0.10444726258E-01 -0.55733849040E-02  0.10209027789E+01  0.10206430478E+01 0.  0.
     999903    2    3    3    0    0  0.76502868392E-01  0.73087518278E-01 -0.79474958668E-01  0.13376899633E+00  0.19580631371E-01 0.  0.
         14    1    1    2    0    0 -0.19750898400E-01 -0.10444726258E-01  0.55733849040E-02  0.23027221142E-01  0.00000000000E+00 0.  1.
     999901    1    3    3    0    0 -0.56751969991E-01 -0.62642792020E-01  0.73901573764E-01  0.88713378252E+00  0.88000000000E+00 0.  1.
        -11    1    4    4    0    0  0.66951248485E-01  0.55768088449E-01 -0.70302514181E-01  0.11196094848E+00  0.51100000000E-03 0.  1.
         11    1    4    4    0    0  0.95516199071E-02  0.17319429829E-01 -0.91724444868E-02  0.21808047857E-01  0.51100000000E-03 0. -1.
</event>
<event>
 8    1  0.1135368E+005  0.1043930E+01  0.7957747E-01            NaN
         13   -1    0    0    0    0  0.00000000000E+00  0.00000000000E+00  0.74505805969E-08  0.10566000000E+00  0.10566000000E+00 0.  1.
     999900   -1    0    0    0    0 -0.00000000000E+00 -0.00000000000E+00 -0.74505805969E-08  0.93827000000E+00  0.93827000000E+00 0. -1.
     999902    2    1    2    0    0 -0.39458530539E-02 -0.57352917880E-02 -0.23286603123E-01  0.10196250784E+01  0.10193353576E+01 0.  0.
     999903    2    3    3    0    0 -0.42672192284E-01 -0.61759112125E-01  0.10190254178E+00  0.12815958845E+00  0.20140709164E-01 0.  0.
         14    1    1    2    0    0  0.39458530539E-02  0.57352917880E-02  0.23286603123E-01  0.24304921585E-01  0.00000000000E+00 0.  1.
     999901    1    3    3    0    0  0.38726339230E-01  0.56023820337E-01 -0.12518914490E+00  0.89146548996E+00  0.88000000000E+00 0.  1.
        -11    1    4    4    0    0 -0.29576697012E-01 -0.29177669759E-01  0.65592141065E-01  0.77644751974E-01  0.51100000000E-03 0.  1.
         11    1    4    4    0    0 -0.13095495272E-01 -0.32581442366E-01  0.36310400717E-01  0.50514836477E-01  0.51100000000E-03 0. -1.
</event>
<event>
 8    1  0.1135368E+005  0.1043930E+01  0.7957747E-01            NaN
         13   -1    0    0    0    0  0.00000000000E+00  0.00000000000E+00  0.74505805969E-08  0.10566000000E+00  0.10566000000E+00 0. -1.
     999900   -1    0    0    0    0 -0.00000000000E+00 -0.00000000000E+00 -0.74505805969E-08  0.93827000000E+00  0.93827000000E+00 0.  1.
     999902    2    1    2    0    0 -0.12190017809E-01 -0.10856601249E-02 -0.20434320618E-01  0.10201111702E+01  0.10198330564E+01 0.  0.
     999903    2    3    3    0    0  0.10044762021E+00  0.48816656084E-01 -0.64487127763E-01  0.13043812441E+00  0.19563341606E-01 0.  0.
         14    1    1    2    0    0  0.12190017809E-01  0.10856601249E-02  0.20434320618E-01  0.23818829762E-01  0.00000000000E+00 0. -1.
     999901    1    3    3    0    0 -0.11263763802E+00 -0.49902316209E-01  0.44052807145E-01  0.88967304583E+00  0.88000000000E+00 0. -1.
        -11    1    4    4    0    0  0.30403549491E-01  0.12037083532E-01 -0.93789908529E-02  0.34021960437E-01  0.51100000000E-03 0. -1.
         11    1    4    4    0    0  0.70044070719E-01  0.36779572552E-01 -0.55108136910E-01  0.96416163970E-01  0.51100000000E-03 0.  1.
</event>
<event>
 8    1  0.1135368E+005  0.1043930E+01  0.7957747E-01            NaN
         13   -1    0    0    0    0  0.00000000000E+00  0.00000000000E+00  0.74505805969E-08  0.10566000000E+00  0.10566000000E+00 0. -1.
     999900   -1    0    0    0    0 -0.00000000000E+00 -0.00000000000E+00 -0.74505805969E-08  0.93827000000E+00  0.93827000000E+00 0. -1.
     999902    2    1    2    0    0  0.67678661691E-02 -0.20759482231E-01  0.11288056418E-01  0.10193499200E+01  0.10190535212E+01 0.  0.
     999903    2    3    3    0    0  0.70555869690E-01 -0.61706623873E-01 -0.88400065575E-01  0.13048361989E+00  0.20629233860E-01 0.  0.
         14    1    1    2    0    0 -0.67678661691E-02  0.20759482231E-01 -0.11288056418E-01  0.24580079997E-01  0.00000000000E+00 0.  1.
     999901    1    3    3    0    0 -0.63788003521E-01  0.40947141643E-01  0.99688121993E-01  0.88886630011E+00  0.88000000000E+00 0.  1.
        -11    1    4    4    0    0  0.52344220813E-01 -0.39304152378E-01 -0.49655459923E-01  0.82162398138E-01  0.51100000000E-03 0.  1.
         11    1    4    4    0    0  0.18211648877E-01 -0.22402471496E-01 -0.38744605652E-01  0.48321221756E-01  0.51100000000E-03 0. -1.
</event>
<event>
 8    1  0.1135368E+005  0.1043930E+01  0.7957747E-01            NaN
         13   -1    0    0    0    0  0.00000000000E+00  0.00000000000E+00  0.74505805969E-08  0.10566000000E+00  0.10566000000E+00 0.  1.
     999900   -1    0    0    0    0 -0.00000000000E+00 -0.00000000000E+00 -0.74505805969E-08  0.93827000000E+00  0.93827000000E+00 0. -1.
     999902    2    1    2    0    0  0.11925151798E-01  0.16083045968E-01  0.11922695322E-01  0.10206271187E+01  0.10203610592E+01 0.  0.
     999903    2    3    3    0    0  0.14707581182E-01  0.51484985153E-02 -0.12714049650E+00  0.12963560496E+00  0.19946534560E-01 0.  0.
         14    1    1    2    0    0 -0.11925151798E-01 -0.16083045968E-01 -0.11922695322E-01  0.23302881298E-01  0.00000000000E+00 0. -1.
     999901    1    3    3    0    0 -0.27824293840E-02  0.10934547453E-01  0.13906319182E+00  0.89099151374E+00  0.88000000000E+00 0.  1.
        -11    1    4    4    0    0 -0.17744366002E-02 -0.16658732303E-02 -0.63294405636E-01  0.63343244823E-01  0.51100000000E-03 0.  1.
         11    1    4    4    0    0  0.16482017783E-01  0.68143717455E-02 -0.63846090867E-01  0.66292360136E-01  0.51100000000E-03 0. -1.
</event>
<event>
 8    1  0.1135368E+005  0.1043930E+01  0.7957747E-01            NaN
         13   -1    0    0    0    0  0.00000000000E+00  0.00000000000E+00  0.74505805969E-08  0.10566000000E+00  0.10566000000E+00 0. -1.
     999900   -1    0    0    0    0 -0.00000000000E+00 -0.00000000000E+00 -0.74505805969E-08  0.93827000000E+00  0.93827000000E+00 0.  1.
     999902    2    1    2    0    0  0.72789411261E-02 -0.22992122580E-01  0.98818958590E-03  0.10197929496E+01  0.10195072647E+01 0.  0.
     999903    2    3    3    0    0  0.56585545444E-02  0.11807926876E-01  0.12781412282E+00  0.13001854758E+00  0.19923010452E-01 0.  0.
         14    1    1    2    0    0 -0.72789411261E-02  0.22992122580E-01 -0.98818958590E-03  0.24137050427E-01  0.00000000000E+00 0.  1.
     999901    1    3    3    0    0  0.16203865817E-02 -0.34800049457E-01 -0.12682593324E+00  0.88977440199E+00  0.88000000000E+00 0.  1.
        -11    1    4    4    0    0  0.12638477599E-01  0.38042585009E-02  0.70976769138E-01  0.72195334870E-01  0.51100000000E-03 0. -1.
         11    1    4    4    0    0 -0.69799230544E-02  0.80036683754E-02  0.56837353687E-01  0.57823212713E-01  0.51100000000E-03 0.  1.
</event>
<event>
 8    1  0.1135368E+005  0.1043930E+01  0.7957747E-01            NaN
         13   -1    0    0    0    0  0.00000000000E+00  0.00000000000E+00  0.74505805969E-08  0.10566000000E+00  0.10566000000E+00 0. -1.
     999900   -1    0    0    0    0 -0.00000000000E+00 -0.00000000000E+00 -0.74505805969E-08  0.93827000000E+00  0.93827000000E+00 0.  1.
     999902    2    1    2    0    0  0.19517238016E-01  0.24438048392E-01  0.46802624983E-02  0.10123065017E+01  0.10118124370E+01 0.  0.
     999903    2    3    3    0    0 -0.89938295863E-01 -0.70438922906E-01  0.31415910847E-01  0.12006385056E+00  0.19437845424E-01 0.  0.
         14    1    1    2    0    0 -0.19517238016E-01 -0.24438048392E-01 -0.46802624983E-02  0.31623498321E-01  0.00000000000E+00 0. -1.
     999901    1    3    3    0    0  0.10945553388E+00  0.94876971298E-01 -0.26735648348E-01  0.89224265112E+00  0.88000000000E+00 0. -1.
        -11    1    4    4    0    0 -0.58112496255E-01 -0.54483904507E-01  0.27362541454E-01  0.84229020338E-01  0.51100000000E-03 0.  1.
         11    1    4    4    0    0 -0.31825799608E-01 -0.15955018400E-01  0.40533693927E-02  0.35834830225E-01  0.51100000000E-03 0. -1.
</event>
<event>
 8    1  0.1135368E+005  0.1043930E+01  0.7957747E-01            NaN
         13   -1    0    0    0    0  0.00000000000E+00  0.00000000000E+00  0.74505805969E-08  0.10566000000E+00  0.10566000000E+00 0.  1.
     999900   -1    0    0    0    0 -0.00000000000E+00 -0.00000000000E+00 -0.74505805969E-08  0.93827000000E+00  0.93827000000E+00 0.  1.
     999902    2    1    2    0    0 -0.86065409126E-02  0.99354009927E-02  0.21144033943E-01  0.10190331144E+01  0.10187289303E+01 0.  0.
     999903    2    3    3    0    0  0.34246593620E-01 -0.10430914849E+00 -0.60176634670E-01  0.12690013143E+00  0.20716861801E-01 0.  0.
         14    1    1    2    0    0  0.86065409126E-02 -0.99354009927E-02 -0.21144033943E-01  0.24896885563E-01  0.00000000000E+00 0. -1.
     999901    1    3    3    0    0 -0.42853134533E-01  0.11424454948E+00  0.81320668613E-01  0.89213298301E+00  0.88000000000E+00 0. -1.
        -11    1    4    4    0    0  0.18442883831E-01 -0.74007285962E-01 -0.32447733121E-01  0.82887483043E-01  0.51100000000E-03 0. -1.
         11    1    4    4    0    0  0.15803709789E-01 -0.30301862530E-01 -0.27728901549E-01  0.44012648386E-01  0.51100000000E-03 0.  1.
</event>
<event>
 8    1  0.1135368E+005  0.1043930E+01  0.7957747E-01            NaN
         13   -1    0    0    0    0  0.00000000000E+00  0.00000000000E+00  0.74505805969E-08  0.10566000000E+00  0.10566000000E+00 0.  1.
     999900   -1    0    0    0    0 -0.00000000000E+00 -0.00000000000E+00 -0.74505805969E-08  0.93827000000E+00  0.93827000000E+00 0.  1.
     999902    2    1    2    0    0 -0.12350831202E-01  0.15604279257E-01 -0.12522212602E-01  0.10204173997E+01  0.10201464735E+01 0.  0.
     999903    2    3    3    0    0  0.20690028182E-01 -0.10523620656E+00  0.67314155352E-01  0.12796685935E+00  0.18482022156E-01 0.  0.
         14    1    1    2    0    0  0.12350831202E-01 -0.15604279257E-01  0.12522212602E-01  0.23512600259E-01  0.00000000000E+00 0.  1.
     999901    1    3    3    0    0 -0.33040859384E-01  0.12084048582E+00 -0.79836367954E-01  0.89245054039E+00  0.88000000000E+00 0. -1.
        -11    1    4    4    0    0  0.85589623209E-02 -0.45718196929E-01  0.40064682814E-01  0.61390954517E-01  0.51100000000E-03 0.  1.
         11    1    4    4    0    0  0.12131065861E-01 -0.59518009631E-01  0.27249472538E-01  0.66575904830E-01  0.51100000000E-03 0. -1.
</event>
<event>
 8    1  0.1135368E+005  0.1043930E+01  0.7957747E-01            NaN
         13   -1    0    0    0    0  0.00000000000E+00  0.00000000000E+00  0.74505805969E-08  0.10566000000E+00  0.10566000000E+00 0. -1.
     999900   -1    0    0    0    0 -0.00000000000E+00 -0.00000000000E+00 -0.74505805969E-08  0.93827000000E+00  0.93827000000E+00 0.  1.
     999902    2    1    2    0    0  0.15707481493E-02 -0.23257055110E-01 -0.25315407385E-02  0.10204828987E+01  0.10202134972E+01 0.  0.
     999903    2    3    3    0    0 -0.98378249869E-01  0.97824889382E-02 -0.83050497134E-01  0.13055890416E+00  0.19345936092E-01 0.  0.
         14    1    1    2    0    0 -0.15707481493E-02  0.23257055110E-01  0.25315407385E-02  0.23447101328E-01  0.00000000000E+00 0. -1.
     999901    1    3    3    0    0  0.99948998018E-01 -0.33039544049E-01  0.80518956395E-01  0.88992399452E+00  0.88000000000E+00 0. -1.
        -11    1    4    4    0    0 -0.79342882313E-02  0.56382378011E-02 -0.12057019221E-01  0.15504047496E-01  0.51100000000E-03 0. -1.
         11    1    4    4    0    0 -0.90443961637E-01  0.41442511372E-02 -0.70993477913E-01  0.11505485666E+00  0.51100000000E-03 0.  1.
</event>
<event>
 8    1  0.1135368E+005  0.1043930E+01  0.7957747E-01            NaN
         13   -1    0    0    0    0  0.00000000000E+00  0.00000000000E+00  0.74505805969E-08  0.10566000000E+00  0.10566000000E+00 0.  1.
     999900   -1    0    0    0    0 -0.00000000000E+00 -0.00000000000E+00 -0.74505805969E-08  0.93827000000E+00  0.93827000000E+00 0. -1.
     999902    2    1    2    0    0 -0.36163543004E-02 -0.16671213624E-02 -0.23291029790E-01  0.10203010055E+01  0.10200273587E+01 0.  0.
     999903    2    3    3    0    0 -0.35045709360E-01  0.32679788695E-01 -0.12290678687E+00  0.13345783242E+00  0.20217429182E-01 0.  0.
         14    1    1    2    0    0  0.36163543004E-02  0.16671213624E-02  0.23291029790E-01  0.23628994493E-01  0.00000000000E+00 0.  1.
     999901    1    3    3    0    0  0.31429355059E-01 -0.34346910058E-01  0.99615757079E-01  0.88684317309E+00  0.88000000000E+00 0.  1.
        -11    1    4    4    0    0 -0.65999926106E-02  0.18442648645E-01 -0.57008484941E-01  0.60282001193E-01  0.51100000000E-03 0. -1.
         11    1    4    4    0    0 -0.28445716749E-01  0.14237140050E-01 -0.65898301927E-01  0.73175831229E-01  0.51100000000E-03 0.  1.
</event>
<event>
 8    1  0.1135368E+005  0.1043930E+01  0.7957747E-01            NaN
         13   -1    0    0    0    0  0.00000000000E+00  0.00000000000E+00  0.74505805969E-08  0.10566000000E+00  0.10566000000E+00 0. -1.
     999900   -1    0    0    0    0 -0.00000000000E+00 -0.00000000000E+00 -0.74505805969E-08  0.93827000000E+00  0.93827000000E+00 0.  1.
     999902    2    1    2    0    0  0.75977884708E-02 -0.22717170340E-01 -0.40267889556E-03  0.10199725718E+01  0.10196911732E+01 0.  0.
     999903    2    3    3    0    0  0.14902063402E-01 -0.34206456188E-01 -0.12419412009E+00  0.13120394211E+00  0.19953491503E-01 0.  0.
         14    1    1    2    0    0 -0.75977884708E-02  0.22717170340E-01  0.40267889556E-03  0.23957428247E-01  0.00000000000E+00 0.  1.
     999901    1    3    3    0    0 -0.73042749317E-02  0.11489285848E-01  0.12379144119E+00  0.88876862964E+00  0.88000000000E+00 0. -1.
        -11    1    4    4    0    0  0.31927009045E-03 -0.22886851509E-01 -0.82192356149E-01  0.85321476989E-01  0.51100000000E-03 0. -1.
         11    1    4    4    0    0  0.14582793312E-01 -0.11319604678E-01 -0.42001763938E-01  0.45882465123E-01  0.51100000000E-03 0.  1.
</event>
<event>
 8    1  0.1135368E+005  0.1043930E+01  0.7957747E-01            NaN
         13   -1    0    0    0    0  0.00000000000E+00  0.00000000000E+00  0.74505805969E-08  0.10566000000E+00  0.10566000000E+00 0.  1.
     999900   -1    0    0    0    0 -0.00000000000E+00 -0.00000000000E+00 -0.74505805969E-08  0.93827000000E+00  0.93827000000E+00 0.  1.
     999902    2    1    2    0    0  0.16821076987E-01 -0.17008514517E-01  0.18961172631E-01  0.10134051861E+01  0.10129453623E+01 0.  0.
     999903    2    3    3    0    0 -0.23116073704E-01  0.88954327498E-01 -0.75865329527E-01  0.12109629035E+00  0.21483437067E-01 0.  0.
         14    1    1    2    0    0 -0.16821076987E-01  0.17008514517E-01 -0.18961172631E-01  0.30524813917E-01  0.00000000000E+00 0. -1.
     999901    1    3    3    0    0  0.39937150691E-01 -0.10596284202E+00  0.94826502158E-01  0.89230889573E+00  0.88000000000E+00 0. -1.
        -11    1    4    4    0    0 -0.22314891892E-01  0.62877982992E-01 -0.63916842642E-01  0.92397072679E-01  0.51100000000E-03 0. -1.
         11    1    4    4    0    0 -0.80118181139E-03  0.26076344506E-01 -0.11948486885E-01  0.28699217671E-01  0.51100000000E-03 0.  1.
</event>
<event>
 8    1  0.1135368E+005  0.1043930E+01  0.7957747E-01            NaN
         13   -1    0    0    0    0  0.00000000000E+00  0.00000000000E+00  0.74505805969E-08  0.10566000000E+00  0.10566000000E+00 0. -1.
     999900   -1    0    0    0    0 -0.00000000000E+00 -0.00000000000E+00 -0.74505805969E-08  0.93827000000E+00  0.93827000000E+00 0. -1.
     999902    2    1    2    0    0 -0.13724567370E-01  0.16808580827E-01  0.33457169170E-02  0.10219735440E+01  0.10217376565E+01 0.  0.
     999903    2    3    3    0    0 -0.81329782744E-01  0.10512442726E+00 -0.11450793491E-01  0.13484948807E+00  0.19687178378E-01 0.  0.
         14    1    1    2    0    0  0.13724567370E-01 -0.16808580827E-01 -0.33457169170E-02  0.21956456012E-01  0.00000000000E+00 0.  1.
     999901    1    3    3    0    0  0.67605215375E-01 -0.88315846430E-01  0.14796510408E-01  0.88712405592E+00  0.88000000000E+00 0.  1.
        -11    1    4    4    0    0 -0.50162699889E-01  0.50871702055E-01 -0.12725045423E-02  0.71457028478E-01  0.51100000000E-03 0.  1.
         11    1    4    4    0    0 -0.31167082856E-01  0.54252725203E-01 -0.10178288949E-01  0.63392459588E-01  0.51100000000E-03 0. -1.
</event>
<event>
 8    1  0.1135368E+005  0.1043930E+01  0.7957747E-01            NaN
         13   -1    0    0    0    0  0.00000000000E+00  0.00000000000E+00  0.74505805969E-08  0.10566000000E+00  0.10566000000E+00 0. -1.
     999900   -1    0    0    0    0 -0.00000000000E+00 -0.00000000000E+00 -0.74505805969E-08  0.93827000000E+00  0.93827000000E+00 0.  1.
     999902    2    1    2    0    0 -0.47968859263E-02  0.15675474415E-01 -0.17241433972E-01  0.10201392947E+01  0.10198618450E+01 0.  0.
     999903    2    3    3    0    0  0.31265471587E-01  0.10586414760E+00 -0.71677896262E-01  0.13312304975E+00  0.19981944355E-01 0.  0.
         14    1    1    2    0    0  0.47968859263E-02 -0.15675474415E-01  0.17241433972E-01  0.23790705289E-01  0.00000000000E+00 0. -1.
     999901    1    3    3    0    0 -0.36062357513E-01 -0.90188673189E-01  0.54436462290E-01  0.88701624496E+00  0.88000000000E+00 0. -1.
        -11    1    4    4    0    0  0.28930013672E-01  0.64867148187E-01 -0.42921116421E-01  0.82989011085E-01  0.51100000000E-03 0.  1.
         11    1    4    4    0    0  0.23354579142E-02  0.40996999418E-01 -0.28756779841E-01  0.50134038664E-01  0.51100000000E-03 0. -1.
</event>
<event>
 8    1  0.1135368E+005  0.1043930E+01  0.7957747E-01            NaN
         13   -1    0    0    0    0  0.00000000000E+00  0.00000000000E+00  0.74505805969E-08  0.10566000000E+00  0.10566000000E+00 0.  1.
     999900   -1    0    0    0    0 -0.00000000000E+00 -0.00000000000E+00 -0.74505805969E-08  0.93827000000E+00  0.93827000000E+00 0. -1.
     999902    2    1    2    0    0 -0.17352266030E-01  0.15567095517E-01 -0.50487856714E-02  0.10200778337E+01  0.10197989317E+01 0.  0.
     999903    2    3    3    0    0  0.56282197899E-01  0.90889111957E-01 -0.73387380821E-01  0.13116523733E+00  0.19750831586E-01 0.  0.
         14    1    1    2    0    0  0.17352266030E-01 -0.15567095517E-01  0.50487856714E-02  0.23852166275E-01  0.00000000000E+00 0.  1.
     999901    1    3    3    0    0 -0.73634463929E-01 -0.75322016439E-01  0.68338595149E-01  0.88891259639E+00  0.88000000000E+00 0. -1.
        -11    1    4    4    0    0  0.47283042431E-01  0.71526512192E-01 -0.67169417104E-01  0.10892070401E+00  0.51100000000E-03 0.  1.
         11    1    4    4    0    0  0.89991554672E-02  0.19362599765E-01 -0.62179637165E-02  0.22244533319E-01  0.51100000000E-03 0. -1.
</event>
<event>
 8    1  0.1135368E+005  0.1043930E+01  0.7957747E-01            NaN
         13   -1    0    0    0    0  0.00000000000E+00  0.00000000000E+00  0.74505805969E-08  0.10566000000E+00  0.10566000000E+00 0. -1.
     999900   -1    0    0    0    0 -0.00000000000E+00 -0.00000000000E+00 -0.74505805969E-08  0.93827000000E+00  0.93827000000E+00 0. -1.
     999902    2    1    2    0    0 -0.16724394258E-01  0.18613542105E-01  0.41944274893E-02  0.10185575241E+01  0.10182414582E+01 0.  0.
     999903    2    3    3    0    0  0.27470133638E-01 -0.32260153987E-01 -0.11874758367E+00  0.12745930986E+00  0.18696557584E-01 0.  0.
         14    1    1    2    0    0  0.16724394258E-01 -0.18613542105E-01 -0.41944274893E-02  0.25372475933E-01  0.00000000000E+00 0. -1.
     999901    1    3    3    0    0 -0.44194527896E-01  0.50873696092E-01  0.12294201116E+00  0.89109821420E+00  0.88000000000E+00 0.  1.
        -11    1    4    4    0    0  0.69117826336E-03 -0.87950113467E-02 -0.11818406483E-01  0.14756890078E-01  0.51100000000E-03 0.  1.
         11    1    4    4    0    0  0.26778955374E-01 -0.23465142641E-01 -0.10692917719E+00  0.11270241978E+00  0.51100000000E-03 0. -1.
</event>
<event>
 8    1  0.1135368E+005  0.1043930E+01  0.7957747E-01            NaN
         13   -1    0    0    0    0  0.00000000000E+00  0.00000000000E+00  0.74505805969E-08  0.10566000000E+00  0.10566000000E+00 0.  1.
     999900   -1    0    0    0    0 -0.00000000000E+00 -0.00000000000E+00 -0.74505805969E-08  0.93827000000E+00  0.93827000000E+00 0. -1.
     999902    2    1    2    0    0  0.21236767255E-01  0.81978872928E-02 -0.72157645327E-02  0.10200496127E+01  0.10197700425E+01 0.  0.
     999903    2    3    3    0    0  0.40436116486E-01 -0.12166758314E+00  0.91171178899E-02  0.13016174423E+00  0.20515299620E-01 0.  0.
         14    1    1    2    0    0 -0.21236767255E-01 -0.81978872928E-02  0.72157645327E-02  0.23880387294E-01  0.00000000000E+00 0.  1.
     999901    1    3    3    0    0 -0.19199349230E-01  0.12986547043E+00 -0.16332882423E-01  0.88988786848E+00  0.88000000000E+00 0. -1.
        -11    1    4    4    0    0  0.23051236023E-01 -0.63856116589E-01  0.14923546992E-01  0.69512131918E-01  0.51100000000E-03 0. -1.
         11    1    4    4    0    0  0.17384880463E-01 -0.57811466548E-01 -0.58064291023E-02  0.60649612307E-01  0.51100000000E-03 0.  1.
</event>
<event>
 8    1  0.1135368E+005  0.1043930E+01  0.7957747E-01            NaN
         13   -1    0    0    0    0  0.00000000000E+00  0.00000000000E+00  0.74505805969E-08  0.10566000000E+00  0.10566000000E+00 0. -1.
     999900   -1    0    0    0    0 -0.00000000000E+00 -0.00000000000E+00 -0.74505805969E-08  0.93827000000E+00  0.93827000000E+00 0.  1.
     999902    2    1    2    0    0 -0.53069717303E-02 -0.49355616453E-02  0.22392192421E-01  0.10203941975E+01  0.10201227300E+01 0.  0.
     999903    2    3    3    0    0 -0.12947158863E-01 -0.97579707903E-01  0.88174174836E-01  0.13305628019E+00  0.15487423043E-01 0.  0.
         14    1    1    2    0    0  0.53069717303E-02  0.49355616453E-02 -0.22392192421E-01  0.23535802496E-01  0.00000000000E+00 0.  1.
     999901    1    3    3    0    0  0.76401871323E-02  0.92644146258E-01 -0.65781982415E-01  0.88733791732E+00  0.88000000000E+00 0.  1.
        -11    1    4    4    0    0 -0.70643005505E-03 -0.15106305128E-02  0.53366686101E-02  0.56144635382E-02  0.51100000000E-03 0. -1.
         11    1    4    4    0    0 -0.12240728808E-01 -0.96069077390E-01  0.82837506226E-01  0.12744181665E+00  0.51100000000E-03 0.  1.
</event>
<event>
 8    1  0.1135368E+005  0.1043930E+01  0.7957747E-01            NaN
         13   -1    0    0    0    0  0.00000000000E+00  0.00000000000E+00  0.74505805969E-08  0.10566000000E+00  0.10566000000E+00 0. -1.
     999900   -1    0    0    0    0 -0.00000000000E+00 -0.00000000000E+00 -0.74505805969E-08  0.93827000000E+00  0.93827000000E+00 0.  1.
     999902    2    1    2    0    0  0.56168782802E-02 -0.22863076920E-01 -0.62456204432E-03  0.10203787859E+01  0.10201069586E+01 0.  0.
     999903    2    3    3    0    0  0.75049511787E-02  0.12541741047E+00  0.11120333614E-01  0.12789427044E+00  0.21152575504E-01 0.  0.
         14    1    1    2    0    0 -0.56168782802E-02  0.22863076920E-01  0.62456204432E-03  0.23551214100E-01  0.00000000000E+00 0.  1.
     999901    1    3    3    0    0 -0.18880728985E-02 -0.14828048739E+00 -0.11744895658E-01  0.89248451546E+00  0.88000000000E+00 0.  1.
        -11    1    4    4    0    0  0.10352431309E-02  0.84405442646E-01  0.16543977931E-01  0.86019269954E-01  0.51100000000E-03 0. -1.
         11    1    4    4    0    0  0.64697080478E-02  0.41011967825E-01 -0.54236443171E-02  0.41875000487E-01  0.51100000000E-03 0.  1.
</event>
<event>
 8    1  0.1135368E+005  0.1043930E+01  0.7957747E-01            NaN
         13   -1    0    0    0    0  0.00000000000E+00  0.00000000000E+00  0.74505805969E-08  0.10566000000E+00  0.10566000000E+00 0.  1.
     999900   -1    0    0    0    0 -0.00000000000E+00 -0.00000000000E+00 -0.74505805969E-08  0.93827000000E+00  0.93827000000E+00 0.  1.
     999902    2    1    2    0    0 -0.16450328084E-01 -0.16869934878E-01 -0.57258162311E-02  0.10196814337E+01  0.10193930710E+01 0.  0.
     999903    2    3    3    0    0 -0.15879630113E-01  0.12555427228E+00  0.27611398666E-02  0.12818998173E+00  0.20223985320E-01 0.  0.
         14    1    1    2    0    0  0.16450328084E-01  0.16869934878E-01  0.57258162311E-02  0.24248566316E-01  0.00000000000E+00 0.  1.
     999901    1    3    3    0    0 -0.57069797156E-03 -0.14242420716E+00 -0.84869560977E-02  0.89149145195E+00  0.88000000000E+00 0.  1.
        -11    1    4    4    0    0 -0.19239585209E-01  0.78020759143E-01  0.46878185519E-02  0.80496194072E-01  0.51100000000E-03 0. -1.
         11    1    4    4    0    0  0.33599550966E-02  0.47533513138E-01 -0.19266786853E-02  0.47693787659E-01  0.51100000000E-03 0.  1.
</event>
<event>
 8    1  0.1135368E+005  0.1043930E+01  0.7957747E-01            NaN
         13   -1    0    0    0    0  0.00000000000E+00  0.00000000000E+00  0.74505805969E-08  0.10566000000E+00  0.10566000000E+00 0. -1.
     999900   -1    0    0    0    0 -0.00000000000E+00 -0.00000000000E+00 -0.74505805969E-08  0.93827000000E+00  0.93827000000E+00 0. -1.
     999902    2    1    2    0    0  0.19490445338E-03 -0.12075887561E-01  0.20016428671E-01  0.10205521801E+01  0.10202843867E+01 0.  0.
     999903    2    3    3    0    0  0.34390677605E-01  0.12304472104E+00  0.10032522858E-01  0.12952658664E+00  0.18808589742E-01 0.  0.
         14    1    1    2    0    0 -0.19490445338E-03  0.12075887561E-01 -0.20016428671E-01  0.23377819934E-01  0.00000000000E+00 0.  1.
     999901    1    3    3    0    0 -0.34195773152E-01 -0.13512060860E+00  0.99839058133E-02  0.89102559343E+00  0.88000000000E+00 0. -1.
        -11    1    4    4    0    0  0.19763172494E-01  0.83658403529E-01 -0.14253357856E-02  0.85974439057E-01  0.51100000000E-03 0. -1.
         11    1    4    4    0    0  0.14627505111E-01  0.39386317514E-01  0.11457858644E-01  0.43552147580E-01  0.51100000000E-03 0.  1.
</event>
<event>
 8    1  0.1135368E+005  0.1043930E+01  0.7957747E-01            NaN
         13   -1    0    0    0    0  0.00000000000E+00  0.00000000000E+00  0.74505805969E-08  0.10566000000E+00  0.10566000000E+00 0. -1.
     999900   -1    0    0    0    0 -0.00000000000E+00 -0.00000000000E+00 -0.74505805969E-08  0.93827000000E+00  0.93827000000E+00 0.  1.
     999902    2    1    2    0    0 -0.16146105993E-01  0.46051030424E-02  0.47613707600E-02  0.10264779410E+01  0.10263295713E+01 0.  0.
     999903    2    3    3    0    0  0.96422323350E-02 -0.13241733036E+00 -0.16367848423E-01  0.13525034403E+00  0.19935573047E-01 0.  0.
         14    1    1    2    0    0  0.16146105993E-01 -0.46051030424E-02 -0.47613707600E-02  0.17452059027E-01  0.00000000000E+00 0.  1.
     999901    1    3    3    0    0 -0.25788338328E-01  0.13702243341E+00  0.21129219183E-01  0.89122759694E+00  0.88000000000E+00 0. -1.
        -11    1    4    4    0    0 -0.45539952820E-02 -0.59127017205E-01 -0.27792417538E-02  0.59369422621E-01  0.51100000000E-03 0. -1.
         11    1    4    4    0    0  0.14196227617E-01 -0.73290313160E-01 -0.13588606669E-01  0.75880921408E-01  0.51100000000E-03 0.  1.
</event>
<event>
 8    1  0.1135368E+005  0.1043930E+01  0.7957747E-01            NaN
         13   -1    0    0    0    0  0.00000000000E+00  0.00000000000E+00  0.74505805969E-08  0.10566000000E+00  0.10566000000E+00 0.  1.
     999900   -1    0    0    0    0 -0.00000000000E+00 -0.00000000000E+00 -0.74505805969E-08  0.93827000000E+00  0.93827000000E+00 0. -1.
     999902    2    1    2    0    0 -0.10261399350E-01  0.20401954948E-01 -0.31417058065E-02  0.10208777464E+01  0.10206174438E+01 0.  0.
     999903    2    3    3    0    0  0.11306373217E+00  0.64353489491E-01  0.48433193653E-02  0.13115611232E+00  0.15927614850E-01 0.  0.
         14    1    1    2    0    0  0.10261399350E-01 -0.20401954948E-01  0.31417058065E-02  0.23052253636E-01  0.00000000000E+00 0. -1.
     999901    1    3    3    0    0 -0.12332513152E+00 -0.43951534543E-01 -0.79850251718E-02  0.88972163404E+00  0.88000000000E+00 0. -1.
        -11    1    4    4    0    0  0.85526959754E-02  0.71048168912E-02  0.44599061813E-02  0.11990784614E-01  0.51100000000E-03 0. -1.
         11    1    4    4    0    0  0.10451103620E+00  0.57248672600E-01  0.38341318401E-03  0.11916532771E+00  0.51100000000E-03 0.  1.
</event>
<event>
 8    1  0.1135368E+005  0.1043930E+01  0.7957747E-01            NaN
         13   -1    0    0    0    0  0.00000000000E+00  0.00000000000E+00  0.74505805969E-08  0.10566000000E+00  0.10566000000E+00 0. -1.
     999900   -1    0    0    0    0 -0.00000000000E+00 -0.00000000000E+00 -0.74505805969E-08  0.93827000000E+00  0.93827000000E+00 0. -1.
     999902    2    1    2    0    0 -0.46180044547E-02  0.21753753220E-01 -0.84190078991E-02  0.10201511977E+01  0.10198740289E+01 0.  0.
     999903    2    3    3    0    0  0.23502302830E-01  0.75609875358E-01  0.10246538628E+00  0.13111431296E+00  0.20557144423E-01 0.  0.
         14    1    1    2    0    0  0.46180044547E-02 -0.21753753220E-01  0.84190078991E-02  0.23778802289E-01  0.00000000000E+00 0. -1.
     999901    1    3    3    0    0 -0.28120307284E-01 -0.53856122138E-01 -0.11088439418E+00  0.88903688475E+00  0.88000000000E+00 0. -1.
        -11    1    4    4    0    0  0.21847665065E-01  0.36456118188E-01  0.49955903591E-01  0.65591329052E-01  0.51100000000E-03 0.  1.
         11    1    4    4    0    0  0.16546377644E-02  0.39153757170E-01  0.52509482693E-01  0.65522983909E-01  0.51100000000E-03 0. -1.
</event>
<event>
 8    1  0.1135368E+005  0.1043930E+01  0.7957747E-01            NaN
         13   -1    0    0    0    0  0.00000000000E+00  0.00000000000E+00  0.74505805969E-08  0.10566000000E+00  0.10566000000E+00 0.  1.
     999900   -1    0    0    0    0 -0.00000000000E+00 -0.00000000000E+00 -0.74505805969E-08  0.93827000000E+00  0.93827000000E+00 0. -1.
     999902    2    1    2    0    0  0.18941782669E-01  0.54011076980E-02 -0.14276757404E-01  0.10196032884E+01  0.10193130416E+01 0.  0.
     999903    2    3    3    0    0 -0.66057188693E-01 -0.86919038700E-02 -0.11003409835E+00  0.13022546855E+00  0.20299470146E-01 0.  0.
         14    1    1    2    0    0 -0.18941782669E-01 -0.54011076980E-02  0.14276757404E-01  0.24326711595E-01  0.00000000000E+00 0. -1.
     999901    1    3    3    0    0  0.84998971362E-01  0.14093011568E-01  0.95757340945E-01  0.88937781986E+00  0.88000000000E+00 0. -1.
        -11    1    4    4    0    0 -0.29096906590E-01 -0.13979574868E-01 -0.52774462992E-01  0.61866497813E-01  0.51100000000E-03 0. -1.
         11    1    4    4    0    0 -0.36960282103E-01  0.52876709977E-02 -0.57259635358E-01  0.68358970735E-01  0.51100000000E-03 0.  1.
</event>
<event>
 8    1  0.1135368E+005  0.1043930E+01  0.7957747E-01            NaN
         13   -1    0    0    0    0  0.00000000000E+00  0.00000000000E+00  0.74505805969E-08  0.10566000000E+00  0.10566000000E+00 0.  1.
     999900   -1    0    0    0    0 -0.00000000000E+00 -0.00000000000E+00 -0.74505805969E-08  0.93827000000E+00  0.93827000000E+00 0.  1.
     999902    2    1    2    0    0  0.91897542050E-02  0.13107298128E-01  0.12287053441E-01  0.10237501950E+01  0.10235512871E+01 0.  0.
     999903    2    3    3    0    0 -0.10072913098E-01  0.13291891304E+00  0.13811419566E-01  0.13542131611E+00  0.19475023077E-01 0.  0.
         14    1    1    2    0    0 -0.91897542050E-02 -0.13107298128E-01 -0.12287053441E-01  0.20179804975E-01  0.00000000000E+00 0. -1.
     999901    1    3    3    0    0  0.19262667303E-01 -0.11981161492E+00 -0.15243661251E-02  0.88832887891E+00  0.88000000000E+00 0. -1.
        -11    1    4    4    0    0 -0.71475304061E-02  0.96140659485E-01  0.11588210721E-02  0.96414301763E-01  0.51100000000E-03 0.  1.
         11    1    4    4    0    0 -0.29253826916E-02  0.36778253558E-01  0.12652598494E-01  0.39007014348E-01  0.51100000000E-03 0. -1.
</event>
<event>
 8    1  0.1135368E+005  0.1043930E+01  0.7957747E-01            NaN
         13   -1    0    0    0    0  0.00000000000E+00  0.00000000000E+00  0.74505805969E-08  0.10566000000E+00  0.10566000000E+00 0.  1.
     999900   -1    0    0    0    0 -0.00000000000E+00 -0.00000000000E+00 -0.74505805969E-08  0.93827000000E+00  0.93827000000E+00 0. -1.
     999902    2    1    2    0    0 -0.16481773948E-01  0.12708309833E-01 -0.65238705496E-02  0.10221192023E+01  0.10218864676E+01 0.  0.
     999903    2    3    3    0    0 -0.30115610640E-01  0.70491554480E-01 -0.10833972187E+00  0.13426152647E+00  0.20313859797E-01 0.  0.
         14    1    1    2    0    0  0.16481773948E-01 -0.12708309833E-01  0.65238705496E-02  0.21810797744E-01  0.00000000000E+00 0. -1.
     999901    1    3    3    0    0  0.13633836692E-01 -0.57783244647E-01  0.10181585132E+00  0.88785767578E+00  0.88000000000E+00 0.  1.
        -11    1    4    4    0    0 -0.29553193543E-01  0.45942978246E-01 -0.71395761645E-01  0.89898634031E-01  0.51100000000E-03 0. -1.
         11    1    4    4    0    0 -0.56241709689E-03  0.24548576234E-01 -0.36943960221E-01  0.44362892444E-01  0.51100000000E-03 0.  1.
</event>
<event>
 8    1  0.1135368E+005  0.1043930E+01  0.7957747E-01            NaN
         13   -1    0    0    0    0  0.00000000000E+00  0.00000000000E+00  0.74505805969E-08  0.10566000000E+00  0.10566000000E+00 0. -1.
     999900   -1    0    0    0    0 -0.00000000000E+00 -0.00000000000E+00 -0.74505805969E-08  0.93827000000E+00  0.93827000000E+00 0.  1.
     999902    2    1    2    0    0 -0.67883872918E-02 -0.11254122887E-01 -0.19644607161E-01  0.10202942628E+01  0.10200204579E+01 0.  0.
     999903    2    3    3    0    0 -0.94072400004E-01 -0.87766341669E-01 -0.25413963751E-01  0.13265362379E+00  0.19964147304E-01 0.  0.
         14    1    1    2    0    0  0.67883872918E-02  0.11254122887E-01  0.19644607161E-01  0.23635737232E-01  0.00000000000E+00 0. -1.
     999901    1    3    3    0    0  0.87284012712E-01  0.76512218781E-01  0.57693565902E-02  0.88764063898E+00  0.88000000000E+00 0.  1.
        -11    1    4    4    0    0 -0.30320055560E-01 -0.38010234526E-01 -0.29227521026E-02  0.48712291044E-01  0.51100000000E-03 0. -1.
         11    1    4    4    0    0 -0.63752344444E-01 -0.49756107142E-01 -0.22491211648E-01  0.83941332742E-01  0.51100000000E-03 0.  1.
</event>
<event>
 8    1  0.1135368E+005  0.1043930E+01  0.7957747E-01            NaN
         13   -1    0    0    0    0  0.00000000000E+00  0.00000000000E+00  0.74505805969E-08  0.10566000000E+00  0.10566000000E+00 0.  1.
     999900   -1    0    0    0    0 -0.00000000000E+00 -0.00000000000E+00 -0.74505805969E-08  0.93827000000E+00  0.93827000000E+00 0.  1.
     999902    2    1    2    0    0  0.10134463358E-01 -0.42768225705E-02 -0.20644475064E-01  0.10205378451E+01  0.10202697195E+01 0.  0.
     999903    2    3    3    0    0  0.65543438489E-01  0.11150293643E+00  0.32232074845E-02  0.13090602612E+00  0.19928658939E-01 0.  0.
         14    1    1    2    0    0 -0.10134463358E-01  0.42768225705E-02  0.20644475064E-01  0.23392154871E-01  0.00000000000E+00 0.  1.
     999901    1    3    3    0    0 -0.55408975131E-01 -0.11577975900E+00 -0.23867682548E-01  0.88963181901E+00  0.88000000000E+00 0. -1.
        -11    1    4    4    0    0  0.35484195469E-01  0.64118148898E-01  0.11503514651E-01  0.74181245046E-01  0.51100000000E-03 0.  1.
         11    1    4    4    0    0  0.30059243021E-01  0.47384787531E-01 -0.82803071669E-02  0.56724781076E-01  0.51100000000E-03 0. -1.
</event>
<event>
 8    1  0.1135368E+005  0.1043930E+01  0.7957747E-01            NaN
         13   -1    0    0    0    0  0.00000000000E+00  0.00000000000E+00  0.74505805969E-08  0.10566000000E+00  0.10566000000E+00 0. -1.
     999900   -1    0    0    0    0 -0.00000000000E+00 -0.00000000000E+00 -0.74505805969E-08  0.93827000000E+00  0.93827000000E+00 0.  1.
     999902    2    1    2    0    0  0.11993103337E-01  0.19367594627E-01  0.62717776546E-02  0.10203021892E+01  0.10200285701E+01 0.  0.
     999903    2    3    3    0    0  0.23566809507E-01  0.42094017952E-01  0.12179037247E+00  0.13238609701E+00  0.19128068262E-01 0.  0.
         14    1    1    2    0    0 -0.11993103337E-01 -0.19367594627E-01 -0.62717776546E-02  0.23627810822E-01  0.00000000000E+00 0.  1.
     999901    1    3    3    0    0 -0.11573706170E-01 -0.22726423325E-01 -0.11551859482E+00  0.88791609217E+00  0.88000000000E+00 0.  1.
        -11    1    4    4    0    0 -0.14505206718E-02  0.14752816897E-01  0.34922473883E-01  0.37941928255E-01  0.51100000000E-03 0.  1.
         11    1    4    4    0    0  0.25017330179E-01  0.27341201055E-01  0.86867898590E-01  0.94444168750E-01  0.51100000000E-03 0. -1.
</event>
<event>
 8    1  0.1135368E+005  0.1043930E+01  0.7957747E-01            NaN
         13   -1    0    0    0    0  0.00000000000E+00  0.00000000000E+00  0.74505805969E-08  0.10566000000E+00  0.10566000000E+00 0. -1.
     999900   -1    0    0    0    0 -0.00000000000E+00 -0.00000000000E+00 -0.74505805969E-08  0.93827000000E+00  0.93827000000E+00 0. -1.
     999902    2    1    2    0    0 -0.13258689523E-01 -0.70409678923E-02 -0.18291689578E-01  0.10202666531E+01  0.10199922007E+01 0.  0.
     999903    2    3    3    0    0  0.11739586985E+00  0.14569543117E-01  0.43782707941E-01  0.12819554673E+00  0.22871616562E-01 0.  0.
         14    1    1    2    0    0  0.13258689523E-01  0.70409678923E-02  0.18291689578E-01  0.23663346854E-01  0.00000000000E+00 0. -1.
     999901    1    3    3    0    0 -0.13065455937E+00 -0.21610511009E-01 -0.62074397519E-01  0.89207110641E+00  0.88000000000E+00 0.  1.
        -11    1    4    4    0    0  0.56418456921E-01  0.16600568575E-01  0.28200432909E-01  0.65223820002E-01  0.51100000000E-03 0.  1.
         11    1    4    4    0    0  0.60977412924E-01 -0.20310254580E-02  0.15582275032E-01  0.62971726731E-01  0.51100000000E-03 0. -1.
</event>
<event>
 8    1  0.1135368E+005  0.1043930E+01  0.7957747E-01            NaN
         13   -1    0    0    0    0  0.00000000000E+00  0.00000000000E+00  0.74505805969E-08  0.10566000000E+00  0.10566000000E+00 0.  1.
     999900   -1    0    0    0    0 -0.00000000000E+00 -0.00000000000E+00 -0.74505805969E-08  0.93827000000E+00  0.93827000000E+00 0. -1.
     999902    2    1    2    0    0 -0.10460747214E-01  0.14710348225E-01 -0.21411879527E-01  0.10159248190E+01  0.10155387475E+01 0.  0.
     999903    2    3    3    0    0  0.46911609335E-01  0.29104356069E-01  0.10952283796E+00  0.12427316338E+00  0.20020101598E-01 0.  0.
         14    1    1    2    0    0  0.10460747214E-01 -0.14710348225E-01  0.21411879527E-01  0.28005180986E-01  0.00000000000E+00 0.  1.
     999901    1    3    3    0    0 -0.57372356549E-01 -0.14394007845E-01 -0.13093471749E+00  0.89165165564E+00  0.88000000000E+00 0. -1.
        -11    1    4    4    0    0  0.15587823996E-01  0.17843404254E-01  0.60874160023E-01  0.65324511569E-01  0.51100000000E-03 0. -1.
         11    1    4    4    0    0  0.31323785339E-01  0.11260951815E-01  0.48648677938E-01  0.58948651807E-01  0.51100000000E-03 0.  1.
</event>
<event>
 8    1  0.1135368E+005  0.1043930E+01  0.7957747E-01            NaN
         13   -1    0    0    0    0  0.00000000000E+00  0.00000000000E+00  0.74505805969E-08  0.10566000000E+00  0.10566000000E+00 0.  1.
     999900   -1    0    0    0    0 -0.00000000000E+00 -0.00000000000E+00 -0.74505805969E-08  0.93827000000E+00  0.93827000000E+00 0. -1.
     999902    2    1    2    0    0  0.16086960181E-01 -0.18132786192E-01  0.32500043647E-02  0.10194728793E+01  0.10191794744E+01 0.  0.
     999903    2    3    3    0    0 -0.10461093774E+00 -0.37021300170E-01  0.62821356003E-01  0.12903843230E+00  0.19757765057E-01 0.  0.
         14    1    1    2    0    0 -0.16086960181E-01  0.18132786192E-01 -0.32500043647E-02  0.24457120667E-01  0.00000000000E+00 0. -1.
     999901    1    3    3    0    0  0.12069789792E+00  0.18888513978E-01 -0.59571351639E-01  0.89043444703E+00  0.88000000000E+00 0. -1.
        -11    1    4    4    0    0 -0.42780396757E-01 -0.49799128026E-02  0.24066320881E-01  0.49339748682E-01  0.51100000000E-03 0. -1.
         11    1    4    4    0    0 -0.61830540982E-01 -0.32041387367E-01  0.38755035123E-01  0.79698683621E-01  0.51100000000E-03 0.  1.
</event>
<event>
 8    1  0.1135368E+005  0.1043930E+01  0.7957747E-01            NaN
         13   -1    0    0    0    0  0.00000000000E+00  0.00000000000E+00  0.74505805969E-08  0.10566000000E+00  0.10566000000E+00 0. -1.
     999900   -1    0    0    0    0 -0.00000000000E+00 -0.00000000000E+00 -0.74505805969E-08  0.93827000000E+00  0.93827000000E+00 0.  1.
     999902    2    1    2    0    0 -0.87432094973E-02 -0.25900225528E-02 -0.22018814988E-01  0.10200976660E+01  0.10198192330E+01 0.  0.
     999903    2    3    3    0    0 -0.11189902536E+00 -0.66986727275E-01 -0.97140289935E-02  0.13164988158E+00  0.15123341372E-01 0.  0.
         14    1    1    2    0    0  0.87432094973E-02  0.25900225528E-02  0.22018814988E-01  0.23832333973E-01  0.00000000000E+00 0. -1.
     999901    1    3    3    0    0  0.10315581586E+00  0.64396704722E-01 -0.12304785994E-01  0.88844778444E+00  0.88000000000E+00 0.  1.
        -11    1    4    4    0    0 -0.18426805841E-01 -0.17975069823E-01 -0.20175517821E-02  0.25825993589E-01  0.51100000000E-03 0. -1.
         11    1    4    4    0    0 -0.93472219518E-01 -0.49011657452E-01 -0.76964772114E-02  0.10582388799E+00  0.51100000000E-03 0.  1.
</event>
<event>
 8    1  0.1135368E+005  0.1043930E+01  0.7957747E-01            NaN
         13   -1    0    0    0    0  0.00000000000E+00  0.00000000000E+00  0.74505805969E-08  0.10566000000E+00  0.10566000000E+00 0.  1.
     999900   -1    0    0    0    0 -0.00000000000E+00 -0.00000000000E+00 -0.74505805969E-08  0.93827000000E+00  0.93827000000E+00 0.  1.
     999902    2    1    2    0    0 -0.12629960353E-01 -0.71047433673E-02 -0.18142932975E-01  0.10207101961E+01  0.10204460520E+01 0.  0.
     999903    2    3    3    0    0  0.78440329058E-01 -0.15080131449E-01 -0.10296497557E+00  0.13191765374E+00  0.20498428866E-01 0.  0.
         14    1    1    2    0    0  0.12629960353E-01  0.71047433673E-02  0.18142932975E-01  0.23219803913E-01  0.00000000000E+00 0.  1.
     999901    1    3    3    0    0 -0.91070289411E-01  0.79753880816E-02  0.84822042594E-01  0.88879254235E+00  0.88000000000E+00 0. -1.
        -11    1    4    4    0    0  0.51585734475E-01 -0.23349328783E-02 -0.54656758097E-01  0.75194163601E-01  0.51100000000E-03 0.  1.
         11    1    4    4    0    0  0.26854594583E-01 -0.12745198571E-01 -0.48308217472E-01  0.56723490136E-01  0.51100000000E-03 0. -1.
</event>
<event>
 8    1  0.1135368E+005  0.1043930E+01  0.7957747E-01            NaN
         13   -1    0    0    0    0  0.00000000000E+00  0.00000000000E+00  0.74505805969E-08  0.10566000000E+00  0.10566000000E+00 0.  1.
     999900   -1    0    0    0    0 -0.00000000000E+00 -0.00000000000E+00 -0.74505805969E-08  0.93827000000E+00  0.93827000000E+00 0. -1.
     999902    2    1    2    0    0  0.16278507466E-01  0.46471788752E-02 -0.15645785965E-01  0.10208783906E+01  0.10206181028E+01 0.  0.
     999903    2    3    3    0    0  0.42906852375E-01 -0.10970159212E+00  0.52679709499E-01  0.13045541050E+00  0.19183978803E-01 0.  0.
         14    1    1    2    0    0 -0.16278507466E-01 -0.46471788752E-02  0.15645785965E-01  0.23051609386E-01  0.00000000000E+00 0.  1.
     999901    1    3    3    0    0 -0.26628344909E-01  0.11434877099E+00 -0.68325495464E-01  0.89042298011E+00  0.88000000000E+00 0. -1.
        -11    1    4    4    0    0  0.33357939693E-01 -0.82783741462E-01  0.30607500143E-01  0.94355604905E-01  0.51100000000E-03 0.  1.
         11    1    4    4    0    0  0.95489126814E-02 -0.26917850655E-01  0.22072209356E-01  0.36099805597E-01  0.51100000000E-03 0. -1.
</event>
<event>
 8    1  0.1135368E+005  0.1043930E+01  0.7957747E-01            NaN
         13   -1    0    0    0    0  0.00000000000E+00  0.00000000000E+00  0.74505805969E-08  0.10566000000E+00  0.10566000000E+00 0. -1.
     999900   -1    0    0    0    0 -0.00000000000E+00 -0.00000000000E+00 -0.74505805969E-08  0.93827000000E+00  0.93827000000E+00 0.  1.
     999902    2    1    2    0    0  0.91141029013E-02 -0.18551974958E-01 -0.57591542773E-02  0.10224728216E+01  0.10222476512E+01 0.  0.
     999903    2    3    3    0    0  0.83130239007E-01 -0.48436257415E-01 -0.92196181351E-01  0.13464242204E+00  0.19280515764E-01 0.  0.
         14    1    1    2    0    0 -0.91141029013E-02  0.18551974958E-01  0.57591542773E-02  0.21457178392E-01  0.00000000000E+00 0. -1.
     999901    1    3    3    0    0 -0.74016136106E-01  0.29884282457E-01  0.86437027074E-01  0.88783039956E+00  0.88000000000E+00 0. -1.
        -11    1    4    4    0    0  0.40398312877E-01 -0.15189198584E-01 -0.32364135334E-01  0.53948436622E-01  0.51100000000E-03 0.  1.
         11    1    4    4    0    0  0.42731926130E-01 -0.33247058831E-01 -0.59832046017E-01  0.80693985422E-01  0.51100000000E-03 0. -1.
</event>
<event>
 8    1  0.1135368E+005  0.1043930E+01  0.7957747E-01            NaN
         13   -1    0    0    0    0  0.00000000000E+00  0.00000000000E+00  0.74505805969E-08  0.10566000000E+00  0.10566000000E+00 0.  1.
     999900   -1    0    0    0    0 -0.00000000000E+00 -0.00000000000E+00 -0.74505805969E-08  0.93827000000E+00  0.93827000000E+00 0. -1.
     999902    2    1    2    0    0  0.15206834978E-01  0.76691706114E-02  0.10140533175E-01  0.10241084355E+01  0.10239165948E+01 0.  0.
     999903    2    3    3    0    0 -0.35148897737E-01  0.12795317026E+00  0.10100207935E-01  0.13449956521E+00  0.19510511288E-01 0.  0.
         14    1    1    2    0    0 -0.15206834978E-01 -0.76691706114E-02 -0.10140533175E-01  0.19821564545E-01  0.00000000000E+00 0. -1.
     999901    1    3    3    0    0  0.50355732715E-01 -0.12028399965E+00  0.40325240148E-04  0.88960887024E+00  0.88000000000E+00 0. -1.
        -11    1    4    4    0    0 -0.19964018745E-01  0.87532992985E-01 -0.14725317672E-02  0.89794300354E-01  0.51100000000E-03 0. -1.
         11    1    4    4    0    0 -0.15184878992E-01  0.40420177274E-01  0.11572739702E-01  0.44705264858E-01  0.51100000000E-03 0.  1.
</event>
<event>
 8    1  0.1135368E+005  0.1043930E+01  0.7957747E-01            NaN
         13   -1    0    0    0    0  0.00000000000E+00  0.00000000000E+00  0.74505805969E-08  0.10566000000E+00  0.10566000000E+00 0. -1.
     999900   -1    0    0    0    0 -0.00000000000E+00 -0.00000000000E+00 -0.74505805969E-08  0.93827000000E+00  0.93827000000E+00 0. -1.
     999902    2    1    2    0    0 -0.37146928646E-02 -0.30718023001E-02 -0.23206106907E-01  0.10202285589E+01  0.10199532117E+01 0.  0.
     999903    2    3    3    0    0 -0.84425396628E-01  0.97330468118E-01  0.38180701775E-02  0.13043917947E+00  0.19973338729E-01 0.  0.
         14    1    1    2    0    0  0.37146928646E-02  0.30718023001E-02  0.23206106907E-01  0.23701441100E-01  0.00000000000E+00 0. -1.
     999901    1    3    3    0    0  0.80710703763E-01 -0.10040227042E+00 -0.27024177084E-01  0.88978937943E+00  0.88000000000E+00 0. -1.
        -11    1    4    4    0    0 -0.16823364800E-01  0.29546055572E-01  0.67184686974E-02  0.34661130185E-01  0.51100000000E-03 0. -1.
         11    1    4    4    0    0 -0.67602031828E-01  0.67784412546E-01 -0.29003985200E-02  0.95778049281E-01  0.51100000000E-03 0.  1.
</event>
<event>
 8    1  0.1135368E+005  0.1043930E+01  0.7957747E-01            NaN
         13   -1    0    0    0    0  0.00000000000E+00  0.00000000000E+00  0.74505805969E-08  0.10566000000E+00  0.10566000000E+00 0.  1.
     999900   -1    0    0    0    0 -0.00000000000E+00 -0.00000000000E+00 -0.74505805969E-08  0.93827000000E+00  0.93827000000E+00 0. -1.
     999902    2    1    2    0    0 -0.66164483097E-02  0.74849497214E-02 -0.21534310629E-01  0.10201912470E+01  0.10199150220E+01 0.  0.
     999903    2    3    3    0    0  0.42923108089E-02 -0.11954279203E+00 -0.48611691504E-01  0.13059120609E+00  0.19546444629E-01 0.  0.
         14    1    1    2    0    0  0.66164483097E-02 -0.74849497214E-02  0.21534310629E-01  0.23738753017E-01  0.00000000000E+00 0.  1.
     999901    1    3    3    0    0 -0.10908759119E-01  0.12702774176E+00  0.27077380875E-01  0.88960004089E+00  0.88000000000E+00 0. -1.
        -11    1    4    4    0    0  0.11164571351E-02 -0.31778868723E-01 -0.38970968015E-02  0.32040465951E-01  0.51100000000E-03 0.  1.
         11    1    4    4    0    0  0.31758536738E-02 -0.87763923312E-01 -0.44714594703E-01  0.98550740139E-01  0.51100000000E-03 0. -1.
</event>
<event>
 8    1  0.1135368E+005  0.1043930E+01  0.7957747E-01            NaN
         13   -1    0    0    0    0  0.00000000000E+00  0.00000000000E+00  0.74505805969E-08  0.10566000000E+00  0.10566000000E+00 0. -1.
     999900   -1    0    0    0    0 -0.00000000000E+00 -0.00000000000E+00 -0.74505805969E-08  0.93827000000E+00  0.93827000000E+00 0.  1.
     999902    2    1    2    0    0 -0.72812907175E-02  0.21739710266E-01 -0.98471764685E-02  0.10189780646E+01  0.10186725171E+01 0.  0.
     999903    2    3    3    0    0  0.61003249039E-01  0.51547730859E-01  0.99495272390E-01  0.12908646018E+00  0.19632626488E-01 0.  0.
         14    1    1    2    0    0  0.72812907175E-02 -0.21739710266E-01  0.98471764685E-02  0.24951935423E-01  0.00000000000E+00 0.  1.
     999901    1    3    3    0    0 -0.68284539757E-01 -0.29808020593E-01 -0.10934244886E+00  0.88989160440E+00  0.88000000000E+00 0.  1.
        -11    1    4    4    0    0  0.50274272548E-01  0.38231024239E-01  0.65291661973E-01  0.90842588794E-01  0.51100000000E-03 0.  1.
         11    1    4    4    0    0  0.10728976492E-01  0.13316706620E-01  0.34203610417E-01  0.38243871382E-01  0.51100000000E-03 0. -1.
</event>
<event>
 8    1  0.1135368E+005  0.1043930E+01  0.7957747E-01            NaN
         13   -1    0    0    0    0  0.00000000000E+00  0.00000000000E+00  0.74505805969E-08  0.10566000000E+00  0.10566000000E+00 0.  1.
     999900   -1    0    0    0    0 -0.00000000000E+00 -0.00000000000E+00 -0.74505805969E-08  0.93827000000E+00  0.93827000000E+00 0.  1.
     999902    2    1    2    0    0 -0.27394839103E-03  0.55698090475E-02  0.22390099523E-01  0.10208558938E+01  0.10205950919E+01 0.  0.
     999903    2    3    3    0    0  0.83878501363E-01  0.71048303104E-01 -0.66926960457E-01  0.12993131495E+00  0.17873561595E-01 0.  0.
         14    1    1    2    0    0  0.27394839103E-03 -0.55698090475E-02 -0.22390099523E-01  0.23074106206E-01  0.00000000000E+00 0. -1.
     999901    1    3    3    0    0 -0.84152449754E-01 -0.65478494056E-01  0.89317059980E-01  0.89092457884E+00  0.88000000000E+00 0. -1.
        -11    1    4    4    0    0  0.24760744604E-01  0.11043308539E-01 -0.17231391401E-01  0.32128353637E-01  0.51100000000E-03 0. -1.
         11    1    4    4    0    0  0.59117756759E-01  0.60004994565E-01 -0.49695569056E-01  0.97802961313E-01  0.51100000000E-03 0.  1.
</event>
<event>
 8    1  0.1135368E+005  0.1043930E+01  0.7957747E-01            NaN
         13   -1    0    0    0    0  0.00000000000E+00  0.00000000000E+00  0.74505805969E-08  0.10566000000E+00  0.10566000000E+00 0.  1.
     999900   -1    0    0    0    0 -0.00000000000E+00 -0.00000000000E+00 -0.74505805969E-08  0.93827000000E+00  0.93827000000E+00 0. -1.
     999902    2    1    2    0    0 -0.23365124310E-01  0.92014248366E-03  0.99319428180E-03  0.10205256814E+01  0.10202572735E+01 0.  0.
     999903    2    3    3    0    0  0.25821261625E-01 -0.86224983979E-01 -0.91683869957E-01  0.13001874042E+00  0.19936284390E-01 0.  0.
         14    1    1    2    0    0  0.23365124310E-01 -0.92014248366E-03 -0.99319428180E-03  0.23404318642E-01  0.00000000000E+00 0. -1.
     999901    1    3    3    0    0 -0.49186385935E-01  0.87145126463E-01  0.92677064239E-01  0.89050694094E+00  0.88000000000E+00 0.  1.
        -11    1    4    4    0    0  0.13546633610E-01 -0.23434123547E-01 -0.37036468870E-01  0.45876252854E-01  0.51100000000E-03 0.  1.
         11    1    4    4    0    0  0.12274628015E-01 -0.62790860432E-01 -0.54647401087E-01  0.84142487563E-01  0.51100000000E-03 0. -1.
</event>
<event>
 7    1  0.1135368E+005  0.1043930E+01  0.7957747E-01            NaN
         13   -1    0    0    0    0  0.00000000000E+00  0.00000000000E+00  0.74505805969E-08  0.10566000000E+00  0.10566000000E+00 0. -1.
     999900   -1    0    0    0    0 -0.00000000000E+00 -0.00000000000E+00 -0.74505805969E-08  0.93827000000E+00  0.93827000000E+00 0.  1.
     999902    2    1    2    0    0 -0.17886406747E-01  0.86777593540E-02  0.13520025506E-01  0.10198879921E+01  0.10196045794E+01 0.  0.
         14    1    1    2    0    0  0.17886406747E-01 -0.86777593540E-02 -0.13520025506E-01  0.24042007890E-01  0.00000000000E+00 0. -1.
     999901    1    3    3    0    0  0.62319505283E-01  0.54411042216E-01 -0.17206400265E-01  0.88404770373E+00  0.88000000000E+00 0. -1.
        -11    1    3    3    0    0 -0.92736848265E-01 -0.21416628170E-01  0.65038075307E-03  0.95181295980E-01  0.51100000000E-03 0. -1.
         11    1    3    3    0    0  0.12530936235E-01 -0.24316654691E-01  0.30076045019E-01  0.40658992403E-01  0.51100000000E-03 0.  1.
</event>
<event>
 8    1  0.1135368E+005  0.1043930E+01  0.7957747E-01            NaN
         13   -1    0    0    0    0  0.00000000000E+00  0.00000000000E+00  0.74505805969E-08  0.10566000000E+00  0.10566000000E+00 0. -1.
     999900   -1    0    0    0    0 -0.00000000000E+00 -0.00000000000E+00 -0.74505805969E-08  0.93827000000E+00  0.93827000000E+00 0. -1.
     999902    2    1    2    0    0  0.11812268103E-02  0.26255523409E-03 -0.27938545682E-01  0.10159652621E+01  0.10155803204E+01 0.  0.
     999903    2    3    3    0    0  0.81335361322E-01  0.82597022820E-01 -0.50812977606E-01  0.12820015268E+00  0.20386546403E-01 0.  0.
         14    1    1    2    0    0 -0.11812268103E-02 -0.26255523409E-03  0.27938545682E-01  0.27964737919E-01  0.00000000000E+00 0. -1.
     999901    1    3    3    0    0 -0.80154134512E-01 -0.82334467586E-01  0.22874431924E-01  0.88776510940E+00  0.88000000000E+00 0.  1.
        -11    1    4    4    0    0  0.44618184281E-01  0.49124561580E-01 -0.18373945418E-01  0.68861222107E-01  0.51100000000E-03 0.  1.
         11    1    4    4    0    0  0.36717177041E-01  0.33472461240E-01 -0.32439032188E-01  0.59338930574E-01  0.51100000000E-03 0. -1.
</event>
<event>
 8    1  0.1135368E+005  0.1043930E+01  0.7957747E-01            NaN
         13   -1    0    0    0    0  0.00000000000E+00  0.00000000000E+00  0.74505805969E-08  0.10566000000E+00  0.10566000000E+00 0. -1.
     999900   -1    0    0    0    0 -0.00000000000E+00 -0.00000000000E+00 -0.74505805969E-08  0.93827000000E+00  0.93827000000E+00 0. -1.
     999902    2    1    2    0    0 -0.10342701516E-01 -0.66971638018E-02  0.21171117321E-01  0.10194342925E+01  0.10191399497E+01 0.  0.
     999903    2    3    3    0    0  0.33030635761E-01 -0.84554534295E-01  0.93754562632E-01  0.13195957564E+00  0.19568326937E-01 0.  0.
         14    1    1    2    0    0  0.10342701516E-01  0.66971638018E-02 -0.21171117321E-01  0.24495707507E-01  0.00000000000E+00 0.  1.
     999901    1    3    3    0    0 -0.43373337277E-01  0.77857370494E-01 -0.72583445311E-01  0.88747471686E+00  0.88000000000E+00 0. -1.
        -11    1    4    4    0    0  0.26167488968E-01 -0.41093580931E-01  0.52864664382E-01  0.71891263265E-01  0.51100000000E-03 0. -1.
         11    1    4    4    0    0  0.68631467929E-02 -0.43460953364E-01  0.40889898250E-01  0.60068312371E-01  0.51100000000E-03 0.  1.
</event>
<event>
 8    1  0.1135368E+005  0.1043930E+01  0.7957747E-01            NaN
         13   -1    0    0    0    0  0.00000000000E+00  0.00000000000E+00  0.74505805969E-08  0.10566000000E+00  0.10566000000E+00 0. -1.
     999900   -1    0    0    0    0 -0.00000000000E+00 -0.00000000000E+00 -0.74505805969E-08  0.93827000000E+00  0.93827000000E+00 0.  1.
     999902    2    1    2    0    0  0.11132872074E-01  0.16603404794E-01  0.13541664721E-01  0.10197848022E+01  0.10194989222E+01 0.  0.
     999903    2    3    3    0    0 -0.16509793012E-01  0.12868798781E+00 -0.12671615215E-01  0.13185788705E+00  0.19818200545E-01 0.  0.
         14    1    1    2    0    0 -0.11132872074E-01 -0.16603404794E-01 -0.13541664721E-01  0.24145197758E-01  0.00000000000E+00 0.  1.
     999901    1    3    3    0    0  0.27642665087E-01 -0.11208458301E+00  0.26213279936E-01  0.88792691519E+00  0.88000000000E+00 0.  1.
        -11    1    4    4    0    0 -0.11788852975E-01  0.12380584112E+00 -0.11049267103E-01  0.12485676103E+00  0.51100000000E-03 0.  1.
         11    1    4    4    0    0 -0.47209400369E-02  0.48821466844E-02 -0.16223481120E-02  0.70011260149E-02  0.51100000000E-03 0. -1.
</event>
<event>
 8    1  0.1135368E+005  0.1043930E+01  0.7957747E-01            NaN
         13   -1    0    0    0    0  0.00000000000E+00  0.00000000000E+00  0.74505805969E-08  0.10566000000E+00  0.10566000000E+00 0.  1.
     999900   -1    0    0    0    0 -0.00000000000E+00 -0.00000000000E+00 -0.74505805969E-08  0.93827000000E+00  0.93827000000E+00 0.  1.
     999902    2    1    2    0    0 -0.10041486827E-01  0.11429206998E-01 -0.18736251731E-01  0.10197948522E+01  0.10195092129E+01 0.  0.
     999903    2    3    3    0    0 -0.31315755279E-01 -0.12356263969E+00 -0.15933364073E-02  0.12908206307E+00  0.20278999719E-01 0.  0.
         14    1    1    2    0    0  0.10041486827E-01 -0.11429206998E-01  0.18736251731E-01  0.24135147798E-01  0.00000000000E+00 0.  1.
     999901    1    3    3    0    0  0.21274268452E-01  0.13499184669E+00 -0.17142915324E-01  0.89071278913E+00  0.88000000000E+00 0.  1.
        -11    1    4    4    0    0 -0.27955463022E-02 -0.51116494397E-01  0.40061045851E-03  0.51196998821E-01  0.51100000000E-03 0.  1.
         11    1    4    4    0    0 -0.28520208977E-01 -0.72446145296E-01 -0.19939468658E-02  0.77885064252E-01  0.51100000000E-03 0. -1.
</event>
<event>
 8    1  0.1135368E+005  0.1043930E+01  0.7957747E-01            NaN
         13   -1    0    0    0    0  0.00000000000E+00  0.00000000000E+00  0.74505805969E-08  0.10566000000E+00  0.10566000000E+00 0. -1.
     999900   -1    0    0    0    0 -0.00000000000E+00 -0.00000000000E+00 -0.74505805969E-08  0.93827000000E+00  0.93827000000E+00 0. -1.
     999902    2    1    2    0    0  0.53749138455E-02 -0.22019199834E-01  0.90188608062E-02  0.10195358468E+01  0.10192439689E+01 0.  0.
     999903    2    3    3    0    0 -0.37686787371E-02  0.11198975201E+00  0.58501549417E-01  0.12796950550E+00  0.19946316927E-01 0.  0.
         14    1    1    2    0    0 -0.53749138455E-02  0.22019199834E-01 -0.90188608062E-02  0.24394153202E-01  0.00000000000E+00 0.  1.
     999901    1    3    3    0    0  0.91435925826E-02 -0.13400895185E+00 -0.49482688611E-01  0.89156634130E+00  0.88000000000E+00 0. -1.
        -11    1    4    4    0    0  0.38008322285E-02  0.86566335851E-02  0.92924631656E-02  0.13266296519E-01  0.51100000000E-03 0.  1.
         11    1    4    4    0    0 -0.75695109657E-02  0.10333311843E+00  0.49209086252E-01  0.11470320898E+00  0.51100000000E-03 0. -1.
</event>
<event>
 8    1  0.1135368E+005  0.1043930E+01  0.7957747E-01            NaN
         13   -1    0    0    0    0  0.00000000000E+00  0.00000000000E+00  0.74505805969E-08  0.10566000000E+00  0.10566000000E+00 0. -1.
     999900   -1    0    0    0    0 -0.00000000000E+00 -0.00000000000E+00 -0.74505805969E-08  0.93827000000E+00  0.93827000000E+00 0.  1.
     999902    2    1    2    0    0  0.20008206334E-01 -0.11397108789E-01 -0.27731266537E-02  0.10207370562E+01  0.10204735299E+01 0.  0.
     999903    2    3    3    0    0  0.73497084981E-01 -0.34503619320E-01 -0.10343622705E+00  0.13308395352E+00  0.20493032228E-01 0.  0.
         14    1    1    2    0    0 -0.20008206334E-01  0.11397108789E-01  0.27731266537E-02  0.23192943773E-01  0.00000000000E+00 0. -1.
     999901    1    3    3    0    0 -0.53488878648E-01  0.23106510531E-01  0.10066310040E+00  0.88765310271E+00  0.88000000000E+00 0. -1.
        -11    1    4    4    0    0  0.19345790707E-01 -0.10315364057E-01 -0.14882284905E-01  0.26503016408E-01  0.51100000000E-03 0. -1.
         11    1    4    4    0    0  0.54151294274E-01 -0.24188255263E-01 -0.88553942148E-01  0.10658093711E+00  0.51100000000E-03 0.  1.
</event>
<event>
 8    1  0.1135368E+005  0.1043930E+01  0.7957747E-01            NaN
         13   -1    0    0    0    0  0.00000000000E+00  0.00000000000E+00  0.74505805969E-08  0.10566000000E+00  0.10566000000E+00 0. -1.
     999900   -1    0    0    0    0 -0.00000000000E+00 -0.00000000000E+00 -0.74505805969E-08  0.93827000000E+00  0.93827000000E+00 0. -1.
     999902    2    1    2    0    0 -0.84233068668E-02  0.20225534530E-02 -0.21666195730E-01  0.10205961864E+01  0.10203294119E+01 0.  0.
     999903    2    3    3    0    0 -0.81160610740E-02  0.85122978738E-01  0.94618253333E-01  0.12906500454E+00  0.19833546748E-01 0.  0.
         14    1    1    2    0    0  0.84233068668E-02 -0.20225534530E-02  0.21666195730E-01  0.23333813629E-01  0.00000000000E+00 0. -1.
     999901    1    3    3    0    0 -0.30724579281E-03 -0.83100425285E-01 -0.11628444906E+00  0.89153118183E+00  0.88000000000E+00 0. -1.
        -11    1    4    4    0    0 -0.32101281051E-02  0.38840110691E-01  0.28845380394E-01  0.48488928757E-01  0.51100000000E-03 0.  1.
         11    1    4    4    0    0 -0.49059329689E-02  0.46282868047E-01  0.65772872939E-01  0.80576075783E-01  0.51100000000E-03 0. -1.
</event>
<event>
 8    1  0.1135368E+005  0.1043930E+01  0.7957747E-01            NaN
         13   -1    0    0    0    0  0.00000000000E+00  0.00000000000E+00  0.74505805969E-08  0.10566000000E+00  0.10566000000E+00 0. -1.
     999900   -1    0    0    0    0 -0.00000000000E+00 -0.00000000000E+00 -0.74505805969E-08  0.93827000000E+00  0.93827000000E+00 0.  1.
     999902    2    1    2    0    0 -0.20644819114E-01  0.45770790075E-02  0.12839451605E-01  0.10191911697E+01  0.10188908826E+01 0.  0.
     999903    2    3    3    0    0  0.76305683735E-01  0.85680970584E-01 -0.52543432765E-01  0.12775852342E+00  0.19940960101E-01 0.  0.
         14    1    1    2    0    0  0.20644819114E-01 -0.45770790075E-02 -0.12839451605E-01  0.24738830328E-01  0.00000000000E+00 0.  1.
     999901    1    3    3    0    0 -0.96950502848E-01 -0.81103891577E-01  0.65382884370E-01  0.89143264625E+00  0.88000000000E+00 0. -1.
        -11    1    4    4    0    0  0.59282189192E-01  0.69670842696E-01 -0.32870111409E-01  0.97206530760E-01  0.51100000000E-03 0. -1.
         11    1    4    4    0    0  0.17023494543E-01  0.16010127888E-01 -0.19673321356E-01  0.30551992662E-01  0.51100000000E-03 0.  1.
</event>
<event>
 8    1  0.1135368E+005  0.1043930E+01  0.7957747E-01            NaN
         13   -1    0    0    0    0  0.00000000000E+00  0.00000000000E+00  0.74505805969E-08  0.10566000000E+00  0.10566000000E+00 0.  1.
     999900   -1    0    0    0    0 -0.00000000000E+00 -0.00000000000E+00 -0.74505805969E-08  0.93827000000E+00  0.93827000000E+00 0.  1.
     999902    2    1    2    0    0  0.59275578562E-02 -0.81203059240E-02 -0.18774087044E-01  0.10226334826E+01  0.10224117067E+01 0.  0.
     999903    2    3    3    0    0  0.11952768326E+00 -0.54502172045E-01 -0.18267985865E-01  0.13411982362E+00  0.19926212803E-01 0.  0.
         14    1    1    2    0    0 -0.59275578562E-02  0.81203059240E-02  0.18774087044E-01  0.21296517433E-01  0.00000000000E+00 0.  1.
     999901    1    3    3    0    0 -0.11360012541E+00  0.46381866121E-01 -0.50610117913E-03  0.88851365895E+00  0.88000000000E+00 0.  1.
        -11    1    4    4    0    0  0.61754611082E-01 -0.30525463267E-01  0.22894923126E-03  0.68889400029E-01  0.51100000000E-03 0. -1.
         11    1    4    4    0    0  0.57773072180E-01 -0.23976708778E-01 -0.18496935096E-01  0.65230423591E-01  0.51100000000E-03 0.  1.
</event>
<event>
 8    1  0.1135368E+005  0.1043930E+01  0.7957747E-01            NaN
         13   -1    0    0    0    0  0.00000000000E+00  0.00000000000E+00  0.74505805969E-08  0.10566000000E+00  0.10566000000E+00 0. -1.
     999900   -1    0    0    0    0 -0.00000000000E+00 -0.00000000000E+00 -0.74505805969E-08  0.93827000000E+00  0.93827000000E+00 0.  1.
     999902    2    1    2    0    0  0.22453728533E-02  0.14708181466E-01  0.19394404075E-01  0.10194858757E+01  0.10191927863E+01 0.  0.
     999903    2    3    3    0    0  0.66573905936E-01 -0.45116352068E-01  0.10181720653E+00  0.13127945078E+00  0.19999511882E-01 0.  0.
         14    1    1    2    0    0 -0.22453728533E-02 -0.14708181466E-01 -0.19394404075E-01  0.24444124258E-01  0.00000000000E+00 0.  1.
     999901    1    3    3    0    0 -0.64328533083E-01  0.59824533533E-01 -0.82422802456E-01  0.88820642496E+00  0.88000000000E+00 0.  1.
        -11    1    4    4    0    0  0.20727902705E-01 -0.22040537648E-01  0.49288851208E-01  0.57836694449E-01  0.51100000000E-03 0.  1.
         11    1    4    4    0    0  0.45846003231E-01 -0.23075814419E-01  0.52528355324E-01  0.73442756331E-01  0.51100000000E-03 0. -1.
</event>
<event>
 8    1  0.1135368E+005  0.1043930E+01  0.7957747E-01            NaN
         13   -1    0    0    0    0  0.00000000000E+00  0.00000000000E+00  0.74505805969E-08  0.10566000000E+00  0.10566000000E+00 0.  1.
     999900   -1    0    0    0    0 -0.00000000000E+00 -0.00000000000E+00 -0.74505805969E-08  0.93827000000E+00  0.93827000000E+00 0.  1.
     999902    2    1    2    0    0 -0.20763434462E-01  0.17849184375E-01  0.56013358571E-02  0.10159820384E+01  0.10155975649E+01 0.  0.
     999903    2    3    3    0    0  0.11154733177E+00 -0.48904832114E-01 -0.48314778321E-02  0.12352975331E+00  0.20044124976E-01 0.  0.
         14    1    1    2    0    0  0.20763434462E-01 -0.17849184375E-01 -0.56013358571E-02  0.27947961587E-01  0.00000000000E+00 0.  1.
     999901    1    3    3    0    0 -0.13231076623E+00  0.66754016489E-01  0.10432813689E-01  0.89245228510E+00  0.88000000000E+00 0.  1.
        -11    1    4    4    0    0  0.22917335419E-01 -0.14033367921E-01 -0.85727809416E-02  0.28211582231E-01  0.51100000000E-03 0. -1.
         11    1    4    4    0    0  0.88629996352E-01 -0.34871464193E-01  0.37413031096E-02  0.95318171082E-01  0.51100000000E-03 0.  1.
</event>
<event>
 8    1  0.1135368E+005  0.1043930E+01  0.7957747E-01            NaN
         13   -1    0    0    0    0  0.00000000000E+00  0.00000000000E+00  0.74505805969E-08  0.10566000000E+00  0.10566000000E+00 0. -1.
     999900   -1    0    0    0    0 -0.00000000000E+00 -0.00000000000E+00 -0.74505805969E-08  0.93827000000E+00  0.93827000000E+00 0.  1.
     999902    2    1    2    0    0  0.10998434684E-01 -0.45664223869E-02  0.21122228659E-01  0.10196819831E+01  0.10193936337E+01 0.  0.
     999903    2    3    3    0    0 -0.58483320616E-01  0.28762218424E-02 -0.11092618772E+00  0.12709031190E+00  0.20463548426E-01 0.  0.
         14    1    1    2    0    0 -0.10998434684E-01  0.45664223869E-02 -0.21122228659E-01  0.24248016877E-01  0.00000000000E+00 0.  1.
     999901    1    3    3    0    0  0.69481755301E-01 -0.74426442293E-02  0.13204841638E+00  0.89259167123E+00  0.88000000000E+00 0. -1.
        -11    1    4    4    0    0 -0.21425113837E-01  0.90326001860E-02 -0.55017750208E-01  0.59731376411E-01  0.51100000000E-03 0.  1.
         11    1    4    4    0    0 -0.37058206780E-01 -0.61563783436E-02 -0.55908437510E-01  0.67358935487E-01  0.51100000000E-03 0. -1.
</event>
<event>
 8    1  0.1135368E+005  0.1043930E+01  0.7957747E-01            NaN
         13   -1    0    0    0    0  0.00000000000E+00  0.00000000000E+00  0.74505805969E-08  0.10566000000E+00  0.10566000000E+00 0.  1.
     999900   -1    0    0    0    0 -0.00000000000E+00 -0.00000000000E+00 -0.74505805969E-08  0.93827000000E+00  0.93827000000E+00 0. -1.
     999902    2    1    2    0    0 -0.12315628107E-01  0.17744373180E-01  0.99188755983E-02  0.10201619212E+01  0.10198850053E+01 0.  0.
     999903    2    3    3    0    0  0.45121701126E-01 -0.10263021736E-01 -0.11830725785E+00  0.12857602954E+00  0.19846676915E-01 0.  0.
         14    1    1    2    0    0  0.12315628107E-01 -0.17744373180E-01 -0.99188755983E-02  0.23768078769E-01  0.00000000000E+00 0.  1.
     999901    1    3    3    0    0 -0.57437329234E-01  0.28007394916E-01  0.12822613345E+00  0.89158589169E+00  0.88000000000E+00 0.  1.
        -11    1    4    4    0    0  0.21044075679E-01 -0.89106338139E-02 -0.80890340562E-01  0.84058080120E-01  0.51100000000E-03 0.  1.
         11    1    4    4    0    0  0.24077625447E-01 -0.13523879226E-02 -0.37416917290E-01  0.44517949422E-01  0.51100000000E-03 0. -1.
</event>
<event>
 8    1  0.1147454E+005  0.1043930E+01  0.7957747E-01            NaN
         13   -1    0    0    0    0  0.00000000000E+00  0.00000000000E+00  0.74505805969E-08  0.10566000000E+00  0.10566000000E+00 0. -1.
     999900   -1    0    0    0    0 -0.00000000000E+00 -0.00000000000E+00 -0.74505805969E-08  0.93827000000E+00  0.93827000000E+00 0.  1.
     999902    2    1    2    0    0  0.65293332396E-03 -0.11522947863E-01  0.20330589978E-01  0.10205518577E+01  0.10202840569E+01 0.  0.
     999903    2    3    3    0    0  0.88086583158E-01  0.87529028596E-01  0.34535099098E-01  0.13057561910E+00  0.20898379222E-01 0.  0.
         14    1    1    2    0    0 -0.65293332396E-03  0.11522947863E-01 -0.20330589978E-01  0.23378142318E-01  0.00000000000E+00 0.  1.
     999901    1    3    3    0    0 -0.87433649834E-01 -0.99051976459E-01 -0.14204509120E-01  0.88997623858E+00  0.88000000000E+00 0.  1.
        -11    1    4    4    0    0  0.34478396569E-01  0.34912757807E-01  0.24321780207E-01  0.54767422809E-01  0.51100000000E-03 0. -1.
         11    1    4    4    0    0  0.53608186588E-01  0.52616270789E-01  0.10213318891E-01  0.75808196290E-01  0.51100000000E-03 0.  1.
</event>
<event>
 8    1  0.1135368E+005  0.1043930E+01  0.7957747E-01            NaN
         13   -1    0    0    0    0  0.00000000000E+00  0.00000000000E+00  0.74505805969E-08  0.10566000000E+00  0.10566000000E+00 0. -1.
     999900   -1    0    0    0    0 -0.00000000000E+00 -0.00000000000E+00 -0.74505805969E-08  0.93827000000E+00  0.93827000000E+00 0.  1.
     999902    2    1    2    0    0 -0.41498340890E-02 -0.15302223349E-02  0.23306067242E-01  0.10202079538E+01  0.10199321221E+01 0.  0.
     999903    2    3    3    0    0  0.11533345032E-01 -0.12637865376E-01  0.13074761723E+00  0.13346502125E+00  0.20621319037E-01 0.  0.
         14    1    1    2    0    0  0.41498340890E-02  0.15302223349E-02 -0.23306067242E-01  0.23722046152E-01  0.00000000000E+00 0.  1.
     999901    1    3    3    0    0 -0.15683179121E-01  0.11107643041E-01 -0.10744154999E+00  0.88674293259E+00  0.88000000000E+00 0.  1.
        -11    1    4    4    0    0 -0.44527649362E-02 -0.85072033516E-02  0.63172348098E-01  0.63899971124E-01  0.51100000000E-03 0.  1.
         11    1    4    4    0    0  0.15986109968E-01 -0.41306620244E-02  0.67575269130E-01  0.69565050131E-01  0.51100000000E-03 0. -1.
</event>
<event>
 8    1  0.1135368E+005  0.1043930E+01  0.7957747E-01            NaN
         13   -1    0    0    0    0  0.00000000000E+00  0.00000000000E+00  0.74505805969E-08  0.10566000000E+00  0.10566000000E+00 0.  1.
     999900   -1    0    0    0    0 -0.00000000000E+00 -0.00000000000E+00 -0.74505805969E-08  0.93827000000E+00  0.93827000000E+00 0.  1.
     999902    2    1    2    0    0  0.21198590297E-01  0.64361011609E-02 -0.11696484881E-01  0.10188778267E+01  0.10185697886E+01 0.  0.
     999903    2    3    3    0    0 -0.12091950182E+00 -0.77519197621E-02 -0.30903762089E-01  0.12715602504E+00  0.23064995376E-01 0.  0.
         14    1    1    2    0    0 -0.21198590297E-01 -0.64361011609E-02  0.11696484881E-01  0.25052173305E-01  0.00000000000E+00 0.  1.
     999901    1    3    3    0    0  0.14211809212E+00  0.14188020923E-01  0.19207277208E-01  0.89172180165E+00  0.88000000000E+00 0.  1.
        -11    1    4    4    0    0 -0.90409963925E-01 -0.12947065796E-01 -0.30193058017E-01  0.96194958096E-01  0.51100000000E-03 0.  1.
         11    1    4    4    0    0 -0.30509537899E-01  0.51951460341E-02 -0.71070407192E-03  0.30961066946E-01  0.51100000000E-03 0. -1.
</event>
<event>
 8    1  0.1135368E+005  0.1043930E+01  0.7957747E-01            NaN
         13   -1    0    0    0    0  0.00000000000E+00  0.00000000000E+00  0.74505805969E-08  0.10566000000E+00  0.10566000000E+00 0. -1.
     999900   -1    0    0    0    0 -0.00000000000E+00 -0.00000000000E+00 -0.74505805969E-08  0.93827000000E+00  0.93827000000E+00 0.  1.
     999902    2    1    2    0    0  0.93009047479E-02  0.19704440980E-01  0.87696046691E-02  0.10204421778E+01  0.10201718289E+01 0.  0.
     999903    2    3    3    0    0 -0.61347219621E-01 -0.76396079580E-01  0.82090608518E-01  0.12937403391E+00  0.19973239931E-01 0.  0.
         14    1    1    2    0    0 -0.93009047479E-02 -0.19704440980E-01 -0.87696046691E-02  0.23487822154E-01  0.00000000000E+00 0.  1.
     999901    1    3    3    0    0  0.70648124369E-01  0.96100520560E-01 -0.73321003849E-01  0.89106814393E+00  0.88000000000E+00 0.  1.
        -11    1    4    4    0    0 -0.11659760729E-01 -0.44652525340E-02  0.86769520090E-02  0.15213123204E-01  0.51100000000E-03 0.  1.
         11    1    4    4    0    0 -0.49687458893E-01 -0.71930827046E-01  0.73413656509E-01  0.11416091071E+00  0.51100000000E-03 0. -1.
</event>
<event>
 8    1  0.1135368E+005  0.1043930E+01  0.7957747E-01            NaN
         13   -1    0    0    0    0  0.00000000000E+00  0.00000000000E+00  0.74505805969E-08  0.10566000000E+00  0.10566000000E+00 0.  1.
     999900   -1    0    0    0    0 -0.00000000000E+00 -0.00000000000E+00 -0.74505805969E-08  0.93827000000E+00  0.93827000000E+00 0. -1.
     999902    2    1    2    0    0 -0.48017761903E-02  0.15424935273E-01 -0.17220222482E-01  0.10203181016E+01  0.10200448553E+01 0.  0.
     999903    2    3    3    0    0 -0.12726388666E+00 -0.37264183408E-02  0.21726417207E-01  0.13077856704E+00  0.20518609860E-01 0.  0.
         14    1    1    2    0    0  0.48017761903E-02 -0.15424935273E-01  0.17220222482E-01  0.23611898380E-01  0.00000000000E+00 0. -1.
     999901    1    3    3    0    0  0.12246211047E+00  0.19151353614E-01 -0.38946639689E-01  0.88953953458E+00  0.88000000000E+00 0. -1.
        -11    1    4    4    0    0 -0.43303036323E-01 -0.10354480839E-01  0.39682958985E-02  0.44703207062E-01  0.51100000000E-03 0. -1.
         11    1    4    4    0    0 -0.83960850334E-01  0.66280624985E-02  0.17758121308E-01  0.86075359974E-01  0.51100000000E-03 0.  1.
</event>
<event>
 8    1  0.1135368E+005  0.1043930E+01  0.7957747E-01            NaN
         13   -1    0    0    0    0  0.00000000000E+00  0.00000000000E+00  0.74505805969E-08  0.10566000000E+00  0.10566000000E+00 0. -1.
     999900   -1    0    0    0    0 -0.00000000000E+00 -0.00000000000E+00 -0.74505805969E-08  0.93827000000E+00  0.93827000000E+00 0. -1.
     999902    2    1    2    0    0  0.21691823091E-01  0.15223345862E-01 -0.45087596674E-02  0.10170485127E+01  0.10166931999E+01 0.  0.
     999903    2    3    3    0    0 -0.12285750856E+00 -0.77299453099E-02  0.71294209096E-02  0.12488439653E+00  0.19787985955E-01 0.  0.
         14    1    1    2    0    0 -0.21691823091E-01 -0.15223345862E-01  0.45087596674E-02  0.26881487347E-01  0.00000000000E+00 0. -1.
     999901    1    3    3    0    0  0.14454933165E+00  0.22953291172E-01 -0.11638180577E-01  0.89216411613E+00  0.88000000000E+00 0.  1.
        -11    1    4    4    0    0 -0.52586147245E-01 -0.60624119225E-02  0.12479785343E-01  0.54388067474E-01  0.51100000000E-03 0. -1.
         11    1    4    4    0    0 -0.70271361319E-01 -0.16675333874E-02 -0.53503644332E-02  0.70496329052E-01  0.51100000000E-03 0.  1.
</event>
<event>
 8    1  0.1135368E+005  0.1043930E+01  0.7957747E-01            NaN
         13   -1    0    0    0    0  0.00000000000E+00  0.00000000000E+00  0.74505805969E-08  0.10566000000E+00  0.10566000000E+00 0.  1.
     999900   -1    0    0    0    0 -0.00000000000E+00 -0.00000000000E+00 -0.74505805969E-08  0.93827000000E+00  0.93827000000E+00 0.  1.
     999902    2    1    2    0    0  0.76124934364E-02  0.43896662823E-02 -0.22598257426E-01  0.10196833412E+01  0.10193950244E+01 0.  0.
     999903    2    3    3    0    0 -0.14192623726E-01 -0.12677716434E+00  0.49118640400E-02  0.12926938834E+00  0.20311779533E-01 0.  0.
         14    1    1    2    0    0 -0.76124934364E-02 -0.43896662823E-02  0.22598257426E-01  0.24246658844E-01  0.00000000000E+00 0.  1.
     999901    1    3    3    0    0  0.21805117162E-01  0.13116683062E+00 -0.27510121466E-01  0.89041395282E+00  0.88000000000E+00 0. -1.
        -11    1    4    4    0    0 -0.36877883400E-02 -0.74951098577E-01 -0.59640740627E-02  0.75280131916E-01  0.51100000000E-03 0. -1.
         11    1    4    4    0    0 -0.10504835386E-01 -0.51826065759E-01  0.10875938103E-01  0.53989256423E-01  0.51100000000E-03 0.  1.
</event>
<event>
 8    1  0.1135368E+005  0.1043930E+01  0.7957747E-01            NaN
         13   -1    0    0    0    0  0.00000000000E+00  0.00000000000E+00  0.74505805969E-08  0.10566000000E+00  0.10566000000E+00 0.  1.
     999900   -1    0    0    0    0 -0.00000000000E+00 -0.00000000000E+00 -0.74505805969E-08  0.93827000000E+00  0.93827000000E+00 0. -1.
     999902    2    1    2    0    0  0.19115289646E-01  0.31494204964E-02 -0.12090951223E-01  0.10210935325E+01  0.10208381350E+01 0.  0.
     999903    2    3    3    0    0  0.10763925881E+00 -0.55656682259E-01  0.48184235187E-01  0.13265234200E+00  0.24311458200E-01 0.  0.
         14    1    1    2    0    0 -0.19115289646E-01 -0.31494204964E-02  0.12090951223E-01  0.22836467529E-01  0.00000000000E+00 0.  1.
     999901    1    3    3    0    0 -0.88523969160E-01  0.58806102755E-01 -0.60275186410E-01  0.88844119048E+00  0.88000000000E+00 0. -1.
        -11    1    4    4    0    0  0.82339550213E-01 -0.42509788040E-01  0.25215636954E-01  0.96036311239E-01  0.51100000000E-03 0. -1.
         11    1    4    4    0    0  0.25299708594E-01 -0.13146894219E-01  0.22968598233E-01  0.36616030756E-01  0.51100000000E-03 0.  1.
</event>
<event>
 8    1  0.1135368E+005  0.1043930E+01  0.7957747E-01            NaN
         13   -1    0    0    0    0  0.00000000000E+00  0.00000000000E+00  0.74505805969E-08  0.10566000000E+00  0.10566000000E+00 0.  1.
     999900   -1    0    0    0    0 -0.00000000000E+00 -0.00000000000E+00 -0.74505805969E-08  0.93827000000E+00  0.93827000000E+00 0. -1.
     999902    2    1    2    0    0 -0.17454849113E-01 -0.12113479061E-01 -0.83098862641E-02  0.10211163562E+01  0.10208614747E+01 0.  0.
     999903    2    3    3    0    0 -0.24590475063E-02  0.75927595709E-01  0.10306556901E+00  0.12961167483E+00  0.20140209349E-01 0.  0.
         14    1    1    2    0    0  0.17454849113E-01  0.12113479061E-01  0.83098862641E-02  0.22813643773E-01  0.00000000000E+00 0.  1.
     999901    1    3    3    0    0 -0.14995801606E-01 -0.88041074770E-01 -0.11137545527E+00  0.89150468140E+00  0.88000000000E+00 0. -1.
        -11    1    4    4    0    0  0.63229546339E-02  0.18580154271E-01  0.17942868356E-01  0.26597171539E-01  0.51100000000E-03 0. -1.
         11    1    4    4    0    0 -0.87820021402E-02  0.57347441438E-01  0.85122700653E-01  0.10301450329E+00  0.51100000000E-03 0.  1.
</event>
<event>
 8    1  0.1135368E+005  0.1043930E+01  0.7957747E-01            NaN
         13   -1    0    0    0    0  0.00000000000E+00  0.00000000000E+00  0.74505805969E-08  0.10566000000E+00  0.10566000000E+00 0. -1.
     999900   -1    0    0    0    0 -0.00000000000E+00 -0.00000000000E+00 -0.74505805969E-08  0.93827000000E+00  0.93827000000E+00 0.  1.
     999902    2    1    2    0    0  0.21703899239E-01  0.80488349033E-02 -0.93607734547E-03  0.10207627985E+01  0.10204998636E+01 0.  0.
     999903    2    3    3    0    0 -0.12498745303E+00 -0.11685411550E-01 -0.18337165657E-01  0.12823235576E+00  0.18678146575E-01 0.  0.
         14    1    1    2    0    0 -0.21703899239E-01 -0.80488349033E-02  0.93607734547E-03  0.23167201521E-01  0.00000000000E+00 0. -1.
     999901    1    3    3    0    0  0.14669135227E+00  0.19734246453E-01  0.17401088311E-01  0.89253044272E+00  0.88000000000E+00 0.  1.
        -11    1    4    4    0    0 -0.85759499858E-01 -0.89452627814E-04 -0.16121870659E-01  0.87263254880E-01  0.51100000000E-03 0.  1.
         11    1    4    4    0    0 -0.39227953175E-01 -0.11595958922E-01 -0.22152949977E-02  0.40969100875E-01  0.51100000000E-03 0. -1.
</event>
<event>
 8    1  0.1135368E+005  0.1043930E+01  0.7957747E-01            NaN
         13   -1    0    0    0    0  0.00000000000E+00  0.00000000000E+00  0.74505805969E-08  0.10566000000E+00  0.10566000000E+00 0.  1.
     999900   -1    0    0    0    0 -0.00000000000E+00 -0.00000000000E+00 -0.74505805969E-08  0.93827000000E+00  0.93827000000E+00 0. -1.
     999902    2    1    2    0    0  0.62135201365E-02  0.22107756931E-01 -0.61914142789E-02  0.10201456699E+01  0.10198683706E+01 0.  0.
     999903    2    3    3    0    0 -0.73407906715E-01 -0.20420245933E-01  0.10219688314E+00  0.12891268930E+00  0.19198211547E-01 0.  0.
         14    1    1    2    0    0 -0.62135201365E-02 -0.22107756931E-01  0.61914142789E-02  0.23784330131E-01  0.00000000000E+00 0.  1.
     999901    1    3    3    0    0  0.79621426851E-01  0.42528002865E-01 -0.10838829742E+00  0.89123298057E+00  0.88000000000E+00 0. -1.
        -11    1    4    4    0    0 -0.36901509033E-01 -0.10170514401E-01  0.35600011972E-01  0.52276024194E-01  0.51100000000E-03 0. -1.
         11    1    4    4    0    0 -0.36506397682E-01 -0.10249731533E-01  0.66596871165E-01  0.76636665103E-01  0.51100000000E-03 0.  1.
</event>
<event>
 8    1  0.1135368E+005  0.1043930E+01  0.7957747E-01            NaN
         13   -1    0    0    0    0  0.00000000000E+00  0.00000000000E+00  0.74505805969E-08  0.10566000000E+00  0.10566000000E+00 0. -1.
     999900   -1    0    0    0    0 -0.00000000000E+00 -0.00000000000E+00 -0.74505805969E-08  0.93827000000E+00  0.93827000000E+00 0.  1.
     999902    2    1    2    0    0  0.21011146155E-01 -0.69930007892E-02  0.59720505647E-02  0.10209945316E+01  0.10207368896E+01 0.  0.
     999903    2    3    3    0    0  0.87063604408E-01  0.62765068150E-01  0.75709784112E-01  0.13302354846E+00  0.21065802652E-01 0.  0.
         14    1    1    2    0    0 -0.21011146155E-01  0.69930007892E-02 -0.59720505647E-02  0.22935468400E-01  0.00000000000E+00 0. -1.
     999901    1    3    3    0    0 -0.66052458253E-01 -0.69758068940E-01 -0.69737733548E-01  0.88797098314E+00  0.88000000000E+00 0.  1.
        -11    1    4    4    0    0  0.84382635058E-01  0.57917907459E-01  0.65847780496E-01  0.12170088094E+00  0.51100000000E-03 0. -1.
         11    1    4    4    0    0  0.26809693497E-02  0.48471606914E-02  0.98620036168E-02  0.11322667520E-01  0.51100000000E-03 0.  1.
</event>
<event>
 8    1  0.1135368E+005  0.1043930E+01  0.7957747E-01            NaN
         13   -1    0    0    0    0  0.00000000000E+00  0.00000000000E+00  0.74505805969E-08  0.10566000000E+00  0.10566000000E+00 0.  1.
     999900   -1    0    0    0    0 -0.00000000000E+00 -0.00000000000E+00 -0.74505805969E-08  0.93827000000E+00  0.93827000000E+00 0.  1.
     999902    2    1    2    0    0  0.15452534806E-01  0.10960577023E-01  0.13845251966E-01  0.10204650030E+01  0.10201951854E+01 0.  0.
     999903    2    3    3    0    0 -0.11862983855E+00  0.90855407252E-04  0.48119489171E-01  0.12958288006E+00  0.20079609510E-01 0.  0.
         14    1    1    2    0    0 -0.15452534806E-01 -0.10960577023E-01 -0.13845251966E-01  0.23464996966E-01  0.00000000000E+00 0. -1.
     999901    1    3    3    0    0  0.13408237336E+00  0.10869721616E-01 -0.34274237204E-01  0.89088212297E+00  0.88000000000E+00 0. -1.
        -11    1    4    4    0    0 -0.58712781347E-01 -0.76216259869E-02  0.16860998115E-01  0.61561629726E-01  0.51100000000E-03 0.  1.
         11    1    4    4    0    0 -0.59917057204E-01  0.77124813942E-02  0.31258491055E-01  0.68021250337E-01  0.51100000000E-03 0. -1.
</event>
<event>
 8    1  0.1135368E+005  0.1043930E+01  0.7957747E-01            NaN
         13   -1    0    0    0    0  0.00000000000E+00  0.00000000000E+00  0.74505805969E-08  0.10566000000E+00  0.10566000000E+00 0. -1.
     999900   -1    0    0    0    0 -0.00000000000E+00 -0.00000000000E+00 -0.74505805969E-08  0.93827000000E+00  0.93827000000E+00 0.  1.
     999902    2    1    2    0    0 -0.23128107271E-01  0.36250213367E-02 -0.46550332190E-03  0.10205149019E+01  0.10202462439E+01 0.  0.
     999903    2    3    3    0    0  0.66331481574E-01 -0.30892032805E-01  0.10448738046E+00  0.12910615566E+00  0.19914909332E-01 0.  0.
         14    1    1    2    0    0  0.23128107271E-01 -0.36250213367E-02  0.46550332190E-03  0.23415098099E-01  0.00000000000E+00 0.  1.
     999901    1    3    3    0    0 -0.89459588846E-01  0.34517054141E-01 -0.10495288379E+00  0.89140874624E+00  0.88000000000E+00 0.  1.
        -11    1    4    4    0    0  0.23877821571E-01 -0.10194408918E-01  0.54287784138E-01  0.60178907964E-01  0.51100000000E-03 0.  1.
         11    1    4    4    0    0  0.42453660003E-01 -0.20697623887E-01  0.50199596327E-01  0.68927247694E-01  0.51100000000E-03 0. -1.
</event>
<event>
 8    1  0.1135368E+005  0.1043930E+01  0.7957747E-01            NaN
         13   -1    0    0    0    0  0.00000000000E+00  0.00000000000E+00  0.74505805969E-08  0.10566000000E+00  0.10566000000E+00 0.  1.
     999900   -1    0    0    0    0 -0.00000000000E+00 -0.00000000000E+00 -0.74505805969E-08  0.93827000000E+00  0.93827000000E+00 0.  1.
     999902    2    1    2    0    0  0.20341558249E-01  0.66450846921E-03  0.10265677747E-01  0.10211351606E+01  0.10208807039E+01 0.  0.
     999903    2    3    3    0    0  0.70726213106E-01 -0.99686389598E-01  0.48547292318E-01  0.13317435167E+00  0.20952204176E-01 0.  0.
         14    1    1    2    0    0 -0.20341558249E-01 -0.66450846921E-03 -0.10265677747E-01  0.22794839397E-01  0.00000000000E+00 0. -1.
     999901    1    3    3    0    0 -0.50384654857E-01  0.10035089807E+00 -0.38281614571E-01  0.88796080893E+00  0.88000000000E+00 0. -1.
        -11    1    4    4    0    0  0.78258053787E-02 -0.24039619364E-01  0.13992338102E-01  0.28899708918E-01  0.51100000000E-03 0. -1.
         11    1    4    4    0    0  0.62900407728E-01 -0.75646770234E-01  0.34554954216E-01  0.10427464275E+00  0.51100000000E-03 0.  1.
</event>
<event>
 8    1  0.1135368E+005  0.1043930E+01  0.7957747E-01            NaN
         13   -1    0    0    0    0  0.00000000000E+00  0.00000000000E+00  0.74505805969E-08  0.10566000000E+00  0.10566000000E+00 0.  1.
     999900   -1    0    0    0    0 -0.00000000000E+00 -0.00000000000E+00 -0.74505805969E-08  0.93827000000E+00  0.93827000000E+00 0. -1.
     999902    2    1    2    0    0  0.21090962621E-01  0.51297385679E-02 -0.79579378866E-02  0.10208113561E+01  0.10205495348E+01 0.  0.
     999903    2    3    3    0    0 -0.34387333539E-01 -0.99373129317E-01  0.72412615709E-01  0.12926319885E+00  0.20196042325E-01 0.  0.
         14    1    1    2    0    0 -0.21090962621E-01 -0.51297385679E-02  0.79579378866E-02  0.23118643937E-01  0.00000000000E+00 0.  1.
     999901    1    3    3    0    0  0.55478296160E-01  0.10450286788E+00 -0.80370553595E-01  0.89154815721E+00  0.88000000000E+00 0. -1.
        -11    1    4    4    0    0 -0.21488376471E-01 -0.37064567913E-01  0.35912137196E-01  0.55905949924E-01  0.51100000000E-03 0.  1.
         11    1    4    4    0    0 -0.12898957067E-01 -0.62308561403E-01  0.36500478513E-01  0.73357248928E-01  0.51100000000E-03 0. -1.
</event>
<event>
 8    1  0.1135368E+005  0.1043930E+01  0.7957747E-01            NaN
         13   -1    0    0    0    0  0.00000000000E+00  0.00000000000E+00  0.74505805969E-08  0.10566000000E+00  0.10566000000E+00 0.  1.
     999900   -1    0    0    0    0 -0.00000000000E+00 -0.00000000000E+00 -0.74505805969E-08  0.93827000000E+00  0.93827000000E+00 0.  1.
     999902    2    1    2    0    0 -0.22296492523E-01  0.83788070233E-02  0.18910228366E-02  0.10200361942E+01  0.10197563060E+01 0.  0.
     999903    2    3    3    0    0  0.12068675336E+00 -0.27426158594E-01  0.24104779105E-01  0.12750067387E+00  0.18918109068E-01 0.  0.
         14    1    1    2    0    0  0.22296492523E-01 -0.83788070233E-02 -0.18910228366E-02  0.23893805752E-01  0.00000000000E+00 0.  1.
     999901    1    3    3    0    0 -0.14298324588E+00  0.35804965617E-01 -0.22213756269E-01  0.89253552038E+00  0.88000000000E+00 0. -1.
        -11    1    4    4    0    0  0.58941162013E-01 -0.16837289299E-01  0.29339469613E-02  0.61371198914E-01  0.51100000000E-03 0.  1.
         11    1    4    4    0    0  0.61745591345E-01 -0.10588869294E-01  0.21170832144E-01  0.66129474957E-01  0.51100000000E-03 0. -1.
</event>
<event>
 8    1  0.1135368E+005  0.1043930E+01  0.7957747E-01            NaN
         13   -1    0    0    0    0  0.00000000000E+00  0.00000000000E+00  0.74505805969E-08  0.10566000000E+00  0.10566000000E+00 0.  1.
     999900   -1    0    0    0    0 -0.00000000000E+00 -0.00000000000E+00 -0.74505805969E-08  0.93827000000E+00  0.93827000000E+00 0. -1.
     999902    2    1    2    0    0  0.82893488910E-02  0.25454503776E-01  0.34600988990E-02  0.10169370870E+01  0.10165787828E+01 0.  0.
     999903    2    3    3    0    0  0.44147701887E-01 -0.36264922125E-01  0.11206085852E+00  0.12739269014E+00  0.20176653086E-01 0.  0.
         14    1    1    2    0    0 -0.82893488910E-02 -0.25454503776E-01 -0.34600988990E-02  0.26992912994E-01  0.00000000000E+00 0.  1.
     999901    1    3    3    0    0 -0.35858352996E-01  0.61719425900E-01 -0.10860075962E+00  0.88954439687E+00  0.88000000000E+00 0. -1.
        -11    1    4    4    0    0  0.37299908641E-01 -0.33788260814E-01  0.10772380631E+00  0.11890167922E+00  0.51100000000E-03 0.  1.
         11    1    4    4    0    0  0.68477932456E-02 -0.24766613109E-02  0.43370522067E-02  0.84910109190E-02  0.51100000000E-03 0. -1.
</event>
<event>
 8    1  0.1135368E+005  0.1043930E+01  0.7957747E-01            NaN
         13   -1    0    0    0    0  0.00000000000E+00  0.00000000000E+00  0.74505805969E-08  0.10566000000E+00  0.10566000000E+00 0.  1.
     999900   -1    0    0    0    0 -0.00000000000E+00 -0.00000000000E+00 -0.74505805969E-08  0.93827000000E+00  0.93827000000E+00 0. -1.
     999902    2    1    2    0    0 -0.20038796290E-01 -0.30512476199E-02  0.11897704084E-01  0.10204264081E+01  0.10201556918E+01 0.  0.
     999903    2    3    3    0    0 -0.11659982395E+00 -0.74404510131E-02 -0.58763170458E-01  0.13231816226E+00  0.20102402973E-01 0.  0.
         14    1    1    2    0    0  0.20038796290E-01  0.30512476199E-02 -0.11897704084E-01  0.23503591880E-01  0.00000000000E+00 0.  1.
     999901    1    3    3    0    0  0.96561027662E-01  0.43892033932E-02  0.70660874542E-01  0.88810824586E+00  0.88000000000E+00 0.  1.
        -11    1    4    4    0    0 -0.28513841500E-01  0.12692432315E-02 -0.23725624922E-01  0.37118951149E-01  0.51100000000E-03 0.  1.
         11    1    4    4    0    0 -0.88085982452E-01 -0.87096942446E-02 -0.35037545536E-01  0.95199211113E-01  0.51100000000E-03 0. -1.
</event>
<event>
 8    1  0.1135368E+005  0.1043930E+01  0.7957747E-01            NaN
         13   -1    0    0    0    0  0.00000000000E+00  0.00000000000E+00  0.74505805969E-08  0.10566000000E+00  0.10566000000E+00 0. -1.
     999900   -1    0    0    0    0 -0.00000000000E+00 -0.00000000000E+00 -0.74505805969E-08  0.93827000000E+00  0.93827000000E+00 0.  1.
     999902    2    1    2    0    0  0.18916390802E-01  0.55089311092E-02 -0.12118154945E-01  0.10207993311E+01  0.10205372343E+01 0.  0.
     999903    2    3    3    0    0  0.79209946823E-01 -0.47375671258E-04  0.10253658389E+00  0.13129840669E+00  0.21243884877E-01 0.  0.
         14    1    1    2    0    0 -0.18916390802E-01 -0.55089311092E-02  0.12118154945E-01  0.23130668867E-01  0.00000000000E+00 0. -1.
     999901    1    3    3    0    0 -0.60293556021E-01  0.55563067805E-02 -0.11465473883E+00  0.88950092444E+00  0.88000000000E+00 0.  1.
        -11    1    4    4    0    0  0.44447694797E-01  0.10340288221E-01  0.60114004781E-01  0.75474988076E-01  0.51100000000E-03 0.  1.
         11    1    4    4    0    0  0.34762252026E-01 -0.10387663892E-01  0.42422579107E-01  0.55823418617E-01  0.51100000000E-03 0. -1.
</event>
<event>
 8    1  0.1135368E+005  0.1043930E+01  0.7957747E-01            NaN
         13   -1    0    0    0    0  0.00000000000E+00  0.00000000000E+00  0.74505805969E-08  0.10566000000E+00  0.10566000000E+00 0.  1.
     999900   -1    0    0    0    0 -0.00000000000E+00 -0.00000000000E+00 -0.74505805969E-08  0.93827000000E+00  0.93827000000E+00 0.  1.
     999902    2    1    2    0    0 -0.16700822115E-02  0.11928837744E-01  0.21006121102E-01  0.10197154699E+01  0.10194279259E+01 0.  0.
     999903    2    3    3    0    0 -0.94038049163E-01 -0.85192353527E-01 -0.11732706395E-01  0.12896511321E+00  0.19835630446E-01 0.  0.
         14    1    1    2    0    0  0.16700822115E-02 -0.11928837744E-01 -0.21006121102E-01  0.24214530106E-01  0.00000000000E+00 0. -1.
     999901    1    3    3    0    0  0.92367966951E-01  0.97121191272E-01  0.32738827497E-01  0.89075035669E+00  0.88000000000E+00 0. -1.
        -11    1    4    4    0    0 -0.57659999377E-01 -0.45817477917E-01  0.18100415495E-02  0.73671257504E-01  0.51100000000E-03 0.  1.
         11    1    4    4    0    0 -0.36378049785E-01 -0.39374875611E-01 -0.13542747945E-01  0.55293855702E-01  0.51100000000E-03 0. -1.
</event>
<event>
 8    1  0.1135368E+005  0.1043930E+01  0.7957747E-01            NaN
         13   -1    0    0    0    0  0.00000000000E+00  0.00000000000E+00  0.74505805969E-08  0.10566000000E+00  0.10566000000E+00 0.  1.
     999900   -1    0    0    0    0 -0.00000000000E+00 -0.00000000000E+00 -0.74505805969E-08  0.93827000000E+00  0.93827000000E+00 0. -1.
     999902    2    1    2    0    0  0.13717140831E-01 -0.20367023770E-01 -0.52180246897E-02  0.10188261479E+01  0.10185168218E+01 0.  0.
     999903    2    3    3    0    0  0.67959511890E-01  0.76346476847E-01  0.74474730063E-01  0.12829446894E+00  0.21580212247E-01 0.  0.
         14    1    1    2    0    0 -0.13717140831E-01  0.20367023770E-01  0.52180246897E-02  0.25103852124E-01  0.00000000000E+00 0.  1.
     999901    1    3    3    0    0 -0.54242371059E-01 -0.96713500616E-01 -0.79692754753E-01  0.89053167893E+00  0.88000000000E+00 0. -1.
        -11    1    4    4    0    0  0.35131989209E-01  0.41450580023E-01  0.26367512890E-01  0.60397964428E-01  0.51100000000E-03 0.  1.
         11    1    4    4    0    0  0.32827522681E-01  0.34895896824E-01  0.48107217173E-01  0.67896504517E-01  0.51100000000E-03 0. -1.
</event>
<event>
 8    1  0.1135368E+005  0.1043930E+01  0.7957747E-01            NaN
         13   -1    0    0    0    0  0.00000000000E+00  0.00000000000E+00  0.74505805969E-08  0.10566000000E+00  0.10566000000E+00 0. -1.
     999900   -1    0    0    0    0 -0.00000000000E+00 -0.00000000000E+00 -0.74505805969E-08  0.93827000000E+00  0.93827000000E+00 0. -1.
     999902    2    1    2    0    0 -0.30500309309E-01 -0.13137763711E-02  0.20320152373E-01  0.10072570744E+01  0.10065892462E+01 0.  0.
     999903    2    3    3    0    0  0.20887161732E-01  0.94559775843E-01  0.66807371439E-01  0.11934183540E+00  0.20035569991E-01 0.  0.
         14    1    1    2    0    0  0.30500309309E-01  0.13137763711E-02 -0.20320152373E-01  0.36672925555E-01  0.00000000000E+00 0.  1.
     999901    1    3    3    0    0 -0.51387471041E-01 -0.95873552215E-01 -0.46487219066E-01  0.88791523905E+00  0.88000000000E+00 0. -1.
        -11    1    4    4    0    0  0.64637288122E-03  0.40573385017E-01  0.20945525049E-01  0.45668298744E-01  0.51100000000E-03 0.  1.
         11    1    4    4    0    0  0.20240788851E-01  0.53986390827E-01  0.45861846391E-01  0.73673536655E-01  0.51100000000E-03 0. -1.
</event>
<event>
 8    1  0.1135368E+005  0.1043930E+01  0.7957747E-01            NaN
         13   -1    0    0    0    0  0.00000000000E+00  0.00000000000E+00  0.74505805969E-08  0.10566000000E+00  0.10566000000E+00 0. -1.
     999900   -1    0    0    0    0 -0.00000000000E+00 -0.00000000000E+00 -0.74505805969E-08  0.93827000000E+00  0.93827000000E+00 0. -1.
     999902    2    1    2    0    0 -0.14834575229E-01 -0.11217488288E-01 -0.13736873426E-01  0.10208086169E+01  0.10205467329E+01 0.  0.
     999903    2    3    3    0    0  0.74628685653E-01  0.53027763997E-01  0.87542494232E-01  0.12817843713E+00  0.19612214882E-01 0.  0.
         14    1    1    2    0    0  0.14834575229E-01  0.11217488288E-01  0.13736873426E-01  0.23121383117E-01  0.00000000000E+00 0. -1.
     999901    1    3    3    0    0 -0.89463260881E-01 -0.64245252285E-01 -0.10127936766E+00  0.89263017975E+00  0.88000000000E+00 0. -1.
        -11    1    4    4    0    0  0.36554219490E-01  0.34708674841E-01  0.56671954299E-01  0.75847706602E-01  0.51100000000E-03 0.  1.
         11    1    4    4    0    0  0.38074466162E-01  0.18319089157E-01  0.30870539932E-01  0.52330730530E-01  0.51100000000E-03 0. -1.
</event>
<event>
 8    1  0.1135368E+005  0.1043930E+01  0.7957747E-01            NaN
         13   -1    0    0    0    0  0.00000000000E+00  0.00000000000E+00  0.74505805969E-08  0.10566000000E+00  0.10566000000E+00 0. -1.
     999900   -1    0    0    0    0 -0.00000000000E+00 -0.00000000000E+00 -0.74505805969E-08  0.93827000000E+00  0.93827000000E+00 0. -1.
     999902    2    1    2    0    0  0.35652180949E-02 -0.16767169883E-01 -0.16070436222E-01  0.10204330281E+01  0.10201624661E+01 0.  0.
     999903    2    3    3    0    0  0.87225202144E-01 -0.56728165926E-01 -0.80764346993E-01  0.13320071571E+00  0.19830033350E-01 0.  0.
         14    1    1    2    0    0 -0.35652180949E-02  0.16767169883E-01  0.16070436222E-01  0.23496971854E-01  0.00000000000E+00 0. -1.
     999901    1    3    3    0    0 -0.83659984049E-01  0.39960996043E-01  0.64693910770E-01  0.88723231243E+00  0.88000000000E+00 0.  1.
        -11    1    4    4    0    0  0.60481548553E-01 -0.35916267111E-01 -0.42941342312E-01  0.82414901317E-01  0.51100000000E-03 0.  1.
         11    1    4    4    0    0  0.26743653591E-01 -0.20811898815E-01 -0.37823004681E-01  0.50785814395E-01  0.51100000000E-03 0. -1.
</event>
<event>
 8    1  0.1135368E+005  0.1043930E+01  0.7957747E-01            NaN
         13   -1    0    0    0    0  0.00000000000E+00  0.00000000000E+00  0.74505805969E-08  0.10566000000E+00  0.10566000000E+00 0.  1.
     999900   -1    0    0    0    0 -0.00000000000E+00 -0.00000000000E+00 -0.74505805969E-08  0.93827000000E+00  0.93827000000E+00 0. -1.
     999902    2    1    2    0    0  0.25501122738E-02  0.20968472159E-01 -0.11003071174E-01  0.10201130423E+01  0.10198349728E+01 0.  0.
     999903    2    3    3    0    0 -0.70100101699E-01  0.11065530893E+00  0.15581376338E-02  0.13248723928E+00  0.19794421610E-01 0.  0.
         14    1    1    2    0    0 -0.25501122738E-02 -0.20968472159E-01  0.11003071174E-01  0.23816957668E-01  0.00000000000E+00 0.  1.
     999901    1    3    3    0    0  0.72650213973E-01 -0.89686836768E-01 -0.12561208808E-01  0.88762580305E+00  0.88000000000E+00 0.  1.
        -11    1    4    4    0    0 -0.69443611587E-02  0.21959860244E-01  0.48955682697E-02  0.23551800855E-01  0.51100000000E-03 0. -1.
         11    1    4    4    0    0 -0.63155740540E-01  0.88695448683E-01 -0.33374306359E-02  0.10893543842E+00  0.51100000000E-03 0.  1.
</event>
<event>
 8    1  0.1135368E+005  0.1043930E+01  0.7957747E-01            NaN
         13   -1    0    0    0    0  0.00000000000E+00  0.00000000000E+00  0.74505805969E-08  0.10566000000E+00  0.10566000000E+00 0. -1.
     999900   -1    0    0    0    0 -0.00000000000E+00 -0.00000000000E+00 -0.74505805969E-08  0.93827000000E+00  0.93827000000E+00 0.  1.
     999902    2    1    2    0    0  0.24744555956E-01  0.30443648069E-02 -0.98913928890E-02  0.10171083509E+01  0.10167546393E+01 0.  0.
     999903    2    3    3    0    0 -0.11519516735E+00  0.23766571538E-01 -0.38580996495E-01  0.12534850131E+00  0.19722499515E-01 0.  0.
         14    1    1    2    0    0 -0.24744555956E-01 -0.30443648069E-02  0.98913928890E-02  0.26821649089E-01  0.00000000000E+00 0.  1.
     999901    1    3    3    0    0  0.13993972330E+00 -0.20722206731E-01  0.28689603606E-01  0.89175984960E+00  0.88000000000E+00 0. -1.
        -11    1    4    4    0    0 -0.58982413626E-01  0.12573183045E-01 -0.30106514357E-01  0.67406775451E-01  0.51100000000E-03 0.  1.
         11    1    4    4    0    0 -0.56212753720E-01  0.11193388492E-01 -0.84744821377E-02  0.57941725857E-01  0.51100000000E-03 0. -1.
</event>
<event>
 8    1  0.1135368E+005  0.1043930E+01  0.7957747E-01            NaN
         13   -1    0    0    0    0  0.00000000000E+00  0.00000000000E+00  0.74505805969E-08  0.10566000000E+00  0.10566000000E+00 0.  1.
     999900   -1    0    0    0    0 -0.00000000000E+00 -0.00000000000E+00 -0.74505805969E-08  0.93827000000E+00  0.93827000000E+00 0.  1.
     999902    2    1    2    0    0  0.21233251991E-01 -0.50480890244E-02 -0.73407109869E-02  0.10209034885E+01  0.10206437736E+01 0.  0.
     999903    2    3    3    0    0  0.26743134953E-01  0.12664522087E+00 -0.66522480896E-02  0.13108667555E+00  0.19627961318E-01 0.  0.
         14    1    1    2    0    0 -0.21233251991E-01  0.50480890244E-02  0.73407109869E-02  0.23026511475E-01  0.00000000000E+00 0.  1.
     999901    1    3    3    0    0 -0.55098829615E-02 -0.13169330989E+00 -0.68846289737E-03  0.88981681298E+00  0.88000000000E+00 0.  1.
        -11    1    4    4    0    0  0.14454390072E-01  0.86539291207E-01  0.39142137223E-02  0.87826878033E-01  0.51100000000E-03 0.  1.
         11    1    4    4    0    0  0.12288744881E-01  0.40105929659E-01 -0.10566461812E-01  0.43259797512E-01  0.51100000000E-03 0. -1.
</event>
<event>
 8    1  0.1135368E+005  0.1043930E+01  0.7957747E-01            NaN
         13   -1    0    0    0    0  0.00000000000E+00  0.00000000000E+00  0.74505805969E-08  0.10566000000E+00  0.10566000000E+00 0.  1.
     999900   -1    0    0    0    0 -0.00000000000E+00 -0.00000000000E+00 -0.74505805969E-08  0.93827000000E+00  0.93827000000E+00 0. -1.
     999902    2    1    2    0    0 -0.10164053564E-01  0.78149479005E-02  0.20193808627E-01  0.10200098975E+01  0.10197293855E+01 0.  0.
     999903    2    3    3    0    0 -0.11687982771E+00 -0.42260484075E-01 -0.34257682236E-01  0.13048149989E+00  0.20124372846E-01 0.  0.
         14    1    1    2    0    0  0.10164053564E-01 -0.78149479005E-02 -0.20193808627E-01  0.23920102475E-01  0.00000000000E+00 0. -1.
     999901    1    3    3    0    0  0.10671577414E+00  0.50075431975E-01  0.54451490863E-01  0.88952839763E+00  0.88000000000E+00 0.  1.
        -11    1    4    4    0    0 -0.86943712896E-01 -0.26789043789E-01 -0.32926262681E-01  0.96753614787E-01  0.51100000000E-03 0.  1.
         11    1    4    4    0    0 -0.29936114813E-01 -0.15471440286E-01 -0.13314195546E-02  0.33727885104E-01  0.51100000000E-03 0. -1.
</event>
<event>
 8    1  0.1135368E+005  0.1043930E+01  0.7957747E-01            NaN
         13   -1    0    0    0    0  0.00000000000E+00  0.00000000000E+00  0.74505805969E-08  0.10566000000E+00  0.10566000000E+00 0. -1.
     999900   -1    0    0    0    0 -0.00000000000E+00 -0.00000000000E+00 -0.74505805969E-08  0.93827000000E+00  0.93827000000E+00 0.  1.
     999902    2    1    2    0    0 -0.17190943407E-01  0.15366763208E-01  0.24843008451E-02  0.10207386719E+01  0.10204751828E+01 0.  0.
     999903    2    3    3    0    0 -0.65105142999E-01  0.79056741926E-01  0.83225701150E-01  0.13345553920E+00  0.19880028233E-01 0.  0.
         14    1    1    2    0    0  0.17190943407E-01 -0.15366763208E-01 -0.24843008451E-02  0.23191328065E-01  0.00000000000E+00 0.  1.
     999901    1    3    3    0    0  0.47914199591E-01 -0.63689978718E-01 -0.80741400305E-01  0.88728313273E+00  0.88000000000E+00 0.  1.
        -11    1    4    4    0    0 -0.25335743473E-01  0.27806612398E-01  0.18916514207E-01  0.42109419625E-01  0.51100000000E-03 0. -1.
         11    1    4    4    0    0 -0.39769399525E-01  0.51250129528E-01  0.64309186943E-01  0.91346119576E-01  0.51100000000E-03 0.  1.
</event>
<event>
 8    1  0.1135368E+005  0.1043930E+01  0.7957747E-01            NaN
         13   -1    0    0    0    0  0.00000000000E+00  0.00000000000E+00  0.74505805969E-08  0.10566000000E+00  0.10566000000E+00 0.  1.
     999900   -1    0    0    0    0 -0.00000000000E+00 -0.00000000000E+00 -0.74505805969E-08  0.93827000000E+00  0.93827000000E+00 0.  1.
     999902    2    1    2    0    0  0.11850303764E-01  0.18650352047E-01  0.92354142216E-02  0.10199809247E+01  0.10196997247E+01 0.  0.
     999903    2    3    3    0    0 -0.28623996196E-02 -0.32843361981E-01 -0.12268040396E+00  0.12853835825E+00  0.19615001121E-01 0.  0.
         14    1    1    2    0    0 -0.11850303764E-01 -0.18650352047E-01 -0.92354142216E-02  0.23949075277E-01  0.00000000000E+00 0. -1.
     999901    1    3    3    0    0  0.14712703383E-01  0.51493714028E-01  0.13191581818E+00  0.89144256647E+00  0.88000000000E+00 0. -1.
        -11    1    4    4    0    0 -0.79889357500E-02 -0.14881382516E-01 -0.34703434540E-01  0.38598809954E-01  0.51100000000E-03 0. -1.
         11    1    4    4    0    0  0.51265361304E-02 -0.17961979465E-01 -0.87976969421E-01  0.89939548300E-01  0.51100000000E-03 0.  1.
</event>
<event>
 8    1  0.1135368E+005  0.1043930E+01  0.7957747E-01            NaN
         13   -1    0    0    0    0  0.00000000000E+00  0.00000000000E+00  0.74505805969E-08  0.10566000000E+00  0.10566000000E+00 0.  1.
     999900   -1    0    0    0    0 -0.00000000000E+00 -0.00000000000E+00 -0.74505805969E-08  0.93827000000E+00  0.93827000000E+00 0.  1.
     999902    2    1    2    0    0  0.18335780920E-01 -0.15355824719E-01  0.30857920210E-02  0.10198151845E+01  0.10195300320E+01 0.  0.
     999903    2    3    3    0    0 -0.93391923866E-01  0.68845816561E-01 -0.48833634597E-01  0.12725223249E+00  0.18617435524E-01 0.  0.
         14    1    1    2    0    0 -0.18335780920E-01  0.15355824719E-01 -0.30857920210E-02  0.24114815512E-01  0.00000000000E+00 0.  1.
     999901    1    3    3    0    0  0.11172770479E+00 -0.84201641281E-01  0.51919426618E-01  0.89256295199E+00  0.88000000000E+00 0.  1.
        -11    1    4    4    0    0 -0.57223802344E-01  0.52857942240E-01 -0.34291875431E-01  0.85115917749E-01  0.51100000000E-03 0. -1.
         11    1    4    4    0    0 -0.36168121522E-01  0.15987874321E-01 -0.14541759166E-01  0.42136314746E-01  0.51100000000E-03 0.  1.
</event>
<event>
 8    1  0.1135368E+005  0.1043930E+01  0.7957747E-01            NaN
         13   -1    0    0    0    0  0.00000000000E+00  0.00000000000E+00  0.74505805969E-08  0.10566000000E+00  0.10566000000E+00 0.  1.
     999900   -1    0    0    0    0 -0.00000000000E+00 -0.00000000000E+00 -0.74505805969E-08  0.93827000000E+00  0.93827000000E+00 0. -1.
     999902    2    1    2    0    0 -0.22130066391E-02  0.10094721164E-01  0.21967433732E-01  0.10196530781E+01  0.10193640325E+01 0.  0.
     999903    2    3    3    0    0  0.11486697811E+00  0.67578009467E-02  0.59949540332E-01  0.13108034706E+00  0.18655279816E-01 0.  0.
         14    1    1    2    0    0  0.22130066391E-02 -0.10094721164E-01 -0.21967433732E-01  0.24276921933E-01  0.00000000000E+00 0. -1.
     999901    1    3    3    0    0 -0.11707998475E+00  0.33369202169E-02 -0.37982106600E-01  0.88857273101E+00  0.88000000000E+00 0.  1.
        -11    1    4    4    0    0  0.26608161955E-01  0.76735735275E-02  0.87797537234E-02  0.29055519437E-01  0.51100000000E-03 0. -1.
         11    1    4    4    0    0  0.88258816159E-01 -0.91577258082E-03  0.51169786609E-01  0.10202482762E+00  0.51100000000E-03 0.  1.
</event>
<event>
 8    1  0.1135368E+005  0.1043930E+01  0.7957747E-01            NaN
         13   -1    0    0    0    0  0.00000000000E+00  0.00000000000E+00  0.74505805969E-08  0.10566000000E+00  0.10566000000E+00 0. -1.
     999900   -1    0    0    0    0 -0.00000000000E+00 -0.00000000000E+00 -0.74505805969E-08  0.93827000000E+00  0.93827000000E+00 0. -1.
     999902    2    1    2    0    0 -0.16152628725E-01 -0.16559739042E-01  0.33639621209E-02  0.10205537596E+01  0.10202860029E+01 0.  0.
     999903    2    3    3    0    0  0.81650013746E-01  0.30295169709E-01  0.93517912427E-01  0.12932512787E+00  0.19871253126E-01 0.  0.
         14    1    1    2    0    0  0.16152628725E-01  0.16559739042E-01 -0.33639621209E-02  0.23376240353E-01  0.00000000000E+00 0.  1.
     999901    1    3    3    0    0 -0.97802642471E-01 -0.46854908751E-01 -0.90153950306E-01  0.89122863178E+00  0.88000000000E+00 0. -1.
        -11    1    4    4    0    0  0.36066846341E-01  0.11968032096E-01  0.55200050518E-01  0.67017593925E-01  0.51100000000E-03 0. -1.
         11    1    4    4    0    0  0.45583167405E-01  0.18327137614E-01  0.38317861909E-01  0.62307533943E-01  0.51100000000E-03 0.  1.
</event>
<event>
 8    1  0.1135368E+005  0.1043930E+01  0.7957747E-01            NaN
         13   -1    0    0    0    0  0.00000000000E+00  0.00000000000E+00  0.74505805969E-08  0.10566000000E+00  0.10566000000E+00 0.  1.
     999900   -1    0    0    0    0 -0.00000000000E+00 -0.00000000000E+00 -0.74505805969E-08  0.93827000000E+00  0.93827000000E+00 0.  1.
     999902    2    1    2    0    0 -0.34652257958E-02 -0.15154317049E-01 -0.18178897751E-01  0.10200106890E+01  0.10197301958E+01 0.  0.
     999903    2    3    3    0    0 -0.12553958948E+00  0.24069203899E-01 -0.19238062168E-01  0.13071784821E+00  0.19430329431E-01 0.  0.
         14    1    1    2    0    0  0.34652257958E-02  0.15154317049E-01  0.18178897751E-01  0.23919310995E-01  0.00000000000E+00 0.  1.
     999901    1    3    3    0    0  0.12207436368E+00 -0.39223520948E-01  0.10591644177E-02  0.88929284080E+00  0.88000000000E+00 0.  1.
        -11    1    4    4    0    0 -0.67698315130E-01  0.20731022321E-01 -0.45719380609E-02  0.70950693418E-01  0.51100000000E-03 0. -1.
         11    1    4    4    0    0 -0.57841274347E-01  0.33381815779E-02 -0.14666124107E-01  0.59767154790E-01  0.51100000000E-03 0.  1.
</event>
<event>
 8    1  0.1135368E+005  0.1043930E+01  0.7957747E-01            NaN
         13   -1    0    0    0    0  0.00000000000E+00  0.00000000000E+00  0.74505805969E-08  0.10566000000E+00  0.10566000000E+00 0.  1.
     999900   -1    0    0    0    0 -0.00000000000E+00 -0.00000000000E+00 -0.74505805969E-08  0.93827000000E+00  0.93827000000E+00 0. -1.
     999902    2    1    2    0    0  0.21039118261E-01 -0.31855733118E-02 -0.72692824988E-02  0.10214436743E+01  0.10211961344E+01 0.  0.
     999903    2    3    3    0    0 -0.12094126719E+00  0.20810699938E-01  0.33843959712E-01  0.12879337904E+00  0.19556214706E-01 0.  0.
         14    1    1    2    0    0 -0.21039118261E-01  0.31855733118E-02  0.72692824988E-02  0.22486325680E-01  0.00000000000E+00 0.  1.
     999901    1    3    3    0    0  0.14198038545E+00 -0.23996273250E-01 -0.41113242211E-01  0.89265029528E+00  0.88000000000E+00 0. -1.
        -11    1    4    4    0    0 -0.63044501169E-01  0.16654356009E-02  0.13408293227E-01  0.64478106763E-01  0.51100000000E-03 0.  1.
         11    1    4    4    0    0 -0.57896766020E-01  0.19145264337E-01  0.20435666485E-01  0.64315272275E-01  0.51100000000E-03 0. -1.
</event>
<event>
 8    1  0.1135368E+005  0.1043930E+01  0.7957747E-01            NaN
         13   -1    0    0    0    0  0.00000000000E+00  0.00000000000E+00  0.74505805969E-08  0.10566000000E+00  0.10566000000E+00 0.  1.
     999900   -1    0    0    0    0 -0.00000000000E+00 -0.00000000000E+00 -0.74505805969E-08  0.93827000000E+00  0.93827000000E+00 0.  1.
     999902    2    1    2    0    0 -0.10247809877E-01 -0.16940402994E-01 -0.13529367618E-01  0.10199500365E+01  0.10196681020E+01 0.  0.
     999903    2    3    3    0    0  0.84850965059E-01 -0.38201311352E-01  0.86971184985E-01  0.12888541243E+00  0.19708781241E-01 0.  0.
         14    1    1    2    0    0  0.10247809877E-01  0.16940402994E-01  0.13529367618E-01  0.23979963491E-01  0.00000000000E+00 0. -1.
     999901    1    3    3    0    0 -0.95098774936E-01  0.21260908358E-01 -0.10050055260E+00  0.89106462408E+00  0.88000000000E+00 0.  1.
        -11    1    4    4    0    0  0.13747314238E-01 -0.10676640564E-01  0.25830839403E-01  0.31152410625E-01  0.51100000000E-03 0. -1.
         11    1    4    4    0    0  0.71103650822E-01 -0.27524670788E-01  0.61140345582E-01  0.97733001801E-01  0.51100000000E-03 0.  1.
</event>
<event>
 8    1  0.1135368E+005  0.1043930E+01  0.7957747E-01            NaN
         13   -1    0    0    0    0  0.00000000000E+00  0.00000000000E+00  0.74505805969E-08  0.10566000000E+00  0.10566000000E+00 0.  1.
     999900   -1    0    0    0    0 -0.00000000000E+00 -0.00000000000E+00 -0.74505805969E-08  0.93827000000E+00  0.93827000000E+00 0. -1.
     999902    2    1    2    0    0 -0.19232137342E-01  0.13686854199E-01  0.50071976117E-02  0.10197995812E+01  0.10195140552E+01 0.  0.
     999903    2    3    3    0    0 -0.10741582250E+00 -0.54217123958E-01 -0.48291705694E-01  0.13118938223E+00  0.20022730038E-01 0.  0.
         14    1    1    2    0    0  0.19232137342E-01 -0.13686854199E-01 -0.50071976117E-02  0.24130418822E-01  0.00000000000E+00 0. -1.
     999901    1    3    3    0    0  0.88183685157E-01  0.67903978157E-01  0.53298903306E-01  0.88861019895E+00  0.88000000000E+00 0.  1.
        -11    1    4    4    0    0 -0.32625996676E-01 -0.67614260411E-02 -0.11125504219E-01  0.35131332260E-01  0.51100000000E-03 0.  1.
         11    1    4    4    0    0 -0.74789825823E-01 -0.47455697917E-01 -0.37166201475E-01  0.96058049972E-01  0.51100000000E-03 0. -1.
</event>
<event>
 8    1  0.1135368E+005  0.1043930E+01  0.7957747E-01            NaN
         13   -1    0    0    0    0  0.00000000000E+00  0.00000000000E+00  0.74505805969E-08  0.10566000000E+00  0.10566000000E+00 0. -1.
     999900   -1    0    0    0    0 -0.00000000000E+00 -0.00000000000E+00 -0.74505805969E-08  0.93827000000E+00  0.93827000000E+00 0. -1.
     999902    2    1    2    0    0 -0.15338320578E-01  0.17208574939E-01 -0.37029921713E-02  0.10205823817E+01  0.10203152878E+01 0.  0.
     999903    2    3    3    0    0  0.11444266843E+00  0.95815819885E-02 -0.55534039036E-01  0.12952248834E+00  0.22430212271E-01 0.  0.
         14    1    1    2    0    0  0.15338320578E-01 -0.17208574939E-01  0.37029921713E-02  0.23347618307E-01  0.00000000000E+00 0. -1.
     999901    1    3    3    0    0 -0.12978098901E+00  0.76269929506E-02  0.51831046865E-01  0.89105989336E+00  0.88000000000E+00 0. -1.
        -11    1    4    4    0    0  0.23110341598E-01 -0.63560645503E-02 -0.75957806025E-02  0.25148448248E-01  0.51100000000E-03 0. -1.
         11    1    4    4    0    0  0.91332326832E-01  0.15937646539E-01 -0.47938258434E-01  0.10437404009E+00  0.51100000000E-03 0.  1.
</event>
<event>
 8    1  0.1135368E+005  0.1043930E+01  0.7957747E-01            NaN
         13   -1    0    0    0    0  0.00000000000E+00  0.00000000000E+00  0.74505805969E-08  0.10566000000E+00  0.10566000000E+00 0. -1.
     999900   -1    0    0    0    0 -0.00000000000E+00 -0.00000000000E+00 -0.74505805969E-08  0.93827000000E+00  0.93827000000E+00 0.  1.
     999902    2    1    2    0    0 -0.23467227776E-02  0.10043720780E-01  0.20454558227E-01  0.10210220890E+01  0.10207650728E+01 0.  0.
     999903    2    3    3    0    0  0.79691067625E-01  0.88790771277E-01  0.55292119006E-01  0.13302155258E+00  0.20076047982E-01 0.  0.
         14    1    1    2    0    0  0.23467227776E-02 -0.10043720780E-01 -0.20454558227E-01  0.22907911017E-01  0.00000000000E+00 0.  1.
     999901    1    3    3    0    0 -0.82037790403E-01 -0.78747050497E-01 -0.34837560779E-01  0.88800053641E+00  0.88000000000E+00 0.  1.
        -11    1    4    4    0    0  0.23691552686E-01  0.34671402981E-01  0.10934199012E-01  0.43396009982E-01  0.51100000000E-03 0.  1.
         11    1    4    4    0    0  0.55999514939E-01  0.54119368296E-01  0.44357919994E-01  0.89625542595E-01  0.51100000000E-03 0. -1.
</event>
<event>
 8    1  0.1135368E+005  0.1043930E+01  0.7957747E-01            NaN
         13   -1    0    0    0    0  0.00000000000E+00  0.00000000000E+00  0.74505805969E-08  0.10566000000E+00  0.10566000000E+00 0.  1.
     999900   -1    0    0    0    0 -0.00000000000E+00 -0.00000000000E+00 -0.74505805969E-08  0.93827000000E+00  0.93827000000E+00 0.  1.
     999902    2    1    2    0    0  0.45339650403E-02 -0.10080184734E-01  0.20780601871E-01  0.10203927874E+01  0.10201212870E+01 0.  0.
     999903    2    3    3    0    0  0.40383382556E-01  0.73390991384E-01 -0.95194784177E-01  0.12814679656E+00  0.18506737475E-01 0.  0.
         14    1    1    2    0    0 -0.45339650403E-02  0.10080184734E-01 -0.20780601871E-01  0.23537212609E-01  0.00000000000E+00 0. -1.
     999901    1    3    3    0    0 -0.35849417516E-01 -0.83471176118E-01  0.11597538605E+00  0.89224599083E+00  0.88000000000E+00 0. -1.
        -11    1    4    4    0    0  0.14722572507E-01  0.17942074772E-01 -0.37541504002E-01  0.44139526867E-01  0.51100000000E-03 0. -1.
         11    1    4    4    0    0  0.25660810049E-01  0.55448916613E-01 -0.57653280175E-01  0.84007269696E-01  0.51100000000E-03 0.  1.
</event>
<event>
 8    1  0.1135368E+005  0.1043930E+01  0.7957747E-01            NaN
         13   -1    0    0    0    0  0.00000000000E+00  0.00000000000E+00  0.74505805969E-08  0.10566000000E+00  0.10566000000E+00 0. -1.
     999900   -1    0    0    0    0 -0.00000000000E+00 -0.00000000000E+00 -0.74505805969E-08  0.93827000000E+00  0.93827000000E+00 0.  1.
     999902    2    1    2    0    0  0.73635948011E-02  0.14267994017E-01 -0.16803794276E-01  0.10206885352E+01  0.10204238925E+01 0.  0.
     999903    2    3    3    0    0 -0.40423222102E-01  0.11875333341E-01 -0.12425395124E+00  0.13286262837E+00  0.20937363528E-01 0.  0.
         14    1    1    2    0    0 -0.73635948011E-02 -0.14267994017E-01  0.16803794276E-01  0.23241464750E-01  0.00000000000E+00 0. -1.
     999901    1    3    3    0    0  0.47786816903E-01  0.23926606760E-02  0.10745015696E+00  0.88782590688E+00  0.88000000000E+00 0. -1.
        -11    1    4    4    0    0 -0.31596259722E-01  0.20229979210E-02 -0.10359340818E+00  0.10832484243E+00  0.51100000000E-03 0.  1.
         11    1    4    4    0    0 -0.88269623802E-02  0.98523354204E-02 -0.20660543060E-01  0.24537785936E-01  0.51100000000E-03 0. -1.
</event>
<event>
 8    1  0.1135368E+005  0.1043930E+01  0.7957747E-01            NaN
         13   -1    0    0    0    0  0.00000000000E+00  0.00000000000E+00  0.74505805969E-08  0.10566000000E+00  0.10566000000E+00 0.  1.
     999900   -1    0    0    0    0 -0.00000000000E+00 -0.00000000000E+00 -0.74505805969E-08  0.93827000000E+00  0.93827000000E+00 0. -1.
     999902    2    1    2    0    0  0.86573782073E-03  0.50511407898E-02  0.23450800023E-01  0.10199257598E+01  0.10196432474E+01 0.  0.
     999903    2    3    3    0    0 -0.74884518819E-01  0.30482634107E-01  0.10321930178E+00  0.13271221387E+00  0.20528646067E-01 0.  0.
         14    1    1    2    0    0 -0.86573782073E-03 -0.50511407898E-02 -0.23450800023E-01  0.24004240187E-01  0.00000000000E+00 0. -1.
     999901    1    3    3    0    0  0.75750256640E-01 -0.25431493317E-01 -0.79768501756E-01  0.88721354594E+00  0.88000000000E+00 0. -1.
        -11    1    4    4    0    0 -0.16852802752E-01  0.10169994539E-02  0.12288100698E-01  0.20888029784E-01  0.51100000000E-03 0.  1.
         11    1    4    4    0    0 -0.58031716067E-01  0.29465634653E-01  0.90931201081E-01  0.11182418408E+00  0.51100000000E-03 0. -1.
</event>
<event>
 8    1  0.1135368E+005  0.1043930E+01  0.7957747E-01            NaN
         13   -1    0    0    0    0  0.00000000000E+00  0.00000000000E+00  0.74505805969E-08  0.10566000000E+00  0.10566000000E+00 0.  1.
     999900   -1    0    0    0    0 -0.00000000000E+00 -0.00000000000E+00 -0.74505805969E-08  0.93827000000E+00  0.93827000000E+00 0. -1.
     999902    2    1    2    0    0 -0.20144737160E-01 -0.12153775447E-01 -0.27111302780E-03  0.10204013325E+01  0.10201300315E+01 0.  0.
     999903    2    3    3    0    0  0.29799746791E-01 -0.10548498131E+00 -0.69793344778E-01  0.13133524598E+00  0.19045463211E-01 0.  0.
         14    1    1    2    0    0  0.20144737160E-01  0.12153775447E-01  0.27111302780E-03  0.23528667517E-01  0.00000000000E+00 0. -1.
     999901    1    3    3    0    0 -0.49944483951E-01  0.93331205867E-01  0.69522231750E-01  0.88906608651E+00  0.88000000000E+00 0.  1.
        -11    1    4    4    0    0  0.44331923262E-02 -0.50248125261E-01 -0.33031622132E-01  0.60298229395E-01  0.51100000000E-03 0. -1.
         11    1    4    4    0    0  0.25366554465E-01 -0.55236856053E-01 -0.36761722647E-01  0.71037016583E-01  0.51100000000E-03 0.  1.
</event>
<event>
 8    1  0.1135368E+005  0.1043930E+01  0.7957747E-01            NaN
         13   -1    0    0    0    0  0.00000000000E+00  0.00000000000E+00  0.74505805969E-08  0.10566000000E+00  0.10566000000E+00 0.  1.
     999900   -1    0    0    0    0 -0.00000000000E+00 -0.00000000000E+00 -0.74505805969E-08  0.93827000000E+00  0.93827000000E+00 0.  1.
     999902    2    1    2    0    0 -0.18457288621E-01 -0.44162399053E-02  0.14513704767E-01  0.10200381122E+01  0.10197582694E+01 0.  0.
     999903    2    3    3    0    0 -0.56605979775E-01 -0.34687875996E-01 -0.10999642098E+00  0.12994010296E+00  0.19435329695E-01 0.  0.
         14    1    1    2    0    0  0.18457288621E-01  0.44162399053E-02 -0.14513704767E-01  0.23891887833E-01  0.00000000000E+00 0. -1.
     999901    1    3    3    0    0  0.38148691153E-01  0.30271636091E-01  0.12451012575E+00  0.89009800921E+00  0.88000000000E+00 0. -1.
        -11    1    4    4    0    0 -0.45883184489E-01 -0.28178338058E-01 -0.71900737223E-01  0.89829073739E-01  0.51100000000E-03 0. -1.
         11    1    4    4    0    0 -0.10722795285E-01 -0.65095379376E-02 -0.38095683757E-01  0.40111029217E-01  0.51100000000E-03 0.  1.
</event>
<event>
 8    1  0.1135368E+005  0.1043930E+01  0.7957747E-01            NaN
         13   -1    0    0    0    0  0.00000000000E+00  0.00000000000E+00  0.74505805969E-08  0.10566000000E+00  0.10566000000E+00 0.  1.
     999900   -1    0    0    0    0 -0.00000000000E+00 -0.00000000000E+00 -0.74505805969E-08  0.93827000000E+00  0.93827000000E+00 0.  1.
     999902    2    1    2    0    0  0.15014037263E-01 -0.16990447373E-01 -0.52514796938E-02  0.10206560950E+01  0.10203907043E+01 0.  0.
     999903    2    3    3    0    0  0.11638107264E+00 -0.53983948745E-01  0.30610142518E-01  0.13334000080E+00  0.19589645185E-01 0.  0.
         14    1    1    2    0    0 -0.15014037263E-01  0.16990447373E-01  0.52514796938E-02  0.23273905041E-01  0.00000000000E+00 0. -1.
     999901    1    3    3    0    0 -0.10136703537E+00  0.36993501372E-01 -0.35861622212E-01  0.88731609416E+00  0.88000000000E+00 0. -1.
        -11    1    4    4    0    0  0.18625005458E-01 -0.32236673048E-02  0.95906087752E-02  0.21201975306E-01  0.51100000000E-03 0. -1.
         11    1    4    4    0    0  0.97756067178E-01 -0.50760281440E-01  0.21019533743E-01  0.11213802549E+00  0.51100000000E-03 0.  1.
</event>
<event>
 8    1  0.1135368E+005  0.1043930E+01  0.7957747E-01            NaN
         13   -1    0    0    0    0  0.00000000000E+00  0.00000000000E+00  0.74505805969E-08  0.10566000000E+00  0.10566000000E+00 0.  1.
     999900   -1    0    0    0    0 -0.00000000000E+00 -0.00000000000E+00 -0.74505805969E-08  0.93827000000E+00  0.93827000000E+00 0.  1.
     999902    2    1    2    0    0 -0.13803917957E-01 -0.18304621860E-02  0.21403667351E-01  0.10183954015E+01  0.10180752321E+01 0.  0.
     999903    2    3    3    0    0 -0.71667452684E-01  0.10623478427E+00 -0.10950245051E-02  0.12961394511E+00  0.19404188390E-01 0.  0.
         14    1    1    2    0    0  0.13803917957E-01  0.18304621860E-02 -0.21403667351E-01  0.25534598466E-01  0.00000000000E+00 0. -1.
     999901    1    3    3    0    0  0.57863534727E-01 -0.10806524645E+00  0.22498691856E-01  0.88878145642E+00  0.88000000000E+00 0.  1.
        -11    1    4    4    0    0 -0.22972706914E-01  0.51083423228E-01  0.70624940743E-03  0.56018044422E-01  0.51100000000E-03 0. -1.
         11    1    4    4    0    0 -0.48694745770E-01  0.55151361038E-01 -0.18012739125E-02  0.73595900692E-01  0.51100000000E-03 0.  1.
</event>
<event>
 8    1  0.1135368E+005  0.1043930E+01  0.7957747E-01            NaN
         13   -1    0    0    0    0  0.00000000000E+00  0.00000000000E+00  0.74505805969E-08  0.10566000000E+00  0.10566000000E+00 0. -1.
     999900   -1    0    0    0    0 -0.00000000000E+00 -0.00000000000E+00 -0.74505805969E-08  0.93827000000E+00  0.93827000000E+00 0. -1.
     999902    2    1    2    0    0  0.19402264780E-01  0.13220224398E-01 -0.37168295978E-02  0.10201594923E+01  0.10198825191E+01 0.  0.
     999903    2    3    3    0    0 -0.34870028214E-01 -0.10651792169E+00 -0.60199746609E-01  0.12860297405E+00  0.18781079090E-01 0.  0.
         14    1    1    2    0    0 -0.19402264780E-01 -0.13220224398E-01  0.37168295978E-02  0.23770507650E-01  0.00000000000E+00 0.  1.
     999901    1    3    3    0    0  0.54272292994E-01  0.11973814609E+00  0.56482917011E-01  0.89155651830E+00  0.88000000000E+00 0.  1.
        -11    1    4    4    0    0 -0.99990580182E-02 -0.21991851649E-01 -0.51419163683E-02  0.24704718681E-01  0.51100000000E-03 0. -1.
         11    1    4    4    0    0 -0.24870970196E-01 -0.84526070046E-01 -0.55057830241E-01  0.10389825536E+00  0.51100000000E-03 0.  1.
</event>
<event>
 8    1  0.1135368E+005  0.1043930E+01  0.7957747E-01            NaN
         13   -1    0    0    0    0  0.00000000000E+00  0.00000000000E+00  0.74505805969E-08  0.10566000000E+00  0.10566000000E+00 0.  1.
     999900   -1    0    0    0    0 -0.00000000000E+00 -0.00000000000E+00 -0.74505805969E-08  0.93827000000E+00  0.93827000000E+00 0. -1.
     999902    2    1    2    0    0  0.58004288893E-04  0.22118899993E-01  0.75670760546E-02  0.10205524522E+01  0.10202846651E+01 0.  0.
     999903    2    3    3    0    0  0.14545814441E-01  0.11572181382E+00  0.62248723937E-01  0.13378219743E+00  0.20485453520E-01 0.  0.
         14    1    1    2    0    0 -0.58004288893E-04 -0.22118899993E-01 -0.75670760546E-02  0.23377547806E-01  0.00000000000E+00 0. -1.
     999901    1    3    3    0    0 -0.14487810152E-01 -0.93602913827E-01 -0.54681647882E-01  0.88677025476E+00  0.88000000000E+00 0.  1.
        -11    1    4    4    0    0  0.10818132680E-01  0.50605319543E-01  0.37963605462E-01  0.64182761093E-01  0.51100000000E-03 0. -1.
         11    1    4    4    0    0  0.37276817610E-02  0.65116494276E-01  0.24285118475E-01  0.69599436337E-01  0.51100000000E-03 0.  1.
</event>
<event>
 8    1  0.1135368E+005  0.1043930E+01  0.7957747E-01            NaN
         13   -1    0    0    0    0  0.00000000000E+00  0.00000000000E+00  0.74505805969E-08  0.10566000000E+00  0.10566000000E+00 0. -1.
     999900   -1    0    0    0    0 -0.00000000000E+00 -0.00000000000E+00 -0.74505805969E-08  0.93827000000E+00  0.93827000000E+00 0. -1.
     999902    2    1    2    0    0 -0.22523010515E-01  0.55736662007E-02 -0.81885248371E-02  0.10193250473E+01  0.10190280410E+01 0.  0.
     999903    2    3    3    0    0 -0.45782088845E-01  0.12132764753E+00 -0.84401588326E-02  0.13143990146E+00  0.19718359473E-01 0.  0.
         14    1    1    2    0    0  0.22523010515E-01 -0.55736662007E-02  0.81885248371E-02  0.24604952684E-01  0.00000000000E+00 0. -1.
     999901    1    3    3    0    0  0.23259078330E-01 -0.11575398133E+00  0.25163399541E-03  0.88788514586E+00  0.88000000000E+00 0. -1.
        -11    1    4    4    0    0 -0.15319491358E-01  0.47200129314E-01  0.60571029108E-02  0.49994886132E-01  0.51100000000E-03 0. -1.
         11    1    4    4    0    0 -0.30462597486E-01  0.74127518214E-01 -0.14497261743E-01  0.81445015325E-01  0.51100000000E-03 0.  1.
</event>
<event>
 8    1  0.1135368E+005  0.1043930E+01  0.7957747E-01            NaN
         13   -1    0    0    0    0  0.00000000000E+00  0.00000000000E+00  0.74505805969E-08  0.10566000000E+00  0.10566000000E+00 0.  1.
     999900   -1    0    0    0    0 -0.00000000000E+00 -0.00000000000E+00 -0.74505805969E-08  0.93827000000E+00  0.93827000000E+00 0.  1.
     999902    2    1    2    0    0  0.14174227083E-01 -0.82718142893E-02 -0.17561928572E-01  0.10198935077E+01  0.10196102266E+01 0.  0.
     999903    2    3    3    0    0  0.11760660094E+00 -0.30458335208E-01  0.45394102031E-01  0.13132501884E+00  0.20654619495E-01 0.  0.
         14    1    1    2    0    0 -0.14174227083E-01  0.82718142893E-02  0.17561928572E-01  0.24036492260E-01  0.00000000000E+00 0.  1.
     999901    1    3    3    0    0 -0.10343237386E+00  0.22186520918E-01 -0.62956030603E-01  0.88856848890E+00  0.88000000000E+00 0.  1.
        -11    1    4    4    0    0  0.88559991957E-01 -0.25018359189E-01  0.43270965963E-01  0.10169281237E+00  0.51100000000E-03 0.  1.
         11    1    4    4    0    0  0.29046608982E-01 -0.54399760191E-02  0.21231360681E-02  0.29632206469E-01  0.51100000000E-03 0. -1.
</event>
<event>
 8    1  0.1135368E+005  0.1043930E+01  0.7957747E-01            NaN
         13   -1    0    0    0    0  0.00000000000E+00  0.00000000000E+00  0.74505805969E-08  0.10566000000E+00  0.10566000000E+00 0. -1.
     999900   -1    0    0    0    0 -0.00000000000E+00 -0.00000000000E+00 -0.74505805969E-08  0.93827000000E+00  0.93827000000E+00 0.  1.
     999902    2    1    2    0    0 -0.59923342463E-02  0.21643300250E-01 -0.62891406733E-03  0.10214636686E+01  0.10212165736E+01 0.  0.
     999903    2    3    3    0    0 -0.73554118309E-01 -0.65736564831E-01  0.83068738938E-01  0.13061848975E+00  0.20718836853E-01 0.  0.
         14    1    1    2    0    0  0.59923342463E-02 -0.21643300250E-01  0.62891406733E-03  0.22466331439E-01  0.00000000000E+00 0. -1.
     999901    1    3    3    0    0  0.67561784063E-01  0.87379865081E-01 -0.83697653005E-01  0.89084517881E+00  0.88000000000E+00 0.  1.
        -11    1    4    4    0    0 -0.34503197676E-01 -0.42981677575E-01  0.51946495812E-01  0.75740311626E-01  0.51100000000E-03 0.  1.
         11    1    4    4    0    0 -0.39050920633E-01 -0.22754887256E-01  0.31122243126E-01  0.54878178127E-01  0.51100000000E-03 0. -1.
</event>
<event>
 8    1  0.1135368E+005  0.1043930E+01  0.7957747E-01            NaN
         13   -1    0    0    0    0  0.00000000000E+00  0.00000000000E+00  0.74505805969E-08  0.10566000000E+00  0.10566000000E+00 0.  1.
     999900   -1    0    0    0    0 -0.00000000000E+00 -0.00000000000E+00 -0.74505805969E-08  0.93827000000E+00  0.93827000000E+00 0.  1.
     999902    2    1    2    0    0 -0.78394027057E-02 -0.94505558864E-02 -0.21434395162E-01  0.10192277220E+01  0.10189283325E+01 0.  0.
     999903    2    3    3    0    0  0.27887916917E-01 -0.41333471140E-01 -0.12100544905E+00  0.13231884484E+00  0.19487592314E-01 0.  0.
         14    1    1    2    0    0  0.78394027057E-02  0.94505558864E-02  0.21434395162E-01  0.24702277978E-01  0.00000000000E+00 0.  1.
     999901    1    3    3    0    0 -0.35727319622E-01  0.31882915254E-01  0.99571053885E-01  0.88690887718E+00  0.88000000000E+00 0. -1.
        -11    1    4    4    0    0  0.29989465609E-01 -0.33078330966E-01 -0.95490468438E-01  0.10541458490E+00  0.51100000000E-03 0.  1.
         11    1    4    4    0    0 -0.21015486924E-02 -0.82551401747E-02 -0.25514980609E-01  0.26904259936E-01  0.51100000000E-03 0. -1.
</event>
<event>
 8    1  0.1135368E+005  0.1043930E+01  0.7957747E-01            NaN
         13   -1    0    0    0    0  0.00000000000E+00  0.00000000000E+00  0.74505805969E-08  0.10566000000E+00  0.10566000000E+00 0. -1.
     999900   -1    0    0    0    0 -0.00000000000E+00 -0.00000000000E+00 -0.74505805969E-08  0.93827000000E+00  0.93827000000E+00 0. -1.
     999902    2    1    2    0    0  0.39485958858E-02  0.78833879459E-02  0.22585958427E-01  0.10196840780E+01  0.10193957790E+01 0.  0.
     999903    2    3    3    0    0 -0.18680268263E-01 -0.12243122881E+00 -0.27282194628E-01  0.12840365215E+00  0.20120177242E-01 0.  0.
         14    1    1    2    0    0 -0.39485958858E-02 -0.78833879459E-02 -0.22585958427E-01  0.24245921988E-01  0.00000000000E+00 0. -1.
     999901    1    3    3    0    0  0.22628864149E-01  0.13031461675E+00  0.49868153055E-01  0.89128042586E+00  0.88000000000E+00 0. -1.
        -11    1    4    4    0    0 -0.67845261220E-02 -0.79703440555E-01 -0.25697515258E-01  0.84019590825E-01  0.51100000000E-03 0. -1.
         11    1    4    4    0    0 -0.11895742141E-01 -0.42727788253E-01 -0.15846793700E-02  0.44384061326E-01  0.51100000000E-03 0.  1.
</event>
<event>
 8    1  0.1135368E+005  0.1043930E+01  0.7957747E-01            NaN
         13   -1    0    0    0    0  0.00000000000E+00  0.00000000000E+00  0.74505805969E-08  0.10566000000E+00  0.10566000000E+00 0. -1.
     999900   -1    0    0    0    0 -0.00000000000E+00 -0.00000000000E+00 -0.74505805969E-08  0.93827000000E+00  0.93827000000E+00 0.  1.
     999902    2    1    2    0    0  0.22844053244E-01 -0.61543080815E-02  0.57771279242E-02  0.10195763250E+01  0.10192854267E+01 0.  0.
     999903    2    3    3    0    0 -0.72419279211E-01 -0.69842505139E-01 -0.76895928906E-01  0.12830413134E+00  0.20650392509E-01 0.  0.
         14    1    1    2    0    0 -0.22844053244E-01  0.61543080815E-02 -0.57771279242E-02  0.24353674951E-01  0.00000000000E+00 0. -1.
     999901    1    3    3    0    0  0.95263332455E-01  0.63688197058E-01  0.82673056830E-01  0.89127219371E+00  0.88000000000E+00 0. -1.
        -11    1    4    4    0    0 -0.42733443907E-01 -0.54109028489E-01 -0.48340843286E-01  0.84208268257E-01  0.51100000000E-03 0.  1.
         11    1    4    4    0    0 -0.29685835304E-01 -0.15733476650E-01 -0.28555085620E-01  0.44095863082E-01  0.51100000000E-03 0. -1.
</event>
<event>
 8    1  0.1135368E+005  0.1043930E+01  0.7957747E-01            NaN
         13   -1    0    0    0    0  0.00000000000E+00  0.00000000000E+00  0.74505805969E-08  0.10566000000E+00  0.10566000000E+00 0.  1.
     999900   -1    0    0    0    0 -0.00000000000E+00 -0.00000000000E+00 -0.74505805969E-08  0.93827000000E+00  0.93827000000E+00 0.  1.
     999902    2    1    2    0    0  0.14728407554E-01 -0.60556439842E-02 -0.17593992414E-01  0.10201993156E+01  0.10199232805E+01 0.  0.
     999903    2    3    3    0    0  0.11196996014E+00 -0.79541670544E-02  0.64754173903E-01  0.13101950002E+00  0.19299367858E-01 0.  0.
         14    1    1    2    0    0 -0.14728407554E-01  0.60556439842E-02  0.17593992414E-01  0.23730684402E-01  0.00000000000E+00 0. -1.
     999901    1    3    3    0    0 -0.97241552587E-01  0.18985230701E-02 -0.82348166317E-01  0.88917981558E+00  0.88000000000E+00 0.  1.
        -11    1    4    4    0    0  0.65873843658E-01 -0.13180347414E-01  0.33418877515E-01  0.75034440969E-01  0.51100000000E-03 0. -1.
         11    1    4    4    0    0  0.46096116482E-01  0.52261803601E-02  0.31335296389E-01  0.55985059049E-01  0.51100000000E-03 0.  1.
</event>
<event>
 8    1  0.1135368E+005  0.1043930E+01  0.7957747E-01            NaN
         13   -1    0    0    0    0  0.00000000000E+00  0.00000000000E+00  0.74505805969E-08  0.10566000000E+00  0.10566000000E+00 0.  1.
     999900   -1    0    0    0    0 -0.00000000000E+00 -0.00000000000E+00 -0.74505805969E-08  0.93827000000E+00  0.93827000000E+00 0. -1.
     999902    2    1    2    0    0  0.83387443028E-02 -0.42126408490E-02 -0.22581656480E-01  0.10194920744E+01  0.10191991354E+01 0.  0.
     999903    2    3    3    0    0  0.10042553561E+00  0.80045494923E-01 -0.90991592774E-02  0.13058196176E+00  0.21823945028E-01 0.  0.
         14    1    1    2    0    0 -0.83387443028E-02  0.42126408490E-02  0.22581656480E-01  0.24437925625E-01  0.00000000000E+00 0.  1.
     999901    1    3    3    0    0 -0.92086791312E-01 -0.84258135773E-01 -0.13482497203E-01  0.88891011261E+00  0.88000000000E+00 0. -1.
        -11    1    4    4    0    0  0.48960227211E-01  0.52165196569E-01 -0.84753350294E-02  0.72044458541E-01  0.51100000000E-03 0.  1.
         11    1    4    4    0    0  0.51465308404E-01  0.27880298354E-01 -0.62382424803E-03  0.58537503219E-01  0.51100000000E-03 0. -1.
</event>
<event>
 8    1  0.1135368E+005  0.1043930E+01  0.7957747E-01            NaN
         13   -1    0    0    0    0  0.00000000000E+00  0.00000000000E+00  0.74505805969E-08  0.10566000000E+00  0.10566000000E+00 0.  1.
     999900   -1    0    0    0    0 -0.00000000000E+00 -0.00000000000E+00 -0.74505805969E-08  0.93827000000E+00  0.93827000000E+00 0. -1.
     999902    2    1    2    0    0  0.10193479045E-01  0.21210834528E-01  0.33931980923E-02  0.10201535345E+01  0.10198764208E+01 0.  0.
     999903    2    3    3    0    0 -0.48694334451E-01 -0.10009200319E+00 -0.59379996670E-01  0.12767237116E+00  0.19613848227E-01 0.  0.
         14    1    1    2    0    0 -0.10193479045E-01 -0.21210834528E-01 -0.33931980923E-02  0.23776465458E-01  0.00000000000E+00 0.  1.
     999901    1    3    3    0    0  0.58887813496E-01  0.12130283772E+00  0.62773194762E-01  0.89248116339E+00  0.88000000000E+00 0. -1.
        -11    1    4    4    0    0 -0.87035616751E-02 -0.12851155570E-01 -0.16178764890E-01  0.22425827514E-01  0.51100000000E-03 0.  1.
         11    1    4    4    0    0 -0.39990772776E-01 -0.87240847618E-01 -0.43201231780E-01  0.10524654364E+00  0.51100000000E-03 0. -1.
</event>
<event>
 8    1  0.1135368E+005  0.1043930E+01  0.7957747E-01            NaN
         13   -1    0    0    0    0  0.00000000000E+00  0.00000000000E+00  0.74505805969E-08  0.10566000000E+00  0.10566000000E+00 0.  1.
     999900   -1    0    0    0    0 -0.00000000000E+00 -0.00000000000E+00 -0.74505805969E-08  0.93827000000E+00  0.93827000000E+00 0.  1.
     999902    2    1    2    0    0  0.11109765120E-01  0.16474430224E-01 -0.13011705030E-01  0.10201784064E+01  0.10199018789E+01 0.  0.
     999903    2    3    3    0    0  0.11882077659E+00  0.54642773212E-01  0.86712401586E-02  0.13252496357E+00  0.19582286639E-01 0.  0.
         14    1    1    2    0    0 -0.11109765120E-01 -0.16474430224E-01  0.13011705030E-01  0.23751593631E-01  0.00000000000E+00 0.  1.
     999901    1    3    3    0    0 -0.10771101147E+00 -0.38168342988E-01 -0.21682945189E-01  0.88765344280E+00  0.88000000000E+00 0.  1.
        -11    1    4    4    0    0  0.33894436693E-01  0.83085110287E-02  0.78634800137E-02  0.35776523492E-01  0.51100000000E-03 0.  1.
         11    1    4    4    0    0  0.84926339897E-01  0.46334262183E-01  0.80776014489E-03  0.96748440079E-01  0.51100000000E-03 0. -1.
</event>
<event>
 8    1  0.1135368E+005  0.1043930E+01  0.7957747E-01            NaN
         13   -1    0    0    0    0  0.00000000000E+00  0.00000000000E+00  0.74505805969E-08  0.10566000000E+00  0.10566000000E+00 0. -1.
     999900   -1    0    0    0    0 -0.00000000000E+00 -0.00000000000E+00 -0.74505805969E-08  0.93827000000E+00  0.93827000000E+00 0.  1.
     999902    2    1    2    0    0 -0.23119948408E-01 -0.51881630827E-03  0.92740015250E-02  0.10190139753E+01  0.10187093175E+01 0.  0.
     999903    2    3    3    0    0  0.99118097573E-01 -0.64755129024E-01  0.43087489943E-01  0.12760397096E+00  0.20214292325E-01 0.  0.
         14    1    1    2    0    0  0.23119948408E-01  0.51881630827E-03 -0.92740015250E-02  0.24916024744E-01  0.00000000000E+00 0.  1.
     999901    1    3    3    0    0 -0.12223804598E+00  0.64236312716E-01 -0.33813488418E-01  0.89141000429E+00  0.88000000000E+00 0.  1.
        -11    1    4    4    0    0  0.72904306031E-01 -0.40146025060E-01  0.37210568963E-01  0.91168134398E-01  0.51100000000E-03 0.  1.
         11    1    4    4    0    0  0.26213791542E-01 -0.24609103964E-01  0.58769209796E-02  0.36435836564E-01  0.51100000000E-03 0. -1.
</event>
<event>
 8    1  0.1135368E+005  0.1043930E+01  0.7957747E-01            NaN
         13   -1    0    0    0    0  0.00000000000E+00  0.00000000000E+00  0.74505805969E-08  0.10566000000E+00  0.10566000000E+00 0.  1.
     999900   -1    0    0    0    0 -0.00000000000E+00 -0.00000000000E+00 -0.74505805969E-08  0.93827000000E+00  0.93827000000E+00 0.  1.
     999902    2    1    2    0    0  0.15802123977E-01 -0.17608826387E-01 -0.73427289735E-02  0.10191571609E+01  0.10188560374E+01 0.  0.
     999903    2    3    3    0    0 -0.89107737464E-01  0.50642934513E-01 -0.73621340096E-01  0.12783385468E+00  0.20408257967E-01 0.  0.
         14    1    1    2    0    0 -0.15802123977E-01  0.17608826387E-01  0.73427289735E-02  0.24772839113E-01  0.00000000000E+00 0.  1.
     999901    1    3    3    0    0  0.10490986144E+00 -0.68251760900E-01  0.66278611122E-01  0.89132330621E+00  0.88000000000E+00 0. -1.
        -11    1    4    4    0    0 -0.25943187549E-01  0.25900100570E-01 -0.26322749091E-01  0.45133274094E-01  0.51100000000E-03 0.  1.
         11    1    4    4    0    0 -0.63164549914E-01  0.24742833943E-01 -0.47298591005E-01  0.82700580587E-01  0.51100000000E-03 0. -1.
</event>
<event>
 8    1  0.1135368E+005  0.1043930E+01  0.7957747E-01            NaN
         13   -1    0    0    0    0  0.00000000000E+00  0.00000000000E+00  0.74505805969E-08  0.10566000000E+00  0.10566000000E+00 0. -1.
     999900   -1    0    0    0    0 -0.00000000000E+00 -0.00000000000E+00 -0.74505805969E-08  0.93827000000E+00  0.93827000000E+00 0.  1.
     999902    2    1    2    0    0  0.21524863921E-01  0.84988646466E-02  0.47164335768E-02  0.10203123114E+01  0.10200389295E+01 0.  0.
     999903    2    3    3    0    0  0.41573627375E-01  0.12404905234E+00  0.26302005604E-02  0.13252959526E+00  0.20991469352E-01 0.  0.
         14    1    1    2    0    0 -0.21524863921E-01 -0.84988646466E-02 -0.47164335768E-02  0.23617688557E-01  0.00000000000E+00 0. -1.
     999901    1    3    3    0    0 -0.20048763454E-01 -0.11555018769E+00  0.20862330164E-02  0.88778271619E+00  0.88000000000E+00 0.  1.
        -11    1    4    4    0    0  0.28697276391E-01  0.68942854140E-01  0.10423388109E-01  0.75402645510E-01  0.51100000000E-03 0.  1.
         11    1    4    4    0    0  0.12876350983E-01  0.55106198196E-01 -0.77931875484E-02  0.57126949747E-01  0.51100000000E-03 0. -1.
</event>
<event>
 8    1  0.1159100E+005  0.1043930E+01  0.7957747E-01            NaN
         13   -1    0    0    0    0  0.00000000000E+00  0.00000000000E+00  0.74505805969E-08  0.10566000000E+00  0.10566000000E+00 0.  1.
     999900   -1    0    0    0    0 -0.00000000000E+00 -0.00000000000E+00 -0.74505805969E-08  0.93827000000E+00  0.93827000000E+00 0. -1.
     999902    2    1    2    0    0  0.22318624386E-01  0.24960270715E-02  0.64210738984E-02  0.10205723174E+01  0.10203049906E+01 0.  0.
     999903    2    3    3    0    0 -0.65285231445E-02 -0.23828695857E-01 -0.12587794790E+00  0.12982646134E+00  0.19980588933E-01 0.  0.
         14    1    1    2    0    0 -0.22318624386E-01 -0.24960270715E-02 -0.64210738984E-02  0.23357682583E-01  0.00000000000E+00 0.  1.
     999901    1    3    3    0    0  0.28847147531E-01  0.26324722929E-01  0.13229902180E+00  0.89074585608E+00  0.88000000000E+00 0.  1.
        -11    1    4    4    0    0  0.66030316602E-02 -0.54986030687E-02 -0.47248612784E-01  0.48026317721E-01  0.51100000000E-03 0.  1.
         11    1    4    4    0    0 -0.13131554805E-01 -0.18330092788E-01 -0.78629335118E-01  0.81800143614E-01  0.51100000000E-03 0. -1.
</event>
<event>
 8    1  0.1135368E+005  0.1043930E+01  0.7957747E-01            NaN
         13   -1    0    0    0    0  0.00000000000E+00  0.00000000000E+00  0.74505805969E-08  0.10566000000E+00  0.10566000000E+00 0. -1.
     999900   -1    0    0    0    0 -0.00000000000E+00 -0.00000000000E+00 -0.74505805969E-08  0.93827000000E+00  0.93827000000E+00 0.  1.
     999902    2    1    2    0    0 -0.51303566453E-02 -0.69592534173E-02 -0.21595689296E-01  0.10206678943E+01  0.10204027758E+01 0.  0.
     999903    2    3    3    0    0 -0.44940054749E-02 -0.75720670033E-01 -0.10814111303E+00  0.13375265156E+00  0.21010842863E-01 0.  0.
         14    1    1    2    0    0  0.51303566453E-02  0.69592534173E-02  0.21595689296E-01  0.23262105743E-01  0.00000000000E+00 0. -1.
     999901    1    3    3    0    0 -0.63635117039E-03  0.68761416616E-01  0.86545423730E-01  0.88691524270E+00  0.88000000000E+00 0. -1.
        -11    1    4    4    0    0  0.24341695814E-02 -0.67459536748E-01 -0.88093673036E-01  0.11098410080E+00  0.51100000000E-03 0. -1.
         11    1    4    4    0    0 -0.69281750563E-02 -0.82611332855E-02 -0.20047439989E-01  0.22768550764E-01  0.51100000000E-03 0.  1.
</event>
<event>
 8    1  0.1135368E+005  0.1043930E+01  0.7957747E-01            NaN
         13   -1    0    0    0    0  0.00000000000E+00  0.00000000000E+00  0.74505805969E-08  0.10566000000E+00  0.10566000000E+00 0.  1.
     999900   -1    0    0    0    0 -0.00000000000E+00 -0.00000000000E+00 -0.74505805969E-08  0.93827000000E+00  0.93827000000E+00 0.  1.
     999902    2    1    2    0    0 -0.30905600693E-02  0.22461014938E-01 -0.13283487621E-01  0.10176526372E+01  0.10173133196E+01 0.  0.
     999903    2    3    3    0    0  0.63855004972E-01 -0.98046094499E-02 -0.11010251605E+00  0.12922891875E+00  0.20098690852E-01 0.  0.
         14    1    1    2    0    0  0.30905600693E-02 -0.22461014938E-01  0.13283487621E-01  0.26277362824E-01  0.00000000000E+00 0. -1.
     999901    1    3    3    0    0 -0.66945565041E-01  0.32265624388E-01  0.96819028431E-01  0.88842371843E+00  0.88000000000E+00 0. -1.
        -11    1    4    4    0    0  0.49403417674E-01 -0.15596859237E-01 -0.89289817173E-01  0.10323222495E+00  0.51100000000E-03 0. -1.
         11    1    4    4    0    0  0.14451587298E-01  0.57922497870E-02 -0.20812698879E-01  0.25996693802E-01  0.51100000000E-03 0.  1.
</event>
<event>
 8    1  0.1135368E+005  0.1043930E+01  0.7957747E-01            NaN
         13   -1    0    0    0    0  0.00000000000E+00  0.00000000000E+00  0.74505805969E-08  0.10566000000E+00  0.10566000000E+00 0.  1.
     999900   -1    0    0    0    0 -0.00000000000E+00 -0.00000000000E+00 -0.74505805969E-08  0.93827000000E+00  0.93827000000E+00 0.  1.
     999902    2    1    2    0    0  0.21611386987E-01 -0.98018554552E-02 -0.27126600958E-02  0.10200451315E+01  0.10197654551E+01 0.  0.
     999903    2    3    3    0    0  0.44206385406E-01 -0.51167406499E-01 -0.11185923268E+00  0.13205041471E+00  0.18775411880E-01 0.  0.
         14    1    1    2    0    0 -0.21611386987E-01  0.98018554552E-02  0.27126600958E-02  0.23884868487E-01  0.00000000000E+00 0.  1.
     999901    1    3    3    0    0 -0.22594998419E-01  0.41365551044E-01  0.10914657258E+00  0.88799471680E+00  0.88000000000E+00 0. -1.
        -11    1    4    4    0    0  0.22015422677E-01 -0.11995081042E-01 -0.43006886032E-01  0.49783673750E-01  0.51100000000E-03 0.  1.
         11    1    4    4    0    0  0.22190962729E-01 -0.39172325457E-01 -0.68852346643E-01  0.82266740958E-01  0.51100000000E-03 0. -1.
</event>
<event>
 8    1  0.1135368E+005  0.1043930E+01  0.7957747E-01            NaN
         13   -1    0    0    0    0  0.00000000000E+00  0.00000000000E+00  0.74505805969E-08  0.10566000000E+00  0.10566000000E+00 0.  1.
     999900   -1    0    0    0    0 -0.00000000000E+00 -0.00000000000E+00 -0.74505805969E-08  0.93827000000E+00  0.93827000000E+00 0.  1.
     999902    2    1    2    0    0  0.23883587511E-01  0.45349745797E-02  0.34326741960E-02  0.10193785235E+01  0.10190828225E+01 0.  0.
     999903    2    3    3    0    0  0.65360112966E-01 -0.10522785457E+00 -0.36676171281E-01  0.13068459400E+00  0.19709790036E-01 0.  0.
         14    1    1    2    0    0 -0.23883587511E-01 -0.45349745797E-02 -0.34326741960E-02  0.24551476513E-01  0.00000000000E+00 0. -1.
     999901    1    3    3    0    0 -0.41476525454E-01  0.10976282915E+00  0.40108845477E-01  0.88869392949E+00  0.88000000000E+00 0. -1.
        -11    1    4    4    0    0  0.25379496335E-01 -0.41060383222E-01 -0.43856562430E-02  0.48472353009E-01  0.51100000000E-03 0.  1.
         11    1    4    4    0    0  0.39980616631E-01 -0.64167471351E-01 -0.32290515038E-01  0.82212240987E-01  0.51100000000E-03 0. -1.
</event>
<event>
 8    1  0.1135368E+005  0.1043930E+01  0.7957747E-01            NaN
         13   -1    0    0    0    0  0.00000000000E+00  0.00000000000E+00  0.74505805969E-08  0.10566000000E+00  0.10566000000E+00 0.  1.
     999900   -1    0    0    0    0 -0.00000000000E+00 -0.00000000000E+00 -0.74505805969E-08  0.93827000000E+00  0.93827000000E+00 0.  1.
     999902    2    1    2    0    0 -0.22139789917E-01  0.14756084206E-01 -0.14857256129E-01  0.10134562346E+01  0.10129979709E+01 0.  0.
     999903    2    3    3    0    0 -0.12203239204E+00  0.14599850291E-01  0.24979409268E-01  0.12690927234E+00  0.19414741384E-01 0.  0.
         14    1    1    2    0    0  0.22139789917E-01 -0.14756084206E-01  0.14857256129E-01  0.30473765412E-01  0.00000000000E+00 0.  1.
     999901    1    3    3    0    0  0.99892602119E-01  0.15623391486E-03 -0.39836665397E-01  0.88654696225E+00  0.88000000000E+00 0. -1.
        -11    1    4    4    0    0 -0.83414625172E-01  0.64440733661E-02  0.25395834803E-01  0.87434177073E-01  0.51100000000E-03 0.  1.
         11    1    4    4    0    0 -0.38617766864E-01  0.81557769254E-02 -0.41642553457E-03  0.39475095263E-01  0.51100000000E-03 0. -1.
</event>
<event>
 8    1  0.1135368E+005  0.1043930E+01  0.7957747E-01            NaN
         13   -1    0    0    0    0  0.00000000000E+00  0.00000000000E+00  0.74505805969E-08  0.10566000000E+00  0.10566000000E+00 0. -1.
     999900   -1    0    0    0    0 -0.00000000000E+00 -0.00000000000E+00 -0.74505805969E-08  0.93827000000E+00  0.93827000000E+00 0.  1.
     999902    2    1    2    0    0 -0.23165839438E-01 -0.77671080462E-02 -0.79077532857E-02  0.10182489438E+01  0.10179250439E+01 0.  0.
     999903    2    3    3    0    0  0.63514740884E-01 -0.93378112623E-01 -0.55973978701E-01  0.12855622769E+00  0.25298679031E-01 0.  0.
         14    1    1    2    0    0  0.23165839438E-01  0.77671080462E-02  0.79077532857E-02  0.25681056176E-01  0.00000000000E+00 0. -1.
     999901    1    3    3    0    0 -0.86680580322E-01  0.85611004577E-01  0.48066225416E-01  0.88969271613E+00  0.88000000000E+00 0.  1.
        -11    1    4    4    0    0  0.36565396316E-01 -0.49377492334E-01 -0.16594022624E-01  0.63645798485E-01  0.51100000000E-03 0.  1.
         11    1    4    4    0    0  0.26949344568E-01 -0.44000620289E-01 -0.39379956078E-01  0.64910429209E-01  0.51100000000E-03 0. -1.
</event>
<event>
 8    1  0.1135368E+005  0.1043930E+01  0.7957747E-01            NaN
         13   -1    0    0    0    0  0.00000000000E+00  0.00000000000E+00  0.74505805969E-08  0.10566000000E+00  0.10566000000E+00 0.  1.
     999900   -1    0    0    0    0 -0.00000000000E+00 -0.00000000000E+00 -0.74505805969E-08  0.93827000000E+00  0.93827000000E+00 0.  1.
     999902    2    1    2    0    0 -0.14624423163E-01  0.18363516252E-01 -0.44532754810E-02  0.10200359810E+01  0.10197560877E+01 0.  0.
     999903    2    3    3    0    0 -0.24580218096E-01  0.74310066089E-01  0.10368395081E+00  0.13159757907E+00  0.21009238865E-01 0.  0.
         14    1    1    2    0    0  0.14624423163E-01 -0.18363516252E-01  0.44532754810E-02  0.23894019011E-01  0.00000000000E+00 0. -1.
     999901    1    3    3    0    0  0.99557949333E-02 -0.55946549837E-01 -0.10813722629E+00  0.88843840192E+00  0.88000000000E+00 0. -1.
        -11    1    4    4    0    0 -0.54503905869E-02  0.85821875118E-02  0.46134770632E-02  0.11176134916E-01  0.51100000000E-03 0.  1.
         11    1    4    4    0    0 -0.19129827509E-01  0.65727878577E-01  0.99070473749E-01  0.12042144416E+00  0.51100000000E-03 0. -1.
</event>
<event>
 8    1  0.1135368E+005  0.1043930E+01  0.7957747E-01            NaN
         13   -1    0    0    0    0  0.00000000000E+00  0.00000000000E+00  0.74505805969E-08  0.10566000000E+00  0.10566000000E+00 0. -1.
     999900   -1    0    0    0    0 -0.00000000000E+00 -0.00000000000E+00 -0.74505805969E-08  0.93827000000E+00  0.93827000000E+00 0. -1.
     999902    2    1    2    0    0 -0.24129297108E-02 -0.55455686490E-02 -0.22990952467E-01  0.10201569174E+01  0.10198798834E+01 0.  0.
     999903    2    3    3    0    0 -0.11908882709E-01 -0.51830006534E-01  0.11479593087E+00  0.12818290009E+00  0.20605316500E-01 0.  0.
         14    1    1    2    0    0  0.24129297108E-02  0.55455686490E-02  0.22990952467E-01  0.23773082610E-01  0.00000000000E+00 0. -1.
     999901    1    3    3    0    0  0.94959529986E-02  0.46284437885E-01 -0.13778688333E+00  0.89197401730E+00  0.88000000000E+00 0. -1.
        -11    1    4    4    0    0 -0.83800264678E-03 -0.35248980018E-01  0.56822680586E-01  0.66875040117E-01  0.51100000000E-03 0.  1.
         11    1    4    4    0    0 -0.11070880063E-01 -0.16581026516E-01  0.57973250281E-01  0.61307859976E-01  0.51100000000E-03 0. -1.
</event>
<event>
 7    1  0.1241439E+005  0.1043930E+01  0.7957747E-01            NaN
         13   -1    0    0    0    0  0.00000000000E+00  0.00000000000E+00  0.74505805969E-08  0.10566000000E+00  0.10566000000E+00 0.  1.
     999900   -1    0    0    0    0 -0.00000000000E+00 -0.00000000000E+00 -0.74505805969E-08  0.93827000000E+00  0.93827000000E+00 0. -1.
     999903    2    1    2    0    0  0.59980885880E-01 -0.81386691579E-01 -0.49112748243E-02  0.10319386588E+00  0.20083652482E-01 0.  0.
         14    1    1    2    0    0  0.22775569398E-01 -0.22083900232E-01 -0.38344945401E-01  0.49767057866E-01  0.00000000000E+00 0. -1.
     999901    1    1    2    0    0 -0.82756455277E-01  0.10347059181E+00  0.43256220225E-01  0.89096907626E+00  0.88000000000E+00 0.  1.
        -11    1    3    3    0    0  0.19344888553E-01 -0.39424201687E-01  0.40123864927E-02  0.44100484783E-01  0.51100000000E-03 0.  1.
         11    1    3    3    0    0  0.40635997327E-01 -0.41962489892E-01 -0.89236613170E-02  0.59093381093E-01  0.51100000000E-03 0. -1.
</event>
<event>
 8    1  0.1135368E+005  0.1043930E+01  0.7957747E-01            NaN
         13   -1    0    0    0    0  0.00000000000E+00  0.00000000000E+00  0.74505805969E-08  0.10566000000E+00  0.10566000000E+00 0. -1.
     999900   -1    0    0    0    0 -0.00000000000E+00 -0.00000000000E+00 -0.74505805969E-08  0.93827000000E+00  0.93827000000E+00 0.  1.
     999902    2    1    2    0    0 -0.69706767161E-02  0.11328236928E-01  0.19555667292E-01  0.10202795580E+01  0.10200054083E+01 0.  0.
     999903    2    3    3    0    0  0.12470792876E+00 -0.21594003419E-01 -0.15695617388E-01  0.12917587032E+00  0.20534960123E-01 0.  0.
         14    1    1    2    0    0  0.69706767161E-02 -0.11328236928E-01 -0.19555667292E-01  0.23650442047E-01  0.00000000000E+00 0.  1.
     999901    1    3    3    0    0 -0.13167860548E+00  0.32922240347E-01  0.35251284680E-01  0.89110368764E+00  0.88000000000E+00 0.  1.
        -11    1    4    4    0    0  0.64755987032E-01 -0.21534579063E-01 -0.72186243510E-02  0.68625400622E-01  0.51100000000E-03 0. -1.
         11    1    4    4    0    0  0.59951941728E-01 -0.59424355913E-04 -0.84769930368E-02  0.60550469694E-01  0.51100000000E-03 0.  1.
</event>
<event>
 8    1  0.1135368E+005  0.1043930E+01  0.7957747E-01            NaN
         13   -1    0    0    0    0  0.00000000000E+00  0.00000000000E+00  0.74505805969E-08  0.10566000000E+00  0.10566000000E+00 0.  1.
     999900   -1    0    0    0    0 -0.00000000000E+00 -0.00000000000E+00 -0.74505805969E-08  0.93827000000E+00  0.93827000000E+00 0. -1.
     999902    2    1    2    0    0  0.15940293673E-02  0.15032302125E-01  0.19306692896E-01  0.10194094081E+01  0.10191144597E+01 0.  0.
     999903    2    3    3    0    0  0.52889323687E-02  0.12792780498E+00 -0.21133245736E-01  0.13126840830E+00  0.19780921401E-01 0.  0.
         14    1    1    2    0    0 -0.15940293673E-02 -0.15032302125E-01 -0.19306692896E-01  0.24520591905E-01  0.00000000000E+00 0. -1.
     999901    1    3    3    0    0 -0.36949030013E-02 -0.11289550285E+00  0.40439938632E-01  0.88814099979E+00  0.88000000000E+00 0.  1.
        -11    1    4    4    0    0  0.63622650266E-02  0.44505101760E-01 -0.15841213578E-01  0.47669567520E-01  0.51100000000E-03 0. -1.
         11    1    4    4    0    0 -0.10733326579E-02  0.83422703217E-01 -0.52920321581E-02  0.83598840784E-01  0.51100000000E-03 0.  1.
</event>
<event>
 8    1  0.1135368E+005  0.1043930E+01  0.7957747E-01            NaN
         13   -1    0    0    0    0  0.00000000000E+00  0.00000000000E+00  0.74505805969E-08  0.10566000000E+00  0.10566000000E+00 0. -1.
     999900   -1    0    0    0    0 -0.00000000000E+00 -0.00000000000E+00 -0.74505805969E-08  0.93827000000E+00  0.93827000000E+00 0.  1.
     999902    2    1    2    0    0 -0.15373024799E-01 -0.81621332566E-02  0.19089488543E-01  0.10180967098E+01  0.10177689087E+01 0.  0.
     999903    2    3    3    0    0 -0.45206724460E-02 -0.40037288071E-01 -0.11934037853E+00  0.12663912406E+00  0.13111860194E-01 0.  0.
         14    1    1    2    0    0  0.15373024799E-01  0.81621332566E-02 -0.19089488543E-01  0.25833290220E-01  0.00000000000E+00 0.  1.
     999901    1    3    3    0    0 -0.10852352353E-01  0.31875154815E-01  0.13842986708E+00  0.89145758572E+00  0.88000000000E+00 0. -1.
        -11    1    4    4    0    0 -0.89616047306E-02 -0.30875380816E-01 -0.92380260426E-01  0.97816016773E-01  0.51100000000E-03 0.  1.
         11    1    4    4    0    0  0.44409322847E-02 -0.91619072555E-02 -0.26960118107E-01  0.28823107283E-01  0.51100000000E-03 0. -1.
</event>
<event>
 8    1  0.1135368E+005  0.1043930E+01  0.7957747E-01            NaN
         13   -1    0    0    0    0  0.00000000000E+00  0.00000000000E+00  0.74505805969E-08  0.10566000000E+00  0.10566000000E+00 0.  1.
     999900   -1    0    0    0    0 -0.00000000000E+00 -0.00000000000E+00 -0.74505805969E-08  0.93827000000E+00  0.93827000000E+00 0. -1.
     999902    2    1    2    0    0  0.22979787335E-01  0.14330014701E-02 -0.14488568713E-02  0.10208600346E+01  0.10205993273E+01 0.  0.
     999903    2    3    3    0    0 -0.84197296268E-01  0.52900174298E-01 -0.80227259208E-01  0.12937709372E+00  0.20356967370E-01 0.  0.
         14    1    1    2    0    0 -0.22979787335E-01 -0.14330014701E-02  0.14488568713E-02  0.23069965441E-01  0.00000000000E+00 0.  1.
     999901    1    3    3    0    0  0.10717708360E+00 -0.51467172828E-01  0.78778402336E-01  0.89148294084E+00  0.88000000000E+00 0.  1.
        -11    1    4    4    0    0 -0.79496597362E-01  0.44214105893E-01 -0.67579672745E-01  0.11332197246E+00  0.51100000000E-03 0. -1.
         11    1    4    4    0    0 -0.47006989060E-02  0.86860684050E-02 -0.12647586463E-01  0.16055121267E-01  0.51100000000E-03 0.  1.
</event>
<event>
 8    1  0.1135368E+005  0.1043930E+01  0.7957747E-01            NaN
         13   -1    0    0    0    0  0.00000000000E+00  0.00000000000E+00  0.74505805969E-08  0.10566000000E+00  0.10566000000E+00 0.  1.
     999900   -1    0    0    0    0 -0.00000000000E+00 -0.00000000000E+00 -0.74505805969E-08  0.93827000000E+00  0.93827000000E+00 0. -1.
     999902    2    1    2    0    0 -0.11233415875E-01 -0.56209864390E-02 -0.19590356899E-01  0.10206584035E+01  0.10203930661E+01 0.  0.
     999903    2    3    3    0    0  0.88515393838E-01  0.88806860593E-01 -0.27718107184E-01  0.12996625484E+00  0.20032486052E-01 0.  0.
         14    1    1    2    0    0  0.11233415875E-01  0.56209864390E-02  0.19590356899E-01  0.23271596511E-01  0.00000000000E+00 0.  1.
     999901    1    3    3    0    0 -0.99748809713E-01 -0.94427847032E-01  0.81277502853E-02  0.89069214865E+00  0.88000000000E+00 0. -1.
        -11    1    4    4    0    0  0.80723449806E-01  0.70944167369E-01 -0.24106937024E-01  0.11013971021E+00  0.51100000000E-03 0.  1.
         11    1    4    4    0    0  0.77919440316E-02  0.17862693225E-01 -0.36111701597E-02  0.19826544630E-01  0.51100000000E-03 0. -1.
</event>
<event>
 8    1  0.1135368E+005  0.1043930E+01  0.7957747E-01            NaN
         13   -1    0    0    0    0  0.00000000000E+00  0.00000000000E+00  0.74505805969E-08  0.10566000000E+00  0.10566000000E+00 0.  1.
     999900   -1    0    0    0    0 -0.00000000000E+00 -0.00000000000E+00 -0.74505805969E-08  0.93827000000E+00  0.93827000000E+00 0.  1.
     999902    2    1    2    0    0  0.62924121950E-02  0.16545257329E-01 -0.15477000232E-01  0.10204166521E+01  0.10201457084E+01 0.  0.
     999903    2    3    3    0    0  0.20712097933E-01  0.79231584668E-01 -0.10379021512E+00  0.13366035704E+00  0.19648085902E-01 0.  0.
         14    1    1    2    0    0 -0.62924121950E-02 -0.16545257329E-01  0.15477000232E-01  0.23513347859E-01  0.00000000000E+00 0.  1.
     999901    1    3    3    0    0 -0.14419685738E-01 -0.62686327339E-01  0.88313214892E-01  0.88675629510E+00  0.88000000000E+00 0. -1.
        -11    1    4    4    0    0  0.22703845047E-01  0.61964276554E-01 -0.89211120317E-01  0.11096810919E+00  0.51100000000E-03 0. -1.
         11    1    4    4    0    0 -0.19917471139E-02  0.17267308114E-01 -0.14579094807E-01  0.22692247849E-01  0.51100000000E-03 0.  1.
</event>
<event>
 8    1  0.1135368E+005  0.1043930E+01  0.7957747E-01            NaN
         13   -1    0    0    0    0  0.00000000000E+00  0.00000000000E+00  0.74505805969E-08  0.10566000000E+00  0.10566000000E+00 0.  1.
     999900   -1    0    0    0    0 -0.00000000000E+00 -0.00000000000E+00 -0.74505805969E-08  0.93827000000E+00  0.93827000000E+00 0.  1.
     999902    2    1    2    0    0 -0.46655894952E-02  0.19656759260E-01  0.12903308986E-01  0.10199581145E+01  0.10196763722E+01 0.  0.
     999903    2    3    3    0    0 -0.34944997185E-01 -0.99889644099E-01  0.71939262129E-01  0.12940018332E+00  0.19236844365E-01 0.  0.
         14    1    1    2    0    0  0.46655894952E-02 -0.19656759260E-01 -0.12903308986E-01  0.23971885465E-01  0.00000000000E+00 0. -1.
     999901    1    3    3    0    0  0.30279407690E-01  0.11954640336E+00 -0.59035953143E-01  0.89055793121E+00  0.88000000000E+00 0.  1.
        -11    1    4    4    0    0 -0.57479634038E-02 -0.29903726098E-01  0.11983179937E-01  0.32728116967E-01  0.51100000000E-03 0.  1.
         11    1    4    4    0    0 -0.29197033781E-01 -0.69985918001E-01  0.59956082192E-01  0.96672066353E-01  0.51100000000E-03 0. -1.
</event>
<event>
 8    1  0.1135368E+005  0.1043930E+01  0.7957747E-01            NaN
         13   -1    0    0    0    0  0.00000000000E+00  0.00000000000E+00  0.74505805969E-08  0.10566000000E+00  0.10566000000E+00 0. -1.
     999900   -1    0    0    0    0 -0.00000000000E+00 -0.00000000000E+00 -0.74505805969E-08  0.93827000000E+00  0.93827000000E+00 0.  1.
     999902    2    1    2    0    0 -0.25362974613E-01 -0.94782783207E-03  0.42500357784E-02  0.10181959435E+01  0.10178706881E+01 0.  0.
     999903    2    3    3    0    0  0.10149528387E+00  0.27994342279E-01  0.67260904274E-01  0.12639942160E+00  0.19178339086E-01 0.  0.
         14    1    1    2    0    0  0.25362974613E-01  0.94782783207E-03 -0.42500357784E-02  0.25734056481E-01  0.00000000000E+00 0. -1.
     999901    1    3    3    0    0 -0.12685825848E+00 -0.28942170111E-01 -0.63010868495E-01  0.89179652192E+00  0.88000000000E+00 0.  1.
        -11    1    4    4    0    0 -0.40881944794E-03  0.16102463707E-02  0.13602909180E-02  0.22071563372E-02  0.51100000000E-03 0. -1.
         11    1    4    4    0    0  0.10190410332E+00  0.26384095909E-01  0.65900613356E-01  0.12419226526E+00  0.51100000000E-03 0.  1.
</event>
<event>
 8    1  0.1135368E+005  0.1043930E+01  0.7957747E-01            NaN
         13   -1    0    0    0    0  0.00000000000E+00  0.00000000000E+00  0.74505805969E-08  0.10566000000E+00  0.10566000000E+00 0.  1.
     999900   -1    0    0    0    0 -0.00000000000E+00 -0.00000000000E+00 -0.74505805969E-08  0.93827000000E+00  0.93827000000E+00 0. -1.
     999902    2    1    2    0    0 -0.41401707310E-02 -0.20213019300E-02 -0.23210229643E-01  0.10202669183E+01  0.10199924721E+01 0.  0.
     999903    2    3    3    0    0 -0.96384033815E-01  0.17540773257E-01 -0.87826261332E-01  0.13287363649E+00  0.18557758307E-01 0.  0.
         14    1    1    2    0    0  0.41401707310E-02  0.20213019300E-02  0.23210229643E-01  0.23663081694E-01  0.00000000000E+00 0.  1.
     999901    1    3    3    0    0  0.92243863083E-01 -0.19562075187E-01  0.64616031689E-01  0.88739328182E+00  0.88000000000E+00 0.  1.
        -11    1    4    4    0    0 -0.48155902946E-01  0.94355049710E-04 -0.47342600585E-01  0.67532087504E-01  0.51100000000E-03 0.  1.
         11    1    4    4    0    0 -0.48228130868E-01  0.17446418207E-01 -0.40483660747E-01  0.65341548985E-01  0.51100000000E-03 0. -1.
</event>
<event>
 8    1  0.1135368E+005  0.1043930E+01  0.7957747E-01            NaN
         13   -1    0    0    0    0  0.00000000000E+00  0.00000000000E+00  0.74505805969E-08  0.10566000000E+00  0.10566000000E+00 0.  1.
     999900   -1    0    0    0    0 -0.00000000000E+00 -0.00000000000E+00 -0.74505805969E-08  0.93827000000E+00  0.93827000000E+00 0.  1.
     999902    2    1    2    0    0 -0.60062290621E-02 -0.17518007627E-01  0.17347721484E-01  0.10185548385E+01  0.10182387050E+01 0.  0.
     999903    2    3    3    0    0  0.10645363092E-01  0.12480054647E+00  0.56914418072E-02  0.12688914153E+00  0.19492603067E-01 0.  0.
         14    1    1    2    0    0  0.60062290621E-02  0.17518007627E-01 -0.17347721484E-01  0.25375161467E-01  0.00000000000E+00 0. -1.
     999901    1    3    3    0    0 -0.16651592154E-01 -0.14231855409E+00  0.11656279677E-01  0.89166569701E+00  0.88000000000E+00 0. -1.
        -11    1    4    4    0    0  0.31738391850E-02  0.15517876350E-01 -0.55123183880E-02  0.16778692339E-01  0.51100000000E-03 0.  1.
         11    1    4    4    0    0  0.74715239071E-02  0.10928267012E+00  0.11203760195E-01  0.11011044919E+00  0.51100000000E-03 0. -1.
</event>
<event>
 8    1  0.1135368E+005  0.1043930E+01  0.7957747E-01            NaN
         13   -1    0    0    0    0  0.00000000000E+00  0.00000000000E+00  0.74505805969E-08  0.10566000000E+00  0.10566000000E+00 0.  1.
     999900   -1    0    0    0    0 -0.00000000000E+00 -0.00000000000E+00 -0.74505805969E-08  0.93827000000E+00  0.93827000000E+00 0. -1.
     999902    2    1    2    0    0  0.12743966582E-01  0.15067085875E-01  0.20785118837E-01  0.10152691046E+01  0.10148644776E+01 0.  0.
     999903    2    3    3    0    0  0.84882105667E-01  0.93426785278E-01  0.15837375815E-01  0.12883318825E+00  0.20337941213E-01 0.  0.
         14    1    1    2    0    0 -0.12743966582E-01 -0.15067085875E-01 -0.20785118837E-01  0.28660895416E-01  0.00000000000E+00 0. -1.
     999901    1    3    3    0    0 -0.72138139085E-01 -0.78359699403E-01  0.49477430223E-02  0.88643591633E+00  0.88000000000E+00 0.  1.
        -11    1    4    4    0    0  0.32688364413E-01  0.50822943111E-01  0.92902359419E-02  0.61139760544E-01  0.51100000000E-03 0.  1.
         11    1    4    4    0    0  0.52193741254E-01  0.42603842167E-01  0.65471398729E-02  0.67693427709E-01  0.51100000000E-03 0. -1.
</event>
<event>
 8    1  0.1135368E+005  0.1043930E+01  0.7957747E-01            NaN
         13   -1    0    0    0    0  0.00000000000E+00  0.00000000000E+00  0.74505805969E-08  0.10566000000E+00  0.10566000000E+00 0.  1.
     999900   -1    0    0    0    0 -0.00000000000E+00 -0.00000000000E+00 -0.74505805969E-08  0.93827000000E+00  0.93827000000E+00 0. -1.
     999902    2    1    2    0    0  0.16431157503E-01 -0.47041458793E-02 -0.13085839628E-01  0.10224044077E+01  0.10221777838E+01 0.  0.
     999903    2    3    3    0    0  0.16041761624E-02  0.95872386198E-01 -0.90274455847E-01  0.13319489321E+00  0.19932746468E-01 0.  0.
         14    1    1    2    0    0 -0.16431157503E-01  0.47041458793E-02  0.13085839628E-01  0.21525592305E-01  0.00000000000E+00 0.  1.
     999901    1    3    3    0    0  0.14826981340E-01 -0.10057653208E+00  0.77188616219E-01  0.88920951449E+00  0.88000000000E+00 0.  1.
        -11    1    4    4    0    0 -0.18127536276E-03  0.49332546820E-01 -0.59844243540E-01  0.77558543323E-01  0.51100000000E-03 0.  1.
         11    1    4    4    0    0  0.17854515252E-02  0.46539839377E-01 -0.30430212307E-01  0.55636349884E-01  0.51100000000E-03 0. -1.
</event>
<event>
 8    1  0.1135368E+005  0.1043930E+01  0.7957747E-01            NaN
         13   -1    0    0    0    0  0.00000000000E+00  0.00000000000E+00  0.74505805969E-08  0.10566000000E+00  0.10566000000E+00 0.  1.
     999900   -1    0    0    0    0 -0.00000000000E+00 -0.00000000000E+00 -0.74505805969E-08  0.93827000000E+00  0.93827000000E+00 0.  1.
     999902    2    1    2    0    0  0.30953157194E-02  0.23623696319E-01 -0.21429415603E-02  0.10200082065E+01  0.10197276544E+01 0.  0.
     999903    2    3    3    0    0 -0.11662643443E+00  0.54900306734E-01  0.13332694933E-01  0.13121631905E+00  0.20595939998E-01 0.  0.
         14    1    1    2    0    0 -0.30953157194E-02 -0.23623696319E-01  0.21429415603E-02  0.23921793530E-01  0.00000000000E+00 0.  1.
     999901    1    3    3    0    0  0.11972175015E+00 -0.31276610416E-01 -0.15475636494E-01  0.88879188742E+00  0.88000000000E+00 0.  1.
        -11    1    4    4    0    0 -0.47538575644E-01  0.32743051181E-01  0.99868558924E-02  0.58583461716E-01  0.51100000000E-03 0.  1.
         11    1    4    4    0    0 -0.69087858783E-01  0.22157255553E-01  0.33458390411E-02  0.72632857335E-01  0.51100000000E-03 0. -1.
</event>
<event>
 8    1  0.1135368E+005  0.1043930E+01  0.7957747E-01            NaN
         13   -1    0    0    0    0  0.00000000000E+00  0.00000000000E+00  0.74505805969E-08  0.10566000000E+00  0.10566000000E+00 0.  1.
     999900   -1    0    0    0    0 -0.00000000000E+00 -0.00000000000E+00 -0.74505805969E-08  0.93827000000E+00  0.93827000000E+00 0.  1.
     999902    2    1    2    0    0  0.17699604574E-01 -0.10261605012E-01  0.10344713556E-01  0.10210042582E+01  0.10207468372E+01 0.  0.
     999903    2    3    3    0    0  0.88527798366E-02  0.12619781228E+00 -0.20744339272E-01  0.12990046620E+00  0.20965303979E-01 0.  0.
         14    1    1    2    0    0 -0.17699604574E-01  0.10261605012E-01 -0.10344713556E-01  0.22925741821E-01  0.00000000000E+00 0. -1.
     999901    1    3    3    0    0  0.88468247370E-02 -0.13645941729E+00  0.31089052828E-01  0.89110379198E+00  0.88000000000E+00 0.  1.
        -11    1    4    4    0    0 -0.19752103307E-02  0.27988981043E-01  0.31717661516E-02  0.28241914546E-01  0.51100000000E-03 0. -1.
         11    1    4    4    0    0  0.10827990167E-01  0.98208831240E-01 -0.23916105423E-01  0.10165855165E+00  0.51100000000E-03 0.  1.
</event>
<event>
 8    1  0.1135368E+005  0.1043930E+01  0.7957747E-01            NaN
         13   -1    0    0    0    0  0.00000000000E+00  0.00000000000E+00  0.74505805969E-08  0.10566000000E+00  0.10566000000E+00 0.  1.
     999900   -1    0    0    0    0 -0.00000000000E+00 -0.00000000000E+00 -0.74505805969E-08  0.93827000000E+00  0.93827000000E+00 0. -1.
     999902    2    1    2    0    0 -0.66353607241E-02 -0.21667491876E-01  0.61165112143E-02  0.10204583165E+01  0.10201883433E+01 0.  0.
     999903    2    3    3    0    0  0.67436439735E-02 -0.13114630150E+00 -0.97506824814E-02  0.13343161153E+00  0.21542748538E-01 0.  0.
         14    1    1    2    0    0  0.66353607241E-02  0.21667491876E-01 -0.61165112143E-02  0.23471683484E-01  0.00000000000E+00 0. -1.
     999901    1    3    3    0    0 -0.13379004698E-01  0.10947880963E+00  0.15867193696E-01  0.88702670499E+00  0.88000000000E+00 0. -1.
        -11    1    4    4    0    0 -0.17076925454E-03 -0.50093364749E-01 -0.13862325660E-01  0.51978837499E-01  0.51100000000E-03 0.  1.
         11    1    4    4    0    0  0.69144132281E-02 -0.81052936753E-01  0.41116431781E-02  0.81452774030E-01  0.51100000000E-03 0. -1.
</event>
<event>
 8    1  0.1135368E+005  0.1043930E+01  0.7957747E-01            NaN
         13   -1    0    0    0    0  0.00000000000E+00  0.00000000000E+00  0.74505805969E-08  0.10566000000E+00  0.10566000000E+00 0.  1.
     999900   -1    0    0    0    0 -0.00000000000E+00 -0.00000000000E+00 -0.74505805969E-08  0.93827000000E+00  0.93827000000E+00 0. -1.
     999902    2    1    2    0    0 -0.12880071763E-01  0.19543645076E-01  0.61706649228E-02  0.10197240624E+01  0.10194367248E+01 0.  0.
     999903    2    3    3    0    0  0.90340133571E-01 -0.11526895967E-01 -0.87913739504E-01  0.12816830725E+00  0.20101749326E-01 0.  0.
         14    1    1    2    0    0  0.12880071763E-01 -0.19543645076E-01 -0.61706649228E-02  0.24205937641E-01  0.00000000000E+00 0.  1.
     999901    1    3    3    0    0 -0.10322020533E+00  0.31070541043E-01  0.94084404426E-01  0.89155575511E+00  0.88000000000E+00 0.  1.
        -11    1    4    4    0    0  0.81457766142E-01 -0.43878491575E-02 -0.73661203048E-01  0.10991294210E+00  0.51100000000E-03 0.  1.
         11    1    4    4    0    0  0.88823674288E-02 -0.71390468092E-02 -0.14252536455E-01  0.18255365153E-01  0.51100000000E-03 0. -1.
</event>
<event>
 8    1  0.1135368E+005  0.1043930E+01  0.7957747E-01            NaN
         13   -1    0    0    0    0  0.00000000000E+00  0.00000000000E+00  0.74505805969E-08  0.10566000000E+00  0.10566000000E+00 0.  1.
     999900   -1    0    0    0    0 -0.00000000000E+00 -0.00000000000E+00 -0.74505805969E-08  0.93827000000E+00  0.93827000000E+00 0.  1.
     999902    2    1    2    0    0 -0.18173397180E-01  0.15132986389E-01 -0.11063747168E-02  0.10202550405E+01  0.10199803155E+01 0.  0.
     999903    2    3    3    0    0  0.11974491123E+00  0.29560600119E-01 -0.30527242663E-01  0.12891043638E+00  0.21755808818E-01 0.  0.
         14    1    1    2    0    0  0.18173397180E-01 -0.15132986389E-01  0.11063747168E-02  0.23674959496E-01  0.00000000000E+00 0.  1.
     999901    1    3    3    0    0 -0.13791830841E+00 -0.14427613730E-01  0.29420867946E-01  0.89134460413E+00  0.88000000000E+00 0. -1.
        -11    1    4    4    0    0  0.66274629858E-01  0.25695035883E-01 -0.11418117824E-01  0.71994416224E-01  0.51100000000E-03 0.  1.
         11    1    4    4    0    0  0.53470281374E-01  0.38655642364E-02 -0.19109124839E-01  0.56916020154E-01  0.51100000000E-03 0. -1.
</event>
<event>
 8    1  0.1135368E+005  0.1043930E+01  0.7957747E-01            NaN
         13   -1    0    0    0    0  0.00000000000E+00  0.00000000000E+00  0.74505805969E-08  0.10566000000E+00  0.10566000000E+00 0.  1.
     999900   -1    0    0    0    0 -0.00000000000E+00 -0.00000000000E+00 -0.74505805969E-08  0.93827000000E+00  0.93827000000E+00 0. -1.
     999902    2    1    2    0    0  0.19091536641E-01  0.12000786779E-01  0.17538744096E-02  0.10213118274E+01  0.10210613435E+01 0.  0.
     999903    2    3    3    0    0  0.37482784598E-02 -0.83191526245E-01  0.98953295092E-01  0.13072509982E+00  0.19037265625E-01 0.  0.
         14    1    1    2    0    0 -0.19091536641E-01 -0.12000786779E-01 -0.17538744096E-02  0.22618172563E-01  0.00000000000E+00 0.  1.
     999901    1    3    3    0    0  0.15343258181E-01  0.95192313025E-01 -0.97199420682E-01  0.89058672762E+00  0.88000000000E+00 0. -1.
        -11    1    4    4    0    0  0.34425615950E-02 -0.44341584346E-01  0.66998616364E-01  0.80418300456E-01  0.51100000000E-03 0. -1.
         11    1    4    4    0    0  0.30571686479E-03 -0.38849941900E-01  0.31954678728E-01  0.50306799362E-01  0.51100000000E-03 0.  1.
</event>
<event>
 8    1  0.1135368E+005  0.1043930E+01  0.7957747E-01            NaN
         13   -1    0    0    0    0  0.00000000000E+00  0.00000000000E+00  0.74505805969E-08  0.10566000000E+00  0.10566000000E+00 0.  1.
     999900   -1    0    0    0    0 -0.00000000000E+00 -0.00000000000E+00 -0.74505805969E-08  0.93827000000E+00  0.93827000000E+00 0.  1.
     999902    2    1    2    0    0 -0.21855563529E-01 -0.51680940768E-02 -0.88629975510E-02  0.10197861068E+01  0.10195002580E+01 0.  0.
     999903    2    3    3    0    0  0.28930852752E-01  0.89822748954E-01  0.84724420574E-01  0.12829234620E+00  0.19379839592E-01 0.  0.
         14    1    1    2    0    0  0.21855563529E-01  0.51680940768E-02  0.88629975510E-02  0.24143893206E-01  0.00000000000E+00 0.  1.
     999901    1    3    3    0    0 -0.50786416281E-01 -0.94990843030E-01 -0.93587418125E-01  0.89149376059E+00  0.88000000000E+00 0.  1.
        -11    1    4    4    0    0  0.10688159736E-01  0.18224741671E-01  0.10642587763E-01  0.23662285663E-01  0.51100000000E-03 0. -1.
         11    1    4    4    0    0  0.18242693016E-01  0.71598007283E-01  0.74081832811E-01  0.10463006054E+00  0.51100000000E-03 0.  1.
</event>
<event>
 8    1  0.1135368E+005  0.1043930E+01  0.7957747E-01            NaN
         13   -1    0    0    0    0  0.00000000000E+00  0.00000000000E+00  0.74505805969E-08  0.10566000000E+00  0.10566000000E+00 0. -1.
     999900   -1    0    0    0    0 -0.00000000000E+00 -0.00000000000E+00 -0.74505805969E-08  0.93827000000E+00  0.93827000000E+00 0. -1.
     999902    2    1    2    0    0 -0.17978696563E-01 -0.34622576047E-02  0.18677880560E-01  0.10177750009E+01  0.10174388770E+01 0.  0.
     999903    2    3    3    0    0 -0.10749135955E+00  0.70051000976E-01  0.18641916135E-03  0.12999200363E+00  0.20889019631E-01 0.  0.
         14    1    1    2    0    0  0.17978696563E-01  0.34622576047E-02 -0.18677880560E-01  0.26154999141E-01  0.00000000000E+00 0.  1.
     999901    1    3    3    0    0  0.89512662983E-01 -0.73513258581E-01  0.18491461399E-01  0.88778299723E+00  0.88000000000E+00 0. -1.
        -11    1    4    4    0    0 -0.45318470005E-01  0.40685004356E-01 -0.45096941004E-02  0.61070711187E-01  0.51100000000E-03 0. -1.
         11    1    4    4    0    0 -0.62172889542E-01  0.29365996620E-01  0.46961132618E-02  0.68921292445E-01  0.51100000000E-03 0.  1.
</event>
<event>
 7    1  0.1135368E+005  0.1043930E+01  0.7957747E-01            NaN
         13   -1    0    0    0    0  0.00000000000E+00  0.00000000000E+00  0.74505805969E-08  0.10566000000E+00  0.10566000000E+00 0.  1.
     999900   -1    0    0    0    0 -0.00000000000E+00 -0.00000000000E+00 -0.74505805969E-08  0.93827000000E+00  0.93827000000E+00 0.  1.
     999903    2    1    2    0    0 -0.14538733844E-01 -0.30716887452E-01  0.64999585825E-01  0.75958929779E-01  0.19746161635E-01 0.  0.
         14    1    1    2    0    0  0.17054589950E-01 -0.39385224666E-01  0.62709108183E-01  0.75990046779E-01  0.00000000000E+00 0. -1.
     999901    1    1    2    0    0 -0.25158561066E-02  0.70102112118E-01 -0.12770869401E+00  0.89198102344E+00  0.88000000000E+00 0.  1.
        -11    1    3    3    0    0 -0.11078412680E-01 -0.25068900372E-01  0.63477235980E-01  0.69143340981E-01  0.51100000000E-03 0. -1.
         11    1    3    3    0    0 -0.34603211640E-02 -0.56479870804E-02  0.15223498445E-02  0.68155887983E-02  0.51100000000E-03 0.  1.
</event>
<event>
 8    1  0.1135368E+005  0.1043930E+01  0.7957747E-01            NaN
         13   -1    0    0    0    0  0.00000000000E+00  0.00000000000E+00  0.74505805969E-08  0.10566000000E+00  0.10566000000E+00 0. -1.
     999900   -1    0    0    0    0 -0.00000000000E+00 -0.00000000000E+00 -0.74505805969E-08  0.93827000000E+00  0.93827000000E+00 0.  1.
     999902    2    1    2    0    0 -0.12918950858E-01 -0.98733247627E-02  0.17422312362E-01  0.10200989530E+01  0.10198205504E+01 0.  0.
     999903    2    3    3    0    0 -0.31551480232E-01  0.11190057197E+00 -0.51675041511E-01  0.12883552539E+00  0.20274337889E-01 0.  0.
         14    1    1    2    0    0  0.12918950858E-01  0.98733247627E-02 -0.17422312362E-01  0.23831047001E-01  0.00000000000E+00 0.  1.
     999901    1    3    3    0    0  0.18632529374E-01 -0.12177389673E+00  0.69097353873E-01  0.89126342761E+00  0.88000000000E+00 0. -1.
        -11    1    4    4    0    0 -0.25003640064E-01  0.55826340169E-01 -0.21647756960E-01  0.64889512061E-01  0.51100000000E-03 0. -1.
         11    1    4    4    0    0 -0.65478401682E-02  0.56074231797E-01 -0.30027284551E-01  0.63946013332E-01  0.51100000000E-03 0.  1.
</event>
<event>
 8    1  0.1135368E+005  0.1043930E+01  0.7957747E-01            NaN
         13   -1    0    0    0    0  0.00000000000E+00  0.00000000000E+00  0.74505805969E-08  0.10566000000E+00  0.10566000000E+00 0.  1.
     999900   -1    0    0    0    0 -0.00000000000E+00 -0.00000000000E+00 -0.74505805969E-08  0.93827000000E+00  0.93827000000E+00 0.  1.
     999902    2    1    2    0    0 -0.10890416294E-01 -0.62767807960E-02  0.19008911611E-01  0.10211410144E+01  0.10208866898E+01 0.  0.
     999903    2    3    3    0    0 -0.13759113278E-01 -0.17637097008E-01  0.13059995591E+00  0.13401653194E+00  0.20092335868E-01 0.  0.
         14    1    1    2    0    0  0.10890416294E-01  0.62767807960E-02 -0.19008911611E-01  0.22788985604E-01  0.00000000000E+00 0.  1.
     999901    1    3    3    0    0  0.28686969845E-02  0.11360316212E-01 -0.11159104430E+00  0.88712448246E+00  0.88000000000E+00 0.  1.
        -11    1    4    4    0    0 -0.18235406181E-02 -0.17857338773E-01  0.71474323335E-01  0.73695657033E-01  0.51100000000E-03 0.  1.
         11    1    4    4    0    0 -0.11935572660E-01  0.22024176418E-03  0.59125632574E-01  0.60320874906E-01  0.51100000000E-03 0. -1.
</event>
<event>
 8    1  0.1135368E+005  0.1043930E+01  0.7957747E-01            NaN
         13   -1    0    0    0    0  0.00000000000E+00  0.00000000000E+00  0.74505805969E-08  0.10566000000E+00  0.10566000000E+00 0.  1.
     999900   -1    0    0    0    0 -0.00000000000E+00 -0.00000000000E+00 -0.74505805969E-08  0.93827000000E+00  0.93827000000E+00 0.  1.
     999902    2    1    2    0    0 -0.21545241944E-01 -0.93138392411E-02 -0.16812714529E-02  0.10203976451E+01  0.10201262581E+01 0.  0.
     999903    2    3    3    0    0  0.10794776377E+00 -0.40983517383E-02  0.66292536567E-01  0.12831240346E+00  0.19996406833E-01 0.  0.
         14    1    1    2    0    0  0.21545241944E-01  0.93138392411E-02  0.16812714529E-02  0.23532354866E-01  0.00000000000E+00 0.  1.
     999901    1    3    3    0    0 -0.12949300572E+00 -0.52154875027E-02 -0.67973808020E-01  0.89208524168E+00  0.88000000000E+00 0.  1.
        -11    1    4    4    0    0  0.25726260043E-01  0.41347797370E-02  0.82706454132E-02  0.27342303411E-01  0.51100000000E-03 0.  1.
         11    1    4    4    0    0  0.82221503730E-01 -0.82331314753E-02  0.58021891153E-01  0.10097010005E+00  0.51100000000E-03 0. -1.
</event>
<event>
 8    1  0.1135368E+005  0.1043930E+01  0.7957747E-01            NaN
         13   -1    0    0    0    0  0.00000000000E+00  0.00000000000E+00  0.74505805969E-08  0.10566000000E+00  0.10566000000E+00 0. -1.
     999900   -1    0    0    0    0 -0.00000000000E+00 -0.00000000000E+00 -0.74505805969E-08  0.93827000000E+00  0.93827000000E+00 0. -1.
     999902    2    1    2    0    0 -0.14282391685E-01 -0.11474890941E-03  0.18588816816E-01  0.10204876454E+01  0.10202183543E+01 0.  0.
     999903    2    3    3    0    0 -0.18029440953E-01 -0.11986421990E+00  0.48110585814E-01  0.13187889513E+00  0.19619443385E-01 0.  0.
         14    1    1    2    0    0  0.14282391685E-01  0.11474890941E-03 -0.18588816816E-01  0.23442354621E-01  0.00000000000E+00 0.  1.
     999901    1    3    3    0    0  0.37470492678E-02  0.11974947099E+00 -0.29521768998E-01  0.88860875025E+00  0.88000000000E+00 0.  1.
        -11    1    4    4    0    0 -0.10981473559E-01 -0.29370765383E-01  0.18456781902E-01  0.36388851862E-01  0.51100000000E-03 0.  1.
         11    1    4    4    0    0 -0.70479673940E-02 -0.90493454518E-01  0.29653803912E-01  0.95490043264E-01  0.51100000000E-03 0. -1.
</event>
<event>
 7    1  0.1135368E+005  0.1043930E+01  0.7957747E-01            NaN
         13   -1    0    0    0    0  0.00000000000E+00  0.00000000000E+00  0.74505805969E-08  0.10566000000E+00  0.10566000000E+00 0. -1.
     999900   -1    0    0    0    0 -0.00000000000E+00 -0.00000000000E+00 -0.74505805969E-08  0.93827000000E+00  0.93827000000E+00 0. -1.
     999902    2    1    2    0    0  0.22749686457E-01 -0.25960628855E-01  0.14149817641E-01  0.10066242387E+01  0.10059327205E+01 0.  0.
         14    1    1    2    0    0 -0.22749686457E-01  0.25960628855E-01 -0.14149817641E-01  0.37305761267E-01  0.00000000000E+00 0.  1.
     999901    1    3    3    0    0 -0.62688901727E-01  0.26340626987E-01 -0.46042950171E-01  0.88382333093E+00  0.88000000000E+00 0.  1.
        -11    1    3    3    0    0  0.19379760329E-01 -0.54111662105E-02 -0.26123085972E-02  0.20296332362E-01  0.51100000000E-03 0. -1.
         11    1    3    3    0    0  0.66058827856E-01 -0.46890089632E-01  0.62805076408E-01  0.10250457544E+00  0.51100000000E-03 0.  1.
</event>
<event>
 7    1  0.1135368E+005  0.1043930E+01  0.7957747E-01            NaN
         13   -1    0    0    0    0  0.00000000000E+00  0.00000000000E+00  0.74505805969E-08  0.10566000000E+00  0.10566000000E+00 0.  1.
     999900   -1    0    0    0    0 -0.00000000000E+00 -0.00000000000E+00 -0.74505805969E-08  0.93827000000E+00  0.93827000000E+00 0. -1.
     999903    2    1    2    0    0 -0.71147239649E-01  0.12355119545E+00 -0.17179397255E-01  0.14490144114E+00  0.19351184623E-01 0.  0.
         14    1    1    2    0    0  0.17603135802E-02 -0.64544133321E-02 -0.48970323545E-02  0.82909035239E-02  0.00000000000E+00 0. -1.
     999901    1    1    2    0    0  0.69386926069E-01 -0.11709678212E+00  0.22076429609E-01  0.89073765534E+00  0.88000000000E+00 0. -1.
        -11    1    3    3    0    0 -0.19270148806E-01  0.43229342668E-01 -0.13461633874E-01  0.49209667852E-01  0.51100000000E-03 0. -1.
         11    1    3    3    0    0 -0.51877090843E-01  0.80321852785E-01 -0.37177633811E-02  0.95691773287E-01  0.51100000000E-03 0.  1.
</event>
<event>
 8    1  0.1135368E+005  0.1043930E+01  0.7957747E-01            NaN
         13   -1    0    0    0    0  0.00000000000E+00  0.00000000000E+00  0.74505805969E-08  0.10566000000E+00  0.10566000000E+00 0. -1.
     999900   -1    0    0    0    0 -0.00000000000E+00 -0.00000000000E+00 -0.74505805969E-08  0.93827000000E+00  0.93827000000E+00 0.  1.
     999902    2    1    2    0    0  0.14565182149E-01  0.51112750540E-02 -0.17636553393E-01  0.10204924728E+01  0.10202232939E+01 0.  0.
     999903    2    3    3    0    0 -0.55027137622E-01 -0.48340888839E-01  0.10278565623E+00  0.12796699233E+00  0.21114748151E-01 0.  0.
         14    1    1    2    0    0 -0.14565182149E-01 -0.51112750540E-02  0.17636553393E-01  0.23437527158E-01  0.00000000000E+00 0. -1.
     999901    1    3    3    0    0  0.69592319771E-01  0.53452163893E-01 -0.12042220963E+00  0.89252548051E+00  0.88000000000E+00 0.  1.
        -11    1    4    4    0    0 -0.25464706677E-01 -0.10116641715E-01  0.44398061617E-01  0.52175154260E-01  0.51100000000E-03 0. -1.
         11    1    4    4    0    0 -0.29562430946E-01 -0.38224247124E-01  0.58387594617E-01  0.75791838068E-01  0.51100000000E-03 0.  1.
</event>
<event>
 8    1  0.1135368E+005  0.1043930E+01  0.7957747E-01            NaN
         13   -1    0    0    0    0  0.00000000000E+00  0.00000000000E+00  0.74505805969E-08  0.10566000000E+00  0.10566000000E+00 0.  1.
     999900   -1    0    0    0    0 -0.00000000000E+00 -0.00000000000E+00 -0.74505805969E-08  0.93827000000E+00  0.93827000000E+00 0. -1.
     999902    2    1    2    0    0  0.15229354851E-01  0.15545172182E-01  0.73420337081E-02  0.10209628259E+01  0.10207044630E+01 0.  0.
     999903    2    3    3    0    0 -0.12487015852E+00 -0.24278422082E-01 -0.55186228488E-02  0.12889826052E+00  0.20057619478E-01 0.  0.
         14    1    1    2    0    0 -0.15229354851E-01 -0.15545172182E-01 -0.73420337081E-02  0.22967174104E-01  0.00000000000E+00 0. -1.
     999901    1    3    3    0    0  0.14009951337E+00  0.39823594264E-01  0.12860656557E-01  0.89206456537E+00  0.88000000000E+00 0. -1.
        -11    1    4    4    0    0 -0.63545671548E-01 -0.32308940246E-02 -0.72195079548E-02  0.64038062625E-01  0.51100000000E-03 0. -1.
         11    1    4    4    0    0 -0.61324486975E-01 -0.21047528057E-01  0.17008851060E-02  0.64860197897E-01  0.51100000000E-03 0.  1.
</event>
<event>
 8    1  0.1135368E+005  0.1043930E+01  0.7957747E-01            NaN
         13   -1    0    0    0    0  0.00000000000E+00  0.00000000000E+00  0.74505805969E-08  0.10566000000E+00  0.10566000000E+00 0. -1.
     999900   -1    0    0    0    0 -0.00000000000E+00 -0.00000000000E+00 -0.74505805969E-08  0.93827000000E+00  0.93827000000E+00 0.  1.
     999902    2    1    2    0    0 -0.12060805337E-01 -0.79230191228E-02 -0.24092659019E-01  0.10158463130E+01  0.10154580435E+01 0.  0.
     999903    2    3    3    0    0 -0.36540752146E-01 -0.10905832708E+00  0.49456105530E-01  0.12666858099E+00  0.19237405331E-01 0.  0.
         14    1    1    2    0    0  0.12060805337E-01  0.79230191228E-02  0.24092659019E-01  0.28083687009E-01  0.00000000000E+00 0. -1.
     999901    1    3    3    0    0  0.24479946808E-01  0.10113530796E+00 -0.73548764549E-01  0.88917773200E+00  0.88000000000E+00 0.  1.
        -11    1    4    4    0    0 -0.31289664370E-01 -0.78481498023E-01  0.43655724665E-01  0.95102429229E-01  0.51100000000E-03 0.  1.
         11    1    4    4    0    0 -0.52510877758E-02 -0.30576829059E-01  0.58003808656E-02  0.31566151766E-01  0.51100000000E-03 0. -1.
</event>
<event>
 8    1  0.1135368E+005  0.1043930E+01  0.7957747E-01            NaN
         13   -1    0    0    0    0  0.00000000000E+00  0.00000000000E+00  0.74505805969E-08  0.10566000000E+00  0.10566000000E+00 0. -1.
     999900   -1    0    0    0    0 -0.00000000000E+00 -0.00000000000E+00 -0.74505805969E-08  0.93827000000E+00  0.93827000000E+00 0. -1.
     999902    2    1    2    0    0 -0.44959980990E-02  0.23596763217E-01 -0.27784058318E-02  0.10197485862E+01  0.10194618376E+01 0.  0.
     999903    2    3    3    0    0  0.44740421532E-01 -0.11372784442E+00  0.29135931103E-01  0.12716761075E+00  0.19671574105E-01 0.  0.
         14    1    1    2    0    0  0.44959980990E-02 -0.23596763217E-01  0.27784058318E-02  0.24181413776E-01  0.00000000000E+00 0. -1.
     999901    1    3    3    0    0 -0.49236419631E-01  0.13732460763E+00 -0.31914336935E-01  0.89258097548E+00  0.88000000000E+00 0. -1.
        -11    1    4    4    0    0  0.14462675124E-01 -0.59988770912E-01  0.19623524599E-01  0.64754655786E-01  0.51100000000E-03 0. -1.
         11    1    4    4    0    0  0.30277746407E-01 -0.53739073504E-01  0.95124065037E-02  0.62412954962E-01  0.51100000000E-03 0.  1.
</event>
<event>
 7    1  0.1135368E+005  0.1043930E+01  0.7957747E-01            NaN
         13   -1    0    0    0    0  0.00000000000E+00  0.00000000000E+00  0.74505805969E-08  0.10566000000E+00  0.10566000000E+00 0.  1.
     999900   -1    0    0    0    0 -0.00000000000E+00 -0.00000000000E+00 -0.74505805969E-08  0.93827000000E+00  0.93827000000E+00 0.  1.
     999903    2    1    2    0    0 -0.44053478109E-01  0.20747553550E-01 -0.86143358123E-01  0.10094832173E+00  0.19967864156E-01 0.  0.
         14    1    1    2    0    0  0.15762416800E-01  0.39710411350E-01  0.41132861342E-01  0.59306684574E-01  0.00000000000E+00 0.  1.
     999901    1    1    2    0    0  0.28291061309E-01 -0.60457964900E-01  0.45010496781E-01  0.88367499370E+00  0.88000000000E+00 0.  1.
        -11    1    3    3    0    0 -0.21480658658E-01  0.34185010383E-02 -0.52813573370E-01  0.57119519421E-01  0.51100000000E-03 0. -1.
         11    1    3    3    0    0 -0.22572819450E-01  0.17329052512E-01 -0.33329784753E-01  0.43828802306E-01  0.51100000000E-03 0.  1.
</event>
<event>
 8    1  0.1135368E+005  0.1043930E+01  0.7957747E-01            NaN
         13   -1    0    0    0    0  0.00000000000E+00  0.00000000000E+00  0.74505805969E-08  0.10566000000E+00  0.10566000000E+00 0.  1.
     999900   -1    0    0    0    0 -0.00000000000E+00 -0.00000000000E+00 -0.74505805969E-08  0.93827000000E+00  0.93827000000E+00 0. -1.
     999902    2    1    2    0    0 -0.20540076471E-01  0.88374042144E-05 -0.11251973530E-01  0.10205098863E+01  0.10202411118E+01 0.  0.
     999903    2    3    3    0    0 -0.59634405513E-01 -0.10260980522E+00 -0.55565512082E-01  0.13257822105E+00  0.20110298714E-01 0.  0.
         14    1    1    2    0    0  0.20540076471E-01 -0.88374042144E-05  0.11251973530E-01  0.23420113746E-01  0.00000000000E+00 0. -1.
     999901    1    3    3    0    0  0.39094329042E-01  0.10261864263E+00  0.44313538552E-01  0.88793166521E+00  0.88000000000E+00 0.  1.
        -11    1    4    4    0    0 -0.43949919307E-01 -0.59472554099E-01 -0.40200137054E-01  0.84171801919E-01  0.51100000000E-03 0.  1.
         11    1    4    4    0    0 -0.15684486206E-01 -0.43137251124E-01 -0.15365375028E-01  0.48406419128E-01  0.51100000000E-03 0. -1.
</event>
<event>
 8    1  0.1135368E+005  0.1043930E+01  0.7957747E-01            NaN
         13   -1    0    0    0    0  0.00000000000E+00  0.00000000000E+00  0.74505805969E-08  0.10566000000E+00  0.10566000000E+00 0.  1.
     999900   -1    0    0    0    0 -0.00000000000E+00 -0.00000000000E+00 -0.74505805969E-08  0.93827000000E+00  0.93827000000E+00 0.  1.
     999902    2    1    2    0    0  0.33411320246E-02  0.21607531912E-01  0.97481470238E-02  0.10199910157E+01  0.10197100554E+01 0.  0.
     999903    2    3    3    0    0 -0.42920628680E-01  0.10223833035E+00  0.70515763539E-01  0.13301064424E+00  0.20603446660E-01 0.  0.
         14    1    1    2    0    0 -0.33411320246E-02 -0.21607531912E-01 -0.97481470238E-02  0.23938984292E-01  0.00000000000E+00 0. -1.
     999901    1    3    3    0    0  0.46261760705E-01 -0.80630798434E-01 -0.60767616515E-01  0.88698037147E+00  0.88000000000E+00 0.  1.
        -11    1    4    4    0    0 -0.26515392629E-01  0.62962521007E-01  0.54986557207E-01  0.87699074638E-01  0.51100000000E-03 0. -1.
         11    1    4    4    0    0 -0.16405236051E-01  0.39275809339E-01  0.15529206332E-01  0.45311569598E-01  0.51100000000E-03 0.  1.
</event>
<event>
 8    1  0.1135368E+005  0.1043930E+01  0.7957747E-01            NaN
         13   -1    0    0    0    0  0.00000000000E+00  0.00000000000E+00  0.74505805969E-08  0.10566000000E+00  0.10566000000E+00 0. -1.
     999900   -1    0    0    0    0 -0.00000000000E+00 -0.00000000000E+00 -0.74505805969E-08  0.93827000000E+00  0.93827000000E+00 0. -1.
     999902    2    1    2    0    0 -0.21511089899E-01 -0.64280913390E-02 -0.10919706604E-01  0.10189642767E+01  0.10186583872E+01 0.  0.
     999903    2    3    3    0    0 -0.99385816669E-02 -0.86394739176E-01 -0.96019781532E-01  0.13117454346E+00  0.20594563468E-01 0.  0.
         14    1    1    2    0    0  0.21511089899E-01  0.64280913390E-02  0.10919706604E-01  0.24965723287E-01  0.00000000000E+00 0. -1.
     999901    1    3    3    0    0 -0.11572508232E-01  0.79966647837E-01  0.85100074928E-01  0.88778973325E+00  0.88000000000E+00 0.  1.
        -11    1    4    4    0    0 -0.38128360811E-02 -0.30498519193E-01 -0.49141880001E-01  0.57964496746E-01  0.51100000000E-03 0.  1.
         11    1    4    4    0    0 -0.61257455858E-02 -0.55896219983E-01 -0.46877901530E-01  0.73210046717E-01  0.51100000000E-03 0. -1.
</event>
<event>
 8    1  0.1135368E+005  0.1043930E+01  0.7957747E-01            NaN
         13   -1    0    0    0    0  0.00000000000E+00  0.00000000000E+00  0.74505805969E-08  0.10566000000E+00  0.10566000000E+00 0. -1.
     999900   -1    0    0    0    0 -0.00000000000E+00 -0.00000000000E+00 -0.74505805969E-08  0.93827000000E+00  0.93827000000E+00 0.  1.
     999902    2    1    2    0    0  0.21808709207E-01  0.31246077674E-02 -0.11439337690E-01  0.10191057897E+01  0.10188034006E+01 0.  0.
     999903    2    3    3    0    0 -0.11620247991E+00  0.35617668536E-01  0.28826574990E-01  0.12684784994E+00  0.22085537326E-01 0.  0.
         14    1    1    2    0    0 -0.21808709207E-01 -0.31246077674E-02  0.11439337690E-01  0.24824210315E-01  0.00000000000E+00 0.  1.
     999901    1    3    3    0    0  0.13801118912E+00 -0.32493060768E-01 -0.40265912680E-01  0.89225793975E+00  0.88000000000E+00 0.  1.
        -11    1    4    4    0    0 -0.81810809004E-01  0.34226141071E-01  0.16015664676E-01  0.90117699918E-01  0.51100000000E-03 0. -1.
         11    1    4    4    0    0 -0.34391670906E-01  0.13915274649E-02  0.12810910314E-01  0.36730150019E-01  0.51100000000E-03 0.  1.
</event>
<event>
 8    1  0.1135368E+005  0.1043930E+01  0.7957747E-01            NaN
         13   -1    0    0    0    0  0.00000000000E+00  0.00000000000E+00  0.74505805969E-08  0.10566000000E+00  0.10566000000E+00 0. -1.
     999900   -1    0    0    0    0 -0.00000000000E+00 -0.00000000000E+00 -0.74505805969E-08  0.93827000000E+00  0.93827000000E+00 0. -1.
     999902    2    1    2    0    0 -0.52751501590E-02 -0.69146583372E-02 -0.28598003328E-01  0.10140387721E+01  0.10135981185E+01 0.  0.
     999903    2    3    3    0    0 -0.57495085888E-01 -0.45088161987E-02  0.10596402571E+00  0.12227666853E+00  0.19929741545E-01 0.  0.
         14    1    1    2    0    0  0.52751501590E-02  0.69146583372E-02  0.28598003328E-01  0.29891227868E-01  0.00000000000E+00 0. -1.
     999901    1    3    3    0    0  0.52219935729E-01 -0.24058421384E-02 -0.13456202903E+00  0.89176210360E+00  0.88000000000E+00 0. -1.
        -11    1    4    4    0    0 -0.16972637913E-01 -0.23130595510E-02  0.15422281970E-01  0.23054903695E-01  0.51100000000E-03 0.  1.
         11    1    4    4    0    0 -0.40522447975E-01 -0.21957566478E-02  0.90541743736E-01  0.99221764834E-01  0.51100000000E-03 0. -1.
</event>
<event>
 8    1  0.1135368E+005  0.1043930E+01  0.7957747E-01            NaN
         13   -1    0    0    0    0  0.00000000000E+00  0.00000000000E+00  0.74505805969E-08  0.10566000000E+00  0.10566000000E+00 0. -1.
     999900   -1    0    0    0    0 -0.00000000000E+00 -0.00000000000E+00 -0.74505805969E-08  0.93827000000E+00  0.93827000000E+00 0. -1.
     999902    2    1    2    0    0  0.13011679221E-01 -0.28970936954E-01 -0.12562161652E-01  0.10097770076E+01  0.10091992758E+01 0.  0.
     999903    2    3    3    0    0 -0.90773416082E-03  0.98729538615E-01  0.60179391623E-01  0.11748081513E+00  0.20780687467E-01 0.  0.
         14    1    1    2    0    0 -0.13011679221E-01  0.28970936954E-01  0.12562161652E-01  0.34152992395E-01  0.00000000000E+00 0. -1.
     999901    1    3    3    0    0  0.13919413382E-01 -0.12770047557E+00 -0.72741553275E-01  0.89229619247E+00  0.88000000000E+00 0. -1.
        -11    1    4    4    0    0  0.84222111307E-02  0.70012752684E-01  0.38888600576E-01  0.80531382420E-01  0.51100000000E-03 0. -1.
         11    1    4    4    0    0 -0.93299452915E-02  0.28716785931E-01  0.21290791047E-01  0.36949432712E-01  0.51100000000E-03 0.  1.
</event>
<event>
 8    1  0.1135368E+005  0.1043930E+01  0.7957747E-01            NaN
         13   -1    0    0    0    0  0.00000000000E+00  0.00000000000E+00  0.74505805969E-08  0.10566000000E+00  0.10566000000E+00 0. -1.
     999900   -1    0    0    0    0 -0.00000000000E+00 -0.00000000000E+00 -0.74505805969E-08  0.93827000000E+00  0.93827000000E+00 0.  1.
     999902    2    1    2    0    0 -0.23003619960E-01  0.28841403757E-03 -0.67169378253E-02  0.10199640457E+01  0.10196824444E+01 0.  0.
     999903    2    3    3    0    0 -0.94608325421E-01 -0.85773365827E-01  0.27771810875E-01  0.13220093672E+00  0.19950154546E-01 0.  0.
         14    1    1    2    0    0  0.23003619960E-01 -0.28841403757E-03  0.67169378253E-02  0.23965954345E-01  0.00000000000E+00 0.  1.
     999901    1    3    3    0    0  0.71604705462E-01  0.86061779864E-01 -0.34488748700E-01  0.88776310893E+00  0.88000000000E+00 0.  1.
        -11    1    4    4    0    0 -0.44076972391E-01 -0.32020673487E-01  0.19908647718E-01  0.58006192778E-01  0.51100000000E-03 0. -1.
         11    1    4    4    0    0 -0.50531353030E-01 -0.53752692340E-01  0.78631631564E-02  0.74194743943E-01  0.51100000000E-03 0.  1.
</event>
<event>
 8    1  0.1135368E+005  0.1043930E+01  0.7957747E-01            NaN
         13   -1    0    0    0    0  0.00000000000E+00  0.00000000000E+00  0.74505805969E-08  0.10566000000E+00  0.10566000000E+00 0. -1.
     999900   -1    0    0    0    0 -0.00000000000E+00 -0.00000000000E+00 -0.74505805969E-08  0.93827000000E+00  0.93827000000E+00 0. -1.
     999902    2    1    2    0    0 -0.88872419768E-02 -0.13856910388E-01 -0.15547895090E-01  0.10212863678E+01  0.10210353133E+01 0.  0.
     999903    2    3    3    0    0  0.51091437646E-01  0.31419836841E-01  0.11228590813E+00  0.12888012230E+00  0.20110186724E-01 0.  0.
         14    1    1    2    0    0  0.88872419768E-02  0.13856910388E-01  0.15547895090E-01  0.22643632156E-01  0.00000000000E+00 0. -1.
     999901    1    3    3    0    0 -0.59978679623E-01 -0.45276747229E-01 -0.12783380322E+00  0.89240624555E+00  0.88000000000E+00 0. -1.
        -11    1    4    4    0    0  0.24881827927E-01  0.10114434174E-01  0.32026875203E-01  0.41801782210E-01  0.51100000000E-03 0. -1.
         11    1    4    4    0    0  0.26209609719E-01  0.21305402667E-01  0.80259032928E-01  0.87078340085E-01  0.51100000000E-03 0.  1.
</event>
<event>
 8    1  0.1135368E+005  0.1043930E+01  0.7957747E-01            NaN
         13   -1    0    0    0    0  0.00000000000E+00  0.00000000000E+00  0.74505805969E-08  0.10566000000E+00  0.10566000000E+00 0.  1.
     999900   -1    0    0    0    0 -0.00000000000E+00 -0.00000000000E+00 -0.74505805969E-08  0.93827000000E+00  0.93827000000E+00 0.  1.
     999902    2    1    2    0    0  0.10293886066E-01  0.18083106003E-01  0.12241084853E-01  0.10197886046E+01  0.10195028156E+01 0.  0.
     999903    2    3    3    0    0 -0.69676920470E-01  0.10894464516E+00 -0.14819041505E-01  0.13109101846E+00  0.15538409648E-01 0.  0.
         14    1    1    2    0    0 -0.10293886066E-01 -0.18083106003E-01 -0.12241084853E-01  0.24141395391E-01  0.00000000000E+00 0. -1.
     999901    1    3    3    0    0  0.79970806536E-01 -0.90861539153E-01  0.27060126358E-01  0.88869758615E+00  0.88000000000E+00 0. -1.
        -11    1    4    4    0    0 -0.23738657747E-01  0.24500709079E-01 -0.37694520568E-02  0.34326061627E-01  0.51100000000E-03 0. -1.
         11    1    4    4    0    0 -0.45938262723E-01  0.84443936077E-01 -0.11049589448E-01  0.96764956829E-01  0.51100000000E-03 0.  1.
</event>
<event>
 7    1  0.1135368E+005  0.1043930E+01  0.7957747E-01            NaN
         13   -1    0    0    0    0  0.00000000000E+00  0.00000000000E+00  0.74505805969E-08  0.10566000000E+00  0.10566000000E+00 0. -1.
     999900   -1    0    0    0    0 -0.00000000000E+00 -0.00000000000E+00 -0.74505805969E-08  0.93827000000E+00  0.93827000000E+00 0. -1.
     999903    2    1    2    0    0 -0.58433260842E-02  0.10507280612E+00  0.37295982764E-01  0.11279557024E+00  0.16044042197E-01 0.  0.
         14    1    1    2    0    0 -0.71047276867E-02 -0.76661567524E-02 -0.44423494564E-01  0.45636542202E-01  0.00000000000E+00 0.  1.
     999901    1    1    2    0    0  0.12948053771E-01 -0.97406649371E-01  0.71275118005E-02  0.88549788755E+00  0.88000000000E+00 0.  1.
        -11    1    3    3    0    0 -0.25762512367E-04  0.90779497867E-01  0.34434672150E-01  0.97092356361E-01  0.51100000000E-03 0.  1.
         11    1    3    3    0    0 -0.58175635718E-02  0.14293308256E-01  0.28613106139E-02  0.15703213883E-01  0.51100000000E-03 0. -1.
</event>
<event>
 8    1  0.1135368E+005  0.1043930E+01  0.7957747E-01            NaN
         13   -1    0    0    0    0  0.00000000000E+00  0.00000000000E+00  0.74505805969E-08  0.10566000000E+00  0.10566000000E+00 0.  1.
     999900   -1    0    0    0    0 -0.00000000000E+00 -0.00000000000E+00 -0.74505805969E-08  0.93827000000E+00  0.93827000000E+00 0.  1.
     999902    2    1    2    0    0  0.16536467880E-01 -0.12010948553E-01 -0.11046233109E-01  0.10206977612E+01  0.10204333309E+01 0.  0.
     999903    2    3    3    0    0  0.19396113777E-02 -0.12965673159E+00  0.18549547146E-01  0.13225558033E+00  0.18243428692E-01 0.  0.
         14    1    1    2    0    0 -0.16536467880E-01  0.12010948553E-01  0.11046233109E-01  0.23232238829E-01  0.00000000000E+00 0.  1.
     999901    1    3    3    0    0  0.14596856502E-01  0.11764578304E+00 -0.29595780256E-01  0.88844218084E+00  0.88000000000E+00 0.  1.
        -11    1    4    4    0    0 -0.70930903537E-02 -0.83863623895E-01  0.14469648544E-01  0.85399362958E-01  0.51100000000E-03 0. -1.
         11    1    4    4    0    0  0.90327017314E-02 -0.45793107695E-01  0.40798986027E-02  0.46856217374E-01  0.51100000000E-03 0.  1.
</event>
<event>
 7    1  0.1135368E+005  0.1043930E+01  0.7957747E-01            NaN
         13   -1    0    0    0    0  0.00000000000E+00  0.00000000000E+00  0.74505805969E-08  0.10566000000E+00  0.10566000000E+00 0.  1.
     999900   -1    0    0    0    0 -0.00000000000E+00 -0.00000000000E+00 -0.74505805969E-08  0.93827000000E+00  0.93827000000E+00 0. -1.
     999902    2    1    2    0    0 -0.49171526547E-02 -0.10437318979E-01  0.20410962947E-01  0.10204838185E+01  0.10202144385E+01 0.  0.
         14    1    1    2    0    0  0.49171526547E-02  0.10437318979E-01 -0.20410962947E-01  0.23446181483E-01  0.00000000000E+00 0. -1.
     999901    1    3    3    0    0 -0.29779342752E-01 -0.78847728586E-01 -0.56399447810E-01  0.88582428916E+00  0.88000000000E+00 0.  1.
        -11    1    3    3    0    0  0.48547606216E-02  0.37331292667E-01 -0.11134878855E-01  0.39261186444E-01  0.51100000000E-03 0. -1.
         11    1    3    3    0    0  0.20007429476E-01  0.31079116940E-01  0.87945289612E-01  0.95398342910E-01  0.51100000000E-03 0.  1.
</event>
<event>
 8    1  0.1135368E+005  0.1043930E+01  0.7957747E-01            NaN
         13   -1    0    0    0    0  0.00000000000E+00  0.00000000000E+00  0.74505805969E-08  0.10566000000E+00  0.10566000000E+00 0. -1.
     999900   -1    0    0    0    0 -0.00000000000E+00 -0.00000000000E+00 -0.74505805969E-08  0.93827000000E+00  0.93827000000E+00 0.  1.
     999902    2    1    2    0    0  0.20521150126E-01 -0.49327460225E-02 -0.11137630885E-01  0.10200658761E+01  0.10197866911E+01 0.  0.
     999903    2    3    3    0    0  0.98060474475E-01  0.52044140903E-01  0.67357099704E-01  0.13134762203E+00  0.19767895062E-01 0.  0.
         14    1    1    2    0    0 -0.20521150126E-01  0.49327460225E-02  0.11137630885E-01  0.23864123859E-01  0.00000000000E+00 0.  1.
     999901    1    3    3    0    0 -0.77539324348E-01 -0.56976886925E-01 -0.78494730589E-01  0.88871825411E+00  0.88000000000E+00 0.  1.
        -11    1    4    4    0    0  0.38671078907E-01  0.28563721963E-01  0.36816681753E-01  0.60556318684E-01  0.51100000000E-03 0. -1.
         11    1    4    4    0    0  0.59389395567E-01  0.23480418940E-01  0.30540417951E-01  0.70791303343E-01  0.51100000000E-03 0.  1.
</event>
<event>
 8    1  0.1135368E+005  0.1043930E+01  0.7957747E-01            NaN
         13   -1    0    0    0    0  0.00000000000E+00  0.00000000000E+00  0.74505805969E-08  0.10566000000E+00  0.10566000000E+00 0.  1.
     999900   -1    0    0    0    0 -0.00000000000E+00 -0.00000000000E+00 -0.74505805969E-08  0.93827000000E+00  0.93827000000E+00 0. -1.
     999902    2    1    2    0    0 -0.19210652704E-01 -0.38786951544E-02 -0.12738810941E-01  0.10205554250E+01  0.10202877068E+01 0.  0.
     999903    2    3    3    0    0  0.99678617199E-01  0.22067219860E-01 -0.77927426633E-01  0.12979316454E+00  0.18729463954E-01 0.  0.
         14    1    1    2    0    0  0.19210652704E-01  0.38786951544E-02  0.12738810941E-01  0.23374575025E-01  0.00000000000E+00 0.  1.
     999901    1    3    3    0    0 -0.11888926990E+00 -0.25945915014E-01  0.65188615692E-01  0.89076226044E+00  0.88000000000E+00 0. -1.
        -11    1    4    4    0    0  0.83734589439E-01  0.16865878270E-01 -0.72845707024E-01  0.11226173645E+00  0.51100000000E-03 0.  1.
         11    1    4    4    0    0  0.15944027759E-01  0.52013415903E-02 -0.50817196090E-02  0.17531428085E-01  0.51100000000E-03 0. -1.
</event>
<event>
 8    1  0.1135368E+005  0.1043930E+01  0.7957747E-01            NaN
         13   -1    0    0    0    0  0.00000000000E+00  0.00000000000E+00  0.74505805969E-08  0.10566000000E+00  0.10566000000E+00 0.  1.
     999900   -1    0    0    0    0 -0.00000000000E+00 -0.00000000000E+00 -0.74505805969E-08  0.93827000000E+00  0.93827000000E+00 0. -1.
     999902    2    1    2    0    0 -0.17611574885E-01 -0.86479773206E-02 -0.12965028413E-01  0.10204130477E+01  0.10201420200E+01 0.  0.
     999903    2    3    3    0    0 -0.11616880543E+00  0.55844161984E-01  0.19636422489E-01  0.13196742852E+00  0.20397336026E-01 0.  0.
         14    1    1    2    0    0  0.17611574885E-01  0.86479773206E-02  0.12965028413E-01  0.23516952256E-01  0.00000000000E+00 0.  1.
     999901    1    3    3    0    0  0.98557230550E-01 -0.64492139304E-01 -0.32601450902E-01  0.88844561923E+00  0.88000000000E+00 0.  1.
        -11    1    4    4    0    0 -0.81380293685E-01  0.33222407096E-01  0.21257844510E-01  0.90435820380E-01  0.51100000000E-03 0.  1.
         11    1    4    4    0    0 -0.34788511750E-01  0.22621754888E-01 -0.16214220212E-02  0.41531608136E-01  0.51100000000E-03 0. -1.
</event>
<event>
 8    1  0.1135368E+005  0.1043930E+01  0.7957747E-01            NaN
         13   -1    0    0    0    0  0.00000000000E+00  0.00000000000E+00  0.74505805969E-08  0.10566000000E+00  0.10566000000E+00 0. -1.
     999900   -1    0    0    0    0 -0.00000000000E+00 -0.00000000000E+00 -0.74505805969E-08  0.93827000000E+00  0.93827000000E+00 0.  1.
     999902    2    1    2    0    0 -0.40444273805E-02  0.11028196462E-01  0.18328837178E-01  0.10221601864E+01  0.10219283350E+01 0.  0.
     999903    2    3    3    0    0 -0.58335260746E-01 -0.41299928495E-01 -0.10699833250E+00  0.13008808918E+00  0.19120173878E-01 0.  0.
         14    1    1    2    0    0  0.40444273805E-02 -0.11028196462E-01 -0.18328837178E-01  0.21769813558E-01  0.00000000000E+00 0.  1.
     999901    1    3    3    0    0  0.54290833365E-01  0.52328124958E-01  0.12532716968E+00  0.89207209726E+00  0.88000000000E+00 0. -1.
        -11    1    4    4    0    0 -0.14189989768E-01 -0.34473479619E-02 -0.32055734818E-01  0.35228841498E-01  0.51100000000E-03 0.  1.
         11    1    4    4    0    0 -0.44145270977E-01 -0.37852580534E-01 -0.74942597684E-01  0.94859247685E-01  0.51100000000E-03 0. -1.
</event>
<event>
 8    1  0.1135368E+005  0.1043930E+01  0.7957747E-01            NaN
         13   -1    0    0    0    0  0.00000000000E+00  0.00000000000E+00  0.74505805969E-08  0.10566000000E+00  0.10566000000E+00 0. -1.
     999900   -1    0    0    0    0 -0.00000000000E+00 -0.00000000000E+00 -0.74505805969E-08  0.93827000000E+00  0.93827000000E+00 0. -1.
     999902    2    1    2    0    0  0.72623200703E-02  0.12856012135E-01  0.18932546703E-01  0.10199204255E+01  0.10196377861E+01 0.  0.
     999903    2    3    3    0    0  0.11786138911E+00  0.44119748876E-01  0.35174146219E-01  0.13229811574E+00  0.20681189094E-01 0.  0.
         14    1    1    2    0    0 -0.72623200703E-02 -0.12856012135E-01 -0.18932546703E-01  0.24009574454E-01  0.00000000000E+00 0.  1.
     999901    1    3    3    0    0 -0.11059906904E+00 -0.31263736741E-01 -0.16241599516E-01  0.88762230980E+00  0.88000000000E+00 0. -1.
        -11    1    4    4    0    0  0.31364278820E-01  0.15006382806E-01  0.82888697988E-03  0.34783008574E-01  0.51100000000E-03 0.  1.
         11    1    4    4    0    0  0.86497110291E-01  0.29113366069E-01  0.34345259239E-01  0.97515107167E-01  0.51100000000E-03 0. -1.
</event>
<event>
 8    1  0.1135368E+005  0.1043930E+01  0.7957747E-01            NaN
         13   -1    0    0    0    0  0.00000000000E+00  0.00000000000E+00  0.74505805969E-08  0.10566000000E+00  0.10566000000E+00 0. -1.
     999900   -1    0    0    0    0 -0.00000000000E+00 -0.00000000000E+00 -0.74505805969E-08  0.93827000000E+00  0.93827000000E+00 0.  1.
     999902    2    1    2    0    0  0.16160117072E-01  0.14075756772E-01  0.93309982666E-02  0.10205560007E+01  0.10202882959E+01 0.  0.
     999903    2    3    3    0    0 -0.10936941742E+00 -0.61010154323E-01  0.19915035582E-01  0.12841947536E+00  0.20274235185E-01 0.  0.
         14    1    1    2    0    0 -0.16160117072E-01 -0.14075756772E-01 -0.93309982666E-02  0.23373999254E-01  0.00000000000E+00 0.  1.
     999901    1    3    3    0    0  0.12552953450E+00  0.75085911094E-01 -0.10584037315E-01  0.89213652538E+00  0.88000000000E+00 0. -1.
        -11    1    4    4    0    0 -0.90427086106E-01 -0.57956862236E-01  0.13885661192E-01  0.10830110105E+00  0.51100000000E-03 0.  1.
         11    1    4    4    0    0 -0.18942331318E-01 -0.30532920868E-02  0.60293743892E-02  0.20118374309E-01  0.51100000000E-03 0. -1.
</event>
<event>
 8    1  0.1135368E+005  0.1043930E+01  0.7957747E-01            NaN
         13   -1    0    0    0    0  0.00000000000E+00  0.00000000000E+00  0.74505805969E-08  0.10566000000E+00  0.10566000000E+00 0. -1.
     999900   -1    0    0    0    0 -0.00000000000E+00 -0.00000000000E+00 -0.74505805969E-08  0.93827000000E+00  0.93827000000E+00 0.  1.
     999902    2    1    2    0    0 -0.70705746411E-02 -0.21885233740E-01  0.44896923876E-02  0.10204968223E+01  0.10202277444E+01 0.  0.
     999903    2    3    3    0    0 -0.54490404839E-01  0.10794129059E+00 -0.38892274550E-01  0.12865291115E+00  0.20455710534E-01 0.  0.
         14    1    1    2    0    0  0.70705746411E-02  0.21885233740E-01 -0.44896923876E-02  0.23433177748E-01  0.00000000000E+00 0.  1.
     999901    1    3    3    0    0  0.47419830198E-01 -0.12982652433E+00  0.43381966938E-01  0.89184391110E+00  0.88000000000E+00 0. -1.
        -11    1    4    4    0    0 -0.62910775769E-02  0.17536704498E-01 -0.13749459380E-01  0.23160794805E-01  0.51100000000E-03 0. -1.
         11    1    4    4    0    0 -0.48199327262E-01  0.90404586093E-01 -0.25142815170E-01  0.10549211634E+00  0.51100000000E-03 0.  1.
</event>
<event>
 8    1  0.1135368E+005  0.1043930E+01  0.7957747E-01            NaN
         13   -1    0    0    0    0  0.00000000000E+00  0.00000000000E+00  0.74505805969E-08  0.10566000000E+00  0.10566000000E+00 0.  1.
     999900   -1    0    0    0    0 -0.00000000000E+00 -0.00000000000E+00 -0.74505805969E-08  0.93827000000E+00  0.93827000000E+00 0.  1.
     999902    2    1    2    0    0  0.15840755979E-01  0.11466276523E-01  0.95226446615E-02  0.10221794642E+01  0.10219480276E+01 0.  0.
     999903    2    3    3    0    0  0.55054569111E-01 -0.10302868108E+00 -0.56736812392E-01  0.13142858199E+00  0.20211174601E-01 0.  0.
         14    1    1    2    0    0 -0.15840755979E-01 -0.11466276523E-01 -0.95226446615E-02  0.21750535824E-01  0.00000000000E+00 0.  1.
     999901    1    3    3    0    0 -0.39213813132E-01  0.11449495761E+00  0.66259457054E-01  0.89075088218E+00  0.88000000000E+00 0. -1.
        -11    1    4    4    0    0  0.54437745783E-01 -0.94255221211E-01 -0.47804107696E-01  0.11888233143E+00  0.51100000000E-03 0.  1.
         11    1    4    4    0    0  0.61682332787E-03 -0.87734598736E-02 -0.89327046959E-02  0.12546250570E-01  0.51100000000E-03 0. -1.
</event>
<event>
 8    1  0.1135368E+005  0.1043930E+01  0.7957747E-01            NaN
         13   -1    0    0    0    0  0.00000000000E+00  0.00000000000E+00  0.74505805969E-08  0.10566000000E+00  0.10566000000E+00 0.  1.
     999900   -1    0    0    0    0 -0.00000000000E+00 -0.00000000000E+00 -0.74505805969E-08  0.93827000000E+00  0.93827000000E+00 0. -1.
     999902    2    1    2    0    0 -0.76602368579E-02  0.20994579831E-04 -0.21702242573E-01  0.10209155045E+01  0.10206560637E+01 0.  0.
     999903    2    3    3    0    0  0.79883862865E-01  0.10114221179E+00  0.36652270846E-02  0.13044766205E+00  0.19798487111E-01 0.  0.
         14    1    1    2    0    0  0.76602368579E-02 -0.20994579831E-04  0.21702242573E-01  0.23014495479E-01  0.00000000000E+00 0.  1.
     999901    1    3    3    0    0 -0.87544099723E-01 -0.10112121721E+00 -0.25367469657E-01  0.89046784248E+00  0.88000000000E+00 0. -1.
        -11    1    4    4    0    0  0.42300579488E-01  0.42040517293E-01 -0.51086286047E-02  0.59859028780E-01  0.51100000000E-03 0. -1.
         11    1    4    4    0    0  0.37583283377E-01  0.59101694495E-01  0.87738556893E-02  0.70588633265E-01  0.51100000000E-03 0.  1.
</event>
<event>
 8    1  0.1135368E+005  0.1043930E+01  0.7957747E-01            NaN
         13   -1    0    0    0    0  0.00000000000E+00  0.00000000000E+00  0.74505805969E-08  0.10566000000E+00  0.10566000000E+00 0. -1.
     999900   -1    0    0    0    0 -0.00000000000E+00 -0.00000000000E+00 -0.74505805969E-08  0.93827000000E+00  0.93827000000E+00 0.  1.
     999902    2    1    2    0    0 -0.20453223904E-01 -0.54158381498E-02  0.11542875401E-01  0.10198280573E+01  0.10195432128E+01 0.  0.
     999903    2    3    3    0    0  0.64808857390E-01  0.36478882517E-01  0.10468785101E+00  0.12982762097E+00  0.19098904491E-01 0.  0.
         14    1    1    2    0    0  0.20453223904E-01  0.54158381498E-02 -0.11542875401E-01  0.24101942732E-01  0.00000000000E+00 0.  1.
     999901    1    3    3    0    0 -0.85262081294E-01 -0.41894720667E-01 -0.93144975606E-01  0.89000043630E+00  0.88000000000E+00 0.  1.
        -11    1    4    4    0    0  0.38605733545E-01  0.31566402876E-01  0.63145036885E-01  0.80463639349E-01  0.51100000000E-03 0.  1.
         11    1    4    4    0    0  0.26203123845E-01  0.49124796414E-02  0.41542814122E-01  0.49363981622E-01  0.51100000000E-03 0. -1.
</event>
<event>
 8    1  0.1135368E+005  0.1043930E+01  0.7957747E-01            NaN
         13   -1    0    0    0    0  0.00000000000E+00  0.00000000000E+00  0.74505805969E-08  0.10566000000E+00  0.10566000000E+00 0.  1.
     999900   -1    0    0    0    0 -0.00000000000E+00 -0.00000000000E+00 -0.74505805969E-08  0.93827000000E+00  0.93827000000E+00 0.  1.
     999902    2    1    2    0    0 -0.20191376081E-01 -0.80980506665E-02  0.43141706502E-02  0.10217515834E+01  0.10215108497E+01 0.  0.
     999903    2    3    3    0    0  0.10318304527E+00 -0.24923506180E-01  0.73822679441E-01  0.13027203988E+00  0.15908940328E-01 0.  0.
         14    1    1    2    0    0  0.20191376081E-01  0.80980506665E-02 -0.43141706502E-02  0.22178416559E-01  0.00000000000E+00 0.  1.
     999901    1    3    3    0    0 -0.12337442135E+00  0.16825455514E-01 -0.69508508791E-01  0.89147954356E+00  0.88000000000E+00 0. -1.
        -11    1    4    4    0    0  0.22928281842E-01 -0.12388896568E-01  0.16416451827E-01  0.30805062538E-01  0.51100000000E-03 0.  1.
         11    1    4    4    0    0  0.80254763429E-01 -0.12534609612E-01  0.57406227615E-01  0.99466977340E-01  0.51100000000E-03 0. -1.
</event>
<event>
 8    1  0.1135368E+005  0.1043930E+01  0.7957747E-01            NaN
         13   -1    0    0    0    0  0.00000000000E+00  0.00000000000E+00  0.74505805969E-08  0.10566000000E+00  0.10566000000E+00 0.  1.
     999900   -1    0    0    0    0 -0.00000000000E+00 -0.00000000000E+00 -0.74505805969E-08  0.93827000000E+00  0.93827000000E+00 0. -1.
     999902    2    1    2    0    0 -0.19346757896E-01 -0.83242335443E-02 -0.11241985730E-01  0.10200559105E+01  0.10197764895E+01 0.  0.
     999903    2    3    3    0    0  0.12212052301E+00  0.84352376668E-02  0.30332350447E-01  0.12763095745E+00  0.19622294488E-01 0.  0.
         14    1    1    2    0    0  0.19346757896E-01  0.83242335443E-02  0.11241985730E-01  0.23874089477E-01  0.00000000000E+00 0.  1.
     999901    1    3    3    0    0 -0.14146728091E+00 -0.16759471211E-01 -0.41574336177E-01  0.89242495307E+00  0.88000000000E+00 0. -1.
        -11    1    4    4    0    0  0.49596322846E-01  0.37786207063E-02  0.24903346031E-02  0.49804980692E-01  0.51100000000E-03 0. -1.
         11    1    4    4    0    0  0.72524200164E-01  0.46566169605E-02  0.27842015843E-01  0.77825976757E-01  0.51100000000E-03 0.  1.
</event>
<event>
 8    1  0.1611851E+005  0.1043930E+01  0.7957747E-01            NaN
         13   -1    0    0    0    0  0.00000000000E+00  0.00000000000E+00  0.74505805969E-08  0.10566000000E+00  0.10566000000E+00 0. -1.
     999900   -1    0    0    0    0 -0.00000000000E+00 -0.00000000000E+00 -0.74505805969E-08  0.93827000000E+00  0.93827000000E+00 0.  1.
     999902    2    1    2    0    0 -0.17728728726E-02 -0.12774759530E-01  0.20204042788E-01  0.10199604171E+01  0.10196787296E+01 0.  0.
     999903    2    3    3    0    0 -0.10607038383E+00  0.63446491241E-01  0.36366853323E-01  0.13038249117E+00  0.20016553335E-01 0.  0.
         14    1    1    2    0    0  0.17728728726E-02  0.12774759530E-01 -0.20204042788E-01  0.23969582897E-01  0.00000000000E+00 0.  1.
     999901    1    3    3    0    0  0.10429751095E+00 -0.76221250771E-01 -0.16162810535E-01  0.88957792593E+00  0.88000000000E+00 0.  1.
        -11    1    4    4    0    0 -0.30833976417E-01  0.29367165169E-01  0.13661310082E-01  0.44721996891E-01  0.51100000000E-03 0.  1.
         11    1    4    4    0    0 -0.75236407410E-01  0.34079326072E-01  0.22705543241E-01  0.85660494280E-01  0.51100000000E-03 0. -1.
</event>
<event>
 8    1  0.1135368E+005  0.1043930E+01  0.7957747E-01            NaN
         13   -1    0    0    0    0  0.00000000000E+00  0.00000000000E+00  0.74505805969E-08  0.10566000000E+00  0.10566000000E+00 0. -1.
     999900   -1    0    0    0    0 -0.00000000000E+00 -0.00000000000E+00 -0.74505805969E-08  0.93827000000E+00  0.93827000000E+00 0.  1.
     999902    2    1    2    0    0  0.16926925856E-01 -0.15140274051E-01 -0.85812732232E-02  0.10196527068E+01  0.10193636522E+01 0.  0.
     999903    2    3    3    0    0  0.59587230151E-01  0.83060173987E-01  0.76534287080E-01  0.12908665745E+00  0.18874255858E-01 0.  0.
         14    1    1    2    0    0 -0.16926925856E-01  0.15140274051E-01  0.85812732232E-02  0.24277293247E-01  0.00000000000E+00 0.  1.
     999901    1    3    3    0    0 -0.42660304295E-01 -0.98200448038E-01 -0.85115560303E-01  0.89056604930E+00  0.88000000000E+00 0.  1.
        -11    1    4    4    0    0  0.55970581316E-01  0.73272532049E-01  0.74270144273E-01  0.11839715105E+00  0.51100000000E-03 0.  1.
         11    1    4    4    0    0  0.36166488351E-02  0.97876419381E-02  0.22641428073E-02  0.10689506404E-01  0.51100000000E-03 0. -1.
</event>
<event>
 8    1  0.1135368E+005  0.1043930E+01  0.7957747E-01            NaN
         13   -1    0    0    0    0  0.00000000000E+00  0.00000000000E+00  0.74505805969E-08  0.10566000000E+00  0.10566000000E+00 0. -1.
     999900   -1    0    0    0    0 -0.00000000000E+00 -0.00000000000E+00 -0.74505805969E-08  0.93827000000E+00  0.93827000000E+00 0. -1.
     999902    2    1    2    0    0 -0.19114252298E-01  0.12693573932E-01  0.47451926928E-02  0.10204992870E+01  0.10202302663E+01 0.  0.
     999903    2    3    3    0    0 -0.10196269782E+00 -0.56403423084E-01 -0.58395992332E-01  0.13166574283E+00  0.18655777445E-01 0.  0.
         14    1    1    2    0    0  0.19114252298E-01 -0.12693573932E-01 -0.47451926928E-02  0.23430713045E-01  0.00000000000E+00 0. -1.
     999901    1    3    3    0    0  0.82848445518E-01  0.69096997016E-01  0.63141185025E-01  0.88883354413E+00  0.88000000000E+00 0.  1.
        -11    1    4    4    0    0 -0.21997158510E-01 -0.12052380742E-01 -0.43991758162E-02  0.25470546381E-01  0.51100000000E-03 0.  1.
         11    1    4    4    0    0 -0.79965539307E-01 -0.44351042342E-01 -0.53996816516E-01  0.10619519645E+00  0.51100000000E-03 0. -1.
</event>
<event>
 8    1  0.1135368E+005  0.1043930E+01  0.7957747E-01            NaN
         13   -1    0    0    0    0  0.00000000000E+00  0.00000000000E+00  0.74505805969E-08  0.10566000000E+00  0.10566000000E+00 0.  1.
     999900   -1    0    0    0    0 -0.00000000000E+00 -0.00000000000E+00 -0.74505805969E-08  0.93827000000E+00  0.93827000000E+00 0. -1.
     999902    2    1    2    0    0  0.13508292734E-01  0.18077180614E-01 -0.50706284695E-02  0.10208005879E+01  0.10205385199E+01 0.  0.
     999903    2    3    3    0    0 -0.11105577219E+00  0.23901059115E-01  0.59175835175E-01  0.12969019522E+00  0.20325405384E-01 0.  0.
         14    1    1    2    0    0 -0.13508292734E-01 -0.18077180614E-01  0.50706284695E-02  0.23129412111E-01  0.00000000000E+00 0.  1.
     999901    1    3    3    0    0  0.12456406492E+00 -0.58238785009E-02 -0.64246463645E-01  0.89111039267E+00  0.88000000000E+00 0. -1.
        -11    1    4    4    0    0 -0.60665700146E-01  0.26891387667E-02  0.31230673957E-01  0.68287442171E-01  0.51100000000E-03 0. -1.
         11    1    4    4    0    0 -0.50390072044E-01  0.21211920348E-01  0.27945161218E-01  0.61402753049E-01  0.51100000000E-03 0.  1.
</event>
<event>
 8    1  0.1135368E+005  0.1043930E+01  0.7957747E-01            NaN
         13   -1    0    0    0    0  0.00000000000E+00  0.00000000000E+00  0.74505805969E-08  0.10566000000E+00  0.10566000000E+00 0. -1.
     999900   -1    0    0    0    0 -0.00000000000E+00 -0.00000000000E+00 -0.74505805969E-08  0.93827000000E+00  0.93827000000E+00 0. -1.
     999902    2    1    2    0    0  0.79227946432E-02 -0.21663720907E-01 -0.23462415381E-02  0.10207439627E+01  0.10204805951E+01 0.  0.
     999903    2    3    3    0    0 -0.70274935192E-01  0.64870313337E-01 -0.84600070164E-01  0.12924594451E+00  0.20015449813E-01 0.  0.
         14    1    1    2    0    0 -0.79227946432E-02  0.21663720907E-01  0.23462415381E-02  0.23186037347E-01  0.00000000000E+00 0.  1.
     999901    1    3    3    0    0  0.78197729835E-01 -0.86534034244E-01  0.82253828626E-01  0.89149801815E+00  0.88000000000E+00 0. -1.
        -11    1    4    4    0    0 -0.23888509818E-01  0.35123927005E-01 -0.33632615539E-01  0.54182701101E-01  0.51100000000E-03 0. -1.
         11    1    4    4    0    0 -0.46386425374E-01  0.29746386331E-01 -0.50967454625E-01  0.75063243406E-01  0.51100000000E-03 0.  1.
</event>
<event>
 8    1  0.1135368E+005  0.1043930E+01  0.7957747E-01            NaN
         13   -1    0    0    0    0  0.00000000000E+00  0.00000000000E+00  0.74505805969E-08  0.10566000000E+00  0.10566000000E+00 0. -1.
     999900   -1    0    0    0    0 -0.00000000000E+00 -0.00000000000E+00 -0.74505805969E-08  0.93827000000E+00  0.93827000000E+00 0.  1.
     999902    2    1    2    0    0 -0.10250496678E-01 -0.20128003081E-01 -0.64142468608E-02  0.10204491194E+01  0.10201789321E+01 0.  0.
     999903    2    3    3    0    0  0.11559779541E+00  0.23528137978E-01  0.47786498848E-01  0.12877576437E+00  0.19576119017E-01 0.  0.
         14    1    1    2    0    0  0.10250496678E-01  0.20128003081E-01  0.64142468608E-02  0.23480880583E-01  0.00000000000E+00 0. -1.
     999901    1    3    3    0    0 -0.12584829209E+00 -0.43656141059E-01 -0.54200745709E-01  0.89167335505E+00  0.88000000000E+00 0.  1.
        -11    1    4    4    0    0  0.69645853167E-01  0.16446851577E-01  0.18829593484E-01  0.73999043926E-01  0.51100000000E-03 0.  1.
         11    1    4    4    0    0  0.45951942240E-01  0.70812864010E-02  0.28956905364E-01  0.54776720439E-01  0.51100000000E-03 0. -1.
</event>
<event>
 8    1  0.1135368E+005  0.1043930E+01  0.7957747E-01            NaN
         13   -1    0    0    0    0  0.00000000000E+00  0.00000000000E+00  0.74505805969E-08  0.10566000000E+00  0.10566000000E+00 0. -1.
     999900   -1    0    0    0    0 -0.00000000000E+00 -0.00000000000E+00 -0.74505805969E-08  0.93827000000E+00  0.93827000000E+00 0. -1.
     999902    2    1    2    0    0  0.20262310852E-01 -0.89624810523E-02  0.40005400039E-02  0.10214157461E+01  0.10211675841E+01 0.  0.
     999903    2    3    3    0    0  0.60377652778E-01 -0.90068373251E-02  0.11623880572E+00  0.13338045914E+00  0.23501124457E-01 0.  0.
         14    1    1    2    0    0 -0.20262310852E-01  0.89624810523E-02 -0.40005400039E-02  0.22514253885E-01  0.00000000000E+00 0.  1.
     999901    1    3    3    0    0 -0.40115341926E-01  0.44356272763E-04 -0.11223826572E+00  0.88803528698E+00  0.88000000000E+00 0. -1.
        -11    1    4    4    0    0  0.40368229002E-01 -0.62237911790E-02  0.97944528012E-01  0.10612125696E+00  0.51100000000E-03 0.  1.
         11    1    4    4    0    0  0.20009423776E-01 -0.27830461461E-02  0.18294277709E-01  0.27259202182E-01  0.51100000000E-03 0. -1.
</event>
<event>
 8    1  0.1135368E+005  0.1043930E+01  0.7957747E-01            NaN
         13   -1    0    0    0    0  0.00000000000E+00  0.00000000000E+00  0.74505805969E-08  0.10566000000E+00  0.10566000000E+00 0.  1.
     999900   -1    0    0    0    0 -0.00000000000E+00 -0.00000000000E+00 -0.74505805969E-08  0.93827000000E+00  0.93827000000E+00 0.  1.
     999902    2    1    2    0    0 -0.17972228058E-01  0.11807344362E-01  0.96874650818E-02  0.10203448067E+01  0.10200721853E+01 0.  0.
     999903    2    3    3    0    0  0.12056268558E+00  0.59182716988E-02 -0.38076967932E-01  0.12820802095E+00  0.20421901302E-01 0.  0.
         14    1    1    2    0    0  0.17972228058E-01 -0.11807344362E-01 -0.96874650818E-02  0.23585193278E-01  0.00000000000E+00 0. -1.
     999901    1    3    3    0    0 -0.13853491364E+00  0.58890726628E-02  0.47764433013E-01  0.89213678578E+00  0.88000000000E+00 0. -1.
        -11    1    4    4    0    0  0.82752221585E-01  0.88164181774E-02 -0.17432403100E-01  0.85028284738E-01  0.51100000000E-03 0. -1.
         11    1    4    4    0    0  0.37810464000E-01 -0.28981464786E-02 -0.20644564831E-01  0.43179736207E-01  0.51100000000E-03 0.  1.
</event>
<event>
 8    1  0.1135368E+005  0.1043930E+01  0.7957747E-01            NaN
         13   -1    0    0    0    0  0.00000000000E+00  0.00000000000E+00  0.74505805969E-08  0.10566000000E+00  0.10566000000E+00 0.  1.
     999900   -1    0    0    0    0 -0.00000000000E+00 -0.00000000000E+00 -0.74505805969E-08  0.93827000000E+00  0.93827000000E+00 0. -1.
     999902    2    1    2    0    0  0.12567089364E-02  0.90342196664E-02  0.20115820570E-01  0.10218428390E+01  0.10216041039E+01 0.  0.
     999903    2    3    3    0    0 -0.15163630650E-01  0.86286007828E-01 -0.95051814992E-01  0.13083158736E+00  0.20170420834E-01 0.  0.
         14    1    1    2    0    0 -0.12567089364E-02 -0.90342196664E-02 -0.20115820570E-01  0.22087160966E-01  0.00000000000E+00 0. -1.
     999901    1    3    3    0    0  0.16420339587E-01 -0.77251788162E-01  0.11516763556E+00  0.89101125167E+00  0.88000000000E+00 0.  1.
        -11    1    4    4    0    0 -0.52567089984E-03  0.39146103920E-01 -0.30849873604E-01  0.49846460300E-01  0.51100000000E-03 0. -1.
         11    1    4    4    0    0 -0.14637959750E-01  0.47139903908E-01 -0.64201941388E-01  0.80985127061E-01  0.51100000000E-03 0.  1.
</event>
<event>
 8    1  0.1135368E+005  0.1043930E+01  0.7957747E-01            NaN
         13   -1    0    0    0    0  0.00000000000E+00  0.00000000000E+00  0.74505805969E-08  0.10566000000E+00  0.10566000000E+00 0. -1.
     999900   -1    0    0    0    0 -0.00000000000E+00 -0.00000000000E+00 -0.74505805969E-08  0.93827000000E+00  0.93827000000E+00 0.  1.
     999902    2    1    2    0    0 -0.13985400648E-01 -0.19984419824E-01 -0.41989602055E-02  0.10191792478E+01  0.10188786677E+01 0.  0.
     999903    2    3    3    0    0 -0.40497454041E-01 -0.59754372769E-01 -0.10839088754E+00  0.13174446381E+00  0.19934653109E-01 0.  0.
         14    1    1    2    0    0  0.13985400648E-01  0.19984419824E-01  0.41989602055E-02  0.24750752186E-01  0.00000000000E+00 0.  1.
     999901    1    3    3    0    0  0.26512053393E-01  0.39769952946E-01  0.10419192734E+00  0.88743478400E+00  0.88000000000E+00 0. -1.
        -11    1    4    4    0    0 -0.87099328396E-02 -0.14420409077E-01 -0.12384333100E-01  0.20915160897E-01  0.51100000000E-03 0. -1.
         11    1    4    4    0    0 -0.31787521201E-01 -0.45333963692E-01 -0.96006554441E-01  0.11082930292E+00  0.51100000000E-03 0.  1.
</event>
<event>
 8    1  0.1135368E+005  0.1043930E+01  0.7957747E-01            NaN
         13   -1    0    0    0    0  0.00000000000E+00  0.00000000000E+00  0.74505805969E-08  0.10566000000E+00  0.10566000000E+00 0. -1.
     999900   -1    0    0    0    0 -0.00000000000E+00 -0.00000000000E+00 -0.74505805969E-08  0.93827000000E+00  0.93827000000E+00 0. -1.
     999902    2    1    2    0    0  0.12841966723E-01  0.12171764821E-01 -0.15444945734E-01  0.10204435291E+01  0.10201732116E+01 0.  0.
     999903    2    3    3    0    0 -0.69825656486E-01 -0.10603045461E+00 -0.17086804888E-03  0.12856966015E+00  0.20298982873E-01 0.  0.
         14    1    1    2    0    0 -0.12841966723E-01 -0.12171764821E-01  0.15444945734E-01  0.23486470933E-01  0.00000000000E+00 0. -1.
     999901    1    3    3    0    0  0.82667623209E-01  0.11820221944E+00 -0.15274077685E-01  0.89187386892E+00  0.88000000000E+00 0.  1.
        -11    1    4    4    0    0 -0.48595054502E-01 -0.56290973072E-01  0.26360234336E-02  0.74413457868E-01  0.51100000000E-03 0. -1.
         11    1    4    4    0    0 -0.21230601985E-01 -0.49739481543E-01 -0.28068914824E-02  0.54156202282E-01  0.51100000000E-03 0.  1.
</event>
<event>
 8    1  0.1135368E+005  0.1043930E+01  0.7957747E-01            NaN
         13   -1    0    0    0    0  0.00000000000E+00  0.00000000000E+00  0.74505805969E-08  0.10566000000E+00  0.10566000000E+00 0.  1.
     999900   -1    0    0    0    0 -0.00000000000E+00 -0.00000000000E+00 -0.74505805969E-08  0.93827000000E+00  0.93827000000E+00 0. -1.
     999902    2    1    2    0    0 -0.20452690424E-01  0.62834618540E-03  0.11951943667E-01  0.10202328204E+01  0.10199575734E+01 0.  0.
     999903    2    3    3    0    0  0.63285115792E-01  0.93056215237E-01  0.61925394679E-01  0.13003493397E+00  0.20245109797E-01 0.  0.
         14    1    1    2    0    0  0.20452690424E-01 -0.62834618540E-03 -0.11951943667E-01  0.23697179620E-01  0.00000000000E+00 0. -1.
     999901    1    3    3    0    0 -0.83737806216E-01 -0.92427869052E-01 -0.49973451012E-01  0.89019788641E+00  0.88000000000E+00 0. -1.
        -11    1    4    4    0    0  0.39895442076E-01  0.41188421429E-01  0.28384111202E-01  0.63984773563E-01  0.51100000000E-03 0.  1.
         11    1    4    4    0    0  0.23389673715E-01  0.51867793809E-01  0.33541283478E-01  0.66050160404E-01  0.51100000000E-03 0. -1.
</event>
<event>
 8    1  0.1135368E+005  0.1043930E+01  0.7957747E-01            NaN
         13   -1    0    0    0    0  0.00000000000E+00  0.00000000000E+00  0.74505805969E-08  0.10566000000E+00  0.10566000000E+00 0.  1.
     999900   -1    0    0    0    0 -0.00000000000E+00 -0.00000000000E+00 -0.74505805969E-08  0.93827000000E+00  0.93827000000E+00 0.  1.
     999902    2    1    2    0    0 -0.22564640891E-01 -0.68629181446E-02 -0.23970302223E-02  0.10202232833E+01  0.10199478121E+01 0.  0.
     999903    2    3    3    0    0  0.84211439451E-01  0.94042319066E-01 -0.77593614103E-02  0.12802837586E+00  0.19888012090E-01 0.  0.
         14    1    1    2    0    0  0.22564640891E-01  0.68629181446E-02  0.23970302223E-02  0.23706716725E-01  0.00000000000E+00 0.  1.
     999901    1    3    3    0    0 -0.10677608034E+00 -0.10090523721E+00  0.53623311880E-02  0.89219490742E+00  0.88000000000E+00 0. -1.
        -11    1    4    4    0    0  0.62414048564E-01  0.68974404162E-01 -0.14448970529E-01  0.94138279982E-01  0.51100000000E-03 0. -1.
         11    1    4    4    0    0  0.21797390888E-01  0.25067914904E-01  0.66896091189E-02  0.33890095874E-01  0.51100000000E-03 0.  1.
</event>
<event>
 8    1  0.1135368E+005  0.1043930E+01  0.7957747E-01            NaN
         13   -1    0    0    0    0  0.00000000000E+00  0.00000000000E+00  0.74505805969E-08  0.10566000000E+00  0.10566000000E+00 0.  1.
     999900   -1    0    0    0    0 -0.00000000000E+00 -0.00000000000E+00 -0.74505805969E-08  0.93827000000E+00  0.93827000000E+00 0.  1.
     999902    2    1    2    0    0  0.37912056132E-02  0.11176008666E-01  0.21594341744E-01  0.10193212210E+01  0.10190241212E+01 0.  0.
     999903    2    3    3    0    0  0.95484054305E-01 -0.11445535144E-01  0.87815012848E-01  0.13179404391E+00  0.20248175917E-01 0.  0.
         14    1    1    2    0    0 -0.37912056132E-02 -0.11176008666E-01 -0.21594341744E-01  0.24608779024E-01  0.00000000000E+00 0.  1.
     999901    1    3    3    0    0 -0.91692848692E-01  0.22621543810E-01 -0.66220671104E-01  0.88752717706E+00  0.88000000000E+00 0.  1.
        -11    1    4    4    0    0  0.22872392486E-01  0.56461522696E-02  0.23841931615E-01  0.33521995728E-01  0.51100000000E-03 0.  1.
         11    1    4    4    0    0  0.72611661819E-01 -0.17091687413E-01  0.63973081232E-01  0.98272048183E-01  0.51100000000E-03 0. -1.
</event>
<event>
 8    1  0.1135368E+005  0.1043930E+01  0.7957747E-01            NaN
         13   -1    0    0    0    0  0.00000000000E+00  0.00000000000E+00  0.74505805969E-08  0.10566000000E+00  0.10566000000E+00 0. -1.
     999900   -1    0    0    0    0 -0.00000000000E+00 -0.00000000000E+00 -0.74505805969E-08  0.93827000000E+00  0.93827000000E+00 0.  1.
     999902    2    1    2    0    0 -0.63837792547E-02 -0.84759652883E-02 -0.21704000601E-01  0.10197709796E+01  0.10194847682E+01 0.  0.
     999903    2    3    3    0    0 -0.47428205329E-01 -0.91858903726E-01 -0.81083935029E-01  0.13288691955E+00  0.19920743307E-01 0.  0.
         14    1    1    2    0    0  0.63837792547E-02  0.84759652883E-02  0.21704000601E-01  0.24159020411E-01  0.00000000000E+00 0. -1.
     999901    1    3    3    0    0  0.41044426075E-01  0.83382938437E-01  0.59379934428E-01  0.88688406004E+00  0.88000000000E+00 0.  1.
        -11    1    4    4    0    0 -0.27945155669E-01 -0.72420373849E-01 -0.62702566486E-01  0.99787350094E-01  0.51100000000E-03 0. -1.
         11    1    4    4    0    0 -0.19483049661E-01 -0.19438529877E-01 -0.18381368542E-01  0.33099569458E-01  0.51100000000E-03 0.  1.
</event>
<event>
 8    1  0.1135368E+005  0.1043930E+01  0.7957747E-01            NaN
         13   -1    0    0    0    0  0.00000000000E+00  0.00000000000E+00  0.74505805969E-08  0.10566000000E+00  0.10566000000E+00 0.  1.
     999900   -1    0    0    0    0 -0.00000000000E+00 -0.00000000000E+00 -0.74505805969E-08  0.93827000000E+00  0.93827000000E+00 0.  1.
     999902    2    1    2    0    0  0.55696763282E-02 -0.23009133615E-01 -0.12961980235E-02  0.10202208951E+01  0.10199453678E+01 0.  0.
     999903    2    3    3    0    0  0.11022523953E+00 -0.63651858058E-01 -0.31303530960E-01  0.13258073269E+00  0.19914245301E-01 0.  0.
         14    1    1    2    0    0 -0.55696763282E-02  0.23009133615E-01  0.12961980235E-02  0.23709104864E-01  0.00000000000E+00 0.  1.
     999901    1    3    3    0    0 -0.10465556320E+00  0.40642724443E-01  0.30007332937E-01  0.88764016245E+00  0.88000000000E+00 0. -1.
        -11    1    4    4    0    0  0.80635992563E-01 -0.52483338818E-01 -0.16346416906E-01  0.97591652393E-01  0.51100000000E-03 0. -1.
         11    1    4    4    0    0  0.29589246968E-01 -0.11168519240E-01 -0.14957114054E-01  0.34989080296E-01  0.51100000000E-03 0.  1.
</event>
<event>
 8    1  0.1135368E+005  0.1043930E+01  0.7957747E-01            NaN
         13   -1    0    0    0    0  0.00000000000E+00  0.00000000000E+00  0.74505805969E-08  0.10566000000E+00  0.10566000000E+00 0.  1.
     999900   -1    0    0    0    0 -0.00000000000E+00 -0.00000000000E+00 -0.74505805969E-08  0.93827000000E+00  0.93827000000E+00 0. -1.
     999902    2    1    2    0    0  0.74038234069E-02  0.14936112928E-01  0.17451235016E-01  0.10197960058E+01  0.10195103942E+01 0.  0.
     999903    2    3    3    0    0  0.42521714299E-01 -0.24349245736E-02 -0.11927626498E+00  0.12837611126E+00  0.20966008440E-01 0.  0.
         14    1    1    2    0    0 -0.74038234069E-02 -0.14936112928E-01 -0.17451235016E-01  0.24133994158E-01  0.00000000000E+00 0. -1.
     999901    1    3    3    0    0 -0.35117890892E-01  0.17371037502E-01  0.13672749999E+00  0.89141989458E+00  0.88000000000E+00 0.  1.
        -11    1    4    4    0    0  0.35624539500E-01 -0.10213627972E-01 -0.93000101286E-01  0.10011346548E+00  0.51100000000E-03 0.  1.
         11    1    4    4    0    0  0.68971747990E-02  0.77787033985E-02 -0.26276163693E-01  0.28262645775E-01  0.51100000000E-03 0. -1.
</event>
<event>
 8    1  0.1135368E+005  0.1043930E+01  0.7957747E-01            NaN
         13   -1    0    0    0    0  0.00000000000E+00  0.00000000000E+00  0.74505805969E-08  0.10566000000E+00  0.10566000000E+00 0.  1.
     999900   -1    0    0    0    0 -0.00000000000E+00 -0.00000000000E+00 -0.74505805969E-08  0.93827000000E+00  0.93827000000E+00 0. -1.
     999902    2    1    2    0    0 -0.14057071280E-01  0.88537664678E-02 -0.17004794661E-01  0.10201570432E+01  0.10198800122E+01 0.  0.
     999903    2    3    3    0    0  0.57583492620E-01 -0.41034150635E-01 -0.10926092353E+00  0.13103817152E+00  0.15277200129E-01 0.  0.
         14    1    1    2    0    0  0.14057071280E-01 -0.88537664678E-02  0.17004794661E-01  0.23772956802E-01  0.00000000000E+00 0.  1.
     999901    1    3    3    0    0 -0.71640563900E-01  0.49887917103E-01  0.92256128865E-01  0.88911887168E+00  0.88000000000E+00 0.  1.
        -11    1    4    4    0    0  0.12629642032E-01 -0.12467341746E-01 -0.39160160234E-01  0.42996764281E-01  0.51100000000E-03 0. -1.
         11    1    4    4    0    0  0.44953850588E-01 -0.28566808889E-01 -0.70100763292E-01  0.88041407235E-01  0.51100000000E-03 0.  1.
</event>
<event>
 8    1  0.1135368E+005  0.1043930E+01  0.7957747E-01            NaN
         13   -1    0    0    0    0  0.00000000000E+00  0.00000000000E+00  0.74505805969E-08  0.10566000000E+00  0.10566000000E+00 0.  1.
     999900   -1    0    0    0    0 -0.00000000000E+00 -0.00000000000E+00 -0.74505805969E-08  0.93827000000E+00  0.93827000000E+00 0.  1.
     999902    2    1    2    0    0 -0.20045277530E-01 -0.10348823505E-01  0.40836275705E-03  0.10213672418E+01  0.10211179973E+01 0.  0.
     999903    2    3    3    0    0 -0.46575744489E-01 -0.11190167181E+00  0.52224422822E-01  0.13361629090E+00  0.20847990917E-01 0.  0.
         14    1    1    2    0    0  0.20045277530E-01  0.10348823505E-01 -0.40836275705E-03  0.22562758239E-01  0.00000000000E+00 0. -1.
     999901    1    3    3    0    0  0.26530466959E-01  0.10155284831E+00 -0.51816060065E-01  0.88775095086E+00  0.88000000000E+00 0.  1.
        -11    1    4    4    0    0 -0.27468834021E-01 -0.88508906191E-01  0.36996174025E-01  0.99786478698E-01  0.51100000000E-03 0.  1.
         11    1    4    4    0    0 -0.19106910468E-01 -0.23392765622E-01  0.15228248797E-01  0.33829812200E-01  0.51100000000E-03 0. -1.
</event>
<event>
 8    1  0.1135368E+005  0.1043930E+01  0.7957747E-01            NaN
         13   -1    0    0    0    0  0.00000000000E+00  0.00000000000E+00  0.74505805969E-08  0.10566000000E+00  0.10566000000E+00 0.  1.
     999900   -1    0    0    0    0 -0.00000000000E+00 -0.00000000000E+00 -0.74505805969E-08  0.93827000000E+00  0.93827000000E+00 0. -1.
     999902    2    1    2    0    0 -0.88836763050E-02 -0.51432636063E-02 -0.22555938687E-01  0.10191480865E+01  0.10188467397E+01 0.  0.
     999903    2    3    3    0    0  0.47219066955E-01 -0.11607115226E+00  0.24786018695E-01  0.12915158361E+00  0.19069141441E-01 0.  0.
         14    1    1    2    0    0  0.88836763050E-02  0.51432636063E-02  0.22555938687E-01  0.24781913471E-01  0.00000000000E+00 0.  1.
     999901    1    3    3    0    0 -0.56102743260E-01  0.11092788865E+00 -0.47341957382E-01  0.88999650292E+00  0.88000000000E+00 0. -1.
        -11    1    4    4    0    0  0.12895290926E-01 -0.21866908244E-01 -0.17014846026E-02  0.25448111424E-01  0.51100000000E-03 0. -1.
         11    1    4    4    0    0  0.34323776029E-01 -0.94204244014E-01  0.26487503298E-01  0.10370347218E+00  0.51100000000E-03 0.  1.
</event>
<event>
 8    1  0.1135368E+005  0.1043930E+01  0.7957747E-01            NaN
         13   -1    0    0    0    0  0.00000000000E+00  0.00000000000E+00  0.74505805969E-08  0.10566000000E+00  0.10566000000E+00 0.  1.
     999900   -1    0    0    0    0 -0.00000000000E+00 -0.00000000000E+00 -0.74505805969E-08  0.93827000000E+00  0.93827000000E+00 0. -1.
     999902    2    1    2    0    0  0.93613558854E-02  0.17041845832E-01 -0.12082594147E-01  0.10210378927E+01  0.10207812351E+01 0.  0.
     999903    2    3    3    0    0  0.91885401818E-01 -0.89197082416E-01  0.15796020175E-01  0.13037850489E+00  0.18708118704E-01 0.  0.
         14    1    1    2    0    0 -0.93613558854E-02 -0.17041845832E-01  0.12082594147E-01  0.22892107257E-01  0.00000000000E+00 0.  1.
     999901    1    3    3    0    0 -0.82524045933E-01  0.10623892825E+00 -0.27878614321E-01  0.89065938785E+00  0.88000000000E+00 0.  1.
        -11    1    4    4    0    0  0.15326514738E-01 -0.70130499856E-02  0.47386677291E-02  0.17515736266E-01  0.51100000000E-03 0. -1.
         11    1    4    4    0    0  0.76558887080E-01 -0.82184032430E-01  0.11057352446E-01  0.11286276862E+00  0.51100000000E-03 0.  1.
</event>
<event>
 8    1  0.1135368E+005  0.1043930E+01  0.7957747E-01            NaN
         13   -1    0    0    0    0  0.00000000000E+00  0.00000000000E+00  0.74505805969E-08  0.10566000000E+00  0.10566000000E+00 0.  1.
     999900   -1    0    0    0    0 -0.00000000000E+00 -0.00000000000E+00 -0.74505805969E-08  0.93827000000E+00  0.93827000000E+00 0. -1.
     999902    2    1    2    0    0  0.58241981931E-02 -0.19109698249E-01 -0.13191829379E-01  0.10199899454E+01  0.10197089597E+01 0.  0.
     999903    2    3    3    0    0  0.91265516113E-01 -0.75469194881E-01  0.53757200547E-01  0.13153128892E+00  0.19637961896E-01 0.  0.
         14    1    1    2    0    0 -0.58241981931E-02  0.19109698249E-01  0.13191829379E-01  0.23940054597E-01  0.00000000000E+00 0.  1.
     999901    1    3    3    0    0 -0.85441317920E-01  0.56359496632E-01 -0.66949029926E-01  0.88845865648E+00  0.88000000000E+00 0.  1.
        -11    1    4    4    0    0  0.44303100752E-01 -0.38332470796E-01  0.15946911145E-01  0.60718268664E-01  0.51100000000E-03 0.  1.
         11    1    4    4    0    0  0.46962415361E-01 -0.37136724085E-01  0.37810289402E-01  0.70813020257E-01  0.51100000000E-03 0. -1.
</event>
<event>
 8    1  0.1135368E+005  0.1043930E+01  0.7957747E-01            NaN
         13   -1    0    0    0    0  0.00000000000E+00  0.00000000000E+00  0.74505805969E-08  0.10566000000E+00  0.10566000000E+00 0. -1.
     999900   -1    0    0    0    0 -0.00000000000E+00 -0.00000000000E+00 -0.74505805969E-08  0.93827000000E+00  0.93827000000E+00 0. -1.
     999902    2    1    2    0    0  0.26088562135E-02 -0.11276072359E-01  0.23614425670E-01  0.10176317674E+01  0.10172919035E+01 0.  0.
     999903    2    3    3    0    0  0.65003813440E-01  0.31731056932E-01  0.10679210415E+00  0.13046703069E+00  0.19614710065E-01 0.  0.
         14    1    1    2    0    0 -0.26088562135E-02  0.11276072359E-01 -0.23614425670E-01  0.26298232608E-01  0.00000000000E+00 0.  1.
     999901    1    3    3    0    0 -0.62394957227E-01 -0.43007129291E-01 -0.83177678482E-01  0.88716473671E+00  0.88000000000E+00 0.  1.
        -11    1    4    4    0    0  0.22099914902E-01  0.25577930809E-02  0.23734406104E-01  0.32535084113E-01  0.51100000000E-03 0. -1.
         11    1    4    4    0    0  0.42903898538E-01  0.29173263851E-01  0.83057698048E-01  0.97931946573E-01  0.51100000000E-03 0.  1.
</event>
<event>
 8    1  0.1135368E+005  0.1043930E+01  0.7957747E-01            NaN
         13   -1    0    0    0    0  0.00000000000E+00  0.00000000000E+00  0.74505805969E-08  0.10566000000E+00  0.10566000000E+00 0. -1.
     999900   -1    0    0    0    0 -0.00000000000E+00 -0.00000000000E+00 -0.74505805969E-08  0.93827000000E+00  0.93827000000E+00 0.  1.
     999902    2    1    2    0    0 -0.84352146545E-02 -0.16049372813E-01 -0.17194784083E-01  0.10189420866E+01  0.10186356464E+01 0.  0.
     999903    2    3    3    0    0 -0.65643903509E-01  0.98545098167E-01 -0.47638925254E-01  0.12914909241E+00  0.19742401856E-01 0.  0.
         14    1    1    2    0    0  0.84352146545E-02  0.16049372813E-01  0.17194784083E-01  0.24987913351E-01  0.00000000000E+00 0. -1.
     999901    1    3    3    0    0  0.57208688855E-01 -0.11459447098E+00  0.30444141170E-01  0.88979299424E+00  0.88000000000E+00 0.  1.
        -11    1    4    4    0    0 -0.46737892337E-01  0.52664452661E-01 -0.28214368291E-01  0.75857015847E-01  0.51100000000E-03 0.  1.
         11    1    4    4    0    0 -0.18906011173E-01  0.45880645506E-01 -0.19424556963E-01  0.53292076566E-01  0.51100000000E-03 0. -1.
</event>
<event>
 8    1  0.1135368E+005  0.1043930E+01  0.7957747E-01            NaN
         13   -1    0    0    0    0  0.00000000000E+00  0.00000000000E+00  0.74505805969E-08  0.10566000000E+00  0.10566000000E+00 0. -1.
     999900   -1    0    0    0    0 -0.00000000000E+00 -0.00000000000E+00 -0.74505805969E-08  0.93827000000E+00  0.93827000000E+00 0.  1.
     999902    2    1    2    0    0 -0.58772306414E-02 -0.21185791443E-01 -0.12990439433E-01  0.10183931420E+01  0.10180729152E+01 0.  0.
     999903    2    3    3    0    0 -0.43575743234E-01  0.35003185056E-01 -0.11565745013E+00  0.12984438476E+00  0.18943339789E-01 0.  0.
         14    1    1    2    0    0  0.58772306414E-02  0.21185791443E-01  0.12990439433E-01  0.25536857985E-01  0.00000000000E+00 0.  1.
     999901    1    3    3    0    0  0.37698512592E-01 -0.56188976499E-01  0.10266701069E+00  0.88854875725E+00  0.88000000000E+00 0. -1.
        -11    1    4    4    0    0 -0.37167455992E-01  0.21958048255E-01 -0.73408805645E-01  0.85162723860E-01  0.51100000000E-03 0.  1.
         11    1    4    4    0    0 -0.64082872418E-02  0.13045136800E-01 -0.42248644480E-01  0.44681660902E-01  0.51100000000E-03 0. -1.
</event>
<event>
 8    1  0.1135368E+005  0.1043930E+01  0.7957747E-01            NaN
         13   -1    0    0    0    0  0.00000000000E+00  0.00000000000E+00  0.74505805969E-08  0.10566000000E+00  0.10566000000E+00 0. -1.
     999900   -1    0    0    0    0 -0.00000000000E+00 -0.00000000000E+00 -0.74505805969E-08  0.93827000000E+00  0.93827000000E+00 0. -1.
     999902    2    1    2    0    0  0.23389304369E-02 -0.12585269763E-01  0.20033928076E-01  0.10201556886E+01  0.10198786256E+01 0.  0.
     999903    2    3    3    0    0  0.12677564077E+00 -0.18862408520E-01 -0.15909050293E-01  0.13065257162E+00  0.19726708826E-01 0.  0.
         14    1    1    2    0    0 -0.23389304369E-02  0.12585269763E-01 -0.20033928076E-01  0.23774311446E-01  0.00000000000E+00 0.  1.
     999901    1    3    3    0    0 -0.12443671033E+00  0.62771387573E-02  0.35942978369E-01  0.88950311694E+00  0.88000000000E+00 0.  1.
        -11    1    4    4    0    0  0.22453659755E-01  0.41731079052E-02 -0.29082773352E-02  0.23028262289E-01  0.51100000000E-03 0.  1.
         11    1    4    4    0    0  0.10432198101E+00 -0.23035516426E-01 -0.13000772958E-01  0.10762430933E+00  0.51100000000E-03 0. -1.
</event>
<event>
 8    1  0.1135368E+005  0.1043930E+01  0.7957747E-01            NaN
         13   -1    0    0    0    0  0.00000000000E+00  0.00000000000E+00  0.74505805969E-08  0.10566000000E+00  0.10566000000E+00 0.  1.
     999900   -1    0    0    0    0 -0.00000000000E+00 -0.00000000000E+00 -0.74505805969E-08  0.93827000000E+00  0.93827000000E+00 0.  1.
     999902    2    1    2    0    0 -0.18681858740E-01 -0.11854675709E-01  0.65847032823E-02  0.10208452973E+01  0.10205842530E+01 0.  0.
     999903    2    3    3    0    0  0.12682830887E+00  0.43257377053E-02 -0.59643815805E-02  0.12866118277E+00  0.20346846610E-01 0.  0.
         14    1    1    2    0    0  0.18681858740E-01  0.11854675709E-01 -0.65847032823E-02  0.23084702715E-01  0.00000000000E+00 0. -1.
     999901    1    3    3    0    0 -0.14551016761E+00 -0.16180413414E-01  0.12549084863E-01  0.89218411451E+00  0.88000000000E+00 0. -1.
        -11    1    4    4    0    0  0.74410426812E-01  0.40179996760E-02 -0.13398175009E-01  0.75715441981E-01  0.51100000000E-03 0.  1.
         11    1    4    4    0    0  0.52417882059E-01  0.30773802928E-03  0.74337934289E-02  0.52945740792E-01  0.51100000000E-03 0. -1.
</event>
<event>
 8    1  0.1135368E+005  0.1043930E+01  0.7957747E-01            NaN
         13   -1    0    0    0    0  0.00000000000E+00  0.00000000000E+00  0.74505805969E-08  0.10566000000E+00  0.10566000000E+00 0.  1.
     999900   -1    0    0    0    0 -0.00000000000E+00 -0.00000000000E+00 -0.74505805969E-08  0.93827000000E+00  0.93827000000E+00 0. -1.
     999902    2    1    2    0    0 -0.25165840275E-01  0.21772466585E-01 -0.32245027514E-02  0.10104971234E+01  0.10099438990E+01 0.  0.
     999903    2    3    3    0    0  0.11383125083E+00 -0.24982418458E-01 -0.14078503189E-02  0.11835951586E+00  0.20623240656E-01 0.  0.
         14    1    1    2    0    0  0.25165840275E-01 -0.21772466585E-01  0.32245027514E-02  0.33432876572E-01  0.00000000000E+00 0. -1.
     999901    1    3    3    0    0 -0.13899709110E+00  0.46754885043E-01 -0.18166524326E-02  0.89213760757E+00  0.88000000000E+00 0.  1.
        -11    1    4    4    0    0  0.79504673520E-01 -0.24834639417E-01 -0.69506708914E-02  0.83584241178E-01  0.51100000000E-03 0. -1.
         11    1    4    4    0    0  0.34326577308E-01 -0.14777904096E-03  0.55428205726E-02  0.34775274682E-01  0.51100000000E-03 0.  1.
</event>
<event>
 8    1  0.1135368E+005  0.1043930E+01  0.7957747E-01            NaN
         13   -1    0    0    0    0  0.00000000000E+00  0.00000000000E+00  0.74505805969E-08  0.10566000000E+00  0.10566000000E+00 0.  1.
     999900   -1    0    0    0    0 -0.00000000000E+00 -0.00000000000E+00 -0.74505805969E-08  0.93827000000E+00  0.93827000000E+00 0.  1.
     999902    2    1    2    0    0 -0.18085091650E-01 -0.14876206484E-01  0.23393684359E-02  0.10203960946E+01  0.10201246714E+01 0.  0.
     999903    2    3    3    0    0 -0.31889837020E-01 -0.63033796566E-01  0.11019244300E+00  0.13239721499E+00  0.19910470283E-01 0.  0.
         14    1    1    2    0    0  0.18085091650E-01  0.14876206484E-01 -0.23393684359E-02  0.23533905414E-01  0.00000000000E+00 0. -1.
     999901    1    3    3    0    0  0.13804745370E-01  0.48157590082E-01 -0.10785307456E+00  0.88799887960E+00  0.88000000000E+00 0.  1.
        -11    1    4    4    0    0 -0.78182018032E-02 -0.37449812199E-01  0.57042285629E-01  0.68685487434E-01  0.51100000000E-03 0. -1.
         11    1    4    4    0    0 -0.24071635217E-01 -0.25583984367E-01  0.53150157372E-01  0.63711727553E-01  0.51100000000E-03 0.  1.
</event>
<event>
 8    1  0.1135368E+005  0.1043930E+01  0.7957747E-01            NaN
         13   -1    0    0    0    0  0.00000000000E+00  0.00000000000E+00  0.74505805969E-08  0.10566000000E+00  0.10566000000E+00 0. -1.
     999900   -1    0    0    0    0 -0.00000000000E+00 -0.00000000000E+00 -0.74505805969E-08  0.93827000000E+00  0.93827000000E+00 0. -1.
     999902    2    1    2    0    0  0.98601133525E-02  0.46453074294E-02  0.18371091490E-01  0.10225688736E+01  0.10223457359E+01 0.  0.
     999903    2    3    3    0    0 -0.12618345588E+00 -0.12459490204E-02 -0.28819653478E-01  0.13084608823E+00  0.19139212418E-01 0.  0.
         14    1    1    2    0    0 -0.98601133525E-02 -0.46453074294E-02 -0.18371091490E-01  0.21361126351E-01  0.00000000000E+00 0.  1.
     999901    1    3    3    0    0  0.13604356923E+00  0.58912564498E-02  0.47190744969E-01  0.89172278542E+00  0.88000000000E+00 0.  1.
        -11    1    4    4    0    0 -0.11545799990E+00 -0.21231463433E-02 -0.31591296021E-01  0.11972188019E+00  0.51100000000E-03 0.  1.
         11    1    4    4    0    0 -0.10725455973E-01  0.87719732286E-03  0.27716425427E-02  0.11124208033E-01  0.51100000000E-03 0. -1.
</event>
<event>
 7    1  0.1135368E+005  0.1043930E+01  0.7957747E-01            NaN
         13   -1    0    0    0    0  0.00000000000E+00  0.00000000000E+00  0.74505805969E-08  0.10566000000E+00  0.10566000000E+00 0. -1.
     999900   -1    0    0    0    0 -0.00000000000E+00 -0.00000000000E+00 -0.74505805969E-08  0.93827000000E+00  0.93827000000E+00 0.  1.
     999903    2    1    2    0    0 -0.53098996293E-01 -0.24644253061E-01 -0.12212414714E-01  0.63097714181E-01  0.20132954218E-01 0.  0.
         14    1    1    2    0    0  0.82296257340E-01 -0.44176922360E-02 -0.52136902723E-01  0.97521518664E-01  0.00000000000E+00 0.  1.
     999901    1    1    2    0    0 -0.29197261048E-01  0.29061945297E-01  0.64349317438E-01  0.88331076715E+00  0.88000000000E+00 0. -1.
        -11    1    3    3    0    0 -0.11189383768E-01 -0.11028120531E-01 -0.10676712607E-01  0.19001975283E-01  0.51100000000E-03 0. -1.
         11    1    3    3    0    0 -0.41909612525E-01 -0.13616132529E-01 -0.15357021078E-02  0.44095738899E-01  0.51100000000E-03 0.  1.
</event>
<event>
 8    1  0.1135368E+005  0.1043930E+01  0.7957747E-01            NaN
         13   -1    0    0    0    0  0.00000000000E+00  0.00000000000E+00  0.74505805969E-08  0.10566000000E+00  0.10566000000E+00 0.  1.
     999900   -1    0    0    0    0 -0.00000000000E+00 -0.00000000000E+00 -0.74505805969E-08  0.93827000000E+00  0.93827000000E+00 0.  1.
     999902    2    1    2    0    0 -0.27587512609E-02  0.15947163347E-01  0.17087877098E-01  0.10203945316E+01  0.10201230719E+01 0.  0.
     999903    2    3    3    0    0  0.59870543831E-01  0.76950683086E-01  0.88533291554E-01  0.13318074383E+00  0.19826173818E-01 0.  0.
         14    1    1    2    0    0  0.27587512609E-02 -0.15947163347E-01 -0.17087877098E-01  0.23535468363E-01  0.00000000000E+00 0. -1.
     999901    1    3    3    0    0 -0.62629295092E-01 -0.61003519738E-01 -0.71445414456E-01  0.88721378780E+00  0.88000000000E+00 0.  1.
        -11    1    4    4    0    0  0.46031200237E-01  0.49516064131E-01  0.69871193747E-01  0.97226317625E-01  0.51100000000E-03 0. -1.
         11    1    4    4    0    0  0.13839343594E-01  0.27434618955E-01  0.18662097807E-01  0.35954426207E-01  0.51100000000E-03 0.  1.
</event>
<event>
 8    1  0.1135368E+005  0.1043930E+01  0.7957747E-01            NaN
         13   -1    0    0    0    0  0.00000000000E+00  0.00000000000E+00  0.74505805969E-08  0.10566000000E+00  0.10566000000E+00 0. -1.
     999900   -1    0    0    0    0 -0.00000000000E+00 -0.00000000000E+00 -0.74505805969E-08  0.93827000000E+00  0.93827000000E+00 0. -1.
     999902    2    1    2    0    0  0.14402851733E-01  0.12933084380E-01 -0.14537718932E-01  0.10197214874E+01  0.10194340880E+01 0.  0.
     999903    2    3    3    0    0 -0.96252080716E-02 -0.40959475256E-02  0.12604928078E+00  0.12807579541E+00  0.20138688334E-01 0.  0.
         14    1    1    2    0    0 -0.14402851733E-01 -0.12933084380E-01  0.14537718932E-01  0.24208512580E-01  0.00000000000E+00 0. -1.
     999901    1    3    3    0    0  0.24028059804E-01  0.17029031905E-01 -0.14058699972E+00  0.89164569201E+00  0.88000000000E+00 0. -1.
        -11    1    4    4    0    0 -0.12313234551E-01  0.40325325287E-02  0.94345246906E-01  0.95232157375E-01  0.51100000000E-03 0.  1.
         11    1    4    4    0    0  0.26880264794E-02 -0.81284800543E-02  0.31704033879E-01  0.32843638037E-01  0.51100000000E-03 0. -1.
</event>
<event>
 8    1  0.1135368E+005  0.1043930E+01  0.7957747E-01            NaN
         13   -1    0    0    0    0  0.00000000000E+00  0.00000000000E+00  0.74505805969E-08  0.10566000000E+00  0.10566000000E+00 0. -1.
     999900   -1    0    0    0    0 -0.00000000000E+00 -0.00000000000E+00 -0.74505805969E-08  0.93827000000E+00  0.93827000000E+00 0.  1.
     999902    2    1    2    0    0 -0.20202633339E-01  0.10507239908E-01 -0.56155561176E-02  0.10204761527E+01  0.10202065944E+01 0.  0.
     999903    2    3    3    0    0 -0.88374789585E-01  0.94915298252E-01 -0.24601698054E-01  0.13360940011E+00  0.20669082569E-01 0.  0.
         14    1    1    2    0    0  0.20202633339E-01 -0.10507239908E-01  0.56155561176E-02  0.23453847335E-01  0.00000000000E+00 0. -1.
     999901    1    3    3    0    0  0.68172156247E-01 -0.84408058344E-01  0.18986141936E-01  0.88686675255E+00  0.88000000000E+00 0. -1.
        -11    1    4    4    0    0 -0.43331715660E-01  0.34905810694E-01 -0.39521364972E-02  0.55784708533E-01  0.51100000000E-03 0.  1.
         11    1    4    4    0    0 -0.45043073925E-01  0.60009487559E-01 -0.20649561556E-01  0.77824691578E-01  0.51100000000E-03 0. -1.
</event>
<event>
 8    1  0.1135368E+005  0.1043930E+01  0.7957747E-01            NaN
         13   -1    0    0    0    0  0.00000000000E+00  0.00000000000E+00  0.74505805969E-08  0.10566000000E+00  0.10566000000E+00 0.  1.
     999900   -1    0    0    0    0 -0.00000000000E+00 -0.00000000000E+00 -0.74505805969E-08  0.93827000000E+00  0.93827000000E+00 0. -1.
     999902    2    1    2    0    0 -0.37120777400E-02 -0.18775456535E-01 -0.14559798341E-01  0.10198824426E+01  0.10195988975E+01 0.  0.
     999903    2    3    3    0    0  0.30718107406E-01 -0.22268387152E-01 -0.12509390806E+00  0.13229276959E+00  0.20332433830E-01 0.  0.
         14    1    1    2    0    0  0.37120777400E-02  0.18775456535E-01  0.14559798341E-01  0.24047557401E-01  0.00000000000E+00 0.  1.
     999901    1    3    3    0    0 -0.34430185146E-01  0.34929306172E-02  0.11053410971E+00  0.88758967300E+00  0.88000000000E+00 0.  1.
        -11    1    4    4    0    0  0.16001582660E-02 -0.84120891576E-02 -0.12422081397E-01  0.15096124592E-01  0.51100000000E-03 0. -1.
         11    1    4    4    0    0  0.29117949140E-01 -0.13856297994E-01 -0.11267182666E+00  0.11719664500E+00  0.51100000000E-03 0.  1.
</event>
<event>
 8    1  0.1135368E+005  0.1043930E+01  0.7957747E-01            NaN
         13   -1    0    0    0    0  0.00000000000E+00  0.00000000000E+00  0.74505805969E-08  0.10566000000E+00  0.10566000000E+00 0. -1.
     999900   -1    0    0    0    0 -0.00000000000E+00 -0.00000000000E+00 -0.74505805969E-08  0.93827000000E+00  0.93827000000E+00 0. -1.
     999902    2    1    2    0    0  0.10941155147E-01 -0.15068831410E-01 -0.13880013092E-01  0.10207042961E+01  0.10204400163E+01 0.  0.
     999903    2    3    3    0    0  0.73647041110E-03 -0.10734182559E+00 -0.76983095282E-01  0.13357384349E+00  0.19818294511E-01 0.  0.
         14    1    1    2    0    0 -0.10941155147E-01  0.15068831410E-01  0.13880013092E-01  0.23225703853E-01  0.00000000000E+00 0.  1.
     999901    1    3    3    0    0  0.10204684736E-01  0.92272994176E-01  0.63103082190E-01  0.88713045265E+00  0.88000000000E+00 0.  1.
        -11    1    4    4    0    0  0.56723598159E-02 -0.54687395462E-01 -0.49447600246E-01  0.73947367630E-01  0.51100000000E-03 0. -1.
         11    1    4    4    0    0 -0.49358894048E-02 -0.52654430124E-01 -0.27535495036E-01  0.59626475863E-01  0.51100000000E-03 0.  1.
</event>
<event>
 8    1  0.1135368E+005  0.1043930E+01  0.7957747E-01            NaN
         13   -1    0    0    0    0  0.00000000000E+00  0.00000000000E+00  0.74505805969E-08  0.10566000000E+00  0.10566000000E+00 0. -1.
     999900   -1    0    0    0    0 -0.00000000000E+00 -0.00000000000E+00 -0.74505805969E-08  0.93827000000E+00  0.93827000000E+00 0. -1.
     999902    2    1    2    0    0  0.16404983086E-01 -0.17371499934E-01 -0.18959835204E-02  0.10199615367E+01  0.10196798758E+01 0.  0.
     999903    2    3    3    0    0  0.73143493211E-01 -0.52124935984E-01 -0.96216918575E-01  0.13242365094E+00  0.14537825075E-01 0.  0.
         14    1    1    2    0    0 -0.16404983086E-01  0.17371499934E-01  0.18959835204E-02  0.23968463312E-01  0.00000000000E+00 0.  1.
     999901    1    3    3    0    0 -0.56738510125E-01  0.34753436050E-01  0.94320935054E-01  0.88753788575E+00  0.88000000000E+00 0. -1.
        -11    1    4    4    0    0  0.42388034547E-01 -0.21573017505E-01 -0.47804986850E-01  0.67436773690E-01  0.51100000000E-03 0. -1.
         11    1    4    4    0    0  0.30755458664E-01 -0.30551918480E-01 -0.48411931725E-01  0.64986877250E-01  0.51100000000E-03 0.  1.
</event>
<event>
 8    1  0.1135368E+005  0.1043930E+01  0.7957747E-01            NaN
         13   -1    0    0    0    0  0.00000000000E+00  0.00000000000E+00  0.74505805969E-08  0.10566000000E+00  0.10566000000E+00 0. -1.
     999900   -1    0    0    0    0 -0.00000000000E+00 -0.00000000000E+00 -0.74505805969E-08  0.93827000000E+00  0.93827000000E+00 0.  1.
     999902    2    1    2    0    0  0.19258504914E-01  0.10082073672E-01 -0.12196779026E-01  0.10190041171E+01  0.10186992152E+01 0.  0.
     999903    2    3    3    0    0 -0.70116744847E-01  0.99861607234E-01  0.35514529941E-01  0.12865324864E+00  0.20041907133E-01 0.  0.
         14    1    1    2    0    0 -0.19258504914E-01 -0.10082073672E-01  0.12196779026E-01  0.24925882926E-01  0.00000000000E+00 0. -1.
     999901    1    3    3    0    0  0.89375249761E-01 -0.89779533563E-01 -0.47711308967E-01  0.89035086843E+00  0.88000000000E+00 0. -1.
        -11    1    4    4    0    0 -0.13037122829E-01  0.21962028943E-01 -0.58524917905E-03  0.25551926044E-01  0.51100000000E-03 0. -1.
         11    1    4    4    0    0 -0.57079622018E-01  0.77899578291E-01  0.36099779120E-01  0.10310132260E+00  0.51100000000E-03 0.  1.
</event>
<event>
 8    1  0.1135368E+005  0.1043930E+01  0.7957747E-01            NaN
         13   -1    0    0    0    0  0.00000000000E+00  0.00000000000E+00  0.74505805969E-08  0.10566000000E+00  0.10566000000E+00 0.  1.
     999900   -1    0    0    0    0 -0.00000000000E+00 -0.00000000000E+00 -0.74505805969E-08  0.93827000000E+00  0.93827000000E+00 0. -1.
     999902    2    1    2    0    0  0.10271801825E-01 -0.34932410684E-02 -0.20748014725E-01  0.10205164834E+01  0.10202478621E+01 0.  0.
     999903    2    3    3    0    0  0.11119935680E+00 -0.63793598195E-01  0.22145724517E-01  0.13166195237E+00  0.20236513143E-01 0.  0.
         14    1    1    2    0    0 -0.10271801825E-01  0.34932410684E-02  0.20748014725E-01  0.23413516628E-01  0.00000000000E+00 0.  1.
     999901    1    3    3    0    0 -0.10092755497E+00  0.60300357127E-01 -0.42893739242E-01  0.88885453101E+00  0.88000000000E+00 0.  1.
        -11    1    4    4    0    0  0.31583260019E-01 -0.26035429053E-01  0.55442287207E-03  0.40937933328E-01  0.51100000000E-03 0.  1.
         11    1    4    4    0    0  0.79616096776E-01 -0.37758169142E-01  0.21591301645E-01  0.90724019039E-01  0.51100000000E-03 0. -1.
</event>
<event>
 8    1  0.1135368E+005  0.1043930E+01  0.7957747E-01            NaN
         13   -1    0    0    0    0  0.00000000000E+00  0.00000000000E+00  0.74505805969E-08  0.10566000000E+00  0.10566000000E+00 0. -1.
     999900   -1    0    0    0    0 -0.00000000000E+00 -0.00000000000E+00 -0.74505805969E-08  0.93827000000E+00  0.93827000000E+00 0. -1.
     999902    2    1    2    0    0 -0.21582568111E-01 -0.16011580565E-01  0.40451532889E-02  0.10167538851E+01  0.10163906343E+01 0.  0.
     999903    2    3    3    0    0 -0.42451226660E-01 -0.85046672495E-01  0.86191685082E-01  0.12999044562E+00  0.20819851785E-01 0.  0.
         14    1    1    2    0    0  0.21582568111E-01  0.16011580565E-01 -0.40451532889E-02  0.27176114946E-01  0.00000000000E+00 0. -1.
     999901    1    3    3    0    0  0.20868658549E-01  0.69035091931E-01 -0.82146531793E-01  0.88676343943E+00  0.88000000000E+00 0. -1.
        -11    1    4    4    0    0 -0.19054635920E-01 -0.50163832823E-01  0.36384602280E-01  0.64835096033E-01  0.51100000000E-03 0. -1.
         11    1    4    4    0    0 -0.23396590741E-01 -0.34882839672E-01  0.49807082801E-01  0.65155349589E-01  0.51100000000E-03 0.  1.
</event>
<event>
 8    1  0.1135368E+005  0.1043930E+01  0.7957747E-01            NaN
         13   -1    0    0    0    0  0.00000000000E+00  0.00000000000E+00  0.74505805969E-08  0.10566000000E+00  0.10566000000E+00 0. -1.
     999900   -1    0    0    0    0 -0.00000000000E+00 -0.00000000000E+00 -0.74505805969E-08  0.93827000000E+00  0.93827000000E+00 0. -1.
     999902    2    1    2    0    0 -0.19023012016E-01  0.32616152751E-02  0.13365751627E-01  0.10204532788E+01  0.10201831884E+01 0.  0.
     999903    2    3    3    0    0 -0.12031761345E+00  0.43319381867E-01 -0.29170955636E-01  0.13271762425E+00  0.20251572352E-01 0.  0.
         14    1    1    2    0    0  0.19023012016E-01 -0.32616152751E-02 -0.13365751627E-01  0.23476721170E-01  0.00000000000E+00 0.  1.
     999901    1    3    3    0    0  0.10129460143E+00 -0.40057766592E-01  0.42536707263E-01  0.88773565458E+00  0.88000000000E+00 0. -1.
        -11    1    4    4    0    0 -0.29346458020E-01  0.13057134551E-01  0.12046619864E-02  0.32146783549E-01  0.51100000000E-03 0. -1.
         11    1    4    4    0    0 -0.90971155429E-01  0.30262247316E-01 -0.30375617622E-01  0.10057084070E+00  0.51100000000E-03 0.  1.
</event>
<event>
 8    1  0.1135368E+005  0.1043930E+01  0.7957747E-01            NaN
         13   -1    0    0    0    0  0.00000000000E+00  0.00000000000E+00  0.74505805969E-08  0.10566000000E+00  0.10566000000E+00 0. -1.
     999900   -1    0    0    0    0 -0.00000000000E+00 -0.00000000000E+00 -0.74505805969E-08  0.93827000000E+00  0.93827000000E+00 0.  1.
     999902    2    1    2    0    0  0.21064800822E-01  0.16670536617E-02  0.12501130504E-01  0.10193783572E+01  0.10190826521E+01 0.  0.
     999903    2    3    3    0    0 -0.81485115164E-01  0.70956720621E-02  0.98209523481E-01  0.12927056382E+00  0.19380289269E-01 0.  0.
         14    1    1    2    0    0 -0.21064800822E-01 -0.16670536617E-02 -0.12501130504E-01  0.24551642826E-01  0.00000000000E+00 0.  1.
     999901    1    3    3    0    0  0.10254991599E+00 -0.54286184004E-02 -0.85708392976E-01  0.89010779336E+00  0.88000000000E+00 0.  1.
        -11    1    4    4    0    0 -0.30064400716E-01  0.10187405172E-01  0.46281982015E-01  0.56124276341E-01  0.51100000000E-03 0.  1.
         11    1    4    4    0    0 -0.51420714448E-01 -0.30917331104E-02  0.51927541465E-01  0.73146287477E-01  0.51100000000E-03 0. -1.
</event>
<event>
 8    1  0.1135368E+005  0.1043930E+01  0.7957747E-01            NaN
         13   -1    0    0    0    0  0.00000000000E+00  0.00000000000E+00  0.74505805969E-08  0.10566000000E+00  0.10566000000E+00 0.  1.
     999900   -1    0    0    0    0 -0.00000000000E+00 -0.00000000000E+00 -0.74505805969E-08  0.93827000000E+00  0.93827000000E+00 0. -1.
     999902    2    1    2    0    0  0.56121654753E-02 -0.17207161252E-01 -0.16089093107E-01  0.10197134413E+01  0.10194258485E+01 0.  0.
     999903    2    3    3    0    0 -0.46003807869E-01  0.74557772612E-01  0.89900658741E-01  0.12712235948E+00  0.20068732969E-01 0.  0.
         14    1    1    2    0    0 -0.56121654753E-02  0.17207161252E-01  0.16089093107E-01  0.24216558729E-01  0.00000000000E+00 0.  1.
     999901    1    3    3    0    0  0.51615973344E-01 -0.91764933864E-01 -0.10598975185E+00  0.89259108179E+00  0.88000000000E+00 0. -1.
        -11    1    4    4    0    0 -0.23795560613E-01  0.23556564496E-01  0.25970350866E-01  0.42377596450E-01  0.51100000000E-03 0. -1.
         11    1    4    4    0    0 -0.22208247255E-01  0.51001208116E-01  0.63930307875E-01  0.84744763032E-01  0.51100000000E-03 0.  1.
</event>
<event>
 8    1  0.1135368E+005  0.1043930E+01  0.7957747E-01            NaN
         13   -1    0    0    0    0  0.00000000000E+00  0.00000000000E+00  0.74505805969E-08  0.10566000000E+00  0.10566000000E+00 0.  1.
     999900   -1    0    0    0    0 -0.00000000000E+00 -0.00000000000E+00 -0.74505805969E-08  0.93827000000E+00  0.93827000000E+00 0. -1.
     999902    2    1    2    0    0 -0.13206389320E-01  0.96363563075E-02  0.17562291459E-01  0.10199362057E+01  0.10196539421E+01 0.  0.
     999903    2    3    3    0    0 -0.55508945677E-01 -0.11275062764E+00 -0.23052072229E-01  0.12953314720E+00  0.21295330643E-01 0.  0.
         14    1    1    2    0    0  0.13206389320E-01 -0.96363563075E-02 -0.17562291459E-01  0.23993794261E-01  0.00000000000E+00 0. -1.
     999901    1    3    3    0    0  0.42302556357E-01  0.12238698394E+00  0.40614363688E-01  0.89040305854E+00  0.88000000000E+00 0.  1.
        -11    1    4    4    0    0 -0.18540738395E-01 -0.60235428360E-01 -0.15175969196E-01  0.64827748472E-01  0.51100000000E-03 0.  1.
         11    1    4    4    0    0 -0.36968207282E-01 -0.52515199277E-01 -0.78761030335E-02  0.64705398730E-01  0.51100000000E-03 0. -1.
</event>
<event>
 8    1  0.1135368E+005  0.1043930E+01  0.7957747E-01            NaN
         13   -1    0    0    0    0  0.00000000000E+00  0.00000000000E+00  0.74505805969E-08  0.10566000000E+00  0.10566000000E+00 0.  1.
     999900   -1    0    0    0    0 -0.00000000000E+00 -0.00000000000E+00 -0.74505805969E-08  0.93827000000E+00  0.93827000000E+00 0.  1.
     999902    2    1    2    0    0  0.57833369466E-02  0.17606883157E-01 -0.13294362718E-01  0.10211223390E+01  0.10208675927E+01 0.  0.
     999903    2    3    3    0    0  0.78459012349E-01  0.70441867264E-02  0.10252870455E+00  0.13049991211E+00  0.17682042257E-01 0.  0.
         14    1    1    2    0    0 -0.57833369466E-02 -0.17606883157E-01  0.13294362718E-01  0.22807661011E-01  0.00000000000E+00 0.  1.
     999901    1    3    3    0    0 -0.72675675402E-01  0.10562696431E-01 -0.11582306727E+00  0.89062242688E+00  0.88000000000E+00 0.  1.
        -11    1    4    4    0    0  0.15218138690E-01 -0.44534496546E-02  0.27050765829E-01  0.31359687689E-01  0.51100000000E-03 0. -1.
         11    1    4    4    0    0  0.63240873658E-01  0.11497636381E-01  0.75477938720E-01  0.99140224419E-01  0.51100000000E-03 0.  1.
</event>
<event>
 8    1  0.1135368E+005  0.1043930E+01  0.7957747E-01            NaN
         13   -1    0    0    0    0  0.00000000000E+00  0.00000000000E+00  0.74505805969E-08  0.10566000000E+00  0.10566000000E+00 0. -1.
     999900   -1    0    0    0    0 -0.00000000000E+00 -0.00000000000E+00 -0.74505805969E-08  0.93827000000E+00  0.93827000000E+00 0. -1.
     999902    2    1    2    0    0 -0.20130041005E-01  0.67871427107E-02  0.21206650176E-02  0.10225809701E+01  0.10223580876E+01 0.  0.
     999903    2    3    3    0    0  0.67874951562E-01  0.74035577097E-01 -0.82648696470E-01  0.13159664068E+00  0.19964796137E-01 0.  0.
         14    1    1    2    0    0  0.20130041005E-01 -0.67871427107E-02 -0.21206650176E-02  0.21349029888E-01  0.00000000000E+00 0.  1.
     999901    1    3    3    0    0 -0.88004992567E-01 -0.67248434387E-01  0.84769361487E-01  0.89098432943E+00  0.88000000000E+00 0.  1.
        -11    1    4    4    0    0  0.65488242911E-02  0.15508049590E-01 -0.80201454754E-02  0.18653968911E-01  0.51100000000E-03 0.  1.
         11    1    4    4    0    0  0.61326127271E-01  0.58527527508E-01 -0.74628550994E-01  0.11294267177E+00  0.51100000000E-03 0. -1.
</event>
<event>
 8    1  0.1135368E+005  0.1043930E+01  0.7957747E-01            NaN
         13   -1    0    0    0    0  0.00000000000E+00  0.00000000000E+00  0.74505805969E-08  0.10566000000E+00  0.10566000000E+00 0.  1.
     999900   -1    0    0    0    0 -0.00000000000E+00 -0.00000000000E+00 -0.74505805969E-08  0.93827000000E+00  0.93827000000E+00 0. -1.
     999902    2    1    2    0    0 -0.20871903679E-01  0.62386414509E-02  0.94842969388E-02  0.10201706040E+01  0.10198938927E+01 0.  0.
     999903    2    3    3    0    0  0.12143543663E+00  0.35786620245E-01 -0.27524921913E-02  0.12816488587E+00  0.19784193145E-01 0.  0.
         14    1    1    2    0    0  0.20871903679E-01 -0.62386414509E-02 -0.94842969388E-02  0.23759396010E-01  0.00000000000E+00 0. -1.
     999901    1    3    3    0    0 -0.14230734031E+00 -0.29547978794E-01  0.12236789130E-01  0.89200571812E+00  0.88000000000E+00 0.  1.
        -11    1    4    4    0    0  0.22825748554E-01  0.13846547914E-01  0.35968908471E-02  0.26943281740E-01  0.51100000000E-03 0.  1.
         11    1    4    4    0    0  0.98609688074E-01  0.21940072331E-01 -0.63493830384E-02  0.10122160413E+00  0.51100000000E-03 0. -1.
</event>
<event>
 8    1  0.1135368E+005  0.1043930E+01  0.7957747E-01            NaN
         13   -1    0    0    0    0  0.00000000000E+00  0.00000000000E+00  0.74505805969E-08  0.10566000000E+00  0.10566000000E+00 0. -1.
     999900   -1    0    0    0    0 -0.00000000000E+00 -0.00000000000E+00 -0.74505805969E-08  0.93827000000E+00  0.93827000000E+00 0. -1.
     999902    2    1    2    0    0  0.21124238389E-01  0.72628088744E-02 -0.76145931726E-02  0.10203299180E+01  0.10200569483E+01 0.  0.
     999903    2    3    3    0    0  0.78841639173E-01  0.33240742989E-01  0.98124761577E-01  0.13174285838E+00  0.20168312721E-01 0.  0.
         14    1    1    2    0    0 -0.21124238389E-01 -0.72628088744E-02  0.76145931726E-02  0.23600081980E-01  0.00000000000E+00 0.  1.
     999901    1    3    3    0    0 -0.57717400784E-01 -0.25977934115E-01 -0.10573935475E+00  0.88858705964E+00  0.88000000000E+00 0. -1.
        -11    1    4    4    0    0  0.59257245425E-01  0.19037601956E-01  0.80745037661E-01  0.10195034895E+00  0.51100000000E-03 0. -1.
         11    1    4    4    0    0  0.19584393749E-01  0.14203141034E-01  0.17379723916E-01  0.29792509430E-01  0.51100000000E-03 0.  1.
</event>
<event>
 8    1  0.1135368E+005  0.1043930E+01  0.7957747E-01            NaN
         13   -1    0    0    0    0  0.00000000000E+00  0.00000000000E+00  0.74505805969E-08  0.10566000000E+00  0.10566000000E+00 0. -1.
     999900   -1    0    0    0    0 -0.00000000000E+00 -0.00000000000E+00 -0.74505805969E-08  0.93827000000E+00  0.93827000000E+00 0.  1.
     999902    2    1    2    0    0  0.95175738142E-04 -0.62841780725E-02 -0.23263849770E-01  0.10198321441E+01  0.10195473974E+01 0.  0.
     999903    2    3    3    0    0 -0.31022212764E-02  0.11378258553E+00  0.54602066633E-01  0.12826646957E+00  0.22689226282E-01 0.  0.
         14    1    1    2    0    0 -0.95175738142E-04  0.62841780725E-02  0.23263849770E-01  0.24097855892E-01  0.00000000000E+00 0. -1.
     999901    1    3    3    0    0  0.31973970146E-02 -0.12006676360E+00 -0.77865916403E-01  0.89156567453E+00  0.88000000000E+00 0.  1.
        -11    1    4    4    0    0  0.96454660607E-02  0.55037249093E-01  0.24062139405E-01  0.60838979914E-01  0.51100000000E-03 0.  1.
         11    1    4    4    0    0 -0.12747687337E-01  0.58745336439E-01  0.30539927228E-01  0.67427489660E-01  0.51100000000E-03 0. -1.
</event>
<event>
 8    1  0.1135368E+005  0.1043930E+01  0.7957747E-01            NaN
         13   -1    0    0    0    0  0.00000000000E+00  0.00000000000E+00  0.74505805969E-08  0.10566000000E+00  0.10566000000E+00 0.  1.
     999900   -1    0    0    0    0 -0.00000000000E+00 -0.00000000000E+00 -0.74505805969E-08  0.93827000000E+00  0.93827000000E+00 0. -1.
     999902    2    1    2    0    0 -0.19014630434E-01 -0.13130825744E-01  0.10300321977E-01  0.10186303678E+01  0.10183161370E+01 0.  0.
     999903    2    3    3    0    0 -0.11146186807E+00  0.18831412945E-01 -0.63111808902E-01  0.13017248058E+00  0.13542678086E-01 0.  0.
         14    1    1    2    0    0  0.19014630434E-01  0.13130825744E-01 -0.10300321977E-01  0.25299632173E-01  0.00000000000E+00 0. -1.
     999901    1    3    3    0    0  0.92447237641E-01 -0.31962238688E-01  0.73412130879E-01  0.88845788725E+00  0.88000000000E+00 0.  1.
        -11    1    4    4    0    0 -0.80572239747E-01  0.91000152544E-02 -0.49769666896E-01  0.95141878053E-01  0.51100000000E-03 0.  1.
         11    1    4    4    0    0 -0.30889628327E-01  0.97313976904E-02 -0.13342142006E-01  0.35030602529E-01  0.51100000000E-03 0. -1.
</event>
<event>
 8    1  0.1135368E+005  0.1043930E+01  0.7957747E-01            NaN
         13   -1    0    0    0    0  0.00000000000E+00  0.00000000000E+00  0.74505805969E-08  0.10566000000E+00  0.10566000000E+00 0.  1.
     999900   -1    0    0    0    0 -0.00000000000E+00 -0.00000000000E+00 -0.74505805969E-08  0.93827000000E+00  0.93827000000E+00 0.  1.
     999902    2    1    2    0    0 -0.49612636232E-02  0.16874047697E-01 -0.15773066085E-01  0.10203050717E+01  0.10200315202E+01 0.  0.
     999903    2    3    3    0    0  0.11391084033E+00 -0.13591893589E-01  0.54627391555E-01  0.12900547276E+00  0.22312350331E-01 0.  0.
         14    1    1    2    0    0  0.49612636232E-02 -0.16874047697E-01  0.15773066085E-01  0.23624928278E-01  0.00000000000E+00 0.  1.
     999901    1    3    3    0    0 -0.11887210395E+00  0.30465941286E-01 -0.70400457639E-01  0.89129959896E+00  0.88000000000E+00 0. -1.
        -11    1    4    4    0    0  0.68590823048E-01 -0.11469312691E-01  0.44351832494E-01  0.82483891195E-01  0.51100000000E-03 0. -1.
         11    1    4    4    0    0  0.45320017283E-01 -0.21225808972E-02  0.10275559061E-01  0.46521581564E-01  0.51100000000E-03 0.  1.
</event>
<event>
 8    1  0.1135368E+005  0.1043930E+01  0.7957747E-01            NaN
         13   -1    0    0    0    0  0.00000000000E+00  0.00000000000E+00  0.74505805969E-08  0.10566000000E+00  0.10566000000E+00 0. -1.
     999900   -1    0    0    0    0 -0.00000000000E+00 -0.00000000000E+00 -0.74505805969E-08  0.93827000000E+00  0.93827000000E+00 0. -1.
     999902    2    1    2    0    0  0.19826708694E-01  0.14386865449E-01 -0.97226120607E-02  0.10175745554E+01  0.10172331917E+01 0.  0.
     999903    2    3    3    0    0  0.55569195296E-01 -0.83643114419E-01  0.75583448156E-01  0.12731362386E+00  0.20292735905E-01 0.  0.
         14    1    1    2    0    0 -0.19826708694E-01 -0.14386865449E-01  0.97226120607E-02  0.26355444606E-01  0.00000000000E+00 0. -1.
     999901    1    3    3    0    0 -0.35742486602E-01  0.98029979868E-01 -0.85306060217E-01  0.89026093153E+00  0.88000000000E+00 0. -1.
        -11    1    4    4    0    0  0.45146241548E-02 -0.16597208281E-01  0.19887192811E-01  0.26298492597E-01  0.51100000000E-03 0. -1.
         11    1    4    4    0    0  0.51054571141E-01 -0.67045906137E-01  0.55696255345E-01  0.10101513127E+00  0.51100000000E-03 0.  1.
</event>
<event>
 8    1  0.1135368E+005  0.1043930E+01  0.7957747E-01            NaN
         13   -1    0    0    0    0  0.00000000000E+00  0.00000000000E+00  0.74505805969E-08  0.10566000000E+00  0.10566000000E+00 0. -1.
     999900   -1    0    0    0    0 -0.00000000000E+00 -0.00000000000E+00 -0.74505805969E-08  0.93827000000E+00  0.93827000000E+00 0. -1.
     999902    2    1    2    0    0 -0.62901315820E-02 -0.11595602713E-01 -0.19424967235E-01  0.10204490905E+01  0.10201789026E+01 0.  0.
     999903    2    3    3    0    0  0.98160282256E-01  0.55566041103E-01 -0.62890928313E-01  0.13066829442E+00  0.19897446214E-01 0.  0.
         14    1    1    2    0    0  0.62901315820E-02  0.11595602713E-01  0.19424967235E-01  0.23480909473E-01  0.00000000000E+00 0. -1.
     999901    1    3    3    0    0 -0.10445041384E+00 -0.67161643816E-01  0.43465961078E-01  0.88978079611E+00  0.88000000000E+00 0.  1.
        -11    1    4    4    0    0  0.75921481970E-01  0.51606366932E-01 -0.47831827074E-01  0.10351537729E+00  0.51100000000E-03 0.  1.
         11    1    4    4    0    0  0.22238800286E-01  0.39596741713E-02 -0.15059101238E-01  0.27152917133E-01  0.51100000000E-03 0. -1.
</event>
<event>
 8    1  0.1135368E+005  0.1043930E+01  0.7957747E-01            NaN
         13   -1    0    0    0    0  0.00000000000E+00  0.00000000000E+00  0.74505805969E-08  0.10566000000E+00  0.10566000000E+00 0. -1.
     999900   -1    0    0    0    0 -0.00000000000E+00 -0.00000000000E+00 -0.74505805969E-08  0.93827000000E+00  0.93827000000E+00 0.  1.
     999902    2    1    2    0    0  0.11498893845E-01 -0.19012191359E-01  0.21490157697E-02  0.10216072258E+01  0.10213633132E+01 0.  0.
     999903    2    3    3    0    0  0.70099921282E-01  0.66093182206E-01 -0.86614277370E-01  0.13112649762E+00  0.20243953058E-01 0.  0.
         14    1    1    2    0    0 -0.11498893845E-01  0.19012191359E-01 -0.21490157697E-02  0.22322774216E-01  0.00000000000E+00 0.  1.
     999901    1    3    3    0    0 -0.58601027437E-01 -0.85105373565E-01  0.88763293140E-01  0.89048072817E+00  0.88000000000E+00 0. -1.
        -11    1    4    4    0    0  0.28161868475E-01  0.36116190480E-01 -0.50539384140E-01  0.68205282208E-01  0.51100000000E-03 0. -1.
         11    1    4    4    0    0  0.41938052806E-01  0.29976991725E-01 -0.36074893231E-01  0.62921215410E-01  0.51100000000E-03 0.  1.
</event>
<event>
 8    1  0.1135368E+005  0.1043930E+01  0.7957747E-01            NaN
         13   -1    0    0    0    0  0.00000000000E+00  0.00000000000E+00  0.74505805969E-08  0.10566000000E+00  0.10566000000E+00 0. -1.
     999900   -1    0    0    0    0 -0.00000000000E+00 -0.00000000000E+00 -0.74505805969E-08  0.93827000000E+00  0.93827000000E+00 0. -1.
     999902    2    1    2    0    0 -0.28806802748E-02 -0.60947480975E-02  0.27499993635E-01  0.10156158000E+01  0.10152210396E+01 0.  0.
     999903    2    3    3    0    0 -0.33173893656E-01  0.11615626682E-01 -0.11636869168E+00  0.12324282035E+00  0.20290154243E-01 0.  0.
         14    1    1    2    0    0  0.28806802748E-02  0.60947480975E-02 -0.27499993635E-01  0.28314200027E-01  0.00000000000E+00 0.  1.
     999901    1    3    3    0    0  0.30293213381E-01 -0.17710374779E-01  0.14386868532E+00  0.89237297963E+00  0.88000000000E+00 0.  1.
        -11    1    4    4    0    0 -0.15331621069E-01  0.20901102924E-02 -0.23122653922E-01  0.27827062566E-01  0.51100000000E-03 0.  1.
         11    1    4    4    0    0 -0.17842272586E-01  0.95255163892E-02 -0.93246037762E-01  0.95415757781E-01  0.51100000000E-03 0. -1.
</event>
<event>
 8    1  0.1135368E+005  0.1043930E+01  0.7957747E-01            NaN
         13   -1    0    0    0    0  0.00000000000E+00  0.00000000000E+00  0.74505805969E-08  0.10566000000E+00  0.10566000000E+00 0. -1.
     999900   -1    0    0    0    0 -0.00000000000E+00 -0.00000000000E+00 -0.74505805969E-08  0.93827000000E+00  0.93827000000E+00 0.  1.
     999902    2    1    2    0    0  0.17333824594E-01 -0.14601279020E-01  0.60317669874E-02  0.10204770463E+01  0.10202075088E+01 0.  0.
     999903    2    3    3    0    0  0.12501648979E+00 -0.35207176401E-01 -0.22876909626E-01  0.13320264062E+00  0.18732925146E-01 0.  0.
         14    1    1    2    0    0 -0.17333824594E-01  0.14601279020E-01 -0.60317669874E-02  0.23452953696E-01  0.00000000000E+00 0.  1.
     999901    1    3    3    0    0 -0.10768266520E+00  0.20605897381E-01  0.28908676614E-01  0.88727440568E+00  0.88000000000E+00 0. -1.
        -11    1    4    4    0    0  0.10603997516E+00 -0.36331134687E-01 -0.17583959082E-01  0.11346314123E+00  0.51100000000E-03 0. -1.
         11    1    4    4    0    0  0.18976514635E-01  0.11239582859E-02 -0.52929505442E-02  0.19739499396E-01  0.51100000000E-03 0.  1.
</event>
<event>
 8    1  0.1135368E+005  0.1043930E+01  0.7957747E-01            NaN
         13   -1    0    0    0    0  0.00000000000E+00  0.00000000000E+00  0.74505805969E-08  0.10566000000E+00  0.10566000000E+00 0.  1.
     999900   -1    0    0    0    0 -0.00000000000E+00 -0.00000000000E+00 -0.74505805969E-08  0.93827000000E+00  0.93827000000E+00 0.  1.
     999902    2    1    2    0    0  0.20344418933E-01  0.31089460513E-02 -0.99895834802E-02  0.10210530967E+01  0.10207967837E+01 0.  0.
     999903    2    3    3    0    0  0.69304205252E-01 -0.63175785262E-01  0.90018564095E-01  0.13156315528E+00  0.20279774048E-01 0.  0.
         14    1    1    2    0    0 -0.20344418933E-01 -0.31089460513E-02  0.99895834802E-02  0.22876903317E-01  0.00000000000E+00 0.  1.
     999901    1    3    3    0    0 -0.48959786318E-01  0.66284731313E-01 -0.10000814758E+00  0.88948994141E+00  0.88000000000E+00 0.  1.
        -11    1    4    4    0    0  0.50560868409E-02 -0.13771487068E-01  0.10747157892E-01  0.18192866568E-01  0.51100000000E-03 0.  1.
         11    1    4    4    0    0  0.64248118411E-01 -0.49404298194E-01  0.79271406203E-01  0.11337028871E+00  0.51100000000E-03 0. -1.
</event>
<event>
 8    1  0.1135368E+005  0.1043930E+01  0.7957747E-01            NaN
         13   -1    0    0    0    0  0.00000000000E+00  0.00000000000E+00  0.74505805969E-08  0.10566000000E+00  0.10566000000E+00 0. -1.
     999900   -1    0    0    0    0 -0.00000000000E+00 -0.00000000000E+00 -0.74505805969E-08  0.93827000000E+00  0.93827000000E+00 0. -1.
     999902    2    1    2    0    0  0.50162664036E-02 -0.18784787633E-01  0.13776767998E-01  0.10201008055E+01  0.10198224467E+01 0.  0.
     999903    2    3    3    0    0 -0.19586972406E-02 -0.51105745151E-01  0.12145155210E+00  0.13292148113E+00  0.17378347329E-01 0.  0.
         14    1    1    2    0    0 -0.50162664036E-02  0.18784787633E-01 -0.13776767998E-01  0.23829194521E-01  0.00000000000E+00 0.  1.
     999901    1    3    3    0    0  0.69749636442E-02  0.32320957518E-01 -0.10767478411E+00  0.88717932434E+00  0.88000000000E+00 0. -1.
        -11    1    4    4    0    0 -0.61805145940E-02 -0.31325399457E-01  0.56597093138E-01  0.64984394161E-01  0.51100000000E-03 0.  1.
         11    1    4    4    0    0  0.42218173534E-02 -0.19780345695E-01  0.64854458966E-01  0.67937086973E-01  0.51100000000E-03 0. -1.
</event>
<event>
 8    1  0.1135368E+005  0.1043930E+01  0.7957747E-01            NaN
         13   -1    0    0    0    0  0.00000000000E+00  0.00000000000E+00  0.74505805969E-08  0.10566000000E+00  0.10566000000E+00 0. -1.
     999900   -1    0    0    0    0 -0.00000000000E+00 -0.00000000000E+00 -0.74505805969E-08  0.93827000000E+00  0.93827000000E+00 0.  1.
     999902    2    1    2    0    0 -0.18271557762E-01 -0.13912029818E-01  0.20715897358E-02  0.10208716852E+01  0.10206112442E+01 0.  0.
     999903    2    3    3    0    0 -0.46188898601E-01 -0.55135340127E-01 -0.10937898832E+00  0.13244612807E+00  0.20121969881E-01 0.  0.
         14    1    1    2    0    0  0.18271557762E-01  0.13912029818E-01 -0.20715897358E-02  0.23058314785E-01  0.00000000000E+00 0.  1.
     999901    1    3    3    0    0  0.27917340840E-01  0.41223310309E-01  0.11145057805E+00  0.88842555714E+00  0.88000000000E+00 0. -1.
        -11    1    4    4    0    0 -0.47522667449E-01 -0.48666142671E-01 -0.98390136507E-01  0.11961470414E+00  0.51100000000E-03 0. -1.
         11    1    4    4    0    0  0.13337688480E-02 -0.64691974552E-02 -0.10988851810E-01  0.12831423933E-01  0.51100000000E-03 0.  1.
</event>
<event>
 8    1  0.1135368E+005  0.1043930E+01  0.7957747E-01            NaN
         13   -1    0    0    0    0  0.00000000000E+00  0.00000000000E+00  0.74505805969E-08  0.10566000000E+00  0.10566000000E+00 0. -1.
     999900   -1    0    0    0    0 -0.00000000000E+00 -0.00000000000E+00 -0.74505805969E-08  0.93827000000E+00  0.93827000000E+00 0.  1.
     999902    2    1    2    0    0 -0.95268592631E-02  0.12090520281E-01 -0.17246862036E-01  0.10208129937E+01  0.10205512100E+01 0.  0.
     999903    2    3    3    0    0 -0.16193910475E-01 -0.32574156420E-01  0.12180784228E+00  0.12875044341E+00  0.20401172357E-01 0.  0.
         14    1    1    2    0    0  0.95268592631E-02 -0.12090520281E-01  0.17246862036E-01  0.23117006255E-01  0.00000000000E+00 0. -1.
     999901    1    3    3    0    0  0.66670512120E-02  0.44664676701E-01 -0.13905470432E+00  0.89206255034E+00  0.88000000000E+00 0.  1.
        -11    1    4    4    0    0  0.10853888929E-02 -0.17891353842E-01  0.68711544166E-01  0.71012787820E-01  0.51100000000E-03 0. -1.
         11    1    4    4    0    0 -0.17279299368E-01 -0.14682802578E-01  0.53096298118E-01  0.57737655590E-01  0.51100000000E-03 0.  1.
</event>
<event>
 8    1  0.1135368E+005  0.1043930E+01  0.7957747E-01            NaN
         13   -1    0    0    0    0  0.00000000000E+00  0.00000000000E+00  0.74505805969E-08  0.10566000000E+00  0.10566000000E+00 0. -1.
     999900   -1    0    0    0    0 -0.00000000000E+00 -0.00000000000E+00 -0.74505805969E-08  0.93827000000E+00  0.93827000000E+00 0.  1.
     999902    2    1    2    0    0  0.14020877145E-01 -0.20439641533E-01  0.22048478293E-01  0.10107562252E+01  0.10102116844E+01 0.  0.
     999903    2    3    3    0    0  0.50814685515E-01 -0.64132621820E-02 -0.10699541163E+00  0.12047377045E+00  0.21039226713E-01 0.  0.
         14    1    1    2    0    0 -0.14020877145E-01  0.20439641533E-01 -0.22048478293E-01  0.33173774837E-01  0.00000000000E+00 0.  1.
     999901    1    3    3    0    0 -0.36793808370E-01 -0.14026379351E-01  0.12904388992E+00  0.89028245472E+00  0.88000000000E+00 0. -1.
        -11    1    4    4    0    0  0.17676149532E-01  0.36374197189E-02 -0.55932576072E-01  0.58774069720E-01  0.51100000000E-03 0.  1.
         11    1    4    4    0    0  0.33138535983E-01 -0.10050681901E-01 -0.51062835553E-01  0.61699700725E-01  0.51100000000E-03 0. -1.
</event>
<event>
 8    1  0.1135368E+005  0.1043930E+01  0.7957747E-01            NaN
         13   -1    0    0    0    0  0.00000000000E+00  0.00000000000E+00  0.74505805969E-08  0.10566000000E+00  0.10566000000E+00 0.  1.
     999900   -1    0    0    0    0 -0.00000000000E+00 -0.00000000000E+00 -0.74505805969E-08  0.93827000000E+00  0.93827000000E+00 0.  1.
     999902    2    1    2    0    0  0.21203737910E-02 -0.76955371892E-02  0.18593033719E-01  0.10236959154E+01  0.10234959252E+01 0.  0.
     999903    2    3    3    0    0  0.32636234001E-01  0.11530894297E+00 -0.51800151840E-01  0.13183464789E+00  0.18326007608E-01 0.  0.
         14    1    1    2    0    0 -0.21203737910E-02  0.76955371892E-02 -0.18593033719E-01  0.20234084623E-01  0.00000000000E+00 0. -1.
     999901    1    3    3    0    0 -0.30515860210E-01 -0.12300448016E+00  0.70393185560E-01  0.89186126748E+00  0.88000000000E+00 0. -1.
        -11    1    4    4    0    0  0.68435816976E-02  0.96852872620E-02 -0.93611551252E-02  0.15117266488E-01  0.51100000000E-03 0. -1.
         11    1    4    4    0    0  0.25792652304E-01  0.10562365571E+00 -0.42438996715E-01  0.11671738140E+00  0.51100000000E-03 0.  1.
</event>
<event>
 8    1  0.1135368E+005  0.1043930E+01  0.7957747E-01            NaN
         13   -1    0    0    0    0  0.00000000000E+00  0.00000000000E+00  0.74505805969E-08  0.10566000000E+00  0.10566000000E+00 0.  1.
     999900   -1    0    0    0    0 -0.00000000000E+00 -0.00000000000E+00 -0.74505805969E-08  0.93827000000E+00  0.93827000000E+00 0.  1.
     999902    2    1    2    0    0 -0.91623910373E-02 -0.28253487066E-01  0.18450384746E-01  0.10089639359E+01  0.10083578721E+01 0.  0.
     999903    2    3    3    0    0  0.37213756853E-01  0.80085625192E-01 -0.73077600242E-01  0.11640274340E+00  0.20265536062E-01 0.  0.
         14    1    1    2    0    0  0.91623910373E-02  0.28253487066E-01 -0.18450384746E-01  0.34966064093E-01  0.00000000000E+00 0. -1.
     999901    1    3    3    0    0 -0.46376147890E-01 -0.10833911226E+00  0.91527984987E-01  0.89256119251E+00  0.88000000000E+00 0.  1.
        -11    1    4    4    0    0  0.12110917591E-01  0.90374212553E-02 -0.99467788428E-02  0.18098310369E-01  0.51100000000E-03 0.  1.
         11    1    4    4    0    0  0.25102839261E-01  0.71048203937E-01 -0.63130821399E-01  0.98304433029E-01  0.51100000000E-03 0. -1.
</event>
<event>
 8    1  0.1135368E+005  0.1043930E+01  0.7957747E-01            NaN
         13   -1    0    0    0    0  0.00000000000E+00  0.00000000000E+00  0.74505805969E-08  0.10566000000E+00  0.10566000000E+00 0. -1.
     999900   -1    0    0    0    0 -0.00000000000E+00 -0.00000000000E+00 -0.74505805969E-08  0.93827000000E+00  0.93827000000E+00 0. -1.
     999902    2    1    2    0    0 -0.18748873872E-01  0.90048722306E-02  0.10171946253E-01  0.10207766744E+01  0.10205140580E+01 0.  0.
     999903    2    3    3    0    0 -0.16059157896E-01  0.16743988578E-01  0.12909367898E+00  0.13273979060E+00  0.20406282078E-01 0.  0.
         14    1    1    2    0    0  0.18748873872E-01 -0.90048722306E-02 -0.10171946253E-01  0.23153325591E-01  0.00000000000E+00 0. -1.
     999901    1    3    3    0    0 -0.26897159760E-02 -0.77391163476E-02 -0.11892173273E+00  0.88803688381E+00  0.88000000000E+00 0. -1.
        -11    1    4    4    0    0 -0.15729996743E-01  0.13157591112E-01  0.57428663865E-01  0.60982518443E-01  0.51100000000E-03 0. -1.
         11    1    4    4    0    0 -0.32916115250E-03  0.35863974658E-02  0.71665015120E-01  0.71757272154E-01  0.51100000000E-03 0.  1.
</event>
<event>
 8    1  0.1135368E+005  0.1043930E+01  0.7957747E-01            NaN
         13   -1    0    0    0    0  0.00000000000E+00  0.00000000000E+00  0.74505805969E-08  0.10566000000E+00  0.10566000000E+00 0.  1.
     999900   -1    0    0    0    0 -0.00000000000E+00 -0.00000000000E+00 -0.74505805969E-08  0.93827000000E+00  0.93827000000E+00 0.  1.
     999902    2    1    2    0    0  0.10905355350E-01  0.18730193248E-01 -0.87065249251E-02  0.10205729777E+01  0.10203056661E+01 0.  0.
     999903    2    3    3    0    0 -0.97070066433E-03 -0.19034644927E-01  0.12632122932E+00  0.12939414148E+00  0.20555556533E-01 0.  0.
         14    1    1    2    0    0 -0.10905355350E-01 -0.18730193248E-01  0.87065249251E-02  0.23357022299E-01  0.00000000000E+00 0.  1.
     999901    1    3    3    0    0  0.11876056014E-01  0.37764838175E-01 -0.13502775425E+00  0.89117883622E+00  0.88000000000E+00 0. -1.
        -11    1    4    4    0    0 -0.50429227115E-02 -0.43147363886E-02  0.96305295604E-02  0.11707102126E-01  0.51100000000E-03 0.  1.
         11    1    4    4    0    0  0.40722220472E-02 -0.14719908539E-01  0.11669069976E+00  0.11768703935E+00  0.51100000000E-03 0. -1.
</event>
<event>
 8    1  0.1135368E+005  0.1043930E+01  0.7957747E-01            NaN
         13   -1    0    0    0    0  0.00000000000E+00  0.00000000000E+00  0.74505805969E-08  0.10566000000E+00  0.10566000000E+00 0. -1.
     999900   -1    0    0    0    0 -0.00000000000E+00 -0.00000000000E+00 -0.74505805969E-08  0.93827000000E+00  0.93827000000E+00 0.  1.
     999902    2    1    2    0    0  0.19770053400E-01 -0.10132033996E-01  0.92575984702E-02  0.10198630880E+01  0.10195790808E+01 0.  0.
     999903    2    3    3    0    0 -0.14798683866E-01 -0.93335270174E-01 -0.86984086723E-01  0.13004274765E+00  0.20357091425E-01 0.  0.
         14    1    1    2    0    0 -0.19770053400E-01  0.10132033996E-01 -0.92575984702E-02  0.24066912012E-01  0.00000000000E+00 0.  1.
     999901    1    3    3    0    0  0.34568737266E-01  0.83203236178E-01  0.96241685193E-01  0.88982034034E+00  0.88000000000E+00 0.  1.
        -11    1    4    4    0    0  0.45963803679E-02 -0.16111260893E-01 -0.11515202579E-01  0.20336185765E-01  0.51100000000E-03 0.  1.
         11    1    4    4    0    0 -0.19395064234E-01 -0.77224009281E-01 -0.75468884145E-01  0.10970656189E+00  0.51100000000E-03 0. -1.
</event>
<event>
 8    1  0.1135368E+005  0.1043930E+01  0.7957747E-01            NaN
         13   -1    0    0    0    0  0.00000000000E+00  0.00000000000E+00  0.74505805969E-08  0.10566000000E+00  0.10566000000E+00 0. -1.
     999900   -1    0    0    0    0 -0.00000000000E+00 -0.00000000000E+00 -0.74505805969E-08  0.93827000000E+00  0.93827000000E+00 0. -1.
     999902    2    1    2    0    0  0.66105914066E-02 -0.18701296823E-01  0.14520134348E-01  0.10193480407E+01  0.10190515960E+01 0.  0.
     999903    2    3    3    0    0 -0.46651336383E-01 -0.56350386142E-01 -0.10426130457E+00  0.12897546862E+00  0.20311047966E-01 0.  0.
         14    1    1    2    0    0 -0.66105914066E-02  0.18701296823E-01 -0.14520134348E-01  0.24581959301E-01  0.00000000000E+00 0.  1.
     999901    1    3    3    0    0  0.53261927790E-01  0.37649089319E-01  0.11878143892E+00  0.89037257208E+00  0.88000000000E+00 0.  1.
        -11    1    4    4    0    0 -0.20247071065E-01 -0.16033604387E-01 -0.23476655339E-01  0.34906085762E-01  0.51100000000E-03 0. -1.
         11    1    4    4    0    0 -0.26404265318E-01 -0.40316781755E-01 -0.80784649235E-01  0.94069382857E-01  0.51100000000E-03 0.  1.
</event>
<event>
 8    1  0.1135368E+005  0.1043930E+01  0.7957747E-01            NaN
         13   -1    0    0    0    0  0.00000000000E+00  0.00000000000E+00  0.74505805969E-08  0.10566000000E+00  0.10566000000E+00 0.  1.
     999900   -1    0    0    0    0 -0.00000000000E+00 -0.00000000000E+00 -0.74505805969E-08  0.93827000000E+00  0.93827000000E+00 0. -1.
     999902    2    1    2    0    0 -0.88881422480E-02  0.32791214346E-02 -0.21499403025E-01  0.10204358297E+01  0.10201653329E+01 0.  0.
     999903    2    3    3    0    0  0.14137409339E-01 -0.10005868569E+00  0.77507964607E-01  0.12857746800E+00  0.17693890884E-01 0.  0.
         14    1    1    2    0    0  0.88881422480E-02 -0.32791214346E-02  0.21499403025E-01  0.23494170350E-01  0.00000000000E+00 0.  1.
     999901    1    3    3    0    0 -0.23025551587E-01  0.10333780712E+00 -0.99007367632E-01  0.89185836165E+00  0.88000000000E+00 0. -1.
        -11    1    4    4    0    0  0.93935844104E-02 -0.53473525129E-01  0.52335704191E-01  0.75411831777E-01  0.51100000000E-03 0.  1.
         11    1    4    4    0    0  0.47438249287E-02 -0.46585160558E-01  0.25172260417E-01  0.53165636220E-01  0.51100000000E-03 0. -1.
</event>
<event>
 7    1  0.1135368E+005  0.1043930E+01  0.7957747E-01            NaN
         13   -1    0    0    0    0  0.00000000000E+00  0.00000000000E+00  0.74505805969E-08  0.10566000000E+00  0.10566000000E+00 0.  1.
     999900   -1    0    0    0    0 -0.00000000000E+00 -0.00000000000E+00 -0.74505805969E-08  0.93827000000E+00  0.93827000000E+00 0. -1.
     999902    2    1    2    0    0 -0.17525253865E-01 -0.16783889961E-01  0.17762977058E-03  0.10196634585E+01  0.10193746630E+01 0.  0.
         14    1    1    2    0    0  0.17525253865E-01  0.16783889961E-01 -0.17762977058E-03  0.24266541525E-01  0.00000000000E+00 0. -1.
     999901    1    3    3    0    0 -0.51198708288E-01 -0.11989075705E+00  0.58702976865E-01  0.89153863677E+00  0.88000000000E+00 0.  1.
        -11    1    3    3    0    0  0.22393962090E-02  0.58776270785E-01 -0.22789174356E-01  0.63081475028E-01  0.51100000000E-03 0.  1.
         11    1    3    3    0    0  0.31434058214E-01  0.44330596303E-01 -0.35736172738E-01  0.65043346680E-01  0.51100000000E-03 0. -1.
</event>
<event>
 8    1  0.1135368E+005  0.1043930E+01  0.7957747E-01            NaN
         13   -1    0    0    0    0  0.00000000000E+00  0.00000000000E+00  0.74505805969E-08  0.10566000000E+00  0.10566000000E+00 0.  1.
     999900   -1    0    0    0    0 -0.00000000000E+00 -0.00000000000E+00 -0.74505805969E-08  0.93827000000E+00  0.93827000000E+00 0. -1.
     999902    2    1    2    0    0 -0.23536598158E-01  0.14759843438E-02  0.28402048510E-02  0.10201767529E+01  0.10199001865E+01 0.  0.
     999903    2    3    3    0    0  0.30548879819E-01  0.23585850259E-01  0.12263766731E+00  0.13013994633E+00  0.20171311261E-01 0.  0.
         14    1    1    2    0    0  0.23536598158E-01 -0.14759843438E-02 -0.28402048510E-02  0.23753247067E-01  0.00000000000E+00 0.  1.
     999901    1    3    3    0    0 -0.54085477977E-01 -0.22109865915E-01 -0.11979746245E+00  0.89003680660E+00  0.88000000000E+00 0. -1.
        -11    1    4    4    0    0  0.64329150129E-02  0.17309608846E-01  0.57600357331E-01  0.60490224331E-01  0.51100000000E-03 0. -1.
         11    1    4    4    0    0  0.24115964806E-01  0.62762414129E-02  0.65037309974E-01  0.69649721999E-01  0.51100000000E-03 0.  1.
</event>
<event>
 8    1  0.1135368E+005  0.1043930E+01  0.7957747E-01            NaN
         13   -1    0    0    0    0  0.00000000000E+00  0.00000000000E+00  0.74505805969E-08  0.10566000000E+00  0.10566000000E+00 0. -1.
     999900   -1    0    0    0    0 -0.00000000000E+00 -0.00000000000E+00 -0.74505805969E-08  0.93827000000E+00  0.93827000000E+00 0.  1.
     999902    2    1    2    0    0 -0.31728211023E-02  0.19210176291E-01 -0.52099908970E-02  0.10237745622E+01  0.10235761391E+01 0.  0.
     999903    2    3    3    0    0 -0.10174156794E+00 -0.57009827005E-01 -0.61464820776E-01  0.13321861640E+00  0.19178335153E-01 0.  0.
         14    1    1    2    0    0  0.31728211023E-02 -0.19210176291E-01  0.52099908970E-02  0.20155437778E-01  0.00000000000E+00 0.  1.
     999901    1    3    3    0    0  0.98568746842E-01  0.76220003296E-01  0.56254829879E-01  0.89055594582E+00  0.88000000000E+00 0. -1.
        -11    1    4    4    0    0 -0.78439179074E-01 -0.43830086196E-01 -0.56039108105E-01  0.10589817764E+00  0.51100000000E-03 0.  1.
         11    1    4    4    0    0 -0.23302388870E-01 -0.13179740809E-01 -0.54257126710E-02  0.27320438756E-01  0.51100000000E-03 0. -1.
</event>
<event>
 8    1  0.1135368E+005  0.1043930E+01  0.7957747E-01            NaN
         13   -1    0    0    0    0  0.00000000000E+00  0.00000000000E+00  0.74505805969E-08  0.10566000000E+00  0.10566000000E+00 0. -1.
     999900   -1    0    0    0    0 -0.00000000000E+00 -0.00000000000E+00 -0.74505805969E-08  0.93827000000E+00  0.93827000000E+00 0.  1.
     999902    2    1    2    0    0 -0.20187260357E-01  0.69200974278E-02  0.10615756822E-01  0.10200949938E+01  0.10198164976E+01 0.  0.
     999903    2    3    3    0    0  0.21604811056E-01 -0.43078002637E-01  0.11997201525E+00  0.13093517771E+00  0.20694302286E-01 0.  0.
         14    1    1    2    0    0  0.20187260357E-01 -0.69200974278E-02 -0.10615756822E-01  0.23835006231E-01  0.00000000000E+00 0.  1.
     999901    1    3    3    0    0 -0.41792071413E-01  0.49998100065E-01 -0.10935625842E+00  0.88915981606E+00  0.88000000000E+00 0.  1.
        -11    1    4    4    0    0  0.97508016048E-02 -0.24609894329E-01  0.39721174740E-01  0.47736337046E-01  0.51100000000E-03 0.  1.
         11    1    4    4    0    0  0.11854009451E-01 -0.18468108309E-01  0.80250840505E-01  0.83198840661E-01  0.51100000000E-03 0. -1.
</event>
<event>
 8    1  0.1162335E+005  0.1043930E+01  0.7957747E-01            NaN
         13   -1    0    0    0    0  0.00000000000E+00  0.00000000000E+00  0.74505805969E-08  0.10566000000E+00  0.10566000000E+00 0. -1.
     999900   -1    0    0    0    0 -0.00000000000E+00 -0.00000000000E+00 -0.74505805969E-08  0.93827000000E+00  0.93827000000E+00 0. -1.
     999902    2    1    2    0    0 -0.25255694640E-02 -0.20401585748E-01 -0.13120659982E-01  0.10195424023E+01  0.10192506832E+01 0.  0.
     999903    2    3    3    0    0  0.80523821671E-01  0.64947196982E-01 -0.75125079325E-01  0.12935918292E+00  0.19692547082E-01 0.  0.
         14    1    1    2    0    0  0.25255694640E-02  0.20401585748E-01  0.13120659982E-01  0.24387597678E-01  0.00000000000E+00 0.  1.
     999901    1    3    3    0    0 -0.83049391135E-01 -0.85348782730E-01  0.62004419344E-01  0.89018321940E+00  0.88000000000E+00 0.  1.
        -11    1    4    4    0    0  0.21660494681E-01  0.27552510226E-01 -0.31307408478E-01  0.46997157320E-01  0.51100000000E-03 0.  1.
         11    1    4    4    0    0  0.58863326990E-01  0.37394686756E-01 -0.43817670847E-01  0.82362025603E-01  0.51100000000E-03 0. -1.
</event>
<event>
 8    1  0.1135368E+005  0.1043930E+01  0.7957747E-01            NaN
         13   -1    0    0    0    0  0.00000000000E+00  0.00000000000E+00  0.74505805969E-08  0.10566000000E+00  0.10566000000E+00 0.  1.
     999900   -1    0    0    0    0 -0.00000000000E+00 -0.00000000000E+00 -0.74505805969E-08  0.93827000000E+00  0.93827000000E+00 0.  1.
     999902    2    1    2    0    0 -0.11811919200E-01  0.19326086317E-01  0.34233817012E-02  0.10210228267E+01  0.10207658272E+01 0.  0.
     999903    2    3    3    0    0 -0.73352774099E-01 -0.10032458749E+00 -0.32542534280E-01  0.13006990554E+00  0.20334981332E-01 0.  0.
         14    1    1    2    0    0  0.11811919200E-01 -0.19326086317E-01 -0.34233817012E-02  0.22907173326E-01  0.00000000000E+00 0. -1.
     999901    1    3    3    0    0  0.61540854899E-01  0.11965067381E+00  0.35965915981E-01  0.89095292113E+00  0.88000000000E+00 0.  1.
        -11    1    4    4    0    0 -0.57624711507E-01 -0.89185390823E-01 -0.31520152310E-01  0.11076291092E+00  0.51100000000E-03 0.  1.
         11    1    4    4    0    0 -0.15728062593E-01 -0.11139196671E-01 -0.10223819692E-02  0.19306994621E-01  0.51100000000E-03 0. -1.
</event>
<event>
 8    1  0.1135368E+005  0.1043930E+01  0.7957747E-01            NaN
         13   -1    0    0    0    0  0.00000000000E+00  0.00000000000E+00  0.74505805969E-08  0.10566000000E+00  0.10566000000E+00 0.  1.
     999900   -1    0    0    0    0 -0.00000000000E+00 -0.00000000000E+00 -0.74505805969E-08  0.93827000000E+00  0.93827000000E+00 0. -1.
     999902    2    1    2    0    0 -0.12896960734E-01  0.17421672210E-01 -0.10894567126E-01  0.10196702009E+01  0.10193815678E+01 0.  0.
     999903    2    3    3    0    0 -0.49207098097E-01  0.52547044247E-01  0.10651336451E+00  0.13043635077E+00  0.22045734757E-01 0.  0.
         14    1    1    2    0    0  0.12896960734E-01 -0.17421672210E-01  0.10894567126E-01  0.24259799085E-01  0.00000000000E+00 0.  1.
     999901    1    3    3    0    0  0.36310137362E-01 -0.35125372037E-01 -0.11740793163E+00  0.88923385015E+00  0.88000000000E+00 0. -1.
        -11    1    4    4    0    0 -0.28688461642E-01  0.39113313164E-01  0.84712567272E-01  0.97618437157E-01  0.51100000000E-03 0.  1.
         11    1    4    4    0    0 -0.20518636454E-01  0.13433731083E-01  0.21800797235E-01  0.32817913612E-01  0.51100000000E-03 0. -1.
</event>
<event>
 8    1  0.1135368E+005  0.1043930E+01  0.7957747E-01            NaN
         13   -1    0    0    0    0  0.00000000000E+00  0.00000000000E+00  0.74505805969E-08  0.10566000000E+00  0.10566000000E+00 0. -1.
     999900   -1    0    0    0    0 -0.00000000000E+00 -0.00000000000E+00 -0.74505805969E-08  0.93827000000E+00  0.93827000000E+00 0. -1.
     999902    2    1    2    0    0 -0.19909206657E-01  0.11525876249E-01  0.40767299518E-02  0.10205667370E+01  0.10202992809E+01 0.  0.
     999903    2    3    3    0    0  0.28939307541E-01  0.56439502095E-01  0.11320654039E+00  0.13134644555E+00  0.20328970754E-01 0.  0.
         14    1    1    2    0    0  0.19909206657E-01 -0.11525876249E-01 -0.40767299518E-02  0.23363263045E-01  0.00000000000E+00 0.  1.
     999901    1    3    3    0    0 -0.48848514198E-01 -0.44913625846E-01 -0.10912981044E+00  0.88922029141E+00  0.88000000000E+00 0.  1.
        -11    1    4    4    0    0  0.16985871565E-02  0.19906443224E-01  0.24498207722E-01  0.31616055775E-01  0.51100000000E-03 0. -1.
         11    1    4    4    0    0  0.27240720384E-01  0.36533058872E-01  0.88708332671E-01  0.99730389771E-01  0.51100000000E-03 0.  1.
</event>
<event>
 8    1  0.1135368E+005  0.1043930E+01  0.7957747E-01            NaN
         13   -1    0    0    0    0  0.00000000000E+00  0.00000000000E+00  0.74505805969E-08  0.10566000000E+00  0.10566000000E+00 0.  1.
     999900   -1    0    0    0    0 -0.00000000000E+00 -0.00000000000E+00 -0.74505805969E-08  0.93827000000E+00  0.93827000000E+00 0.  1.
     999902    2    1    2    0    0  0.11896245094E-01  0.38046620438E-02  0.19854353517E-01  0.10204738397E+01  0.10202042277E+01 0.  0.
     999903    2    3    3    0    0 -0.24073865176E-01 -0.12540142469E-01  0.12861044089E+00  0.13289911725E+00  0.19614374889E-01 0.  0.
         14    1    1    2    0    0 -0.11896245094E-01 -0.38046620438E-02 -0.19854353517E-01  0.23456160261E-01  0.00000000000E+00 0.  1.
     999901    1    3    3    0    0  0.35970110270E-01  0.16344804513E-01 -0.10875608737E+00  0.88757472249E+00  0.88000000000E+00 0.  1.
        -11    1    4    4    0    0  0.81299108797E-03 -0.41024901015E-02  0.50628042125E-02  0.65866901427E-02  0.51100000000E-03 0.  1.
         11    1    4    4    0    0 -0.24886856264E-01 -0.84376523675E-02  0.12354763667E+00  0.12631242710E+00  0.51100000000E-03 0. -1.
</event>
<event>
 8    1  0.1135368E+005  0.1043930E+01  0.7957747E-01            NaN
         13   -1    0    0    0    0  0.00000000000E+00  0.00000000000E+00  0.74505805969E-08  0.10566000000E+00  0.10566000000E+00 0.  1.
     999900   -1    0    0    0    0 -0.00000000000E+00 -0.00000000000E+00 -0.74505805969E-08  0.93827000000E+00  0.93827000000E+00 0.  1.
     999902    2    1    2    0    0 -0.18186994133E-01 -0.15768933890E-01  0.12622535127E-02  0.10198256577E+01  0.10195407559E+01 0.  0.
     999903    2    3    3    0    0  0.12495069308E+00 -0.49652941046E-02 -0.19508808712E-01  0.12795315948E+00  0.18817214417E-01 0.  0.
         14    1    1    2    0    0  0.18186994133E-01  0.15768933890E-01 -0.12622535127E-02  0.24104342255E-01  0.00000000000E+00 0. -1.
     999901    1    3    3    0    0 -0.14313768721E+00 -0.10803639786E-01  0.20771062224E-01  0.89187249826E+00  0.88000000000E+00 0.  1.
        -11    1    4    4    0    0  0.75862648289E-01 -0.11370046949E-01 -0.80114333176E-02  0.77128876291E-01  0.51100000000E-03 0. -1.
         11    1    4    4    0    0  0.49088044786E-01  0.64047528439E-02 -0.11497375394E-01  0.50824283191E-01  0.51100000000E-03 0.  1.
</event>
<event>
 8    1  0.1135368E+005  0.1043930E+01  0.7957747E-01            NaN
         13   -1    0    0    0    0  0.00000000000E+00  0.00000000000E+00  0.74505805969E-08  0.10566000000E+00  0.10566000000E+00 0.  1.
     999900   -1    0    0    0    0 -0.00000000000E+00 -0.00000000000E+00 -0.74505805969E-08  0.93827000000E+00  0.93827000000E+00 0.  1.
     999902    2    1    2    0    0  0.12402321414E-01 -0.31980682275E-02 -0.21007517066E-01  0.10193259152E+01  0.10190289301E+01 0.  0.
     999903    2    3    3    0    0 -0.98417908549E-01  0.33995140934E-01  0.69661029843E-01  0.12697775242E+00  0.20710774968E-01 0.  0.
         14    1    1    2    0    0 -0.12402321414E-01  0.31980682275E-02  0.21007517066E-01  0.24604084826E-01  0.00000000000E+00 0.  1.
     999901    1    3    3    0    0  0.11082022996E+00 -0.37193209161E-01 -0.90668546909E-01  0.89234816276E+00  0.88000000000E+00 0. -1.
        -11    1    4    4    0    0 -0.24881183844E-01  0.23154422324E-02  0.24731923857E-01  0.35161964690E-01  0.51100000000E-03 0. -1.
         11    1    4    4    0    0 -0.73536724705E-01  0.31679698701E-01  0.44929105986E-01  0.91815787727E-01  0.51100000000E-03 0.  1.
</event>
<event>
 8    1  0.1135368E+005  0.1043930E+01  0.7957747E-01            NaN
         13   -1    0    0    0    0  0.00000000000E+00  0.00000000000E+00  0.74505805969E-08  0.10566000000E+00  0.10566000000E+00 0.  1.
     999900   -1    0    0    0    0 -0.00000000000E+00 -0.00000000000E+00 -0.74505805969E-08  0.93827000000E+00  0.93827000000E+00 0.  1.
     999902    2    1    2    0    0 -0.22875120484E-01 -0.52188476048E-02  0.54981971293E-02  0.10198315005E+01  0.10195467384E+01 0.  0.
     999903    2    3    3    0    0  0.67063388682E-01  0.78733216129E-01 -0.72761423363E-01  0.12783292838E+00  0.18724727600E-01 0.  0.
         14    1    1    2    0    0  0.22875120484E-01  0.52188476048E-02 -0.54981971293E-02  0.24098499521E-01  0.00000000000E+00 0.  1.
     999901    1    3    3    0    0 -0.89938509166E-01 -0.83952063733E-01  0.78259620493E-01  0.89199857210E+00  0.88000000000E+00 0. -1.
        -11    1    4    4    0    0  0.37578411910E-01  0.51490652893E-01 -0.35028593374E-01  0.72737114678E-01  0.51100000000E-03 0. -1.
         11    1    4    4    0    0  0.29484976772E-01  0.27242563236E-01 -0.37732829989E-01  0.55095813697E-01  0.51100000000E-03 0.  1.
</event>
<event>
 8    1  0.1135368E+005  0.1043930E+01  0.7957747E-01            NaN
         13   -1    0    0    0    0  0.00000000000E+00  0.00000000000E+00  0.74505805969E-08  0.10566000000E+00  0.10566000000E+00 0. -1.
     999900   -1    0    0    0    0 -0.00000000000E+00 -0.00000000000E+00 -0.74505805969E-08  0.93827000000E+00  0.93827000000E+00 0. -1.
     999902    2    1    2    0    0 -0.17410807126E-01 -0.89706471816E-03 -0.15769199368E-01  0.10204223719E+01  0.10201515615E+01 0.  0.
     999903    2    3    3    0    0 -0.21889188314E-01 -0.94388663960E-01 -0.88200719101E-01  0.13249948107E+00  0.19707592032E-01 0.  0.
         14    1    1    2    0    0  0.17410807126E-01  0.89706471816E-03  0.15769199368E-01  0.23507628094E-01  0.00000000000E+00 0. -1.
     999901    1    3    3    0    0  0.44783811879E-02  0.93491599242E-01  0.72431519733E-01  0.88792289084E+00  0.88000000000E+00 0.  1.
        -11    1    4    4    0    0 -0.19926031928E-01 -0.49976805967E-01 -0.55582817689E-01  0.77359153475E-01  0.51100000000E-03 0.  1.
         11    1    4    4    0    0 -0.19631563854E-02 -0.44411857993E-01 -0.32617901412E-01  0.55140327592E-01  0.51100000000E-03 0. -1.
</event>
<event>
 8    1  0.1135368E+005  0.1043930E+01  0.7957747E-01            NaN
         13   -1    0    0    0    0  0.00000000000E+00  0.00000000000E+00  0.74505805969E-08  0.10566000000E+00  0.10566000000E+00 0. -1.
     999900   -1    0    0    0    0 -0.00000000000E+00 -0.00000000000E+00 -0.74505805969E-08  0.93827000000E+00  0.93827000000E+00 0. -1.
     999902    2    1    2    0    0  0.89449427653E-02  0.21347150918E-01 -0.58734448446E-02  0.10200509253E+01  0.10197713862E+01 0.  0.
     999903    2    3    3    0    0 -0.28267905735E-01 -0.87028765712E-01  0.86823006749E-01  0.12779380568E+00  0.20492479454E-01 0.  0.
         14    1    1    2    0    0 -0.89449427653E-02 -0.21347150918E-01  0.58734448446E-02  0.23879074683E-01  0.00000000000E+00 0. -1.
     999901    1    3    3    0    0  0.37212848501E-01  0.10837591663E+00 -0.92696451593E-01  0.89225711963E+00  0.88000000000E+00 0. -1.
        -11    1    4    4    0    0 -0.28831792072E-01 -0.59489337875E-01  0.64078775732E-01  0.92068475469E-01  0.51100000000E-03 0. -1.
         11    1    4    4    0    0  0.56388633660E-03 -0.27539427836E-01  0.22744231017E-01  0.35725330214E-01  0.51100000000E-03 0.  1.
</event>
<event>
 8    1  0.1135368E+005  0.1043930E+01  0.7957747E-01            NaN
         13   -1    0    0    0    0  0.00000000000E+00  0.00000000000E+00  0.74505805969E-08  0.10566000000E+00  0.10566000000E+00 0. -1.
     999900   -1    0    0    0    0 -0.00000000000E+00 -0.00000000000E+00 -0.74505805969E-08  0.93827000000E+00  0.93827000000E+00 0.  1.
     999902    2    1    2    0    0  0.13875570398E-01 -0.72407261403E-02 -0.17611431470E-01  0.10203689710E+01  0.10200969145E+01 0.  0.
     999903    2    3    3    0    0 -0.82264472335E-01  0.94099788790E-01 -0.26650335473E-01  0.12930527543E+00  0.19682484970E-01 0.  0.
         14    1    1    2    0    0 -0.13875570398E-01  0.72407261403E-02  0.17611431470E-01  0.23561028996E-01  0.00000000000E+00 0. -1.
     999901    1    3    3    0    0  0.96140042733E-01 -0.10134051493E+00  0.90389040031E-02  0.89106369557E+00  0.88000000000E+00 0. -1.
        -11    1    4    4    0    0 -0.75091258570E-01  0.83831425837E-01 -0.29708892089E-01  0.11640139373E+00  0.51100000000E-03 0. -1.
         11    1    4    4    0    0 -0.71732137653E-02  0.10268362952E-01  0.30585566159E-02  0.12903881704E-01  0.51100000000E-03 0.  1.
</event>
<event>
 8    1  0.1135368E+005  0.1043930E+01  0.7957747E-01            NaN
         13   -1    0    0    0    0  0.00000000000E+00  0.00000000000E+00  0.74505805969E-08  0.10566000000E+00  0.10566000000E+00 0. -1.
     999900   -1    0    0    0    0 -0.00000000000E+00 -0.00000000000E+00 -0.74505805969E-08  0.93827000000E+00  0.93827000000E+00 0.  1.
     999902    2    1    2    0    0 -0.15341879311E-01 -0.10751332812E-01 -0.15513103723E-01  0.10196067435E+01  0.10193165802E+01 0.  0.
     999903    2    3    3    0    0  0.89850244801E-01  0.49845054277E-01 -0.76624297939E-01  0.12917320690E+00  0.16026179196E-01 0.  0.
         14    1    1    2    0    0  0.15341879311E-01  0.10751332812E-01  0.15513103723E-01  0.24323256466E-01  0.00000000000E+00 0. -1.
     999901    1    3    3    0    0 -0.10519212411E+00 -0.60596387088E-01  0.61111194216E-01  0.89043353663E+00  0.88000000000E+00 0.  1.
        -11    1    4    4    0    0  0.36123521864E-01  0.12805407125E-01 -0.33921927821E-01  0.51184427238E-01  0.51100000000E-03 0. -1.
         11    1    4    4    0    0  0.53726722937E-01  0.37039647151E-01 -0.42702370117E-01  0.77988779663E-01  0.51100000000E-03 0.  1.
</event>
<event>
 8    1  0.1135368E+005  0.1043930E+01  0.7957747E-01            NaN
         13   -1    0    0    0    0  0.00000000000E+00  0.00000000000E+00  0.74505805969E-08  0.10566000000E+00  0.10566000000E+00 0.  1.
     999900   -1    0    0    0    0 -0.00000000000E+00 -0.00000000000E+00 -0.74505805969E-08  0.93827000000E+00  0.93827000000E+00 0.  1.
     999902    2    1    2    0    0 -0.62220932972E-02 -0.99850403056E-02  0.20582128613E-01  0.10202226279E+01  0.10199471412E+01 0.  0.
     999903    2    3    3    0    0 -0.61199642757E-01 -0.12683673990E-01  0.11577542077E+00  0.13337902473E+00  0.21903066543E-01 0.  0.
         14    1    1    2    0    0  0.62220932972E-02  0.99850403056E-02 -0.20582128613E-01  0.23707372126E-01  0.00000000000E+00 0. -1.
     999901    1    3    3    0    0  0.54977549460E-01  0.26986336843E-02 -0.95193292155E-01  0.88684360315E+00  0.88000000000E+00 0.  1.
        -11    1    4    4    0    0 -0.25119920178E-01 -0.81298878221E-02  0.70635243184E-01  0.75410239135E-01  0.51100000000E-03 0.  1.
         11    1    4    4    0    0 -0.36079722579E-01 -0.45537861678E-02  0.45140177584E-01  0.57968785593E-01  0.51100000000E-03 0. -1.
</event>
<event>
 8    1  0.1135368E+005  0.1043930E+01  0.7957747E-01            NaN
         13   -1    0    0    0    0  0.00000000000E+00  0.00000000000E+00  0.74505805969E-08  0.10566000000E+00  0.10566000000E+00 0.  1.
     999900   -1    0    0    0    0 -0.00000000000E+00 -0.00000000000E+00 -0.74505805969E-08  0.93827000000E+00  0.93827000000E+00 0. -1.
     999902    2    1    2    0    0  0.41528479437E-02 -0.22544129082E-01  0.63440915382E-02  0.10201448912E+01  0.10198675736E+01 0.  0.
     999903    2    3    3    0    0  0.78233148869E-01  0.29944768098E-01 -0.96308974272E-01  0.12953800419E+00  0.22080789963E-01 0.  0.
         14    1    1    2    0    0 -0.41528479437E-02  0.22544129082E-01 -0.63440915382E-02  0.23785108778E-01  0.00000000000E+00 0.  1.
     999901    1    3    3    0    0 -0.74080300925E-01 -0.52488897180E-01  0.10265306581E+00  0.89060688703E+00  0.88000000000E+00 0.  1.
        -11    1    4    4    0    0  0.12910588783E-01  0.12425484052E-01 -0.12551378153E-01  0.21883193807E-01  0.51100000000E-03 0.  1.
         11    1    4    4    0    0  0.65322560087E-01  0.17519284046E-01 -0.83757596118E-01  0.10765481038E+00  0.51100000000E-03 0. -1.
</event>
<event>
 8    1  0.1135368E+005  0.1043930E+01  0.7957747E-01            NaN
         13   -1    0    0    0    0  0.00000000000E+00  0.00000000000E+00  0.74505805969E-08  0.10566000000E+00  0.10566000000E+00 0. -1.
     999900   -1    0    0    0    0 -0.00000000000E+00 -0.00000000000E+00 -0.74505805969E-08  0.93827000000E+00  0.93827000000E+00 0.  1.
     999902    2    1    2    0    0  0.17895426116E-02  0.23574351781E-01  0.52716077976E-02  0.10197072344E+01  0.10194194924E+01 0.  0.
     999903    2    3    3    0    0  0.11876434543E+00  0.45294573675E-01 -0.25288307798E-01  0.13117542238E+00  0.20271279531E-01 0.  0.
         14    1    1    2    0    0 -0.17895426116E-02 -0.23574351781E-01 -0.52716077976E-02  0.24222765602E-01  0.00000000000E+00 0. -1.
     999901    1    3    3    0    0 -0.11697480282E+00 -0.21720221895E-01  0.30559915596E-01  0.88853181202E+00  0.88000000000E+00 0.  1.
        -11    1    4    4    0    0  0.60856175773E-01  0.15319591506E-01 -0.53376910645E-02  0.62983458785E-01  0.51100000000E-03 0.  1.
         11    1    4    4    0    0  0.57908169659E-01  0.29974982169E-01 -0.19950616733E-01  0.68191963591E-01  0.51100000000E-03 0. -1.
</event>
<event>
 8    1  0.1135368E+005  0.1043930E+01  0.7957747E-01            NaN
         13   -1    0    0    0    0  0.00000000000E+00  0.00000000000E+00  0.74505805969E-08  0.10566000000E+00  0.10566000000E+00 0. -1.
     999900   -1    0    0    0    0 -0.00000000000E+00 -0.00000000000E+00 -0.74505805969E-08  0.93827000000E+00  0.93827000000E+00 0. -1.
     999902    2    1    2    0    0 -0.18518268756E-01  0.62771168858E-02 -0.65496801822E-02  0.10233089723E+01  0.10231011807E+01 0.  0.
     999903    2    3    3    0    0  0.93695601045E-01  0.66115560626E-01  0.61566611976E-01  0.13156213534E+00  0.19183710068E-01 0.  0.
         14    1    1    2    0    0  0.18518268756E-01 -0.62771168858E-02  0.65496801822E-02  0.20621027729E-01  0.00000000000E+00 0. -1.
     999901    1    3    3    0    0 -0.11221386980E+00 -0.59838443740E-01 -0.68116292158E-01  0.89174683693E+00  0.88000000000E+00 0.  1.
        -11    1    4    4    0    0  0.82006108920E-01  0.64741651279E-01  0.55625858525E-01  0.11836798794E+00  0.51100000000E-03 0.  1.
         11    1    4    4    0    0  0.11689492125E-01  0.13739093467E-02  0.59407534507E-02  0.13194147400E-01  0.51100000000E-03 0. -1.
</event>
<event>
 8    1  0.1135368E+005  0.1043930E+01  0.7957747E-01            NaN
         13   -1    0    0    0    0  0.00000000000E+00  0.00000000000E+00  0.74505805969E-08  0.10566000000E+00  0.10566000000E+00 0.  1.
     999900   -1    0    0    0    0 -0.00000000000E+00 -0.00000000000E+00 -0.74505805969E-08  0.93827000000E+00  0.93827000000E+00 0.  1.
     999902    2    1    2    0    0 -0.24016639805E-01 -0.70942581829E-04  0.57435007511E-03  0.10199063887E+01  0.10196234147E+01 0.  0.
     999903    2    3    3    0    0 -0.48209160873E-01 -0.11735383976E+00  0.27698389821E-01  0.13138161723E+00  0.19946970870E-01 0.  0.
         14    1    1    2    0    0  0.24016639805E-01  0.70942581829E-04 -0.57435007511E-03  0.24023611268E-01  0.00000000000E+00 0.  1.
     999901    1    3    3    0    0  0.24192521068E-01  0.11728289718E+00 -0.27124039746E-01  0.88852477151E+00  0.88000000000E+00 0.  1.
        -11    1    4    4    0    0 -0.38834183604E-01 -0.70825915921E-01  0.20863088754E-01  0.83426217555E-01  0.51100000000E-03 0.  1.
         11    1    4    4    0    0 -0.93749772692E-02 -0.46527923843E-01  0.68353010671E-02  0.47955399671E-01  0.51100000000E-03 0. -1.
</event>
<event>
 8    1  0.1135368E+005  0.1043930E+01  0.7957747E-01            NaN
         13   -1    0    0    0    0  0.00000000000E+00  0.00000000000E+00  0.74505805969E-08  0.10566000000E+00  0.10566000000E+00 0.  1.
     999900   -1    0    0    0    0 -0.00000000000E+00 -0.00000000000E+00 -0.74505805969E-08  0.93827000000E+00  0.93827000000E+00 0.  1.
     999902    2    1    2    0    0 -0.12579137594E-01 -0.17715741620E-01  0.89089147194E-02  0.10204470069E+01  0.10201767704E+01 0.  0.
     999903    2    3    3    0    0  0.34447744898E-01  0.12029392715E+00  0.21492596224E-01  0.12836150349E+00  0.18906820144E-01 0.  0.
         14    1    1    2    0    0  0.12579137594E-01  0.17715741620E-01 -0.89089147194E-02  0.23482993106E-01  0.00000000000E+00 0. -1.
     999901    1    3    3    0    0 -0.47026882492E-01 -0.13800966877E+00 -0.12583681505E-01  0.89208550341E+00  0.88000000000E+00 0. -1.
        -11    1    4    4    0    0  0.14961979201E-01  0.81756302452E-01  0.17932402043E-01  0.85028148140E-01  0.51100000000E-03 0.  1.
         11    1    4    4    0    0  0.19485765697E-01  0.38537624695E-01  0.35601941812E-02  0.43333355346E-01  0.51100000000E-03 0. -1.
</event>
<event>
 8    1  0.1135368E+005  0.1043930E+01  0.7957747E-01            NaN
         13   -1    0    0    0    0  0.00000000000E+00  0.00000000000E+00  0.74505805969E-08  0.10566000000E+00  0.10566000000E+00 0. -1.
     999900   -1    0    0    0    0 -0.00000000000E+00 -0.00000000000E+00 -0.74505805969E-08  0.93827000000E+00  0.93827000000E+00 0. -1.
     999902    2    1    2    0    0 -0.13571718930E-01 -0.14856150962E-01 -0.13267952869E-01  0.10198273995E+01  0.10195425393E+01 0.  0.
     999903    2    3    3    0    0  0.97840016264E-01 -0.57577654069E-01  0.58231617286E-01  0.12890097715E+00  0.18348995264E-01 0.  0.
         14    1    1    2    0    0  0.13571718930E-01  0.14856150962E-01  0.13267952869E-01  0.24102600471E-01  0.00000000000E+00 0. -1.
     999901    1    3    3    0    0 -0.11141173519E+00  0.42721503107E-01 -0.71499570155E-01  0.89092642238E+00  0.88000000000E+00 0. -1.
        -11    1    4    4    0    0  0.32297700199E-01 -0.95360967812E-02  0.15296443826E-01  0.36990821763E-01  0.51100000000E-03 0.  1.
         11    1    4    4    0    0  0.65542316065E-01 -0.48041557287E-01  0.42935173460E-01  0.91910155384E-01  0.51100000000E-03 0. -1.
</event>
<event>
 8    1  0.1135368E+005  0.1043930E+01  0.7957747E-01            NaN
         13   -1    0    0    0    0  0.00000000000E+00  0.00000000000E+00  0.74505805969E-08  0.10566000000E+00  0.10566000000E+00 0.  1.
     999900   -1    0    0    0    0 -0.00000000000E+00 -0.00000000000E+00 -0.74505805969E-08  0.93827000000E+00  0.93827000000E+00 0.  1.
     999902    2    1    2    0    0  0.11778748859E-02  0.39208950651E-02 -0.24390056982E-01  0.10191987306E+01  0.10188986293E+01 0.  0.
     999903    2    3    3    0    0 -0.58926852079E-01  0.96271718309E-01  0.58050079607E-01  0.12850370484E+00  0.20069199637E-01 0.  0.
         14    1    1    2    0    0 -0.11778748859E-02 -0.39208950651E-02  0.24390056982E-01  0.24731269416E-01  0.00000000000E+00 0.  1.
     999901    1    3    3    0    0  0.60104726965E-01 -0.92350823244E-01 -0.82440136589E-01  0.89069502574E+00  0.88000000000E+00 0. -1.
        -11    1    4    4    0    0 -0.54377611695E-01  0.75747865701E-01  0.43244822363E-01  0.10278637845E+00  0.51100000000E-03 0. -1.
         11    1    4    4    0    0 -0.45492403833E-02  0.20523852608E-01  0.14805257245E-01  0.25717326398E-01  0.51100000000E-03 0.  1.
</event>
<event>
 8    1  0.1135368E+005  0.1043930E+01  0.7957747E-01            NaN
         13   -1    0    0    0    0  0.00000000000E+00  0.00000000000E+00  0.74505805969E-08  0.10566000000E+00  0.10566000000E+00 0.  1.
     999900   -1    0    0    0    0 -0.00000000000E+00 -0.00000000000E+00 -0.74505805969E-08  0.93827000000E+00  0.93827000000E+00 0. -1.
     999902    2    1    2    0    0 -0.21696388372E-01  0.81185337755E-04 -0.90258171901E-02  0.10204309525E+01  0.10201603421E+01 0.  0.
     999903    2    3    3    0    0  0.94838150335E-01 -0.84275973666E-01 -0.11813564335E-01  0.12874479662E+00  0.18410536577E-01 0.  0.
         14    1    1    2    0    0  0.21696388372E-01 -0.81185337755E-04  0.90258171901E-02  0.23499047542E-01  0.00000000000E+00 0.  1.
     999901    1    3    3    0    0 -0.11653453871E+00  0.84357159004E-01  0.27877471451E-02  0.89168615584E+00  0.88000000000E+00 0.  1.
        -11    1    4    4    0    0  0.60072913018E-01 -0.46379081517E-01 -0.14403227274E-01  0.77249518819E-01  0.51100000000E-03 0.  1.
         11    1    4    4    0    0  0.34765237316E-01 -0.37896892149E-01  0.25896629385E-02  0.51495277797E-01  0.51100000000E-03 0. -1.
</event>
<event>
 8    1  0.1135368E+005  0.1043930E+01  0.7957747E-01            NaN
         13   -1    0    0    0    0  0.00000000000E+00  0.00000000000E+00  0.74505805969E-08  0.10566000000E+00  0.10566000000E+00 0.  1.
     999900   -1    0    0    0    0 -0.00000000000E+00 -0.00000000000E+00 -0.74505805969E-08  0.93827000000E+00  0.93827000000E+00 0.  1.
     999902    2    1    2    0    0 -0.10891288484E-01  0.18749229841E-01  0.81881145308E-02  0.10207524461E+01  0.10204892735E+01 0.  0.
     999903    2    3    3    0    0  0.12732019602E+00 -0.11146306625E-01 -0.33328865180E-02  0.12938894506E+00  0.19892674642E-01 0.  0.
         14    1    1    2    0    0  0.10891288484E-01 -0.18749229841E-01 -0.81881145308E-02  0.23177553883E-01  0.00000000000E+00 0. -1.
     999901    1    3    3    0    0 -0.13821148451E+00  0.29895536465E-01  0.11521001049E-01  0.89136350106E+00  0.88000000000E+00 0. -1.
        -11    1    4    4    0    0  0.62383140589E-01 -0.76593930332E-02 -0.11329307021E-01  0.63866555019E-01  0.51100000000E-03 0.  1.
         11    1    4    4    0    0  0.64937055435E-01 -0.34869135917E-02  0.79964205026E-02  0.65522390042E-01  0.51100000000E-03 0. -1.
</event>
<event>
 8    1  0.1135368E+005  0.1043930E+01  0.7957747E-01            NaN
         13   -1    0    0    0    0  0.00000000000E+00  0.00000000000E+00  0.74505805969E-08  0.10566000000E+00  0.10566000000E+00 0.  1.
     999900   -1    0    0    0    0 -0.00000000000E+00 -0.00000000000E+00 -0.74505805969E-08  0.93827000000E+00  0.93827000000E+00 0.  1.
     999902    2    1    2    0    0 -0.35507876024E-02  0.17771179484E-01 -0.15893619798E-01  0.10198254348E+01  0.10195405276E+01 0.  0.
     999903    2    3    3    0    0 -0.10985239192E+00  0.64500818545E-01 -0.28593729599E-01  0.13210645729E+00  0.20164599740E-01 0.  0.
         14    1    1    2    0    0  0.35507876024E-02 -0.17771179484E-01  0.15893619798E-01  0.24104565193E-01  0.00000000000E+00 0.  1.
     999901    1    3    3    0    0  0.10630160432E+00 -0.46729639061E-01  0.12700109801E-01  0.88771897751E+00  0.88000000000E+00 0. -1.
        -11    1    4    4    0    0 -0.82322515031E-01  0.38623987087E-01 -0.16396693825E-01  0.92400874178E-01  0.51100000000E-03 0. -1.
         11    1    4    4    0    0 -0.27529876890E-01  0.25876831458E-01 -0.12197035774E-01  0.39705583116E-01  0.51100000000E-03 0.  1.
</event>
<event>
 8    1  0.1135368E+005  0.1043930E+01  0.7957747E-01            NaN
         13   -1    0    0    0    0  0.00000000000E+00  0.00000000000E+00  0.74505805969E-08  0.10566000000E+00  0.10566000000E+00 0.  1.
     999900   -1    0    0    0    0 -0.00000000000E+00 -0.00000000000E+00 -0.74505805969E-08  0.93827000000E+00  0.93827000000E+00 0.  1.
     999902    2    1    2    0    0  0.16260741668E-01 -0.16792220734E-01 -0.30751216598E-02  0.10203535972E+01  0.10200811813E+01 0.  0.
     999903    2    3    3    0    0  0.69278804919E-01  0.10438830199E+00 -0.15065281069E-01  0.13038764387E+00  0.32825364862E-01 0.  0.
         14    1    1    2    0    0 -0.16260741668E-01  0.16792220734E-01  0.30751216598E-02  0.23576402821E-01  0.00000000000E+00 0.  1.
     999901    1    3    3    0    0 -0.53018063251E-01 -0.12118052272E+00  0.11990159409E-01  0.88996595330E+00  0.88000000000E+00 0.  1.
        -11    1    4    4    0    0  0.45781553665E-01  0.69672189500E-01 -0.25505773661E-01  0.87183543497E-01  0.51100000000E-03 0.  1.
         11    1    4    4    0    0  0.23497251254E-01  0.34716112489E-01  0.10440492592E-01  0.43204100377E-01  0.51100000000E-03 0. -1.
</event>
<event>
 8    1  0.1135368E+005  0.1043930E+01  0.7957747E-01            NaN
         13   -1    0    0    0    0  0.00000000000E+00  0.00000000000E+00  0.74505805969E-08  0.10566000000E+00  0.10566000000E+00 0. -1.
     999900   -1    0    0    0    0 -0.00000000000E+00 -0.00000000000E+00 -0.74505805969E-08  0.93827000000E+00  0.93827000000E+00 0.  1.
     999902    2    1    2    0    0  0.10480382011E-03  0.13090078175E-01  0.24781598874E-01  0.10159034274E+01  0.10155167576E+01 0.  0.
     999903    2    3    3    0    0 -0.49348356789E-01  0.44896156121E-01  0.10959010392E+00  0.12987310948E+00  0.20152134803E-01 0.  0.
         14    1    1    2    0    0 -0.10480382011E-03 -0.13090078175E-01 -0.24781598874E-01  0.28026572627E-01  0.00000000000E+00 0.  1.
     999901    1    3    3    0    0  0.49453160610E-01 -0.31806077946E-01 -0.84808505050E-01  0.88603031789E+00  0.88000000000E+00 0.  1.
        -11    1    4    4    0    0 -0.35590079602E-01  0.36618574751E-01  0.96386211995E-01  0.10907858070E+00  0.51100000000E-03 0. -1.
         11    1    4    4    0    0 -0.13758277187E-01  0.82775813701E-02  0.13203891928E-01  0.20794528789E-01  0.51100000000E-03 0.  1.
</event>
<event>
 8    1  0.1135368E+005  0.1043930E+01  0.7957747E-01            NaN
         13   -1    0    0    0    0  0.00000000000E+00  0.00000000000E+00  0.74505805969E-08  0.10566000000E+00  0.10566000000E+00 0.  1.
     999900   -1    0    0    0    0 -0.00000000000E+00 -0.00000000000E+00 -0.74505805969E-08  0.93827000000E+00  0.93827000000E+00 0. -1.
     999902    2    1    2    0    0 -0.21889817322E-01 -0.56199790752E-02 -0.11465181394E-01  0.10185883613E+01  0.10182730730E+01 0.  0.
     999903    2    3    3    0    0  0.15208676350E-01  0.12515052862E+00  0.92941759472E-02  0.12790987003E+00  0.19508831140E-01 0.  0.
         14    1    1    2    0    0  0.21889817322E-01  0.56199790752E-02  0.11465181394E-01  0.25341638692E-01  0.00000000000E+00 0.  1.
     999901    1    3    3    0    0 -0.37098493671E-01 -0.13077050770E+00 -0.20759357341E-01  0.89067849128E+00  0.88000000000E+00 0. -1.
        -11    1    4    4    0    0  0.41163619735E-02  0.86472752058E-01 -0.16733873469E-03  0.86572342047E-01  0.51100000000E-03 0. -1.
         11    1    4    4    0    0  0.11092314376E-01  0.38677776566E-01  0.94615146819E-02  0.41337527978E-01  0.51100000000E-03 0.  1.
</event>
<event>
 8    1  0.1135368E+005  0.1043930E+01  0.7957747E-01            NaN
         13   -1    0    0    0    0  0.00000000000E+00  0.00000000000E+00  0.74505805969E-08  0.10566000000E+00  0.10566000000E+00 0.  1.
     999900   -1    0    0    0    0 -0.00000000000E+00 -0.00000000000E+00 -0.74505805969E-08  0.93827000000E+00  0.93827000000E+00 0.  1.
     999902    2    1    2    0    0  0.10753117065E-01 -0.19975843852E-01  0.67391476033E-02  0.10202639912E+01  0.10199894763E+01 0.  0.
     999903    2    3    3    0    0 -0.15416966059E-03  0.12580156940E+00  0.14601191842E-01  0.12816991828E+00  0.19704682644E-01 0.  0.
         14    1    1    2    0    0 -0.10753117065E-01  0.19975843852E-01 -0.67391476033E-02  0.23666008845E-01  0.00000000000E+00 0.  1.
     999901    1    3    3    0    0  0.10907286726E-01 -0.14577741325E+00 -0.78620442384E-02  0.89209407287E+00  0.88000000000E+00 0.  1.
        -11    1    4    4    0    0  0.62721429222E-02  0.97835933563E-01  0.60527276479E-02  0.98224774401E-01  0.51100000000E-03 0.  1.
         11    1    4    4    0    0 -0.64263125828E-02  0.27965635833E-01  0.85484641938E-02  0.29945143881E-01  0.51100000000E-03 0. -1.
</event>
<event>
 8    1  0.1135368E+005  0.1043930E+01  0.7957747E-01            NaN
         13   -1    0    0    0    0  0.00000000000E+00  0.00000000000E+00  0.74505805969E-08  0.10566000000E+00  0.10566000000E+00 0.  1.
     999900   -1    0    0    0    0 -0.00000000000E+00 -0.00000000000E+00 -0.74505805969E-08  0.93827000000E+00  0.93827000000E+00 0.  1.
     999902    2    1    2    0    0 -0.81775307959E-02  0.17210236106E-01 -0.14840893618E-01  0.10197780568E+01  0.10194920151E+01 0.  0.
     999903    2    3    3    0    0  0.93217793055E-02 -0.47398712186E-01 -0.12007216177E+00  0.13098440142E+00  0.20150828680E-01 0.  0.
         14    1    1    2    0    0  0.81775307959E-02 -0.17210236106E-01  0.14840893618E-01  0.24151943196E-01  0.00000000000E+00 0.  1.
     999901    1    3    3    0    0 -0.17499310101E-01  0.64608948292E-01  0.10523126815E+00  0.88879365538E+00  0.88000000000E+00 0. -1.
        -11    1    4    4    0    0  0.12182064454E-01 -0.13476168206E-01 -0.37630461114E-01  0.41789024020E-01  0.51100000000E-03 0.  1.
         11    1    4    4    0    0 -0.28602851486E-02 -0.33922543979E-01 -0.82441700659E-01  0.89195377400E-01  0.51100000000E-03 0. -1.
</event>
<event>
 8    1  0.1135368E+005  0.1043930E+01  0.7957747E-01            NaN
         13   -1    0    0    0    0  0.00000000000E+00  0.00000000000E+00  0.74505805969E-08  0.10566000000E+00  0.10566000000E+00 0.  1.
     999900   -1    0    0    0    0 -0.00000000000E+00 -0.00000000000E+00 -0.74505805969E-08  0.93827000000E+00  0.93827000000E+00 0. -1.
     999902    2    1    2    0    0  0.83207158482E-02 -0.12812983741E-01  0.17738099409E-01  0.10205195956E+01  0.10202510465E+01 0.  0.
     999903    2    3    3    0    0  0.11727901835E+00 -0.54849335402E-01 -0.17415544261E-01  0.13210823522E+00  0.19658761218E-01 0.  0.
         14    1    1    2    0    0 -0.83207158482E-02  0.12812983741E-01 -0.17738099409E-01  0.23410404423E-01  0.00000000000E+00 0. -1.
     999901    1    3    3    0    0 -0.10895830250E+00  0.42036351661E-01  0.35153643671E-01  0.88841136036E+00  0.88000000000E+00 0. -1.
        -11    1    4    4    0    0  0.58080390704E-01 -0.28142757304E-01  0.11807432282E-02  0.64552318693E-01  0.51100000000E-03 0.  1.
         11    1    4    4    0    0  0.59198627645E-01 -0.26706578098E-01 -0.18596287490E-01  0.67555916529E-01  0.51100000000E-03 0. -1.
</event>
<event>
 8    1  0.1135368E+005  0.1043930E+01  0.7957747E-01            NaN
         13   -1    0    0    0    0  0.00000000000E+00  0.00000000000E+00  0.74505805969E-08  0.10566000000E+00  0.10566000000E+00 0. -1.
     999900   -1    0    0    0    0 -0.00000000000E+00 -0.00000000000E+00 -0.74505805969E-08  0.93827000000E+00  0.93827000000E+00 0.  1.
     999902    2    1    2    0    0  0.19768037089E-01 -0.10252441229E-01 -0.70811876921E-02  0.10205626925E+01  0.10202951427E+01 0.  0.
     999903    2    3    3    0    0  0.10416620717E-01  0.11685495166E+00  0.51060385943E-01  0.12948234768E+00  0.19872836516E-01 0.  0.
         14    1    1    2    0    0 -0.19768037089E-01  0.10252441229E-01  0.70811876921E-02  0.23367307518E-01  0.00000000000E+00 0. -1.
     999901    1    3    3    0    0  0.93514163719E-02 -0.12710739289E+00 -0.58141573635E-01  0.89108034481E+00  0.88000000000E+00 0. -1.
        -11    1    4    4    0    0 -0.89091490935E-03  0.41792619856E-01  0.27340555692E-01  0.49951815886E-01  0.51100000000E-03 0.  1.
         11    1    4    4    0    0  0.11307535627E-01  0.75062331809E-01  0.23719830250E-01  0.79530531789E-01  0.51100000000E-03 0. -1.
</event>
<event>
 8    1  0.1135368E+005  0.1043930E+01  0.7957747E-01            NaN
         13   -1    0    0    0    0  0.00000000000E+00  0.00000000000E+00  0.74505805969E-08  0.10566000000E+00  0.10566000000E+00 0.  1.
     999900   -1    0    0    0    0 -0.00000000000E+00 -0.00000000000E+00 -0.74505805969E-08  0.93827000000E+00  0.93827000000E+00 0.  1.
     999902    2    1    2    0    0  0.12514162906E-01  0.77959548920E-04 -0.20468947002E-01  0.10199385819E+01  0.10196563748E+01 0.  0.
     999903    2    3    3    0    0 -0.45327091027E-01  0.11852798189E+00  0.15041250879E-01  0.12941233714E+00  0.20442262726E-01 0.  0.
         14    1    1    2    0    0 -0.12514162906E-01 -0.77959548920E-04  0.20468947002E-01  0.23991418097E-01  0.00000000000E+00 0.  1.
     999901    1    3    3    0    0  0.57841253933E-01 -0.11845002234E+00 -0.35510197881E-01  0.89052624476E+00  0.88000000000E+00 0.  1.
        -11    1    4    4    0    0 -0.13418757072E-01  0.50142489749E-01 -0.23744111973E-02  0.51963749568E-01  0.51100000000E-03 0.  1.
         11    1    4    4    0    0 -0.31908333954E-01  0.68385492141E-01  0.17415662076E-01  0.77448587577E-01  0.51100000000E-03 0. -1.
</event>
<event>
 8    1  0.1135368E+005  0.1043930E+01  0.7957747E-01            NaN
         13   -1    0    0    0    0  0.00000000000E+00  0.00000000000E+00  0.74505805969E-08  0.10566000000E+00  0.10566000000E+00 0. -1.
     999900   -1    0    0    0    0 -0.00000000000E+00 -0.00000000000E+00 -0.74505805969E-08  0.93827000000E+00  0.93827000000E+00 0.  1.
     999902    2    1    2    0    0  0.91302947264E-02  0.20973972457E-01  0.28175028207E-02  0.10208820473E+01  0.10206218430E+01 0.  0.
     999903    2    3    3    0    0 -0.64587852462E-02 -0.17931445958E-01  0.12835304495E+00  0.13098552333E+00  0.17873178592E-01 0.  0.
         14    1    1    2    0    0 -0.91302947264E-02 -0.20973972457E-01 -0.28175028207E-02  0.23047952720E-01  0.00000000000E+00 0. -1.
     999901    1    3    3    0    0  0.15589079973E-01  0.38905418415E-01 -0.12553554213E+00  0.88989652395E+00  0.88000000000E+00 0.  1.
        -11    1    4    4    0    0  0.45995061887E-02 -0.76991635250E-02  0.25550655372E-01  0.27083753194E-01  0.51100000000E-03 0.  1.
         11    1    4    4    0    0 -0.11058291435E-01 -0.10232282433E-01  0.10280238958E+00  0.10390177014E+00  0.51100000000E-03 0. -1.
</event>
<event>
 8    1  0.1135368E+005  0.1043930E+01  0.7957747E-01            NaN
         13   -1    0    0    0    0  0.00000000000E+00  0.00000000000E+00  0.74505805969E-08  0.10566000000E+00  0.10566000000E+00 0.  1.
     999900   -1    0    0    0    0 -0.00000000000E+00 -0.00000000000E+00 -0.74505805969E-08  0.93827000000E+00  0.93827000000E+00 0. -1.
     999902    2    1    2    0    0  0.21890405872E-01  0.35471908517E-02  0.74350551782E-02  0.10205408470E+01  0.10202727909E+01 0.  0.
     999903    2    3    3    0    0  0.10757714000E+00 -0.13312567295E-01  0.75743887547E-01  0.13358393462E+00  0.18906760414E-01 0.  0.
         14    1    1    2    0    0 -0.21890405872E-01 -0.35471908517E-02 -0.74350551782E-02  0.23389152992E-01  0.00000000000E+00 0.  1.
     999901    1    3    3    0    0 -0.85686734129E-01  0.16859758147E-01 -0.68308832369E-01  0.88695691239E+00  0.88000000000E+00 0. -1.
        -11    1    4    4    0    0  0.96611483289E-01 -0.15718323156E-01  0.62153618252E-01  0.11594903091E+00  0.51100000000E-03 0.  1.
         11    1    4    4    0    0  0.10965656712E-01  0.24057558608E-02  0.13590269296E-01  0.17634903711E-01  0.51100000000E-03 0. -1.
</event>
<event>
 8    1  0.1135368E+005  0.1043930E+01  0.7957747E-01            NaN
         13   -1    0    0    0    0  0.00000000000E+00  0.00000000000E+00  0.74505805969E-08  0.10566000000E+00  0.10566000000E+00 0.  1.
     999900   -1    0    0    0    0 -0.00000000000E+00 -0.00000000000E+00 -0.74505805969E-08  0.93827000000E+00  0.93827000000E+00 0.  1.
     999902    2    1    2    0    0 -0.70231605741E-02  0.11931803964E-01 -0.18941602924E-01  0.10204677526E+01  0.10201979990E+01 0.  0.
     999903    2    3    3    0    0 -0.66940393926E-01 -0.97685961465E-01 -0.52527699058E-01  0.13101052757E+00  0.19520137314E-01 0.  0.
         14    1    1    2    0    0  0.70231605741E-02 -0.11931803964E-01  0.18941602924E-01  0.23462247370E-01  0.00000000000E+00 0.  1.
     999901    1    3    3    0    0  0.59917233352E-01  0.10961776543E+00  0.33586096133E-01  0.88945722506E+00  0.88000000000E+00 0. -1.
        -11    1    4    4    0    0 -0.64648330767E-01 -0.83421785959E-01 -0.47012023716E-01  0.11553784029E+00  0.51100000000E-03 0.  1.
         11    1    4    4    0    0 -0.22920631589E-02 -0.14264175506E-01 -0.55156753418E-02  0.15472687287E-01  0.51100000000E-03 0. -1.
</event>
<event>
 8    1  0.1135368E+005  0.1043930E+01  0.7957747E-01            NaN
         13   -1    0    0    0    0  0.00000000000E+00  0.00000000000E+00  0.74505805969E-08  0.10566000000E+00  0.10566000000E+00 0. -1.
     999900   -1    0    0    0    0 -0.00000000000E+00 -0.00000000000E+00 -0.74505805969E-08  0.93827000000E+00  0.93827000000E+00 0.  1.
     999902    2    1    2    0    0 -0.84985169642E-02 -0.21098031163E-01 -0.91289498730E-02  0.10194210336E+01  0.10191263681E+01 0.  0.
     999903    2    3    3    0    0 -0.12260188410E+00  0.36019142274E-01 -0.10096763740E-01  0.13021752112E+00  0.22935945000E-01 0.  0.
         14    1    1    2    0    0  0.84985169642E-02  0.21098031163E-01  0.91289498730E-02  0.24508966428E-01  0.00000000000E+00 0.  1.
     999901    1    3    3    0    0  0.11410336714E+00 -0.57117173438E-01  0.96781386665E-03  0.88920351245E+00  0.88000000000E+00 0. -1.
        -11    1    4    4    0    0 -0.59012718104E-01  0.73446035478E-02 -0.10872836322E-01  0.60455965711E-01  0.51100000000E-03 0.  1.
         11    1    4    4    0    0 -0.63589165998E-01  0.28674538726E-01  0.77607258226E-03  0.69761555410E-01  0.51100000000E-03 0. -1.
</event>
<event>
 8    1  0.1135368E+005  0.1043930E+01  0.7957747E-01            NaN
         13   -1    0    0    0    0  0.00000000000E+00  0.00000000000E+00  0.74505805969E-08  0.10566000000E+00  0.10566000000E+00 0. -1.
     999900   -1    0    0    0    0 -0.00000000000E+00 -0.00000000000E+00 -0.74505805969E-08  0.93827000000E+00  0.93827000000E+00 0.  1.
     999902    2    1    2    0    0 -0.23163214355E-01 -0.29067496915E-02  0.22967255056E-02  0.10204724076E+01  0.10202027622E+01 0.  0.
     999903    2    3    3    0    0 -0.75569511338E-01  0.82551017952E-01  0.67684218186E-01  0.13237051355E+00  0.20380820847E-01 0.  0.
         14    1    1    2    0    0  0.23163214355E-01  0.29067496915E-02 -0.22967255056E-02  0.23457592397E-01  0.00000000000E+00 0.  1.
     999901    1    3    3    0    0  0.52406296983E-01 -0.85457767644E-01 -0.65387492680E-01  0.88810189405E+00  0.88000000000E+00 0.  1.
        -11    1    4    4    0    0 -0.54386759133E-01  0.45082741487E-01  0.44276820906E-01  0.83373084023E-01  0.51100000000E-03 0. -1.
         11    1    4    4    0    0 -0.21182752205E-01  0.37468276465E-01  0.23407397280E-01  0.48997429531E-01  0.51100000000E-03 0.  1.
</event>
<event>
 8    1  0.1135368E+005  0.1043930E+01  0.7957747E-01            NaN
         13   -1    0    0    0    0  0.00000000000E+00  0.00000000000E+00  0.74505805969E-08  0.10566000000E+00  0.10566000000E+00 0.  1.
     999900   -1    0    0    0    0 -0.00000000000E+00 -0.00000000000E+00 -0.74505805969E-08  0.93827000000E+00  0.93827000000E+00 0. -1.
     999902    2    1    2    0    0  0.14511831352E-01 -0.12914855442E-01 -0.13203204423E-01  0.10204414635E+01  0.10201710979E+01 0.  0.
     999903    2    3    3    0    0  0.10180281653E+00 -0.70189995363E-01  0.43448044108E-01  0.13246087716E+00  0.19175571396E-01 0.  0.
         14    1    1    2    0    0 -0.14511831352E-01  0.12914855442E-01  0.13203204423E-01  0.23488536509E-01  0.00000000000E+00 0.  1.
     999901    1    3    3    0    0 -0.87290985177E-01  0.57275139920E-01 -0.56651248531E-01  0.88798058633E+00  0.88000000000E+00 0. -1.
        -11    1    4    4    0    0  0.53374017807E-01 -0.30843211519E-01  0.12890166197E-01  0.62980211013E-01  0.51100000000E-03 0.  1.
         11    1    4    4    0    0  0.48428798722E-01 -0.39346783843E-01  0.30557877911E-01  0.69480666144E-01  0.51100000000E-03 0. -1.
</event>
<event>
 8    1  0.1135368E+005  0.1043930E+01  0.7957747E-01            NaN
         13   -1    0    0    0    0  0.00000000000E+00  0.00000000000E+00  0.74505805969E-08  0.10566000000E+00  0.10566000000E+00 0. -1.
     999900   -1    0    0    0    0 -0.00000000000E+00 -0.00000000000E+00 -0.74505805969E-08  0.93827000000E+00  0.93827000000E+00 0.  1.
     999902    2    1    2    0    0 -0.33866497531E-02 -0.23171585488E-01 -0.17373020348E-02  0.10204478794E+01  0.10201776632E+01 0.  0.
     999903    2    3    3    0    0 -0.86021350514E-01 -0.32603069990E-01  0.92075004196E-01  0.13156194999E+00  0.19186124393E-01 0.  0.
         14    1    1    2    0    0  0.33866497531E-02  0.23171585488E-01  0.17373020348E-02  0.23482120623E-01  0.00000000000E+00 0.  1.
     999901    1    3    3    0    0  0.82634700761E-01  0.94314845017E-02 -0.93812306231E-01  0.88888592939E+00  0.88000000000E+00 0.  1.
        -11    1    4    4    0    0 -0.47267052858E-01 -0.22196932325E-01  0.63918512946E-01  0.82539175600E-01  0.51100000000E-03 0.  1.
         11    1    4    4    0    0 -0.38754297656E-01 -0.10406137665E-01  0.28156491250E-01  0.49022774385E-01  0.51100000000E-03 0. -1.
</event>
<event>
 8    1  0.1135368E+005  0.1043930E+01  0.7957747E-01            NaN
         13   -1    0    0    0    0  0.00000000000E+00  0.00000000000E+00  0.74505805969E-08  0.10566000000E+00  0.10566000000E+00 0. -1.
     999900   -1    0    0    0    0 -0.00000000000E+00 -0.00000000000E+00 -0.74505805969E-08  0.93827000000E+00  0.93827000000E+00 0.  1.
     999902    2    1    2    0    0  0.10629305057E-01 -0.17897409269E-01  0.75233663456E-02  0.10217963056E+01  0.10215565524E+01 0.  0.
     999903    2    3    3    0    0 -0.53801395040E-01  0.10998575270E+00 -0.34148770957E-01  0.12924827598E+00  0.23399196162E-01 0.  0.
         14    1    1    2    0    0 -0.10629305057E-01  0.17897409269E-01 -0.75233663456E-02  0.22133694353E-01  0.00000000000E+00 0. -1.
     999901    1    3    3    0    0  0.64430700097E-01 -0.12788316197E+00  0.41672137303E-01  0.89254802966E+00  0.88000000000E+00 0. -1.
        -11    1    4    4    0    0 -0.28035881141E-01  0.32298686669E-01 -0.10307632738E-01  0.43996865861E-01  0.51100000000E-03 0. -1.
         11    1    4    4    0    0 -0.25765513899E-01  0.77687066032E-01 -0.23841138219E-01  0.85251410121E-01  0.51100000000E-03 0.  1.
</event>
<event>
 8    1  0.1135368E+005  0.1043930E+01  0.7957747E-01            NaN
         13   -1    0    0    0    0  0.00000000000E+00  0.00000000000E+00  0.74505805969E-08  0.10566000000E+00  0.10566000000E+00 0.  1.
     999900   -1    0    0    0    0 -0.00000000000E+00 -0.00000000000E+00 -0.74505805969E-08  0.93827000000E+00  0.93827000000E+00 0. -1.
     999902    2    1    2    0    0 -0.97325644813E-02  0.30420950460E-02 -0.17201235701E-01  0.10239335087E+01  0.10237382335E+01 0.  0.
     999903    2    3    3    0    0  0.82555445680E-01  0.95725637033E-01 -0.39875434448E-01  0.13397764742E+00  0.19523333222E-01 0.  0.
         14    1    1    2    0    0  0.97325644813E-02 -0.30420950460E-02  0.17201235701E-01  0.19996491275E-01  0.00000000000E+00 0.  1.
     999901    1    3    3    0    0 -0.92288010161E-01 -0.92683541987E-01  0.22674198747E-01  0.88995586130E+00  0.88000000000E+00 0.  1.
        -11    1    4    4    0    0  0.38735725966E-01  0.52743759891E-01 -0.11877186002E-01  0.66510821239E-01  0.51100000000E-03 0.  1.
         11    1    4    4    0    0  0.43819719714E-01  0.42981877143E-01 -0.27998248447E-01  0.67466826186E-01  0.51100000000E-03 0. -1.
</event>
<event>
 8    1  0.1135368E+005  0.1043930E+01  0.7957747E-01            NaN
         13   -1    0    0    0    0  0.00000000000E+00  0.00000000000E+00  0.74505805969E-08  0.10566000000E+00  0.10566000000E+00 0. -1.
     999900   -1    0    0    0    0 -0.00000000000E+00 -0.00000000000E+00 -0.74505805969E-08  0.93827000000E+00  0.93827000000E+00 0. -1.
     999902    2    1    2    0    0  0.13649922517E-01 -0.69307389929E-02  0.18821702411E-01  0.10196686726E+01  0.10193800026E+01 0.  0.
     999903    2    3    3    0    0 -0.15667665139E-01  0.10863435411E-01 -0.12456742545E+00  0.12740380405E+00  0.18740219900E-01 0.  0.
         14    1    1    2    0    0 -0.13649922517E-01  0.69307389929E-02 -0.18821702411E-01  0.24261327444E-01  0.00000000000E+00 0.  1.
     999901    1    3    3    0    0  0.29317587656E-01 -0.17794174404E-01  0.14338912786E+00  0.89226486851E+00  0.88000000000E+00 0.  1.
        -11    1    4    4    0    0 -0.19202171609E-01  0.10138540432E-01 -0.87413833778E-01  0.90071931551E-01  0.51100000000E-03 0. -1.
         11    1    4    4    0    0  0.35345064700E-02  0.72489497949E-03 -0.37153591674E-01  0.37331872495E-01  0.51100000000E-03 0.  1.
</event>
<event>
 8    1  0.1135368E+005  0.1043930E+01  0.7957747E-01            NaN
         13   -1    0    0    0    0  0.00000000000E+00  0.00000000000E+00  0.74505805969E-08  0.10566000000E+00  0.10566000000E+00 0. -1.
     999900   -1    0    0    0    0 -0.00000000000E+00 -0.00000000000E+00 -0.74505805969E-08  0.93827000000E+00  0.93827000000E+00 0.  1.
     999902    2    1    2    0    0 -0.18067914195E-01 -0.28982932750E-02  0.14788296973E-01  0.10204024979E+01  0.10201312241E+01 0.  0.
     999903    2    3    3    0    0  0.10053473523E+00  0.19629216931E-01 -0.73669429043E-01  0.12776659988E+00  0.20114177155E-01 0.  0.
         14    1    1    2    0    0  0.18067914195E-01  0.28982932750E-02 -0.14788296973E-01  0.23527502090E-01  0.00000000000E+00 0. -1.
     999901    1    3    3    0    0 -0.11860264943E+00 -0.22527510206E-01  0.88457726016E-01  0.89263589803E+00  0.88000000000E+00 0. -1.
        -11    1    4    4    0    0  0.72729915929E-01  0.62995538693E-02 -0.45664895800E-01  0.86109632907E-01  0.51100000000E-03 0. -1.
         11    1    4    4    0    0  0.27804819304E-01  0.13329663062E-01 -0.28004533243E-01  0.41656966969E-01  0.51100000000E-03 0.  1.
</event>
<event>
 8    1  0.1135368E+005  0.1043930E+01  0.7957747E-01            NaN
         13   -1    0    0    0    0  0.00000000000E+00  0.00000000000E+00  0.74505805969E-08  0.10566000000E+00  0.10566000000E+00 0.  1.
     999900   -1    0    0    0    0 -0.00000000000E+00 -0.00000000000E+00 -0.74505805969E-08  0.93827000000E+00  0.93827000000E+00 0. -1.
     999902    2    1    2    0    0 -0.14439616380E-01 -0.13704745687E-01 -0.67290031523E-02  0.10229156702E+01  0.10226997928E+01 0.  0.
     999903    2    3    3    0    0  0.57090110739E-01  0.10326402361E+00  0.52296474722E-01  0.13034511166E+00  0.18226012924E-01 0.  0.
         14    1    1    2    0    0  0.14439616380E-01  0.13704745687E-01  0.67290031523E-02  0.21014329848E-01  0.00000000000E+00 0. -1.
     999901    1    3    3    0    0 -0.71529727119E-01 -0.11696876930E+00 -0.59025477875E-01  0.89257055849E+00  0.88000000000E+00 0.  1.
        -11    1    4    4    0    0  0.24187627736E-01  0.43538128437E-01  0.12355556262E-01  0.51317938919E-01  0.51100000000E-03 0.  1.
         11    1    4    4    0    0  0.32902483003E-01  0.59725895177E-01  0.39940918460E-01  0.79027172738E-01  0.51100000000E-03 0. -1.
</event>
<event>
 8    1  0.1135368E+005  0.1043930E+01  0.7957747E-01            NaN
         13   -1    0    0    0    0  0.00000000000E+00  0.00000000000E+00  0.74505805969E-08  0.10566000000E+00  0.10566000000E+00 0. -1.
     999900   -1    0    0    0    0 -0.00000000000E+00 -0.00000000000E+00 -0.74505805969E-08  0.93827000000E+00  0.93827000000E+00 0.  1.
     999902    2    1    2    0    0  0.23457688102E-02 -0.22101070460E-01  0.55526359993E-02  0.10210216672E+01  0.10207646414E+01 0.  0.
     999903    2    3    3    0    0 -0.34679278563E-01  0.12150696945E+00 -0.12969050301E-01  0.12842031375E+00  0.18894039545E-01 0.  0.
         14    1    1    2    0    0 -0.23457688102E-02  0.22101070460E-01 -0.55526359993E-02  0.22908332836E-01  0.00000000000E+00 0. -1.
     999901    1    3    3    0    0  0.37025047374E-01 -0.14360803991E+00  0.18521686300E-01  0.89260135342E+00  0.88000000000E+00 0.  1.
        -11    1    4    4    0    0 -0.33491483431E-01  0.87159097884E-01 -0.10430973102E-01  0.93954532234E-01  0.51100000000E-03 0.  1.
         11    1    4    4    0    0 -0.11877951320E-02  0.34347871566E-01 -0.25380771990E-02  0.34465781513E-01  0.51100000000E-03 0. -1.
</event>
<event>
 8    1  0.1135368E+005  0.1043930E+01  0.7957747E-01            NaN
         13   -1    0    0    0    0  0.00000000000E+00  0.00000000000E+00  0.74505805969E-08  0.10566000000E+00  0.10566000000E+00 0. -1.
     999900   -1    0    0    0    0 -0.00000000000E+00 -0.00000000000E+00 -0.74505805969E-08  0.93827000000E+00  0.93827000000E+00 0. -1.
     999902    2    1    2    0    0  0.16853734189E-01  0.10000483611E-01 -0.10732306616E-01  0.10215863111E+01  0.10213419362E+01 0.  0.
     999903    2    3    3    0    0  0.25348030789E-01 -0.11584501279E+00  0.50898180004E-01  0.13045918272E+00  0.19141159247E-01 0.  0.
         14    1    1    2    0    0 -0.16853734189E-01 -0.10000483611E-01  0.10732306616E-01  0.22343688904E-01  0.00000000000E+00 0. -1.
     999901    1    3    3    0    0 -0.84942966002E-02  0.12584549640E+00 -0.61630486620E-01  0.89112712837E+00  0.88000000000E+00 0. -1.
        -11    1    4    4    0    0  0.24013021241E-01 -0.10394672709E+00  0.39051624974E-01  0.11360826465E+00  0.51100000000E-03 0.  1.
         11    1    4    4    0    0  0.13350095477E-02 -0.11898285694E-01  0.11846555031E-01  0.16850918077E-01  0.51100000000E-03 0. -1.
</event>
<event>
 8    1  0.1135368E+005  0.1043930E+01  0.7957747E-01            NaN
         13   -1    0    0    0    0  0.00000000000E+00  0.00000000000E+00  0.74505805969E-08  0.10566000000E+00  0.10566000000E+00 0. -1.
     999900   -1    0    0    0    0 -0.00000000000E+00 -0.00000000000E+00 -0.74505805969E-08  0.93827000000E+00  0.93827000000E+00 0.  1.
     999902    2    1    2    0    0 -0.13158110581E-02 -0.16158277724E-01  0.17773150629E-01  0.10198736873E+01  0.10195899332E+01 0.  0.
     999903    2    3    3    0    0 -0.74781772583E-01 -0.91439051776E-01 -0.51869574900E-01  0.13087731404E+00  0.22022825179E-01 0.  0.
         14    1    1    2    0    0  0.13158110581E-02  0.16158277724E-01 -0.17773150629E-01  0.24056312706E-01  0.00000000000E+00 0.  1.
     999901    1    3    3    0    0  0.73465961525E-01  0.75280774052E-01  0.69642725529E-01  0.88899637326E+00  0.88000000000E+00 0.  1.
        -11    1    4    4    0    0 -0.11843716382E-01 -0.66272544072E-02 -0.91229424775E-03  0.13612035869E-01  0.51100000000E-03 0. -1.
         11    1    4    4    0    0 -0.62938056202E-01 -0.84811797369E-01 -0.50957280652E-01  0.11726527817E+00  0.51100000000E-03 0.  1.
</event>
<event>
 8    1  0.1135368E+005  0.1043930E+01  0.7957747E-01            NaN
         13   -1    0    0    0    0  0.00000000000E+00  0.00000000000E+00  0.74505805969E-08  0.10566000000E+00  0.10566000000E+00 0. -1.
     999900   -1    0    0    0    0 -0.00000000000E+00 -0.00000000000E+00 -0.74505805969E-08  0.93827000000E+00  0.93827000000E+00 0. -1.
     999902    2    1    2    0    0  0.21802346699E-01  0.13385470166E-02  0.89244491030E-02  0.10203338176E+01  0.10200609392E+01 0.  0.
     999903    2    3    3    0    0  0.10674578858E+00 -0.67046673304E-01  0.38288036462E-01  0.13311673771E+00  0.19083300078E-01 0.  0.
         14    1    1    2    0    0 -0.21802346699E-01 -0.13385470166E-02 -0.89244491030E-02  0.23596182350E-01  0.00000000000E+00 0. -1.
     999901    1    3    3    0    0 -0.84943441878E-01  0.68385220321E-01 -0.29363587359E-01  0.88721707994E+00  0.88000000000E+00 0. -1.
        -11    1    4    4    0    0  0.84039570868E-01 -0.48726680018E-01  0.21655906169E-01  0.99529785544E-01  0.51100000000E-03 0. -1.
         11    1    4    4    0    0  0.22706217709E-01 -0.18319993286E-01  0.16632130293E-01  0.33586952165E-01  0.51100000000E-03 0.  1.
</event>
<event>
 8    1  0.1135368E+005  0.1043930E+01  0.7957747E-01            NaN
         13   -1    0    0    0    0  0.00000000000E+00  0.00000000000E+00  0.74505805969E-08  0.10566000000E+00  0.10566000000E+00 0. -1.
     999900   -1    0    0    0    0 -0.00000000000E+00 -0.00000000000E+00 -0.74505805969E-08  0.93827000000E+00  0.93827000000E+00 0. -1.
     999902    2    1    2    0    0 -0.15765886619E-01  0.91014230496E-02 -0.17637026643E-01  0.10185831305E+01  0.10182677104E+01 0.  0.
     999903    2    3    3    0    0  0.93387221526E-01 -0.43254442653E-01  0.70523866878E-01  0.12593096938E+00  0.17113541272E-01 0.  0.
         14    1    1    2    0    0  0.15765886619E-01 -0.91014230496E-02  0.17637026643E-01  0.25346869456E-01  0.00000000000E+00 0. -1.
     999901    1    3    3    0    0 -0.10915310815E+00  0.52355865703E-01 -0.88160893521E-01  0.89265216117E+00  0.88000000000E+00 0. -1.
        -11    1    4    4    0    0  0.84461016562E-01 -0.32939935017E-01  0.60401570401E-01  0.10893719964E+00  0.51100000000E-03 0.  1.
         11    1    4    4    0    0  0.89262049642E-02 -0.10314507637E-01  0.10122296477E-01  0.16993769735E-01  0.51100000000E-03 0. -1.
</event>
<event>
 8    1  0.1135368E+005  0.1043930E+01  0.7957747E-01            NaN
         13   -1    0    0    0    0  0.00000000000E+00  0.00000000000E+00  0.74505805969E-08  0.10566000000E+00  0.10566000000E+00 0.  1.
     999900   -1    0    0    0    0 -0.00000000000E+00 -0.00000000000E+00 -0.74505805969E-08  0.93827000000E+00  0.93827000000E+00 0.  1.
     999902    2    1    2    0    0 -0.18861008023E-01  0.48800577877E-02  0.15750842101E-01  0.10188772234E+01  0.10185691703E+01 0.  0.
     999903    2    3    3    0    0  0.98367477570E-01  0.48339330993E-01 -0.60414257776E-01  0.12678286254E+00  0.20277083812E-01 0.  0.
         14    1    1    2    0    0  0.18861008023E-01 -0.48800577877E-02 -0.15750842101E-01  0.25052776583E-01  0.00000000000E+00 0. -1.
     999901    1    3    3    0    0 -0.11722848559E+00 -0.43459273205E-01  0.76165099877E-01  0.89209436087E+00  0.88000000000E+00 0. -1.
        -11    1    4    4    0    0  0.19784177893E-01  0.13331267679E-01 -0.22399443465E-01  0.32728161900E-01  0.51100000000E-03 0. -1.
         11    1    4    4    0    0  0.78583299676E-01  0.35008063314E-01 -0.38014814312E-01  0.94054700644E-01  0.51100000000E-03 0.  1.
</event>
<event>
 8    1  0.1135368E+005  0.1043930E+01  0.7957747E-01            NaN
         13   -1    0    0    0    0  0.00000000000E+00  0.00000000000E+00  0.74505805969E-08  0.10566000000E+00  0.10566000000E+00 0. -1.
     999900   -1    0    0    0    0 -0.00000000000E+00 -0.00000000000E+00 -0.74505805969E-08  0.93827000000E+00  0.93827000000E+00 0. -1.
     999902    2    1    2    0    0  0.15297836661E-01 -0.10790245781E-01 -0.15085122896E-01  0.10198880753E+01  0.10196046646E+01 0.  0.
     999903    2    3    3    0    0  0.58166564694E-01  0.10539775544E+00 -0.46527714040E-01  0.13066031145E+00  0.20377750458E-01 0.  0.
         14    1    1    2    0    0 -0.15297836661E-01  0.10790245781E-01  0.15085122896E-01  0.24041924700E-01  0.00000000000E+00 0. -1.
     999901    1    3    3    0    0 -0.42868728033E-01 -0.11618800122E+00  0.31442591144E-01  0.88922776385E+00  0.88000000000E+00 0. -1.
        -11    1    4    4    0    0  0.51580053066E-01  0.10138777603E+00 -0.40124930500E-01  0.12062443439E+00  0.51100000000E-03 0.  1.
         11    1    4    4    0    0  0.65865116280E-02  0.40099794076E-02 -0.64027835400E-02  0.10035877059E-01  0.51100000000E-03 0. -1.
</event>
<event>
 8    1  0.1135368E+005  0.1043930E+01  0.7957747E-01            NaN
         13   -1    0    0    0    0  0.00000000000E+00  0.00000000000E+00  0.74505805969E-08  0.10566000000E+00  0.10566000000E+00 0.  1.
     999900   -1    0    0    0    0 -0.00000000000E+00 -0.00000000000E+00 -0.74505805969E-08  0.93827000000E+00  0.93827000000E+00 0.  1.
     999902    2    1    2    0    0  0.44056746883E-02 -0.22588319653E-01  0.72302335984E-02  0.10198070144E+01  0.10195216664E+01 0.  0.
     999903    2    3    3    0    0 -0.12532495411E+00  0.23634230286E-01  0.26444321085E-02  0.12908394314E+00  0.19767407314E-01 0.  0.
         14    1    1    2    0    0 -0.44056746883E-02  0.22588319653E-01 -0.72302335984E-02  0.24122985555E-01  0.00000000000E+00 0.  1.
     999901    1    3    3    0    0  0.12973062880E+00 -0.46222549939E-01  0.45858014899E-02  0.89072307130E+00  0.88000000000E+00 0.  1.
        -11    1    4    4    0    0 -0.77870925551E-01  0.24051277567E-01 -0.73078502059E-03  0.81505460962E-01  0.51100000000E-03 0. -1.
         11    1    4    4    0    0 -0.47454028561E-01 -0.41704728079E-03  0.33752171291E-02  0.47578482182E-01  0.51100000000E-03 0.  1.
</event>
<event>
 8    1  0.1201269E+005  0.1043930E+01  0.7957747E-01            NaN
         13   -1    0    0    0    0  0.00000000000E+00  0.00000000000E+00  0.74505805969E-08  0.10566000000E+00  0.10566000000E+00 0.  1.
     999900   -1    0    0    0    0 -0.00000000000E+00 -0.00000000000E+00 -0.74505805969E-08  0.93827000000E+00  0.93827000000E+00 0.  1.
     999902    2    1    2    0    0 -0.15415270544E-02 -0.19084838534E-01  0.13927494581E-01  0.10202533771E+01  0.10199786130E+01 0.  0.
     999903    2    3    3    0    0 -0.10688130693E+00 -0.69293964718E-01 -0.28854234479E-01  0.13151961384E+00  0.15478199536E-01 0.  0.
         14    1    1    2    0    0  0.15415270544E-02  0.19084838534E-01 -0.13927494581E-01  0.23676622919E-01  0.00000000000E+00 0.  1.
     999901    1    3    3    0    0  0.10533977988E+00  0.50209126184E-01  0.42781729060E-01  0.88873376324E+00  0.88000000000E+00 0. -1.
        -11    1    4    4    0    0 -0.48098684092E-01 -0.32790575057E-01 -0.54372785666E-02  0.58468199417E-01  0.51100000000E-03 0. -1.
         11    1    4    4    0    0 -0.58782622839E-01 -0.36503389662E-01 -0.23416955912E-01  0.73051414427E-01  0.51100000000E-03 0.  1.
</event>
<event>
 8    1  0.1135368E+005  0.1043930E+01  0.7957747E-01            NaN
         13   -1    0    0    0    0  0.00000000000E+00  0.00000000000E+00  0.74505805969E-08  0.10566000000E+00  0.10566000000E+00 0.  1.
     999900   -1    0    0    0    0 -0.00000000000E+00 -0.00000000000E+00 -0.74505805969E-08  0.93827000000E+00  0.93827000000E+00 0. -1.
     999902    2    1    2    0    0  0.22222673409E-01  0.33048882902E-02 -0.75544544489E-02  0.10202268508E+01  0.10199514635E+01 0.  0.
     999903    2    3    3    0    0 -0.76473162282E-01  0.42531620672E-01  0.91790296626E-01  0.12829132393E+00  0.19393863353E-01 0.  0.
         14    1    1    2    0    0 -0.22222673409E-01 -0.33048882902E-02  0.75544544489E-02  0.23703149202E-01  0.00000000000E+00 0. -1.
     999901    1    3    3    0    0  0.98695835691E-01 -0.39226732382E-01 -0.99344751075E-01  0.89193552686E+00  0.88000000000E+00 0. -1.
        -11    1    4    4    0    0 -0.33623942363E-01  0.21800282072E-01  0.28868507906E-01  0.49391028215E-01  0.51100000000E-03 0. -1.
         11    1    4    4    0    0 -0.42849219919E-01  0.20731338600E-01  0.62921788720E-01  0.78900295719E-01  0.51100000000E-03 0.  1.
</event>
<event>
 8    1  0.1135368E+005  0.1043930E+01  0.7957747E-01            NaN
         13   -1    0    0    0    0  0.00000000000E+00  0.00000000000E+00  0.74505805969E-08  0.10566000000E+00  0.10566000000E+00 0. -1.
     999900   -1    0    0    0    0 -0.00000000000E+00 -0.00000000000E+00 -0.74505805969E-08  0.93827000000E+00  0.93827000000E+00 0. -1.
     999902    2    1    2    0    0 -0.18484005284E-01  0.11291069064E-01  0.97206348422E-02  0.10201889505E+01  0.10199126714E+01 0.  0.
     999903    2    3    3    0    0  0.86602570041E-01 -0.91944080312E-01 -0.24365804028E-02  0.12786138601E+00  0.19719991531E-01 0.  0.
         14    1    1    2    0    0  0.18484005284E-01 -0.11291069064E-01 -0.97206348422E-02  0.23741049549E-01  0.00000000000E+00 0.  1.
     999901    1    3    3    0    0 -0.10508657532E+00  0.10323514938E+00  0.12157215245E-01  0.89232756444E+00  0.88000000000E+00 0. -1.
        -11    1    4    4    0    0  0.47047240188E-01 -0.52230176386E-01  0.83087347842E-02  0.70786512341E-01  0.51100000000E-03 0.  1.
         11    1    4    4    0    0  0.39555329853E-01 -0.39713903926E-01 -0.10745315187E-01  0.57074873669E-01  0.51100000000E-03 0. -1.
</event>
<event>
 8    1  0.1135368E+005  0.1043930E+01  0.7957747E-01            NaN
         13   -1    0    0    0    0  0.00000000000E+00  0.00000000000E+00  0.74505805969E-08  0.10566000000E+00  0.10566000000E+00 0.  1.
     999900   -1    0    0    0    0 -0.00000000000E+00 -0.00000000000E+00 -0.74505805969E-08  0.93827000000E+00  0.93827000000E+00 0. -1.
     999902    2    1    2    0    0  0.13184206343E-01 -0.13907514243E-01  0.13760409069E-01  0.10203378168E+01  0.10200650319E+01 0.  0.
     999903    2    3    3    0    0  0.63829482859E-01  0.33292962651E-01 -0.10593345342E+00  0.12954073007E+00  0.19397936744E-01 0.  0.
         14    1    1    2    0    0 -0.13184206343E-01  0.13907514243E-01 -0.13760409069E-01  0.23592183177E-01  0.00000000000E+00 0. -1.
     999901    1    3    3    0    0 -0.50645276516E-01 -0.47200476894E-01  0.11969386249E+00  0.89079708675E+00  0.88000000000E+00 0.  1.
        -11    1    4    4    0    0  0.35531986576E-01  0.78159042571E-02 -0.48531413841E-01  0.60656159454E-01  0.51100000000E-03 0. -1.
         11    1    4    4    0    0  0.28297496283E-01  0.25477058394E-01 -0.57402039576E-01  0.68884570615E-01  0.51100000000E-03 0.  1.
</event>
<event>
 8    1  0.1135368E+005  0.1043930E+01  0.7957747E-01            NaN
         13   -1    0    0    0    0  0.00000000000E+00  0.00000000000E+00  0.74505805969E-08  0.10566000000E+00  0.10566000000E+00 0. -1.
     999900   -1    0    0    0    0 -0.00000000000E+00 -0.00000000000E+00 -0.74505805969E-08  0.93827000000E+00  0.93827000000E+00 0. -1.
     999902    2    1    2    0    0  0.96099504023E-02  0.20475827307E-01 -0.77935361462E-02  0.10200061655E+01  0.10197255650E+01 0.  0.
     999903    2    3    3    0    0  0.89706699447E-01 -0.86445153904E-01  0.27824731768E-01  0.12921087678E+00  0.20029438856E-01 0.  0.
         14    1    1    2    0    0 -0.96099504023E-02 -0.20475827307E-01  0.77935361462E-02  0.23923834482E-01  0.00000000000E+00 0.  1.
     999901    1    3    3    0    0 -0.80096749044E-01  0.10692098121E+00 -0.35618267915E-01  0.89079528874E+00  0.88000000000E+00 0.  1.
        -11    1    4    4    0    0  0.52370406444E-02 -0.12363887726E-01  0.61840264226E-02  0.14791741554E-01  0.51100000000E-03 0.  1.
         11    1    4    4    0    0  0.84469658802E-01 -0.74081266178E-01  0.21640705346E-01  0.11441913522E+00  0.51100000000E-03 0. -1.
</event>
<event>
 8    1  0.1135368E+005  0.1043930E+01  0.7957747E-01            NaN
         13   -1    0    0    0    0  0.00000000000E+00  0.00000000000E+00  0.74505805969E-08  0.10566000000E+00  0.10566000000E+00 0. -1.
     999900   -1    0    0    0    0 -0.00000000000E+00 -0.00000000000E+00 -0.74505805969E-08  0.93827000000E+00  0.93827000000E+00 0.  1.
     999902    2    1    2    0    0  0.53285486519E-02 -0.23575230513E-01 -0.26727744499E-02  0.10196127500E+01  0.10193227317E+01 0.  0.
     999903    2    3    3    0    0  0.38852015873E-01 -0.54391376161E-01 -0.11157534640E+00  0.13173143593E+00  0.20885697243E-01 0.  0.
         14    1    1    2    0    0 -0.53285486519E-02  0.23575230513E-01  0.26727744499E-02  0.24317250003E-01  0.00000000000E+00 0.  1.
     999901    1    3    3    0    0 -0.33523467221E-01  0.30816145648E-01  0.10890257195E+00  0.88788131406E+00  0.88000000000E+00 0. -1.
        -11    1    4    4    0    0  0.10926226813E-01 -0.19232174880E-01 -0.20381195506E-01  0.30081775783E-01  0.51100000000E-03 0. -1.
         11    1    4    4    0    0  0.27925789060E-01 -0.35159201281E-01 -0.91194150898E-01  0.10164966015E+00  0.51100000000E-03 0.  1.
</event>
<event>
 8    1  0.1135368E+005  0.1043930E+01  0.7957747E-01            NaN
         13   -1    0    0    0    0  0.00000000000E+00  0.00000000000E+00  0.74505805969E-08  0.10566000000E+00  0.10566000000E+00 0.  1.
     999900   -1    0    0    0    0 -0.00000000000E+00 -0.00000000000E+00 -0.74505805969E-08  0.93827000000E+00  0.93827000000E+00 0. -1.
     999902    2    1    2    0    0 -0.15857157990E-01  0.80782978311E-02 -0.12109225205E-01  0.10224046268E+01  0.10221780076E+01 0.  0.
     999903    2    3    3    0    0 -0.10159531333E+00  0.58546890776E-01  0.61053749315E-01  0.13378157344E+00  0.20508607379E-01 0.  0.
         14    1    1    2    0    0  0.15857157990E-01 -0.80782978311E-02  0.12109225205E-01  0.21525373177E-01  0.00000000000E+00 0. -1.
     999901    1    3    3    0    0  0.85738155345E-01 -0.50468592945E-01 -0.73162974520E-01  0.88862305338E+00  0.88000000000E+00 0. -1.
        -11    1    4    4    0    0 -0.44152667680E-01  0.28582978329E-01  0.38477676052E-01  0.65170832347E-01  0.51100000000E-03 0. -1.
         11    1    4    4    0    0 -0.57442645654E-01  0.29963912447E-01  0.22576073263E-01  0.68610741097E-01  0.51100000000E-03 0.  1.
</event>
<event>
 8    1  0.1135368E+005  0.1043930E+01  0.7957747E-01            NaN
         13   -1    0    0    0    0  0.00000000000E+00  0.00000000000E+00  0.74505805969E-08  0.10566000000E+00  0.10566000000E+00 0. -1.
     999900   -1    0    0    0    0 -0.00000000000E+00 -0.00000000000E+00 -0.74505805969E-08  0.93827000000E+00  0.93827000000E+00 0. -1.
     999902    2    1    2    0    0 -0.15554528208E-01  0.68893067788E-02 -0.15946614879E-01  0.10206126155E+01  0.10203462209E+01 0.  0.
     999903    2    3    3    0    0 -0.63238460261E-01 -0.91996829960E-01 -0.68789565681E-01  0.13221821945E+00  0.16945017816E-01 0.  0.
         14    1    1    2    0    0  0.15554528208E-01 -0.68893067788E-02  0.15946614879E-01  0.23317384539E-01  0.00000000000E+00 0.  1.
     999901    1    3    3    0    0  0.47683932054E-01  0.98886136739E-01  0.52842950802E-01  0.88839439601E+00  0.88000000000E+00 0.  1.
        -11    1    4    4    0    0 -0.51268943081E-01 -0.61658428695E-01 -0.51464116888E-01  0.95284221159E-01  0.51100000000E-03 0. -1.
         11    1    4    4    0    0 -0.11969517181E-01 -0.30338401264E-01 -0.17325448793E-01  0.36933998290E-01  0.51100000000E-03 0.  1.
</event>
<event>
 8    1  0.1135368E+005  0.1043930E+01  0.7957747E-01            NaN
         13   -1    0    0    0    0  0.00000000000E+00  0.00000000000E+00  0.74505805969E-08  0.10566000000E+00  0.10566000000E+00 0.  1.
     999900   -1    0    0    0    0 -0.00000000000E+00 -0.00000000000E+00 -0.74505805969E-08  0.93827000000E+00  0.93827000000E+00 0.  1.
     999902    2    1    2    0    0 -0.38764832256E-02  0.23010236092E-01  0.22882422448E-02  0.10204835900E+01  0.10202142047E+01 0.  0.
     999903    2    3    3    0    0 -0.10691333439E-01 -0.91592939057E-01 -0.87269888308E-01  0.12851891099E+00  0.19937552015E-01 0.  0.
         14    1    1    2    0    0  0.38764832256E-02 -0.23010236092E-01 -0.22882422448E-02  0.23446409955E-01  0.00000000000E+00 0.  1.
     999901    1    3    3    0    0  0.68148502137E-02  0.11460317515E+00  0.89558130553E-01  0.89196467906E+00  0.88000000000E+00 0. -1.
        -11    1    4    4    0    0 -0.13718717410E-01 -0.68224686964E-01 -0.73513548708E-01  0.10122901799E+00  0.51100000000E-03 0.  1.
         11    1    4    4    0    0  0.30273839710E-02 -0.23368252093E-01 -0.13756339600E-01  0.27289892997E-01  0.51100000000E-03 0. -1.
</event>
<event>
 8    1  0.1135368E+005  0.1043930E+01  0.7957747E-01            NaN
         13   -1    0    0    0    0  0.00000000000E+00  0.00000000000E+00  0.74505805969E-08  0.10566000000E+00  0.10566000000E+00 0. -1.
     999900   -1    0    0    0    0 -0.00000000000E+00 -0.00000000000E+00 -0.74505805969E-08  0.93827000000E+00  0.93827000000E+00 0.  1.
     999902    2    1    2    0    0 -0.82297890788E-02 -0.12657477853E-01  0.15709804539E-01  0.10221414908E+01  0.10219092367E+01 0.  0.
     999903    2    3    3    0    0  0.13735920237E-01 -0.83374612903E-02  0.13191657958E+00  0.13421966458E+00  0.18834692095E-01 0.  0.
         14    1    1    2    0    0  0.82297890788E-02  0.12657477853E-01 -0.15709804539E-01  0.21788509186E-01  0.00000000000E+00 0.  1.
     999901    1    3    3    0    0 -0.21965709315E-01 -0.43200165624E-02 -0.11620677505E+00  0.88792182623E+00  0.88000000000E+00 0.  1.
        -11    1    4    4    0    0  0.24256212483E-02  0.92504901928E-03  0.85755105258E-01  0.85795912216E-01  0.51100000000E-03 0.  1.
         11    1    4    4    0    0  0.11310298988E-01 -0.92625103096E-02  0.46161474327E-01  0.48423752369E-01  0.51100000000E-03 0. -1.
</event>
<event>
 8    1  0.1135368E+005  0.1043930E+01  0.7957747E-01            NaN
         13   -1    0    0    0    0  0.00000000000E+00  0.00000000000E+00  0.74505805969E-08  0.10566000000E+00  0.10566000000E+00 0.  1.
     999900   -1    0    0    0    0 -0.00000000000E+00 -0.00000000000E+00 -0.74505805969E-08  0.93827000000E+00  0.93827000000E+00 0. -1.
     999902    2    1    2    0    0 -0.11257996255E-01 -0.18376080173E-01 -0.10951576217E-01  0.10197564644E+01  0.10194699048E+01 0.  0.
     999903    2    3    3    0    0 -0.12460123553E+00 -0.36869560033E-01 -0.14738225966E-01  0.13228644382E+00  0.19941302908E-01 0.  0.
         14    1    1    2    0    0  0.11257996255E-01  0.18376080173E-01  0.10951576217E-01  0.24173535609E-01  0.00000000000E+00 0. -1.
     999901    1    3    3    0    0  0.11334323928E+00  0.18493479859E-01  0.37866497485E-02  0.88747002057E+00  0.88000000000E+00 0.  1.
        -11    1    4    4    0    0 -0.94873103198E-01 -0.32760645865E-01 -0.41454714825E-02  0.10045701410E+00  0.51100000000E-03 0.  1.
         11    1    4    4    0    0 -0.29728132335E-01 -0.41089141681E-02 -0.10592754483E-01  0.31829429721E-01  0.51100000000E-03 0. -1.
</event>
<event>
 7    1  0.1135368E+005  0.1043930E+01  0.7957747E-01            NaN
         13   -1    0    0    0    0  0.00000000000E+00  0.00000000000E+00  0.74505805969E-08  0.10566000000E+00  0.10566000000E+00 0.  1.
     999900   -1    0    0    0    0 -0.00000000000E+00 -0.00000000000E+00 -0.74505805969E-08  0.93827000000E+00  0.93827000000E+00 0. -1.
     999903    2    1    2    0    0  0.27895889851E-01  0.20093295011E-01  0.11266720593E+00  0.11966581033E+00  0.21073340862E-01 0.  0.
         14    1    1    2    0    0 -0.23555119364E-01 -0.25247653713E-01 -0.18612712271E-01  0.39226530874E-01  0.00000000000E+00 0. -1.
     999901    1    1    2    0    0 -0.43407704871E-02  0.51543587022E-02 -0.94054493662E-01  0.88503765879E+00  0.88000000000E+00 0. -1.
        -11    1    3    3    0    0  0.87305333304E-02  0.11236715732E-01  0.19561916797E-01  0.24195365309E-01  0.51100000000E-03 0. -1.
         11    1    3    3    0    0  0.19165356521E-01  0.88565792792E-02  0.93105289136E-01  0.95470445025E-01  0.51100000000E-03 0.  1.
</event>
<event>
 8    1  0.1135368E+005  0.1043930E+01  0.7957747E-01            NaN
         13   -1    0    0    0    0  0.00000000000E+00  0.00000000000E+00  0.74505805969E-08  0.10566000000E+00  0.10566000000E+00 0.  1.
     999900   -1    0    0    0    0 -0.00000000000E+00 -0.00000000000E+00 -0.74505805969E-08  0.93827000000E+00  0.93827000000E+00 0. -1.
     999902    2    1    2    0    0 -0.43698147596E-02  0.13956696308E-01 -0.19108864566E-01  0.10198668880E+01  0.10195829716E+01 0.  0.
     999903    2    3    3    0    0 -0.52525908481E-01 -0.11574361964E+00  0.49589370593E-02  0.12873253205E+00  0.19796898839E-01 0.  0.
         14    1    1    2    0    0  0.43698147596E-02 -0.13956696308E-01  0.19108864566E-01  0.24063111973E-01  0.00000000000E+00 0.  1.
     999901    1    3    3    0    0  0.48156093721E-01  0.12970031595E+00 -0.24067801625E-01  0.89113435597E+00  0.88000000000E+00 0. -1.
        -11    1    4    4    0    0 -0.39302352085E-01 -0.10307955794E+00  0.40714056791E-02  0.11039432779E+00  0.51100000000E-03 0.  1.
         11    1    4    4    0    0 -0.13223556396E-01 -0.12664061701E-01  0.88753138024E-03  0.18338204260E-01  0.51100000000E-03 0. -1.
</event>
<event>
 8    1  0.1135368E+005  0.1043930E+01  0.7957747E-01            NaN
         13   -1    0    0    0    0  0.00000000000E+00  0.00000000000E+00  0.74505805969E-08  0.10566000000E+00  0.10566000000E+00 0.  1.
     999900   -1    0    0    0    0 -0.00000000000E+00 -0.00000000000E+00 -0.74505805969E-08  0.93827000000E+00  0.93827000000E+00 0.  1.
     999902    2    1    2    0    0  0.20102309932E-01 -0.67551828344E-03 -0.10554476083E-01  0.10212153317E+01  0.10209626818E+01 0.  0.
     999903    2    3    3    0    0 -0.12617824712E+00 -0.65859198043E-05 -0.19455631200E-01  0.12909556431E+00  0.19136171256E-01 0.  0.
         14    1    1    2    0    0 -0.20102309932E-01  0.67551828344E-03  0.10554476083E-01  0.22714668277E-01  0.00000000000E+00 0.  1.
     999901    1    3    3    0    0  0.14628055705E+00 -0.66893236364E-03  0.89011551171E-02  0.89211976741E+00  0.88000000000E+00 0. -1.
        -11    1    4    4    0    0 -0.58228818527E-01 -0.93914399612E-02 -0.73598347451E-02  0.59440918062E-01  0.51100000000E-03 0.  1.
         11    1    4    4    0    0 -0.67949428593E-01  0.93848540414E-02 -0.12095796455E-01  0.69654646251E-01  0.51100000000E-03 0. -1.
</event>
<event>
 8    1  0.1135368E+005  0.1043930E+01  0.7957747E-01            NaN
         13   -1    0    0    0    0  0.00000000000E+00  0.00000000000E+00  0.74505805969E-08  0.10566000000E+00  0.10566000000E+00 0. -1.
     999900   -1    0    0    0    0 -0.00000000000E+00 -0.00000000000E+00 -0.74505805969E-08  0.93827000000E+00  0.93827000000E+00 0. -1.
     999902    2    1    2    0    0 -0.13598773173E-01  0.18675037201E-01  0.32903903331E-02  0.10205952552E+01  0.10203284592E+01 0.  0.
     999903    2    3    3    0    0  0.64900344663E-01 -0.78892746674E-01 -0.75121897783E-01  0.12827800731E+00  0.19386268812E-01 0.  0.
         14    1    1    2    0    0  0.13598773173E-01 -0.18675037201E-01 -0.32903903331E-02  0.23334744799E-01  0.00000000000E+00 0. -1.
     999901    1    3    3    0    0 -0.78499117836E-01  0.97567783875E-01  0.78412288117E-01  0.89231724789E+00  0.88000000000E+00 0.  1.
        -11    1    4    4    0    0  0.21386222918E-01 -0.39107191663E-01 -0.26536939649E-01  0.51876904855E-01  0.51100000000E-03 0.  1.
         11    1    4    4    0    0  0.43514121745E-01 -0.39785555011E-01 -0.48584958134E-01  0.76401102458E-01  0.51100000000E-03 0. -1.
</event>
<event>
 8    1  0.1135368E+005  0.1043930E+01  0.7957747E-01            NaN
         13   -1    0    0    0    0  0.00000000000E+00  0.00000000000E+00  0.74505805969E-08  0.10566000000E+00  0.10566000000E+00 0. -1.
     999900   -1    0    0    0    0 -0.00000000000E+00 -0.00000000000E+00 -0.74505805969E-08  0.93827000000E+00  0.93827000000E+00 0. -1.
     999902    2    1    2    0    0  0.18643600763E-04  0.24203526131E-01 -0.31387696415E-02  0.10195237938E+01  0.10192316240E+01 0.  0.
     999903    2    3    3    0    0  0.10310862677E+00 -0.15896860958E-01 -0.75015751884E-01  0.12969128922E+00  0.17560420449E-01 0.  0.
         14    1    1    2    0    0 -0.18643600763E-04 -0.24203526131E-01  0.31387696415E-02  0.24406206171E-01  0.00000000000E+00 0.  1.
     999901    1    3    3    0    0 -0.10308998317E+00  0.40100387089E-01  0.71876982242E-01  0.88983250461E+00  0.88000000000E+00 0. -1.
        -11    1    4    4    0    0  0.63618376103E-01 -0.12083146998E-02 -0.43720880082E-01  0.77204496492E-01  0.51100000000E-03 0.  1.
         11    1    4    4    0    0  0.39490250672E-01 -0.14688546258E-01 -0.31294871801E-01  0.52486792732E-01  0.51100000000E-03 0. -1.
</event>
<event>
 8    1  0.1135368E+005  0.1043930E+01  0.7957747E-01            NaN
         13   -1    0    0    0    0  0.00000000000E+00  0.00000000000E+00  0.74505805969E-08  0.10566000000E+00  0.10566000000E+00 0.  1.
     999900   -1    0    0    0    0 -0.00000000000E+00 -0.00000000000E+00 -0.74505805969E-08  0.93827000000E+00  0.93827000000E+00 0.  1.
     999902    2    1    2    0    0 -0.18904085276E-02 -0.20543860045E-01  0.10941416466E-01  0.10205775178E+01  0.10203103113E+01 0.  0.
     999903    2    3    3    0    0 -0.10649109408E+00  0.57002945079E-01  0.45063468439E-01  0.13034208556E+00  0.19200370219E-01 0.  0.
         14    1    1    2    0    0  0.18904085276E-02  0.20543860045E-01 -0.10941416466E-01  0.23352482186E-01  0.00000000000E+00 0. -1.
     999901    1    3    3    0    0  0.10460068555E+00 -0.77546805124E-01 -0.34122051973E-01  0.89023543225E+00  0.88000000000E+00 0. -1.
        -11    1    4    4    0    0 -0.87027820762E-01  0.41860601775E-01  0.42608030339E-01  0.10555499485E+00  0.51100000000E-03 0. -1.
         11    1    4    4    0    0 -0.19463273313E-01  0.15142343303E-01  0.24554381000E-02  0.24787090713E-01  0.51100000000E-03 0.  1.
</event>
<event>
 8    1  0.1135368E+005  0.1043930E+01  0.7957747E-01            NaN
         13   -1    0    0    0    0  0.00000000000E+00  0.00000000000E+00  0.74505805969E-08  0.10566000000E+00  0.10566000000E+00 0. -1.
     999900   -1    0    0    0    0 -0.00000000000E+00 -0.00000000000E+00 -0.74505805969E-08  0.93827000000E+00  0.93827000000E+00 0.  1.
     999902    2    1    2    0    0  0.22982526953E-01 -0.33382673200E-02  0.23374529006E-02  0.10205889576E+01  0.10203220159E+01 0.  0.
     999903    2    3    3    0    0  0.29480041690E-01  0.12203562090E+00  0.32358575276E-01  0.13117224013E+00  0.19932725848E-01 0.  0.
         14    1    1    2    0    0 -0.22982526953E-01  0.33382673200E-02 -0.23374529006E-02  0.23341042391E-01  0.00000000000E+00 0.  1.
     999901    1    3    3    0    0 -0.64975147373E-02 -0.12537388822E+00 -0.30021122375E-01  0.88941671748E+00  0.88000000000E+00 0. -1.
        -11    1    4    4    0    0  0.64805313708E-02  0.30423717503E-01  0.17072672942E-01  0.35487140712E-01  0.51100000000E-03 0.  1.
         11    1    4    4    0    0  0.22999510319E-01  0.91611903398E-01  0.15285902333E-01  0.95685099416E-01  0.51100000000E-03 0. -1.
</event>
<event>
 8    1  0.1135368E+005  0.1043930E+01  0.7957747E-01            NaN
         13   -1    0    0    0    0  0.00000000000E+00  0.00000000000E+00  0.74505805969E-08  0.10566000000E+00  0.10566000000E+00 0. -1.
     999900   -1    0    0    0    0 -0.00000000000E+00 -0.00000000000E+00 -0.74505805969E-08  0.93827000000E+00  0.93827000000E+00 0.  1.
     999902    2    1    2    0    0 -0.83051752586E-02 -0.17315490343E-01  0.21585233384E-01  0.10150384019E+01  0.10146271398E+01 0.  0.
     999903    2    3    3    0    0 -0.81016658279E-01 -0.39323990408E-01 -0.84713891298E-01  0.12539193403E+00  0.20895420581E-01 0.  0.
         14    1    1    2    0    0  0.83051752586E-02  0.17315490343E-01 -0.21585233384E-01  0.28891598124E-01  0.00000000000E+00 0. -1.
     999901    1    3    3    0    0  0.72711483021E-01  0.22008500065E-01  0.10629912468E+00  0.88964646784E+00  0.88000000000E+00 0. -1.
        -11    1    4    4    0    0 -0.54633098574E-01 -0.33370105284E-01 -0.68920948735E-01  0.94067516614E-01  0.51100000000E-03 0. -1.
         11    1    4    4    0    0 -0.26383559706E-01 -0.59538851240E-02 -0.15792942563E-01  0.31324417418E-01  0.51100000000E-03 0.  1.
</event>
<event>
 8    1  0.1135368E+005  0.1043930E+01  0.7957747E-01            NaN
         13   -1    0    0    0    0  0.00000000000E+00  0.00000000000E+00  0.74505805969E-08  0.10566000000E+00  0.10566000000E+00 0.  1.
     999900   -1    0    0    0    0 -0.00000000000E+00 -0.00000000000E+00 -0.74505805969E-08  0.93827000000E+00  0.93827000000E+00 0.  1.
     999902    2    1    2    0    0  0.23769492148E-01 -0.20383725476E-02 -0.19721366037E-02  0.10199918914E+01  0.10197109519E+01 0.  0.
     999903    2    3    3    0    0  0.93577790818E-02 -0.11676863786E+00  0.54481214780E-01  0.13063385770E+00  0.19352498513E-01 0.  0.
         14    1    1    2    0    0 -0.23769492148E-01  0.20383725476E-02  0.19721366037E-02  0.23938108580E-01  0.00000000000E+00 0. -1.
     999901    1    3    3    0    0  0.14411713066E-01  0.11473026531E+00 -0.56453351383E-01  0.88935803372E+00  0.88000000000E+00 0. -1.
        -11    1    4    4    0    0  0.60940012723E-02 -0.15651264713E-01  0.13184884106E-01  0.21358867678E-01  0.51100000000E-03 0.  1.
         11    1    4    4    0    0  0.32637778096E-02 -0.10111737314E+00  0.41296330673E-01  0.10927499003E+00  0.51100000000E-03 0. -1.
</event>
<event>
 8    1  0.1135368E+005  0.1043930E+01  0.7957747E-01            NaN
         13   -1    0    0    0    0  0.00000000000E+00  0.00000000000E+00  0.74505805969E-08  0.10566000000E+00  0.10566000000E+00 0.  1.
     999900   -1    0    0    0    0 -0.00000000000E+00 -0.00000000000E+00 -0.74505805969E-08  0.93827000000E+00  0.93827000000E+00 0. -1.
     999902    2    1    2    0    0 -0.14753337448E-01  0.14545331586E-02 -0.18498719112E-01  0.10202238986E+01  0.10199484419E+01 0.  0.
     999903    2    3    3    0    0 -0.62594976357E-01  0.91865196041E-01 -0.69882426077E-01  0.13281013060E+00  0.19940712301E-01 0.  0.
         14    1    1    2    0    0  0.14753337448E-01 -0.14545331586E-02  0.18498719112E-01  0.23706101353E-01  0.00000000000E+00 0.  1.
     999901    1    3    3    0    0  0.47841638909E-01 -0.90410662882E-01  0.51383706965E-01  0.88741376805E+00  0.88000000000E+00 0.  1.
        -11    1    4    4    0    0 -0.27170052881E-01  0.49851204697E-01 -0.45164160335E-01  0.72549409943E-01  0.51100000000E-03 0. -1.
         11    1    4    4    0    0 -0.35424923476E-01  0.42013991344E-01 -0.24718265741E-01  0.60260720658E-01  0.51100000000E-03 0.  1.
</event>
<event>
 8    1  0.1135368E+005  0.1043930E+01  0.7957747E-01            NaN
         13   -1    0    0    0    0  0.00000000000E+00  0.00000000000E+00  0.74505805969E-08  0.10566000000E+00  0.10566000000E+00 0.  1.
     999900   -1    0    0    0    0 -0.00000000000E+00 -0.00000000000E+00 -0.74505805969E-08  0.93827000000E+00  0.93827000000E+00 0. -1.
     999902    2    1    2    0    0  0.73344263906E-02 -0.33894641940E-01  0.14503996768E-01  0.10063400215E+01  0.10056377242E+01 0.  0.
     999903    2    3    3    0    0  0.32407487721E-01  0.40683627097E-02 -0.11032549228E+00  0.11636684803E+00  0.17399202241E-01 0.  0.
         14    1    1    2    0    0 -0.73344263906E-02  0.33894641940E-01 -0.14503996768E-01  0.37589978518E-01  0.00000000000E+00 0. -1.
     999901    1    3    3    0    0 -0.25073061330E-01 -0.37963004650E-01  0.12482948905E+00  0.88997317345E+00  0.88000000000E+00 0.  1.
        -11    1    4    4    0    0 -0.65938448523E-03 -0.20313469939E-02 -0.21053736519E-02  0.30421830522E-02  0.51100000000E-03 0.  1.
         11    1    4    4    0    0  0.33066872206E-01  0.60997097036E-02 -0.10822011863E+00  0.11332466498E+00  0.51100000000E-03 0. -1.
</event>
<event>
 8    1  0.1135368E+005  0.1043930E+01  0.7957747E-01            NaN
         13   -1    0    0    0    0  0.00000000000E+00  0.00000000000E+00  0.74505805969E-08  0.10566000000E+00  0.10566000000E+00 0. -1.
     999900   -1    0    0    0    0 -0.00000000000E+00 -0.00000000000E+00 -0.74505805969E-08  0.93827000000E+00  0.93827000000E+00 0.  1.
     999902    2    1    2    0    0 -0.94802176213E-02  0.19729372108E-01 -0.94011684243E-02  0.10201076446E+01  0.10198294475E+01 0.  0.
     999903    2    3    3    0    0 -0.76799178488E-01 -0.46653214329E-02 -0.10546981646E+00  0.13198821078E+00  0.19419746625E-01 0.  0.
         14    1    1    2    0    0  0.94802176213E-02 -0.19729372108E-01  0.94011684243E-02  0.23822355418E-01  0.00000000000E+00 0.  1.
     999901    1    3    3    0    0  0.67318960867E-01  0.24394693541E-01  0.96068648039E-01  0.88811943380E+00  0.88000000000E+00 0. -1.
        -11    1    4    4    0    0 -0.56336837860E-01 -0.61691089721E-02 -0.62513255601E-01  0.84380480281E-01  0.51100000000E-03 0. -1.
         11    1    4    4    0    0 -0.20462340628E-01  0.15037875392E-02 -0.42956560863E-01  0.47607730497E-01  0.51100000000E-03 0.  1.
</event>
<event>
 8    1  0.1135368E+005  0.1043930E+01  0.7957747E-01            NaN
         13   -1    0    0    0    0  0.00000000000E+00  0.00000000000E+00  0.74505805969E-08  0.10566000000E+00  0.10566000000E+00 0. -1.
     999900   -1    0    0    0    0 -0.00000000000E+00 -0.00000000000E+00 -0.74505805969E-08  0.93827000000E+00  0.93827000000E+00 0. -1.
     999902    2    1    2    0    0  0.44215440204E-02  0.24136635969E-01  0.32697330083E-02  0.10191748308E+01  0.10188741421E+01 0.  0.
     999903    2    3    3    0    0  0.58238432587E-01 -0.70334501259E-01  0.88195697734E-01  0.12842600385E+00  0.19393304703E-01 0.  0.
         14    1    1    2    0    0 -0.44215440204E-02 -0.24136635969E-01 -0.32697330083E-02  0.24755169185E-01  0.00000000000E+00 0.  1.
     999901    1    3    3    0    0 -0.53816888567E-01  0.94471137228E-01 -0.84925964726E-01  0.89074882697E+00  0.88000000000E+00 0. -1.
        -11    1    4    4    0    0  0.35620805260E-01 -0.50875230224E-01  0.48699774233E-01  0.78924393878E-01  0.51100000000E-03 0. -1.
         11    1    4    4    0    0  0.22617627328E-01 -0.19459271035E-01  0.39495923501E-01  0.49501609967E-01  0.51100000000E-03 0.  1.
</event>
<event>
 8    1  0.1135368E+005  0.1043930E+01  0.7957747E-01            NaN
         13   -1    0    0    0    0  0.00000000000E+00  0.00000000000E+00  0.74505805969E-08  0.10566000000E+00  0.10566000000E+00 0.  1.
     999900   -1    0    0    0    0 -0.00000000000E+00 -0.00000000000E+00 -0.74505805969E-08  0.93827000000E+00  0.93827000000E+00 0. -1.
     999902    2    1    2    0    0  0.78448691904E-02  0.22247167347E-01 -0.11147004226E-02  0.10203138829E+01  0.10200405378E+01 0.  0.
     999903    2    3    3    0    0 -0.11308928295E+00  0.61268116346E-01 -0.15380169705E-01  0.13107195455E+00  0.20008489454E-01 0.  0.
         14    1    1    2    0    0 -0.78448691904E-02 -0.22247167347E-01  0.11147004226E-02  0.23616117052E-01  0.00000000000E+00 0. -1.
     999901    1    3    3    0    0  0.12093415214E+00 -0.39020949000E-01  0.14265469282E-01  0.88924192840E+00  0.88000000000E+00 0.  1.
        -11    1    4    4    0    0 -0.10186043816E-01  0.12178423265E-01 -0.46652491313E-02  0.16555819288E-01  0.51100000000E-03 0. -1.
         11    1    4    4    0    0 -0.10290323913E+00  0.49089693081E-01 -0.10714920574E-01  0.11451613526E+00  0.51100000000E-03 0.  1.
</event>
<event>
 8    1  0.1322809E+005  0.1043930E+01  0.7957747E-01            NaN
         13   -1    0    0    0    0  0.00000000000E+00  0.00000000000E+00  0.74505805969E-08  0.10566000000E+00  0.10566000000E+00 0.  1.
     999900   -1    0    0    0    0 -0.00000000000E+00 -0.00000000000E+00 -0.74505805969E-08  0.93827000000E+00  0.93827000000E+00 0. -1.
     999902    2    1    2    0    0 -0.36493121121E-02  0.14726262846E-01 -0.17087632198E-01  0.10210790160E+01  0.10208232900E+01 0.  0.
     999903    2    3    3    0    0  0.64553700585E-01  0.88466654284E-01 -0.73804286809E-01  0.13355094591E+00  0.19880976369E-01 0.  0.
         14    1    1    2    0    0  0.36493121121E-02 -0.14726262846E-01  0.17087632198E-01  0.22850984014E-01  0.00000000000E+00 0.  1.
     999901    1    3    3    0    0 -0.68203012697E-01 -0.73740391438E-01  0.56716654611E-01  0.88752807008E+00  0.88000000000E+00 0. -1.
        -11    1    4    4    0    0  0.25144791791E-01  0.28908790411E-01 -0.15413298892E-01  0.41301448170E-01  0.51100000000E-03 0. -1.
         11    1    4    4    0    0  0.39408908794E-01  0.59557863873E-01 -0.58390987917E-01  0.92249497735E-01  0.51100000000E-03 0.  1.
</event>
<event>
 8    1  0.1135368E+005  0.1043930E+01  0.7957747E-01            NaN
         13   -1    0    0    0    0  0.00000000000E+00  0.00000000000E+00  0.74505805969E-08  0.10566000000E+00  0.10566000000E+00 0.  1.
     999900   -1    0    0    0    0 -0.00000000000E+00 -0.00000000000E+00 -0.74505805969E-08  0.93827000000E+00  0.93827000000E+00 0. -1.
     999902    2    1    2    0    0 -0.14533718177E-01  0.17857682387E-01  0.15389368353E-02  0.10208541661E+01  0.10205933246E+01 0.  0.
     999903    2    3    3    0    0 -0.49253556920E-01 -0.62546842483E-01 -0.10156806012E+00  0.13051636073E+00  0.19504594514E-01 0.  0.
         14    1    1    2    0    0  0.14533718177E-01 -0.17857682387E-01 -0.15389368353E-02  0.23075833915E-01  0.00000000000E+00 0.  1.
     999901    1    3    3    0    0  0.34719838742E-01  0.80404524869E-01  0.10310699696E+00  0.89033780535E+00  0.88000000000E+00 0.  1.
        -11    1    4    4    0    0 -0.10239236977E-01 -0.87529594703E-02 -0.29795039613E-01  0.32702626498E-01  0.51100000000E-03 0.  1.
         11    1    4    4    0    0 -0.39014319943E-01 -0.53793883012E-01 -0.71773020511E-01  0.97813734232E-01  0.51100000000E-03 0. -1.
</event>
<event>
 8    1  0.1135368E+005  0.1043930E+01  0.7957747E-01            NaN
         13   -1    0    0    0    0  0.00000000000E+00  0.00000000000E+00  0.74505805969E-08  0.10566000000E+00  0.10566000000E+00 0.  1.
     999900   -1    0    0    0    0 -0.00000000000E+00 -0.00000000000E+00 -0.74505805969E-08  0.93827000000E+00  0.93827000000E+00 0. -1.
     999902    2    1    2    0    0 -0.12791956013E-01 -0.83648224810E-02  0.23085811646E-01  0.10162431964E+01  0.10158659730E+01 0.  0.
     999903    2    3    3    0    0 -0.10223680769E+00  0.19283498037E-01  0.74895551278E-01  0.12976191616E+00  0.20114500740E-01 0.  0.
         14    1    1    2    0    0  0.12791956013E-01  0.83648224810E-02 -0.23085811646E-01  0.27686803591E-01  0.00000000000E+00 0. -1.
     999901    1    3    3    0    0  0.89444851676E-01 -0.27648320518E-01 -0.51809739632E-01  0.88648128025E+00  0.88000000000E+00 0. -1.
        -11    1    4    4    0    0 -0.77005296198E-01  0.17378864025E-01  0.46072102112E-01  0.91404268344E-01  0.51100000000E-03 0.  1.
         11    1    4    4    0    0 -0.25231511491E-01  0.19046340114E-02  0.28823449165E-01  0.38357647811E-01  0.51100000000E-03 0. -1.
</event>
<event>
 8    1  0.1135368E+005  0.1043930E+01  0.7957747E-01            NaN
         13   -1    0    0    0    0  0.00000000000E+00  0.00000000000E+00  0.74505805969E-08  0.10566000000E+00  0.10566000000E+00 0.  1.
     999900   -1    0    0    0    0 -0.00000000000E+00 -0.00000000000E+00 -0.74505805969E-08  0.93827000000E+00  0.93827000000E+00 0.  1.
     999902    2    1    2    0    0  0.88815015566E-02  0.17979770541E-01  0.11127744408E-01  0.10209957480E+01  0.10207381337E+01 0.  0.
     999903    2    3    3    0    0  0.74327923479E-01  0.64924431677E-01  0.88361837294E-01  0.13394888315E+00  0.19866226894E-01 0.  0.
         14    1    1    2    0    0 -0.88815015566E-02 -0.17979770541E-01 -0.11127744408E-01  0.22934251987E-01  0.00000000000E+00 0.  1.
     999901    1    3    3    0    0 -0.65446421922E-01 -0.46944661137E-01 -0.77234092886E-01  0.88704686486E+00  0.88000000000E+00 0.  1.
        -11    1    4    4    0    0  0.36998736407E-01  0.26420972772E-01  0.52407391557E-01  0.69381338332E-01  0.51100000000E-03 0. -1.
         11    1    4    4    0    0  0.37329187072E-01  0.38503458905E-01  0.35954445737E-01  0.64567544822E-01  0.51100000000E-03 0.  1.
</event>
<event>
 8    1  0.1135368E+005  0.1043930E+01  0.7957747E-01            NaN
         13   -1    0    0    0    0  0.00000000000E+00  0.00000000000E+00  0.74505805969E-08  0.10566000000E+00  0.10566000000E+00 0. -1.
     999900   -1    0    0    0    0 -0.00000000000E+00 -0.00000000000E+00 -0.74505805969E-08  0.93827000000E+00  0.93827000000E+00 0. -1.
     999902    2    1    2    0    0  0.46665511656E-02 -0.23100381667E-01 -0.31279031829E-02  0.10201563147E+01  0.10198792666E+01 0.  0.
     999903    2    3    3    0    0  0.19724373861E-02  0.21220944600E-01  0.12623118632E+00  0.12959165551E+00  0.20136180894E-01 0.  0.
         14    1    1    2    0    0 -0.46665511656E-02  0.23100381667E-01  0.31279031829E-02  0.23773685268E-01  0.00000000000E+00 0. -1.
     999901    1    3    3    0    0  0.26941137795E-02 -0.44321326266E-01 -0.12935908950E+00  0.89056465922E+00  0.88000000000E+00 0. -1.
        -11    1    4    4    0    0 -0.71335007481E-02  0.11079818377E-01  0.36079037292E-01  0.38413633792E-01  0.51100000000E-03 0. -1.
         11    1    4    4    0    0  0.91059381342E-02  0.10141126223E-01  0.90152149024E-01  0.91178021722E-01  0.51100000000E-03 0.  1.
</event>
<event>
 8    1  0.1135368E+005  0.1043930E+01  0.7957747E-01            NaN
         13   -1    0    0    0    0  0.00000000000E+00  0.00000000000E+00  0.74505805969E-08  0.10566000000E+00  0.10566000000E+00 0. -1.
     999900   -1    0    0    0    0 -0.00000000000E+00 -0.00000000000E+00 -0.74505805969E-08  0.93827000000E+00  0.93827000000E+00 0.  1.
     999902    2    1    2    0    0 -0.23257049625E-01  0.20965565806E-02  0.13685961889E-02  0.10205385708E+01  0.10202704619E+01 0.  0.
     999903    2    3    3    0    0  0.32847951822E-01 -0.78204324442E-01  0.96434096869E-01  0.13001431387E+00  0.20230730861E-01 0.  0.
         14    1    1    2    0    0  0.23257049625E-01 -0.20965565806E-02 -0.13685961889E-02  0.23391429248E-01  0.00000000000E+00 0.  1.
     999901    1    3    3    0    0 -0.56105001447E-01  0.80300881023E-01 -0.95065500680E-01  0.89052425688E+00  0.88000000000E+00 0.  1.
        -11    1    4    4    0    0  0.13227832517E-01 -0.14169935046E-01  0.14633835145E-01  0.24293473699E-01  0.51100000000E-03 0. -1.
         11    1    4    4    0    0  0.19620119306E-01 -0.64034389396E-01  0.81800261724E-01  0.10572084017E+00  0.51100000000E-03 0.  1.
</event>
<event>
 8    1  0.1135368E+005  0.1043930E+01  0.7957747E-01            NaN
         13   -1    0    0    0    0  0.00000000000E+00  0.00000000000E+00  0.74505805969E-08  0.10566000000E+00  0.10566000000E+00 0. -1.
     999900   -1    0    0    0    0 -0.00000000000E+00 -0.00000000000E+00 -0.74505805969E-08  0.93827000000E+00  0.93827000000E+00 0. -1.
     999902    2    1    2    0    0 -0.67118545120E-03  0.44836046686E-02 -0.23025338093E-01  0.10204625887E+01  0.10201927149E+01 0.  0.
     999903    2    3    3    0    0 -0.67505748242E-01  0.20029980883E-01  0.10556763159E+00  0.12847340686E+00  0.20066520622E-01 0.  0.
         14    1    1    2    0    0  0.67118545120E-03 -0.44836046686E-02  0.23025338093E-01  0.23467411340E-01  0.00000000000E+00 0. -1.
     999901    1    3    3    0    0  0.66834562790E-01 -0.15546376214E-01 -0.12859296969E+00  0.89198918180E+00  0.88000000000E+00 0. -1.
        -11    1    4    4    0    0 -0.38488519157E-01  0.21133534913E-01  0.58132956353E-01  0.72853923300E-01  0.51100000000E-03 0.  1.
         11    1    4    4    0    0 -0.29017229085E-01 -0.11035540299E-02  0.47434675240E-01  0.55619483559E-01  0.51100000000E-03 0. -1.
</event>
<event>
 8    1  0.1135368E+005  0.1043930E+01  0.7957747E-01            NaN
         13   -1    0    0    0    0  0.00000000000E+00  0.00000000000E+00  0.74505805969E-08  0.10566000000E+00  0.10566000000E+00 0.  1.
     999900   -1    0    0    0    0 -0.00000000000E+00 -0.00000000000E+00 -0.74505805969E-08  0.93827000000E+00  0.93827000000E+00 0. -1.
     999902    2    1    2    0    0 -0.55854092668E-02 -0.17650449991E-01 -0.10715901573E-01  0.10225392139E+01  0.10223154495E+01 0.  0.
     999903    2    3    3    0    0  0.88468371528E-01  0.86517063510E-01  0.35529151373E-01  0.13021887378E+00  0.19564750239E-01 0.  0.
         14    1    1    2    0    0  0.55854092668E-02  0.17650449991E-01  0.10715901573E-01  0.21390786055E-01  0.00000000000E+00 0.  1.
     999901    1    3    3    0    0 -0.94053780795E-01 -0.10416751350E+00 -0.46245052946E-01  0.89232034017E+00  0.88000000000E+00 0. -1.
        -11    1    4    4    0    0  0.76402901471E-01  0.78858469029E-01  0.25416969937E-01  0.11270468035E+00  0.51100000000E-03 0.  1.
         11    1    4    4    0    0  0.12065470057E-01  0.76585944806E-02  0.10112181436E-01  0.17514193430E-01  0.51100000000E-03 0. -1.
</event>
<event>
 8    1  0.1135368E+005  0.1043930E+01  0.7957747E-01            NaN
         13   -1    0    0    0    0  0.00000000000E+00  0.00000000000E+00  0.74505805969E-08  0.10566000000E+00  0.10566000000E+00 0. -1.
     999900   -1    0    0    0    0 -0.00000000000E+00 -0.00000000000E+00 -0.74505805969E-08  0.93827000000E+00  0.93827000000E+00 0. -1.
     999902    2    1    2    0    0 -0.26964491428E-02 -0.23092614663E-01  0.10486815799E-01  0.10184248437E+01  0.10181054215E+01 0.  0.
     999903    2    3    3    0    0 -0.50921291639E-01 -0.10497363881E+00 -0.57693931020E-01  0.13068684648E+00  0.11748164991E-01 0.  0.
         14    1    1    2    0    0  0.26964491428E-02  0.23092614663E-01 -0.10486815799E-01  0.25505156254E-01  0.00000000000E+00 0.  1.
     999901    1    3    3    0    0  0.48224842496E-01  0.81881024143E-01  0.68180746819E-01  0.88773799726E+00  0.88000000000E+00 0.  1.
        -11    1    4    4    0    0 -0.28502564114E-01 -0.65746446587E-01 -0.29971800677E-01  0.77676002450E-01  0.51100000000E-03 0.  1.
         11    1    4    4    0    0 -0.22418727525E-01 -0.39227192219E-01 -0.27722130343E-01  0.53010844032E-01  0.51100000000E-03 0. -1.
</event>
<event>
 8    1  0.1135368E+005  0.1043930E+01  0.7957747E-01            NaN
         13   -1    0    0    0    0  0.00000000000E+00  0.00000000000E+00  0.74505805969E-08  0.10566000000E+00  0.10566000000E+00 0.  1.
     999900   -1    0    0    0    0 -0.00000000000E+00 -0.00000000000E+00 -0.74505805969E-08  0.93827000000E+00  0.93827000000E+00 0. -1.
     999902    2    1    2    0    0 -0.21720064324E-01 -0.62727676839E-02 -0.54446422896E-02  0.10206759049E+01  0.10204109711E+01 0.  0.
     999903    2    3    3    0    0  0.87581733697E-01 -0.17867282817E-01  0.90438502581E-01  0.12866979882E+00  0.19672175970E-01 0.  0.
         14    1    1    2    0    0  0.21720064324E-01  0.62727676839E-02  0.54446422896E-02  0.23254095087E-01  0.00000000000E+00 0.  1.
     999901    1    3    3    0    0 -0.10930179802E+00  0.11594515133E-01 -0.95883144871E-01  0.89200610609E+00  0.88000000000E+00 0. -1.
        -11    1    4    4    0    0  0.30728079933E-01 -0.38636670668E-03  0.41505954070E-01  0.51646582848E-01  0.51100000000E-03 0.  1.
         11    1    4    4    0    0  0.56853653764E-01 -0.17480916110E-01  0.48932548511E-01  0.77023215975E-01  0.51100000000E-03 0. -1.
</event>
<event>
 8    1  0.1135368E+005  0.1043930E+01  0.7957747E-01            NaN
         13   -1    0    0    0    0  0.00000000000E+00  0.00000000000E+00  0.74505805969E-08  0.10566000000E+00  0.10566000000E+00 0.  1.
     999900   -1    0    0    0    0 -0.00000000000E+00 -0.00000000000E+00 -0.74505805969E-08  0.93827000000E+00  0.93827000000E+00 0. -1.
     999902    2    1    2    0    0 -0.91557754353E-02 -0.67482675076E-02  0.20560713042E-01  0.10204329734E+01  0.10201624101E+01 0.  0.
     999903    2    3    3    0    0 -0.27304291906E-01 -0.54570088028E-01  0.11714174434E+00  0.13367246978E+00  0.20560205422E-01 0.  0.
         14    1    1    2    0    0  0.91557754353E-02  0.67482675076E-02 -0.20560713042E-01  0.23497026598E-01  0.00000000000E+00 0. -1.
     999901    1    3    3    0    0  0.18148516470E-01  0.47821820520E-01 -0.96581031301E-01  0.88676050362E+00  0.88000000000E+00 0. -1.
        -11    1    4    4    0    0 -0.23241809330E-01 -0.29710180319E-01  0.55773718813E-01  0.67333835081E-01  0.51100000000E-03 0. -1.
         11    1    4    4    0    0 -0.40624825755E-02 -0.24859907709E-01  0.61368025529E-01  0.66338634704E-01  0.51100000000E-03 0.  1.
</event>
<event>
 8    1  0.1135368E+005  0.1043930E+01  0.7957747E-01            NaN
         13   -1    0    0    0    0  0.00000000000E+00  0.00000000000E+00  0.74505805969E-08  0.10566000000E+00  0.10566000000E+00 0. -1.
     999900   -1    0    0    0    0 -0.00000000000E+00 -0.00000000000E+00 -0.74505805969E-08  0.93827000000E+00  0.93827000000E+00 0. -1.
     999902    2    1    2    0    0 -0.69910013259E-02  0.21447322517E-01  0.75763005454E-02  0.10201337383E+01  0.10198561574E+01 0.  0.
     999903    2    3    3    0    0  0.90899273824E-01 -0.70548307526E-01  0.54480356039E-01  0.12870472127E+00  0.18895883325E-01 0.  0.
         14    1    1    2    0    0  0.69910013259E-02 -0.21447322517E-01 -0.75763005454E-02  0.23796261737E-01  0.00000000000E+00 0.  1.
     999901    1    3    3    0    0 -0.97890275150E-01  0.91995630043E-01 -0.46904055494E-01  0.89142901699E+00  0.88000000000E+00 0. -1.
        -11    1    4    4    0    0  0.18544354114E-01 -0.10643827735E-01  0.17925427101E-01  0.27906382713E-01  0.51100000000E-03 0. -1.
         11    1    4    4    0    0  0.72354919710E-01 -0.59904479792E-01  0.36554928938E-01  0.10079833856E+00  0.51100000000E-03 0.  1.
</event>
<event>
 8    1  0.1135368E+005  0.1043930E+01  0.7957747E-01            NaN
         13   -1    0    0    0    0  0.00000000000E+00  0.00000000000E+00  0.74505805969E-08  0.10566000000E+00  0.10566000000E+00 0.  1.
     999900   -1    0    0    0    0 -0.00000000000E+00 -0.00000000000E+00 -0.74505805969E-08  0.93827000000E+00  0.93827000000E+00 0. -1.
     999902    2    1    2    0    0 -0.47744356901E-02 -0.21963776281E-01  0.47350370199E-02  0.10209599482E+01  0.10207015198E+01 0.  0.
     999903    2    3    3    0    0  0.52119790708E-01  0.10000165896E+00 -0.58358154836E-01  0.12849523110E+00  0.19711565155E-01 0.  0.
         14    1    1    2    0    0  0.47744356901E-02  0.21963776281E-01 -0.47350370199E-02  0.22970051812E-01  0.00000000000E+00 0.  1.
     999901    1    3    3    0    0 -0.56894226398E-01 -0.12196543524E+00  0.63093191856E-01  0.89246471709E+00  0.88000000000E+00 0. -1.
        -11    1    4    4    0    0  0.11514576944E-01  0.41838395074E-01 -0.25305740958E-01  0.50236226281E-01  0.51100000000E-03 0.  1.
         11    1    4    4    0    0  0.40605213764E-01  0.58163263886E-01 -0.33052413879E-01  0.78259004817E-01  0.51100000000E-03 0. -1.
</event>
<event>
 8    1  0.1135368E+005  0.1043930E+01  0.7957747E-01            NaN
         13   -1    0    0    0    0  0.00000000000E+00  0.00000000000E+00  0.74505805969E-08  0.10566000000E+00  0.10566000000E+00 0. -1.
     999900   -1    0    0    0    0 -0.00000000000E+00 -0.00000000000E+00 -0.74505805969E-08  0.93827000000E+00  0.93827000000E+00 0.  1.
     999902    2    1    2    0    0  0.14492976958E-02  0.94434301517E-02 -0.21186521495E-01  0.10206889258E+01  0.10204242920E+01 0.  0.
     999903    2    3    3    0    0 -0.20173281217E-01 -0.47208217948E-01  0.11517504242E+00  0.12812440642E+00  0.22693523456E-01 0.  0.
         14    1    1    2    0    0 -0.14492976958E-02 -0.94434301517E-02  0.21186521495E-01  0.23241074199E-01  0.00000000000E+00 0. -1.
     999901    1    3    3    0    0  0.21622578913E-01  0.56651648100E-01 -0.13636156391E+00  0.89256451938E+00  0.88000000000E+00 0.  1.
        -11    1    4    4    0    0 -0.64588278339E-02 -0.37725272116E-01  0.91296628142E-01  0.98996202171E-01  0.51100000000E-03 0.  1.
         11    1    4    4    0    0 -0.13714453384E-01 -0.94829458320E-02  0.23878414276E-01  0.29128204246E-01  0.51100000000E-03 0. -1.
</event>
<event>
 8    1  0.1135368E+005  0.1043930E+01  0.7957747E-01            NaN
         13   -1    0    0    0    0  0.00000000000E+00  0.00000000000E+00  0.74505805969E-08  0.10566000000E+00  0.10566000000E+00 0.  1.
     999900   -1    0    0    0    0 -0.00000000000E+00 -0.00000000000E+00 -0.74505805969E-08  0.93827000000E+00  0.93827000000E+00 0. -1.
     999902    2    1    2    0    0  0.98681087455E-02 -0.21422429324E-01 -0.13671501531E-02  0.10203043963E+01  0.10200308290E+01 0.  0.
     999903    2    3    3    0    0  0.74094765627E-01  0.95800157874E-01  0.40663641565E-01  0.12921922317E+00  0.19400292515E-01 0.  0.
         14    1    1    2    0    0 -0.98681087455E-02  0.21422429324E-01  0.13671501531E-02  0.23625603651E-01  0.00000000000E+00 0. -1.
     999901    1    3    3    0    0 -0.64226656882E-01 -0.11722258720E+00 -0.42030791718E-01  0.89108517318E+00  0.88000000000E+00 0. -1.
        -11    1    4    4    0    0  0.33014723669E-01  0.30608052523E-01  0.21071748348E-01  0.49710205770E-01  0.51100000000E-03 0.  1.
         11    1    4    4    0    0  0.41080041958E-01  0.65192105352E-01  0.19591893216E-01  0.79509017402E-01  0.51100000000E-03 0. -1.
</event>
<event>
 8    1  0.1135368E+005  0.1043930E+01  0.7957747E-01            NaN
         13   -1    0    0    0    0  0.00000000000E+00  0.00000000000E+00  0.74505805969E-08  0.10566000000E+00  0.10566000000E+00 0. -1.
     999900   -1    0    0    0    0 -0.00000000000E+00 -0.00000000000E+00 -0.74505805969E-08  0.93827000000E+00  0.93827000000E+00 0.  1.
     999902    2    1    2    0    0  0.23012299693E-02 -0.10299017404E-02  0.23391895879E-01  0.10204026298E+01  0.10201313590E+01 0.  0.
     999903    2    3    3    0    0 -0.55434969466E-01 -0.68688980449E-01 -0.91386641068E-01  0.12850278551E+00  0.19241513523E-01 0.  0.
         14    1    1    2    0    0 -0.23012299693E-02  0.10299017404E-02 -0.23391895879E-01  0.23527370227E-01  0.00000000000E+00 0.  1.
     999901    1    3    3    0    0  0.57736199435E-01  0.67659078708E-01  0.11477853695E+00  0.89189984427E+00  0.88000000000E+00 0. -1.
        -11    1    4    4    0    0 -0.23038979804E-01 -0.15039042323E-01 -0.31333780824E-01  0.41701730494E-01  0.51100000000E-03 0. -1.
         11    1    4    4    0    0 -0.32395989662E-01 -0.53649938125E-01 -0.60052860244E-01  0.86801055014E-01  0.51100000000E-03 0.  1.
</event>
<event>
 8    1  0.1135368E+005  0.1043930E+01  0.7957747E-01            NaN
         13   -1    0    0    0    0  0.00000000000E+00  0.00000000000E+00  0.74505805969E-08  0.10566000000E+00  0.10566000000E+00 0.  1.
     999900   -1    0    0    0    0 -0.00000000000E+00 -0.00000000000E+00 -0.74505805969E-08  0.93827000000E+00  0.93827000000E+00 0.  1.
     999902    2    1    2    0    0  0.13567072941E-02 -0.34581474901E-02  0.23624915353E-01  0.10200148152E+01  0.10197344199E+01 0.  0.
     999903    2    3    3    0    0  0.88476814190E-01 -0.91997100695E-01 -0.16040933644E-01  0.13040678981E+00  0.21377700769E-01 0.  0.
         14    1    1    2    0    0 -0.13567072941E-02  0.34581474901E-02 -0.23624915353E-01  0.23915184804E-01  0.00000000000E+00 0. -1.
     999901    1    3    3    0    0 -0.87120106895E-01  0.88538953205E-01  0.39665848998E-01  0.88960802539E+00  0.88000000000E+00 0. -1.
        -11    1    4    4    0    0  0.19100875243E-01 -0.27813379148E-01 -0.11973071791E-01  0.35805628940E-01  0.51100000000E-03 0. -1.
         11    1    4    4    0    0  0.69375938947E-01 -0.64183721547E-01 -0.40678618536E-02  0.94601160867E-01  0.51100000000E-03 0.  1.
</event>
<event>
 8    1  0.1135368E+005  0.1043930E+01  0.7957747E-01            NaN
         13   -1    0    0    0    0  0.00000000000E+00  0.00000000000E+00  0.74505805969E-08  0.10566000000E+00  0.10566000000E+00 0.  1.
     999900   -1    0    0    0    0 -0.00000000000E+00 -0.00000000000E+00 -0.74505805969E-08  0.93827000000E+00  0.93827000000E+00 0. -1.
     999902    2    1    2    0    0 -0.16138069302E-01 -0.18578463004E-01 -0.58802263953E-02  0.10186283473E+01  0.10183140656E+01 0.  0.
     999903    2    3    3    0    0  0.88320669741E-01  0.84705460441E-01  0.21617138948E-01  0.12602804360E+00  0.20981214129E-01 0.  0.
         14    1    1    2    0    0  0.16138069302E-01  0.18578463004E-01  0.58802263953E-02  0.25301652729E-01  0.00000000000E+00 0.  1.
     999901    1    3    3    0    0 -0.10445873904E+00 -0.10328392345E+00 -0.27497365344E-01  0.89260030367E+00  0.88000000000E+00 0. -1.
        -11    1    4    4    0    0  0.59460864327E-01  0.66954461370E-01  0.95394279198E-02  0.90054184189E-01  0.51100000000E-03 0. -1.
         11    1    4    4    0    0  0.28859805414E-01  0.17750999071E-01  0.12077711028E-01  0.35973859415E-01  0.51100000000E-03 0.  1.
</event>
<event>
 8    1  0.1135368E+005  0.1043930E+01  0.7957747E-01            NaN
         13   -1    0    0    0    0  0.00000000000E+00  0.00000000000E+00  0.74505805969E-08  0.10566000000E+00  0.10566000000E+00 0. -1.
     999900   -1    0    0    0    0 -0.00000000000E+00 -0.00000000000E+00 -0.74505805969E-08  0.93827000000E+00  0.93827000000E+00 0. -1.
     999902    2    1    2    0    0  0.18629174548E-01  0.13943383869E-01 -0.25921706660E-02  0.10205166823E+01  0.10202480656E+01 0.  0.
     999903    2    3    3    0    0 -0.45005772343E-01  0.19380601886E-01 -0.11935487941E+00  0.13050965986E+00  0.19648328269E-01 0.  0.
         14    1    1    2    0    0 -0.18629174548E-01 -0.13943383869E-01  0.25921706660E-02  0.23413317723E-01  0.00000000000E+00 0. -1.
     999901    1    3    3    0    0  0.63634946891E-01 -0.54372180170E-02  0.11676270874E+00  0.89000702242E+00  0.88000000000E+00 0.  1.
        -11    1    4    4    0    0 -0.26914383691E-01  0.14966072146E-01 -0.50252054689E-01  0.58939778473E-01  0.51100000000E-03 0.  1.
         11    1    4    4    0    0 -0.18091388652E-01  0.44145297401E-02 -0.69102824718E-01  0.71569881383E-01  0.51100000000E-03 0. -1.
</event>
<event>
 7    1  0.1135368E+005  0.1043930E+01  0.7957747E-01            NaN
         13   -1    0    0    0    0  0.00000000000E+00  0.00000000000E+00  0.74505805969E-08  0.10566000000E+00  0.10566000000E+00 0. -1.
     999900   -1    0    0    0    0 -0.00000000000E+00 -0.00000000000E+00 -0.74505805969E-08  0.93827000000E+00  0.93827000000E+00 0.  1.
     999902    2    1    2    0    0 -0.17340037206E-01  0.18487158772E-02  0.14365774604E-01  0.10213364142E+01  0.10210864806E+01 0.  0.
         14    1    1    2    0    0  0.17340037206E-01 -0.18487158772E-02 -0.14365774604E-01  0.22593585830E-01  0.00000000000E+00 0.  1.
     999901    1    3    3    0    0 -0.48546408126E-01  0.11557313472E+00 -0.26491088766E-01  0.88927817976E+00  0.88000000000E+00 0.  1.
        -11    1    3    3    0    0 -0.65395452445E-02 -0.64621791542E-02  0.11284784399E-01  0.14564782571E-01  0.51100000000E-03 0.  1.
         11    1    3    3    0    0  0.37745916165E-01 -0.10726223969E+00  0.29572078971E-01  0.11749345184E+00  0.51100000000E-03 0. -1.
</event>
<event>
 8    1  0.1135368E+005  0.1043930E+01  0.7957747E-01            NaN
         13   -1    0    0    0    0  0.00000000000E+00  0.00000000000E+00  0.74505805969E-08  0.10566000000E+00  0.10566000000E+00 0. -1.
     999900   -1    0    0    0    0 -0.00000000000E+00 -0.00000000000E+00 -0.74505805969E-08  0.93827000000E+00  0.93827000000E+00 0.  1.
     999902    2    1    2    0    0 -0.13381696306E-01 -0.29009713403E-02  0.21336015431E-01  0.10185782548E+01  0.10182627118E+01 0.  0.
     999903    2    3    3    0    0  0.18186938130E-01 -0.87160071806E-01  0.94273454824E-01  0.13098823414E+00  0.18514598641E-01 0.  0.
         14    1    1    2    0    0  0.13381696306E-01  0.29009713403E-02 -0.21336015431E-01  0.25351745211E-01  0.00000000000E+00 0.  1.
     999901    1    3    3    0    0 -0.31568634435E-01  0.84259100465E-01 -0.72937439393E-01  0.88759002065E+00  0.88000000000E+00 0.  1.
        -11    1    4    4    0    0  0.17947078226E-01 -0.44058634199E-01  0.54393484986E-01  0.72264605405E-01  0.51100000000E-03 0. -1.
         11    1    4    4    0    0  0.23985990320E-03 -0.43101437607E-01  0.39879969838E-01  0.58723628735E-01  0.51100000000E-03 0.  1.
</event>
<event>
 8    1  0.1135368E+005  0.1043930E+01  0.7957747E-01            NaN
         13   -1    0    0    0    0  0.00000000000E+00  0.00000000000E+00  0.74505805969E-08  0.10566000000E+00  0.10566000000E+00 0. -1.
     999900   -1    0    0    0    0 -0.00000000000E+00 -0.00000000000E+00 -0.74505805969E-08  0.93827000000E+00  0.93827000000E+00 0.  1.
     999902    2    1    2    0    0 -0.23953355406E-02  0.23199450793E-01  0.10264914191E-02  0.10205846400E+01  0.10203175984E+01 0.  0.
     999903    2    3    3    0    0 -0.57215353285E-01 -0.10414816011E+00 -0.44681088573E-01  0.12855782917E+00  0.20255366178E-01 0.  0.
         14    1    1    2    0    0  0.23953355406E-02 -0.23199450793E-01 -0.10264914191E-02  0.23345360012E-01  0.00000000000E+00 0.  1.
     999901    1    3    3    0    0  0.54820017744E-01  0.12734761090E+00  0.45707579992E-01  0.89202681082E+00  0.88000000000E+00 0.  1.
        -11    1    4    4    0    0 -0.11888825894E-01 -0.39151122053E-01 -0.20104225351E-01  0.45591616961E-01  0.51100000000E-03 0. -1.
         11    1    4    4    0    0 -0.45326527390E-01 -0.64997038059E-01 -0.24576863222E-01  0.82966212210E-01  0.51100000000E-03 0.  1.
</event>
<event>
 8    1  0.1135368E+005  0.1043930E+01  0.7957747E-01            NaN
         13   -1    0    0    0    0  0.00000000000E+00  0.00000000000E+00  0.74505805969E-08  0.10566000000E+00  0.10566000000E+00 0. -1.
     999900   -1    0    0    0    0 -0.00000000000E+00 -0.00000000000E+00 -0.74505805969E-08  0.93827000000E+00  0.93827000000E+00 0.  1.
     999902    2    1    2    0    0 -0.13597264615E-01  0.74069977737E-02  0.20261198688E-01  0.10184296982E+01  0.10181103991E+01 0.  0.
     999903    2    3    3    0    0 -0.10486400472E+00  0.62938986241E-01 -0.38957262312E-01  0.12999273039E+00  0.20558847095E-01 0.  0.
         14    1    1    2    0    0  0.13597264615E-01 -0.74069977737E-02 -0.20261198688E-01  0.25500301828E-01  0.00000000000E+00 0.  1.
     999901    1    3    3    0    0  0.91266740102E-01 -0.55531988468E-01  0.59218461000E-01  0.88843696778E+00  0.88000000000E+00 0. -1.
        -11    1    4    4    0    0 -0.70400254349E-01  0.49550068911E-01 -0.34507390291E-01  0.92749265481E-01  0.51100000000E-03 0.  1.
         11    1    4    4    0    0 -0.34463750368E-01  0.13388917331E-01 -0.44498720209E-02  0.37243464913E-01  0.51100000000E-03 0. -1.
</event>
<event>
 8    1  0.1135368E+005  0.1043930E+01  0.7957747E-01            NaN
         13   -1    0    0    0    0  0.00000000000E+00  0.00000000000E+00  0.74505805969E-08  0.10566000000E+00  0.10566000000E+00 0. -1.
     999900   -1    0    0    0    0 -0.00000000000E+00 -0.00000000000E+00 -0.74505805969E-08  0.93827000000E+00  0.93827000000E+00 0. -1.
     999902    2    1    2    0    0 -0.19838660990E-01 -0.95309195235E-02 -0.14753056361E-01  0.10174335178E+01  0.10170884424E+01 0.  0.
     999903    2    3    3    0    0  0.19566071046E-01 -0.54372738925E-01 -0.11441634365E+00  0.12979829289E+00  0.20427218799E-01 0.  0.
         14    1    1    2    0    0  0.19838660990E-01  0.95309195235E-02  0.14753056361E-01  0.26496482197E-01  0.00000000000E+00 0.  1.
     999901    1    3    3    0    0 -0.39404732036E-01  0.44841819401E-01  0.99663287291E-01  0.88763522491E+00  0.88000000000E+00 0. -1.
        -11    1    4    4    0    0  0.10981648017E-01 -0.18191119647E-01 -0.61899164011E-01  0.65446780314E-01  0.51100000000E-03 0.  1.
         11    1    4    4    0    0  0.85844230295E-02 -0.36181619277E-01 -0.52517179641E-01  0.64351512575E-01  0.51100000000E-03 0. -1.
</event>
<event>
 8    1  0.1135368E+005  0.1043930E+01  0.7957747E-01            NaN
         13   -1    0    0    0    0  0.00000000000E+00  0.00000000000E+00  0.74505805969E-08  0.10566000000E+00  0.10566000000E+00 0.  1.
     999900   -1    0    0    0    0 -0.00000000000E+00 -0.00000000000E+00 -0.74505805969E-08  0.93827000000E+00  0.93827000000E+00 0. -1.
     999902    2    1    2    0    0  0.31376882311E-02 -0.28158692706E-02 -0.24387436425E-01  0.10191808331E+01  0.10188802919E+01 0.  0.
     999903    2    3    3    0    0  0.95043018156E-01  0.66870347712E-02 -0.88890289836E-01  0.13199567037E+00  0.21059003678E-01 0.  0.
         14    1    1    2    0    0 -0.31376882311E-02  0.28158692706E-02  0.24387436425E-01  0.24749166906E-01  0.00000000000E+00 0.  1.
     999901    1    3    3    0    0 -0.91905329925E-01 -0.95029040418E-02  0.64502853411E-01  0.88718516272E+00  0.88000000000E+00 0.  1.
        -11    1    4    4    0    0  0.73515580448E-01  0.78182390090E-02 -0.79232663174E-01  0.10836854463E+00  0.51100000000E-03 0.  1.
         11    1    4    4    0    0  0.21527437708E-01 -0.11312042378E-02 -0.96576266611E-02  0.23627125746E-01  0.51100000000E-03 0. -1.
</event>
<event>
 8    1  0.1135368E+005  0.1043930E+01  0.7957747E-01            NaN
         13   -1    0    0    0    0  0.00000000000E+00  0.00000000000E+00  0.74505805969E-08  0.10566000000E+00  0.10566000000E+00 0.  1.
     999900   -1    0    0    0    0 -0.00000000000E+00 -0.00000000000E+00 -0.74505805969E-08  0.93827000000E+00  0.93827000000E+00 0. -1.
     999902    2    1    2    0    0  0.22707436207E-01 -0.30641161118E-02  0.13203934754E-02  0.10209787494E+01  0.10207207487E+01 0.  0.
     999903    2    3    3    0    0 -0.58103418195E-01 -0.62069215478E-01  0.96942823337E-01  0.13016134662E+00  0.17761487616E-01 0.  0.
         14    1    1    2    0    0 -0.22707436207E-01  0.30641161118E-02 -0.13203934754E-02  0.22951250632E-01  0.00000000000E+00 0.  1.
     999901    1    3    3    0    0  0.80810854401E-01  0.59005099366E-01 -0.95622429861E-01  0.89081740274E+00  0.88000000000E+00 0.  1.
        -11    1    4    4    0    0 -0.50878178280E-01 -0.58262542455E-01  0.79644531273E-01  0.11102533657E+00  0.51100000000E-03 0. -1.
         11    1    4    4    0    0 -0.72252399142E-02 -0.38066730233E-02  0.17298292064E-01  0.19136010051E-01  0.51100000000E-03 0.  1.
</event>
<event>
 8    1  0.1135368E+005  0.1043930E+01  0.7957747E-01            NaN
         13   -1    0    0    0    0  0.00000000000E+00  0.00000000000E+00  0.74505805969E-08  0.10566000000E+00  0.10566000000E+00 0.  1.
     999900   -1    0    0    0    0 -0.00000000000E+00 -0.00000000000E+00 -0.74505805969E-08  0.93827000000E+00  0.93827000000E+00 0. -1.
     999902    2    1    2    0    0 -0.56251836864E-02  0.20072666953E-03  0.23519728164E-01  0.10197461088E+01  0.10194593007E+01 0.  0.
     999903    2    3    3    0    0 -0.30495020058E-01 -0.68516066769E-01  0.10763737947E+00  0.13271945430E+00  0.20105980138E-01 0.  0.
         14    1    1    2    0    0  0.56251836864E-02 -0.20072666953E-03 -0.23519728164E-01  0.24183891242E-01  0.00000000000E+00 0. -1.
     999901    1    3    3    0    0  0.24869836371E-01  0.68716793438E-01 -0.84117651302E-01  0.88702665446E+00  0.88000000000E+00 0. -1.
        -11    1    4    4    0    0  0.23209962644E-02 -0.29418823992E-02  0.93971034269E-02  0.10129578941E-01  0.51100000000E-03 0.  1.
         11    1    4    4    0    0 -0.32816016322E-01 -0.65574184370E-01  0.98240276038E-01  0.12258987536E+00  0.51100000000E-03 0. -1.
</event>
<event>
 7    1  0.1135368E+005  0.1043930E+01  0.7957747E-01            NaN
         13   -1    0    0    0    0  0.00000000000E+00  0.00000000000E+00  0.74505805969E-08  0.10566000000E+00  0.10566000000E+00 0.  1.
     999900   -1    0    0    0    0 -0.00000000000E+00 -0.00000000000E+00 -0.74505805969E-08  0.93827000000E+00  0.93827000000E+00 0.  1.
     999903    2    1    2    0    0 -0.95490812685E-01 -0.60962426520E-01 -0.71017262283E-03  0.11498923787E+00  0.19675053375E-01 0.  0.
         14    1    1    2    0    0  0.23053956152E-01  0.38731695707E-01  0.72951243137E-02  0.45660135626E-01  0.00000000000E+00 0.  1.
     999901    1    1    2    0    0  0.72436856533E-01  0.22230730813E-01 -0.65849516909E-02  0.88328062651E+00  0.88000000000E+00 0. -1.
        -11    1    3    3    0    0 -0.22639174955E-01 -0.24183792095E-01 -0.36117315258E-02  0.33327072604E-01  0.51100000000E-03 0.  1.
         11    1    3    3    0    0 -0.72851637731E-01 -0.36778634425E-01  0.29015589030E-02  0.81662165262E-01  0.51100000000E-03 0. -1.
</event>
<event>
 8    1  0.1135368E+005  0.1043930E+01  0.7957747E-01            NaN
         13   -1    0    0    0    0  0.00000000000E+00  0.00000000000E+00  0.74505805969E-08  0.10566000000E+00  0.10566000000E+00 0.  1.
     999900   -1    0    0    0    0 -0.00000000000E+00 -0.00000000000E+00 -0.74505805969E-08  0.93827000000E+00  0.93827000000E+00 0.  1.
     999902    2    1    2    0    0  0.17133283195E-01  0.16406157893E-01 -0.59261688531E-03  0.10202010598E+01  0.10199250657E+01 0.  0.
     999903    2    3    3    0    0 -0.41134996338E-01  0.68666826303E-01  0.10157362131E+00  0.13083931667E+00  0.19862157008E-01 0.  0.
         14    1    1    2    0    0 -0.17133283195E-01 -0.16406157893E-01  0.59261688531E-03  0.23728940234E-01  0.00000000000E+00 0. -1.
     999901    1    3    3    0    0  0.58268279533E-01 -0.52260668409E-01 -0.10216623820E+00  0.88936174310E+00  0.88000000000E+00 0. -1.
        -11    1    4    4    0    0 -0.41339110695E-01  0.55234954009E-01  0.83549611144E-01  0.10835414556E+00  0.51100000000E-03 0. -1.
         11    1    4    4    0    0  0.20411435723E-03  0.13431872293E-01  0.18024010168E-01  0.22485171103E-01  0.51100000000E-03 0.  1.
</event>
<event>
 8    1  0.1135368E+005  0.1043930E+01  0.7957747E-01            NaN
         13   -1    0    0    0    0  0.00000000000E+00  0.00000000000E+00  0.74505805969E-08  0.10566000000E+00  0.10566000000E+00 0. -1.
     999900   -1    0    0    0    0 -0.00000000000E+00 -0.00000000000E+00 -0.74505805969E-08  0.93827000000E+00  0.93827000000E+00 0.  1.
     999902    2    1    2    0    0  0.42672854142E-02  0.55220091471E-03 -0.23627554441E-01  0.10199138392E+01  0.10196310428E+01 0.  0.
     999903    2    3    3    0    0  0.12374723328E+00 -0.25159720199E-01  0.24266956105E-01  0.13017767327E+00  0.20271955878E-01 0.  0.
         14    1    1    2    0    0 -0.42672854142E-02 -0.55220091471E-03  0.23627554441E-01  0.24016160799E-01  0.00000000000E+00 0. -1.
     999901    1    3    3    0    0 -0.11947994786E+00  0.25711921114E-01 -0.47894510545E-01  0.88973616593E+00  0.88000000000E+00 0.  1.
        -11    1    4    4    0    0  0.85542556544E-01 -0.97580283499E-02  0.10469728108E-01  0.86733064197E-01  0.51100000000E-03 0.  1.
         11    1    4    4    0    0  0.38204676732E-01 -0.15401691849E-01  0.13797227996E-01  0.43444609072E-01  0.51100000000E-03 0. -1.
</event>
<event>
 8    1  0.1135368E+005  0.1043930E+01  0.7957747E-01            NaN
         13   -1    0    0    0    0  0.00000000000E+00  0.00000000000E+00  0.74505805969E-08  0.10566000000E+00  0.10566000000E+00 0. -1.
     999900   -1    0    0    0    0 -0.00000000000E+00 -0.00000000000E+00 -0.74505805969E-08  0.93827000000E+00  0.93827000000E+00 0.  1.
     999902    2    1    2    0    0 -0.39833608414E-02  0.23351998678E-01  0.73750584059E-03  0.10202292211E+01  0.10199538895E+01 0.  0.
     999903    2    3    3    0    0 -0.59714289180E-01 -0.84913672773E-01  0.73575250493E-01  0.12886356715E+00  0.20405227202E-01 0.  0.
         14    1    1    2    0    0  0.39833608414E-02 -0.23351998678E-01 -0.73750584059E-03  0.23700778906E-01  0.00000000000E+00 0.  1.
     999901    1    3    3    0    0  0.55730928338E-01  0.10826567145E+00 -0.72837744653E-01  0.89136565395E+00  0.88000000000E+00 0.  1.
        -11    1    4    4    0    0 -0.97199408500E-02 -0.10620435886E-01  0.19531473792E-01  0.24269538480E-01  0.51100000000E-03 0. -1.
         11    1    4    4    0    0 -0.49994348330E-01 -0.74293236887E-01  0.54043776701E-01  0.10459402867E+00  0.51100000000E-03 0.  1.
</event>
<event>
 8    1  0.1135368E+005  0.1043930E+01  0.7957747E-01            NaN
         13   -1    0    0    0    0  0.00000000000E+00  0.00000000000E+00  0.74505805969E-08  0.10566000000E+00  0.10566000000E+00 0.  1.
     999900   -1    0    0    0    0 -0.00000000000E+00 -0.00000000000E+00 -0.74505805969E-08  0.93827000000E+00  0.93827000000E+00 0.  1.
     999902    2    1    2    0    0 -0.20607203089E-01 -0.83745576984E-02  0.62270787989E-02  0.10208309406E+01  0.10205695678E+01 0.  0.
     999903    2    3    3    0    0 -0.78445756638E-01 -0.95031150782E-01  0.48939398131E-01  0.13365620828E+00  0.16860040617E-01 0.  0.
         14    1    1    2    0    0  0.20607203089E-01  0.83745576984E-02 -0.62270787989E-02  0.23099059421E-01  0.00000000000E+00 0.  1.
     999901    1    3    3    0    0  0.57838553549E-01  0.86656593084E-01 -0.42712319333E-01  0.88717473230E+00  0.88000000000E+00 0. -1.
        -11    1    4    4    0    0 -0.25851039910E-01 -0.35553210004E-01  0.93881784763E-02  0.44952263815E-01  0.51100000000E-03 0. -1.
         11    1    4    4    0    0 -0.52594716728E-01 -0.59477940778E-01  0.39551219655E-01  0.88703944468E-01  0.51100000000E-03 0.  1.
</event>
<event>
 8    1  0.1135368E+005  0.1043930E+01  0.7957747E-01            NaN
         13   -1    0    0    0    0  0.00000000000E+00  0.00000000000E+00  0.74505805969E-08  0.10566000000E+00  0.10566000000E+00 0.  1.
     999900   -1    0    0    0    0 -0.00000000000E+00 -0.00000000000E+00 -0.74505805969E-08  0.93827000000E+00  0.93827000000E+00 0. -1.
     999902    2    1    2    0    0 -0.16751049562E-01  0.14653744440E-01 -0.31859008137E-02  0.10214471209E+01  0.10211996578E+01 0.  0.
     999903    2    3    3    0    0  0.71881652121E-01  0.16415439923E-01  0.10499545082E+00  0.13040163150E+00  0.23325998920E-01 0.  0.
         14    1    1    2    0    0  0.16751049562E-01 -0.14653744440E-01  0.31859008137E-02  0.22482879076E-01  0.00000000000E+00 0. -1.
     999901    1    3    3    0    0 -0.88632701683E-01 -0.17616954826E-02 -0.10818135164E+00  0.89104548942E+00  0.88000000000E+00 0. -1.
        -11    1    4    4    0    0  0.15593994242E-01 -0.18983171703E-02  0.37298143307E-01  0.40474546071E-01  0.51100000000E-03 0. -1.
         11    1    4    4    0    0  0.56287657879E-01  0.18313757093E-01  0.67697307514E-01  0.89927085430E-01  0.51100000000E-03 0.  1.
</event>
<event>
 8    1  0.1135368E+005  0.1043930E+01  0.7957747E-01            NaN
         13   -1    0    0    0    0  0.00000000000E+00  0.00000000000E+00  0.74505805969E-08  0.10566000000E+00  0.10566000000E+00 0.  1.
     999900   -1    0    0    0    0 -0.00000000000E+00 -0.00000000000E+00 -0.74505805969E-08  0.93827000000E+00  0.93827000000E+00 0.  1.
     999902    2    1    2    0    0  0.22423956631E-01  0.78710965930E-02 -0.37666224552E-02  0.10198680916E+01  0.10195842039E+01 0.  0.
     999903    2    3    3    0    0  0.16105036824E-01 -0.38311989591E-01  0.12141333443E+00  0.12978785485E+00  0.19403832937E-01 0.  0.
         14    1    1    2    0    0 -0.22423956631E-01 -0.78710965930E-02  0.37666224552E-02  0.24061908430E-01  0.00000000000E+00 0. -1.
     999901    1    3    3    0    0  0.63189198065E-02  0.46183086184E-01 -0.12517995688E+00  0.89008023672E+00  0.88000000000E+00 0.  1.
        -11    1    4    4    0    0  0.57979446102E-02 -0.96274385950E-02  0.13106603657E-01  0.17272750679E-01  0.51100000000E-03 0. -1.
         11    1    4    4    0    0  0.10307092214E-01 -0.28684550996E-01  0.10830673077E+00  0.11251510417E+00  0.51100000000E-03 0.  1.
</event>
<event>
 8    1  0.1135368E+005  0.1043930E+01  0.7957747E-01            NaN
         13   -1    0    0    0    0  0.00000000000E+00  0.00000000000E+00  0.74505805969E-08  0.10566000000E+00  0.10566000000E+00 0.  1.
     999900   -1    0    0    0    0 -0.00000000000E+00 -0.00000000000E+00 -0.74505805969E-08  0.93827000000E+00  0.93827000000E+00 0. -1.
     999902    2    1    2    0    0 -0.30356066083E-02  0.72883749187E-02 -0.22859674227E-01  0.10197452936E+01  0.10194584660E+01 0.  0.
     999903    2    3    3    0    0  0.26713101024E-01  0.12658838101E+00 -0.15544801928E-02  0.13094194735E+00  0.20128815032E-01 0.  0.
         14    1    1    2    0    0  0.30356066083E-02 -0.72883749187E-02  0.22859674227E-01  0.24184706370E-01  0.00000000000E+00 0.  1.
     999901    1    3    3    0    0 -0.29748707632E-01 -0.11930000609E+00 -0.21305194034E-01  0.88880334628E+00  0.88000000000E+00 0. -1.
        -11    1    4    4    0    0  0.23232226252E-02  0.59256587032E-01 -0.16394427227E-02  0.59326969950E-01  0.51100000000E-03 0.  1.
         11    1    4    4    0    0  0.24389878399E-01  0.67331793980E-01  0.84962529904E-04  0.71614977403E-01  0.51100000000E-03 0. -1.
</event>
<event>
 8    1  0.1135368E+005  0.1043930E+01  0.7957747E-01            NaN
         13   -1    0    0    0    0  0.00000000000E+00  0.00000000000E+00  0.74505805969E-08  0.10566000000E+00  0.10566000000E+00 0.  1.
     999900   -1    0    0    0    0 -0.00000000000E+00 -0.00000000000E+00 -0.74505805969E-08  0.93827000000E+00  0.93827000000E+00 0. -1.
     999902    2    1    2    0    0 -0.12619547795E-01 -0.15886896120E-01 -0.12713609978E-01  0.10199866850E+01  0.10197056218E+01 0.  0.
     999903    2    3    3    0    0 -0.10467294552E+00 -0.25233529203E-01  0.72131879906E-01  0.13107727187E+00  0.19623623084E-01 0.  0.
         14    1    1    2    0    0  0.12619547795E-01  0.15886896120E-01  0.12713609978E-01  0.23943315008E-01  0.00000000000E+00 0.  1.
     999901    1    3    3    0    0  0.92053397723E-01  0.93466330827E-02 -0.84845489884E-01  0.88890941312E+00  0.88000000000E+00 0.  1.
        -11    1    4    4    0    0 -0.91524812280E-01 -0.22042127857E-01  0.54275134032E-01  0.10866783314E+00  0.51100000000E-03 0. -1.
         11    1    4    4    0    0 -0.13148133238E-01 -0.31914013463E-02  0.17856745874E-01  0.22409438734E-01  0.51100000000E-03 0.  1.
</event>
<event>
 8    1  0.1135368E+005  0.1043930E+01  0.7957747E-01            NaN
         13   -1    0    0    0    0  0.00000000000E+00  0.00000000000E+00  0.74505805969E-08  0.10566000000E+00  0.10566000000E+00 0. -1.
     999900   -1    0    0    0    0 -0.00000000000E+00 -0.00000000000E+00 -0.74505805969E-08  0.93827000000E+00  0.93827000000E+00 0.  1.
     999902    2    1    2    0    0 -0.16847634826E-01  0.87639010189E-03 -0.16662693888E-01  0.10202180573E+01  0.10199424632E+01 0.  0.
     999903    2    3    3    0    0  0.41395232000E-01  0.92643077915E-01  0.78360349385E-01  0.12845422350E+00  0.79898723980E-02 0.  0.
         14    1    1    2    0    0  0.16847634826E-01 -0.87639010189E-03  0.16662693888E-01  0.23711942697E-01  0.00000000000E+00 0. -1.
     999901    1    3    3    0    0 -0.58242866826E-01 -0.91766687814E-01 -0.95023043273E-01  0.89176383380E+00  0.88000000000E+00 0.  1.
        -11    1    4    4    0    0  0.33237034443E-01  0.80989508019E-01  0.67815223729E-01  0.11073918258E+00  0.51100000000E-03 0.  1.
         11    1    4    4    0    0  0.81581975564E-02  0.11653569897E-01  0.10545125656E-01  0.17715040920E-01  0.51100000000E-03 0. -1.
</event>
<event>
 8    1  0.1135368E+005  0.1043930E+01  0.7957747E-01            NaN
         13   -1    0    0    0    0  0.00000000000E+00  0.00000000000E+00  0.74505805969E-08  0.10566000000E+00  0.10566000000E+00 0.  1.
     999900   -1    0    0    0    0 -0.00000000000E+00 -0.00000000000E+00 -0.74505805969E-08  0.93827000000E+00  0.93827000000E+00 0.  1.
     999902    2    1    2    0    0  0.16777318457E-01 -0.87594294305E-03 -0.16404294343E-01  0.10204492299E+01  0.10201790452E+01 0.  0.
     999903    2    3    3    0    0 -0.25381692659E-01 -0.88359455582E-01 -0.92355839113E-01  0.13185518067E+00  0.20113774876E-01 0.  0.
         14    1    1    2    0    0 -0.16777318457E-01  0.87594294305E-03  0.16404294343E-01  0.23480770079E-01  0.00000000000E+00 0.  1.
     999901    1    3    3    0    0  0.42159011115E-01  0.87483512638E-01  0.75951544770E-01  0.88859404925E+00  0.88000000000E+00 0. -1.
        -11    1    4    4    0    0 -0.93598618074E-02 -0.26473181096E-01 -0.16190116028E-01  0.32416312381E-01  0.51100000000E-03 0. -1.
         11    1    4    4    0    0 -0.16021830851E-01 -0.61886274485E-01 -0.76165723085E-01  0.99438868294E-01  0.51100000000E-03 0.  1.
</event>
<event>
 8    1  0.1135368E+005  0.1043930E+01  0.7957747E-01            NaN
         13   -1    0    0    0    0  0.00000000000E+00  0.00000000000E+00  0.74505805969E-08  0.10566000000E+00  0.10566000000E+00 0. -1.
     999900   -1    0    0    0    0 -0.00000000000E+00 -0.00000000000E+00 -0.74505805969E-08  0.93827000000E+00  0.93827000000E+00 0. -1.
     999902    2    1    2    0    0 -0.15443997810E-01  0.13906805101E-01 -0.12003838426E-01  0.10199298243E+01  0.10196474087E+01 0.  0.
     999903    2    3    3    0    0 -0.43138069552E-01 -0.11962788419E+00 -0.13802521690E-01  0.12942338968E+00  0.19702296028E-01 0.  0.
         14    1    1    2    0    0  0.15443997810E-01 -0.13906805101E-01  0.12003838426E-01  0.24000175696E-01  0.00000000000E+00 0.  1.
     999901    1    3    3    0    0  0.27694071742E-01  0.13353468929E+00  0.17986832637E-02  0.89050643463E+00  0.88000000000E+00 0. -1.
        -11    1    4    4    0    0 -0.70165550692E-02 -0.47132270971E-01 -0.65309926263E-02  0.48099875235E-01  0.51100000000E-03 0.  1.
         11    1    4    4    0    0 -0.36121514483E-01 -0.72495613222E-01 -0.72715290637E-02  0.81323514440E-01  0.51100000000E-03 0. -1.
</event>
<event>
 8    1  0.1135368E+005  0.1043930E+01  0.7957747E-01            NaN
         13   -1    0    0    0    0  0.00000000000E+00  0.00000000000E+00  0.74505805969E-08  0.10566000000E+00  0.10566000000E+00 0. -1.
     999900   -1    0    0    0    0 -0.00000000000E+00 -0.00000000000E+00 -0.74505805969E-08  0.93827000000E+00  0.93827000000E+00 0.  1.
     999902    2    1    2    0    0 -0.12494173676E-01  0.19679830768E-01 -0.56448157940E-02  0.10199453370E+01  0.10196632907E+01 0.  0.
     999903    2    3    3    0    0 -0.29607784456E-01  0.29378927114E-01 -0.12369923315E+00  0.13184410761E+00  0.18483132069E-01 0.  0.
         14    1    1    2    0    0  0.12494173676E-01 -0.19679830768E-01  0.56448157940E-02  0.23984663021E-01  0.00000000000E+00 0.  1.
     999901    1    3    3    0    0  0.17113610781E-01 -0.96990963458E-02  0.11805441736E+00  0.88810122937E+00  0.88000000000E+00 0. -1.
        -11    1    4    4    0    0 -0.15012195495E-01  0.10087304593E-01 -0.78689167236E-01  0.80742590303E-01  0.51100000000E-03 0.  1.
         11    1    4    4    0    0 -0.14595588962E-01  0.19291622520E-01 -0.45010065915E-01  0.51101517309E-01  0.51100000000E-03 0. -1.
</event>
<event>
 8    1  0.1135368E+005  0.1043930E+01  0.7957747E-01            NaN
         13   -1    0    0    0    0  0.00000000000E+00  0.00000000000E+00  0.74505805969E-08  0.10566000000E+00  0.10566000000E+00 0.  1.
     999900   -1    0    0    0    0 -0.00000000000E+00 -0.00000000000E+00 -0.74505805969E-08  0.93827000000E+00  0.93827000000E+00 0.  1.
     999902    2    1    2    0    0 -0.68683073578E-02  0.20469590555E-01 -0.98657838294E-02  0.10201916034E+01  0.10199153868E+01 0.  0.
     999903    2    3    3    0    0 -0.22016391422E-01 -0.12411786785E+00  0.10933643577E-01  0.12802143253E+00  0.19492973451E-01 0.  0.
         14    1    1    2    0    0  0.68683073578E-02 -0.20469590555E-01  0.98657838294E-02  0.23738396618E-01  0.00000000000E+00 0.  1.
     999901    1    3    3    0    0  0.15148084064E-01  0.14458745841E+00 -0.20799427406E-01  0.89217017085E+00  0.88000000000E+00 0.  1.
        -11    1    4    4    0    0 -0.60138450264E-02 -0.84845931803E-01  0.51159869812E-02  0.85214041797E-01  0.51100000000E-03 0.  1.
         11    1    4    4    0    0 -0.16002546396E-01 -0.39271936048E-01  0.58176565954E-02  0.42807390733E-01  0.51100000000E-03 0. -1.
</event>
<event>
 8    1  0.1135368E+005  0.1043930E+01  0.7957747E-01            NaN
         13   -1    0    0    0    0  0.00000000000E+00  0.00000000000E+00  0.74505805969E-08  0.10566000000E+00  0.10566000000E+00 0. -1.
     999900   -1    0    0    0    0 -0.00000000000E+00 -0.00000000000E+00 -0.74505805969E-08  0.93827000000E+00  0.93827000000E+00 0. -1.
     999902    2    1    2    0    0  0.57360421805E-02 -0.17410841990E-01 -0.31012209995E-02  0.10253381424E+01  0.10251695709E+01 0.  0.
     999903    2    3    3    0    0 -0.39129428814E-01  0.12513348709E+00  0.28554988165E-02  0.13271992680E+00  0.20418699946E-01 0.  0.
         14    1    1    2    0    0 -0.57360421805E-02  0.17410841990E-01  0.31012209995E-02  0.18591857637E-01  0.00000000000E+00 0. -1.
     999901    1    3    3    0    0  0.44865470995E-01 -0.14254432908E+00 -0.59567198160E-02  0.89261821556E+00  0.88000000000E+00 0. -1.
        -11    1    4    4    0    0 -0.23973814610E-01  0.46850949819E-01 -0.33755588490E-02  0.52739082325E-01  0.51100000000E-03 0. -1.
         11    1    4    4    0    0 -0.15155614204E-01  0.78282537266E-01  0.62310576655E-02  0.79980844478E-01  0.51100000000E-03 0.  1.
</event>
<event>
 8    1  0.1135368E+005  0.1043930E+01  0.7957747E-01            NaN
         13   -1    0    0    0    0  0.00000000000E+00  0.00000000000E+00  0.74505805969E-08  0.10566000000E+00  0.10566000000E+00 0. -1.
     999900   -1    0    0    0    0 -0.00000000000E+00 -0.00000000000E+00 -0.74505805969E-08  0.93827000000E+00  0.93827000000E+00 0. -1.
     999902    2    1    2    0    0 -0.12608125545E-01  0.15091483786E-01 -0.13406831184E-01  0.10201295623E+01  0.10198518829E+01 0.  0.
     999903    2    3    3    0    0 -0.89952073836E-01 -0.11222101575E-01  0.91316774958E-01  0.13016241414E+00  0.19651705130E-01 0.  0.
         14    1    1    2    0    0  0.12608125545E-01 -0.15091483786E-01  0.13406831184E-01  0.23800437707E-01  0.00000000000E+00 0. -1.
     999901    1    3    3    0    0  0.77343948291E-01  0.26313585361E-01 -0.10472360614E+00  0.88996714815E+00  0.88000000000E+00 0. -1.
        -11    1    4    4    0    0 -0.78811474364E-01 -0.30450898297E-02  0.76070187304E-01  0.10957853613E+00  0.51100000000E-03 0. -1.
         11    1    4    4    0    0 -0.11140599471E-01 -0.81770117451E-02  0.15246587653E-01  0.20583878005E-01  0.51100000000E-03 0.  1.
</event>
<event>
 8    1  0.1135368E+005  0.1043930E+01  0.7957747E-01            NaN
         13   -1    0    0    0    0  0.00000000000E+00  0.00000000000E+00  0.74505805969E-08  0.10566000000E+00  0.10566000000E+00 0.  1.
     999900   -1    0    0    0    0 -0.00000000000E+00 -0.00000000000E+00 -0.74505805969E-08  0.93827000000E+00  0.93827000000E+00 0. -1.
     999902    2    1    2    0    0  0.70250098899E-02  0.93652970616E-02 -0.20601859035E-01  0.10202340900E+01  0.10199588729E+01 0.  0.
     999903    2    3    3    0    0 -0.66830203736E-01 -0.10756799096E+00 -0.16718267318E-01  0.12942374619E+00  0.20829229586E-01 0.  0.
         14    1    1    2    0    0 -0.70250098899E-02 -0.93652970616E-02  0.20601859035E-01  0.23695909957E-01  0.00000000000E+00 0.  1.
     999901    1    3    3    0    0  0.73855213626E-01  0.11693328802E+00 -0.38835917169E-02  0.89081034385E+00  0.88000000000E+00 0.  1.
        -11    1    4    4    0    0 -0.13143380445E-01 -0.39464888792E-01 -0.64652285555E-02  0.42098529644E-01  0.51100000000E-03 0. -1.
         11    1    4    4    0    0 -0.53686823291E-01 -0.68103102170E-01 -0.10253038762E-01  0.87325216548E-01  0.51100000000E-03 0.  1.
</event>
<event>
 8    1  0.1135368E+005  0.1043930E+01  0.7957747E-01            NaN
         13   -1    0    0    0    0  0.00000000000E+00  0.00000000000E+00  0.74505805969E-08  0.10566000000E+00  0.10566000000E+00 0. -1.
     999900   -1    0    0    0    0 -0.00000000000E+00 -0.00000000000E+00 -0.74505805969E-08  0.93827000000E+00  0.93827000000E+00 0.  1.
     999902    2    1    2    0    0 -0.24662644246E-01 -0.53161919506E-02  0.11089879880E-02  0.10186765295E+01  0.10183634587E+01 0.  0.
     999903    2    3    3    0    0 -0.61668192768E-01 -0.10515229326E+00 -0.43922102580E-01  0.13111556998E+00  0.20054197023E-01 0.  0.
         14    1    1    2    0    0  0.24662644246E-01  0.53161919506E-02 -0.11089879880E-02  0.25253470503E-01  0.00000000000E+00 0. -1.
     999901    1    3    3    0    0  0.37005548521E-01  0.99836101310E-01  0.45031090568E-01  0.88756095952E+00  0.88000000000E+00 0. -1.
        -11    1    4    4    0    0 -0.34603550722E-01 -0.54447705802E-01 -0.12871360906E-01  0.65786711745E-01  0.51100000000E-03 0. -1.
         11    1    4    4    0    0 -0.27064642046E-01 -0.50704587459E-01 -0.31050741674E-01  0.65328858232E-01  0.51100000000E-03 0.  1.
</event>
<event>
 8    1  0.1135368E+005  0.1043930E+01  0.7957747E-01            NaN
         13   -1    0    0    0    0  0.00000000000E+00  0.00000000000E+00  0.74505805969E-08  0.10566000000E+00  0.10566000000E+00 0. -1.
     999900   -1    0    0    0    0 -0.00000000000E+00 -0.00000000000E+00 -0.74505805969E-08  0.93827000000E+00  0.93827000000E+00 0. -1.
     999902    2    1    2    0    0  0.25427188716E-02 -0.24153118220E-01 -0.24843981494E-02  0.10195166681E+01  0.10192243256E+01 0.  0.
     999903    2    3    3    0    0  0.12156540075E+00 -0.14742171604E-01 -0.40239417285E-01  0.13065199553E+00  0.21336704260E-01 0.  0.
         14    1    1    2    0    0 -0.25427188716E-02  0.24153118220E-01  0.24843981494E-02  0.24413331873E-01  0.00000000000E+00 0. -1.
     999901    1    3    3    0    0 -0.11902268188E+00 -0.94109466155E-02  0.37755019135E-01  0.88886467260E+00  0.88000000000E+00 0.  1.
        -11    1    4    4    0    0  0.45750832975E-01 -0.15355816844E-01 -0.19458940363E-01  0.52037018649E-01  0.51100000000E-03 0. -1.
         11    1    4    4    0    0  0.75814567780E-01  0.61364523952E-03 -0.20780476921E-01  0.78614976882E-01  0.51100000000E-03 0.  1.
</event>
<event>
 8    1  0.1135368E+005  0.1043930E+01  0.7957747E-01            NaN
         13   -1    0    0    0    0  0.00000000000E+00  0.00000000000E+00  0.74505805969E-08  0.10566000000E+00  0.10566000000E+00 0. -1.
     999900   -1    0    0    0    0 -0.00000000000E+00 -0.00000000000E+00 -0.74505805969E-08  0.93827000000E+00  0.93827000000E+00 0.  1.
     999902    2    1    2    0    0  0.29702288272E-02  0.58209824704E-03  0.23801823962E-01  0.10199365025E+01  0.10196542459E+01 0.  0.
     999903    2    3    3    0    0 -0.86527095370E-01 -0.18512255427E-02 -0.91943198551E-01  0.12785320913E+00  0.20063051994E-01 0.  0.
         14    1    1    2    0    0 -0.29702288272E-02 -0.58209824704E-03 -0.23801823962E-01  0.23993497485E-01  0.00000000000E+00 0.  1.
     999901    1    3    3    0    0  0.89497324197E-01  0.24333237897E-02  0.11574502251E+00  0.89208329339E+00  0.88000000000E+00 0. -1.
        -11    1    4    4    0    0 -0.25819137419E-01 -0.73935031725E-02 -0.37437123187E-01  0.46077012270E-01  0.51100000000E-03 0.  1.
         11    1    4    4    0    0 -0.60707957951E-01  0.55422776298E-02 -0.54506075364E-01  0.81776196858E-01  0.51100000000E-03 0. -1.
</event>
<event>
 8    1  0.1135368E+005  0.1043930E+01  0.7957747E-01            NaN
         13   -1    0    0    0    0  0.00000000000E+00  0.00000000000E+00  0.74505805969E-08  0.10566000000E+00  0.10566000000E+00 0.  1.
     999900   -1    0    0    0    0 -0.00000000000E+00 -0.00000000000E+00 -0.74505805969E-08  0.93827000000E+00  0.93827000000E+00 0.  1.
     999902    2    1    2    0    0  0.16861473468E-01  0.12642238313E-01 -0.15058944804E-01  0.10180281218E+01  0.10176985553E+01 0.  0.
     999903    2    3    3    0    0  0.88367822810E-02 -0.11451950315E+00 -0.52770126902E-01  0.12805248311E+00  0.20492603921E-01 0.  0.
         14    1    1    2    0    0 -0.16861473468E-01 -0.12642238313E-01  0.15058944804E-01  0.25901878227E-01  0.00000000000E+00 0.  1.
     999901    1    3    3    0    0  0.80246911871E-02  0.12716174146E+00  0.37711182098E-01  0.88997563866E+00  0.88000000000E+00 0. -1.
        -11    1    4    4    0    0  0.13713769258E-01 -0.52100831785E-01 -0.20820870774E-01  0.57761006923E-01  0.51100000000E-03 0.  1.
         11    1    4    4    0    0 -0.48769869765E-02 -0.62418671360E-01 -0.31949256128E-01  0.70291476186E-01  0.51100000000E-03 0. -1.
</event>
<event>
 8    1  0.1135368E+005  0.1043930E+01  0.7957747E-01            NaN
         13   -1    0    0    0    0  0.00000000000E+00  0.00000000000E+00  0.74505805969E-08  0.10566000000E+00  0.10566000000E+00 0. -1.
     999900   -1    0    0    0    0 -0.00000000000E+00 -0.00000000000E+00 -0.74505805969E-08  0.93827000000E+00  0.93827000000E+00 0.  1.
     999902    2    1    2    0    0  0.18336747841E-01  0.13978945384E-01  0.63884314882E-02  0.10200038785E+01  0.10197232236E+01 0.  0.
     999903    2    3    3    0    0  0.12529831679E+00 -0.35208654436E-01 -0.74821581904E-02  0.13205534928E+00  0.21055047941E-01 0.  0.
         14    1    1    2    0    0 -0.18336747841E-01 -0.13978945384E-01 -0.63884314882E-02  0.23926121547E-01  0.00000000000E+00 0.  1.
     999901    1    3    3    0    0 -0.10696156895E+00  0.49187599820E-01  0.13870589679E-01  0.88794852918E+00  0.88000000000E+00 0.  1.
        -11    1    4    4    0    0  0.70211000543E-01 -0.10926804696E-01 -0.10221380910E-01  0.71789396201E-01  0.51100000000E-03 0.  1.
         11    1    4    4    0    0  0.55087316247E-01 -0.24281849740E-01  0.27392227195E-02  0.60265953076E-01  0.51100000000E-03 0. -1.
</event>
<event>
 8    1  0.1135368E+005  0.1043930E+01  0.7957747E-01            NaN
         13   -1    0    0    0    0  0.00000000000E+00  0.00000000000E+00  0.74505805969E-08  0.10566000000E+00  0.10566000000E+00 0. -1.
     999900   -1    0    0    0    0 -0.00000000000E+00 -0.00000000000E+00 -0.74505805969E-08  0.93827000000E+00  0.93827000000E+00 0.  1.
     999902    2    1    2    0    0 -0.77842010289E-02 -0.32792497448E-03  0.24757380458E-01  0.10179756322E+01  0.10176447114E+01 0.  0.
     999903    2    3    3    0    0 -0.13649860166E-01 -0.41099090650E-01 -0.11629962205E+00  0.12579080166E+00  0.20549203319E-01 0.  0.
         14    1    1    2    0    0  0.77842010289E-02  0.32792497448E-03 -0.24757380458E-01  0.25954367794E-01  0.00000000000E+00 0.  1.
     999901    1    3    3    0    0  0.58656591376E-02  0.40771165675E-01  0.14105700251E+00  0.89218483055E+00  0.88000000000E+00 0. -1.
        -11    1    4    4    0    0 -0.70644519810E-02 -0.22988178114E-01 -0.90145436384E-01  0.93299644355E-01  0.51100000000E-03 0. -1.
         11    1    4    4    0    0 -0.65854081855E-02 -0.18110912535E-01 -0.26154185667E-01  0.32491157300E-01  0.51100000000E-03 0.  1.
</event>
<event>
 8    1  0.1135368E+005  0.1043930E+01  0.7957747E-01            NaN
         13   -1    0    0    0    0  0.00000000000E+00  0.00000000000E+00  0.74505805969E-08  0.10566000000E+00  0.10566000000E+00 0. -1.
     999900   -1    0    0    0    0 -0.00000000000E+00 -0.00000000000E+00 -0.74505805969E-08  0.93827000000E+00  0.93827000000E+00 0.  1.
     999902    2    1    2    0    0  0.82274688888E-03 -0.17371720694E-02  0.23525809442E-01  0.10203257972E+01  0.10200527310E+01 0.  0.
     999903    2    3    3    0    0  0.38570792971E-01 -0.12015494846E-01  0.12570005815E+00  0.13355066450E+00  0.20079770515E-01 0.  0.
         14    1    1    2    0    0 -0.82274688888E-03  0.17371720694E-02 -0.23525809442E-01  0.23604202785E-01  0.00000000000E+00 0.  1.
     999901    1    3    3    0    0 -0.37748046082E-01  0.10278322777E-01 -0.10217424870E+00  0.88677513271E+00  0.88000000000E+00 0.  1.
        -11    1    4    4    0    0  0.20127742141E-01 -0.54083889590E-02  0.34840988315E-01  0.40602121405E-01  0.51100000000E-03 0. -1.
         11    1    4    4    0    0  0.18443050830E-01 -0.66071058875E-02  0.90859069830E-01  0.92948543095E-01  0.51100000000E-03 0.  1.
</event>
<event>
 8    1  0.1135368E+005  0.1043930E+01  0.7957747E-01            NaN
         13   -1    0    0    0    0  0.00000000000E+00  0.00000000000E+00  0.74505805969E-08  0.10566000000E+00  0.10566000000E+00 0.  1.
     999900   -1    0    0    0    0 -0.00000000000E+00 -0.00000000000E+00 -0.74505805969E-08  0.93827000000E+00  0.93827000000E+00 0.  1.
     999902    2    1    2    0    0  0.99421624123E-03 -0.12360778781E-01 -0.21369054355E-01  0.10192234462E+01  0.10189239517E+01 0.  0.
     999903    2    3    3    0    0  0.20442310230E-01 -0.12487788935E+00  0.24789085982E-01  0.13064654885E+00  0.21015390691E-01 0.  0.
         14    1    1    2    0    0 -0.99421624123E-03  0.12360778781E-01  0.21369054355E-01  0.24706553828E-01  0.00000000000E+00 0.  1.
     999901    1    3    3    0    0 -0.19448093989E-01  0.11251711057E+00 -0.46158140337E-01  0.88857689732E+00  0.88000000000E+00 0. -1.
        -11    1    4    4    0    0  0.21411656418E-01 -0.11260798386E+00  0.27832761699E-01  0.11795736859E+00  0.51100000000E-03 0.  1.
         11    1    4    4    0    0 -0.96934618790E-03 -0.12269905494E-01 -0.30436757173E-02  0.12689180263E-01  0.51100000000E-03 0. -1.
</event>
<event>
 8    1  0.1135368E+005  0.1043930E+01  0.7957747E-01            NaN
         13   -1    0    0    0    0  0.00000000000E+00  0.00000000000E+00  0.74505805969E-08  0.10566000000E+00  0.10566000000E+00 0. -1.
     999900   -1    0    0    0    0 -0.00000000000E+00 -0.00000000000E+00 -0.74505805969E-08  0.93827000000E+00  0.93827000000E+00 0. -1.
     999902    2    1    2    0    0  0.87020438099E-03  0.17299994197E-01 -0.15981899144E-01  0.10203616281E+01  0.10200894000E+01 0.  0.
     999903    2    3    3    0    0  0.12143529419E-01  0.34316661964E-01  0.12137798709E+00  0.12947196421E+00  0.26557017364E-01 0.  0.
         14    1    1    2    0    0 -0.87020438099E-03 -0.17299994197E-01  0.15981899144E-01  0.23568371923E-01  0.00000000000E+00 0. -1.
     999901    1    3    3    0    0 -0.11273325038E-01 -0.17016667767E-01 -0.13735988623E+00  0.89088966387E+00  0.88000000000E+00 0. -1.
        -11    1    4    4    0    0  0.67524089118E-02  0.22158667848E-02  0.55853167896E-01  0.56305795233E-01  0.51100000000E-03 0. -1.
         11    1    4    4    0    0  0.53911205069E-02  0.32100795180E-01  0.65524819193E-01  0.73166168977E-01  0.51100000000E-03 0.  1.
</event>
<event>
 8    1  0.1135368E+005  0.1043930E+01  0.7957747E-01            NaN
         13   -1    0    0    0    0  0.00000000000E+00  0.00000000000E+00  0.74505805969E-08  0.10566000000E+00  0.10566000000E+00 0.  1.
     999900   -1    0    0    0    0 -0.00000000000E+00 -0.00000000000E+00 -0.74505805969E-08  0.93827000000E+00  0.93827000000E+00 0.  1.
     999902    2    1    2    0    0  0.21694057112E-01 -0.83886119040E-02 -0.58572588864E-02  0.10199444126E+01  0.10196623443E+01 0.  0.
     999903    2    3    3    0    0 -0.59774069125E-01  0.66372527072E-01 -0.90727497426E-01  0.12897345854E+00  0.20601517657E-01 0.  0.
         14    1    1    2    0    0 -0.21694057112E-01  0.83886119040E-02  0.58572588864E-02  0.23985587450E-01  0.00000000000E+00 0. -1.
     999901    1    3    3    0    0  0.81468126237E-01 -0.74761138976E-01  0.84870238540E-01  0.89097095401E+00  0.88000000000E+00 0. -1.
        -11    1    4    4    0    0 -0.24072567328E-01  0.16492148430E-01 -0.39137001474E-01  0.48820543453E-01  0.51100000000E-03 0. -1.
         11    1    4    4    0    0 -0.35701501797E-01  0.49880378642E-01 -0.51590495952E-01  0.80152915091E-01  0.51100000000E-03 0.  1.
</event>
<event>
 8    1  0.1135368E+005  0.1043930E+01  0.7957747E-01            NaN
         13   -1    0    0    0    0  0.00000000000E+00  0.00000000000E+00  0.74505805969E-08  0.10566000000E+00  0.10566000000E+00 0.  1.
     999900   -1    0    0    0    0 -0.00000000000E+00 -0.00000000000E+00 -0.74505805969E-08  0.93827000000E+00  0.93827000000E+00 0.  1.
     999902    2    1    2    0    0  0.15332769771E-01 -0.72141761348E-02 -0.16617854193E-01  0.10201962425E+01  0.10199201351E+01 0.  0.
     999903    2    3    3    0    0 -0.24024124586E-01 -0.25894554341E-01 -0.12602302296E+00  0.13235199232E+00  0.19686570273E-01 0.  0.
         14    1    1    2    0    0 -0.15332769771E-01  0.72141761348E-02  0.16617854193E-01  0.23733757480E-01  0.00000000000E+00 0.  1.
     999901    1    3    3    0    0  0.39356894357E-01  0.18680378206E-01  0.10940516876E+00  0.88784425020E+00  0.88000000000E+00 0. -1.
        -11    1    4    4    0    0 -0.21962612364E-01 -0.17884726421E-01 -0.66891377549E-01  0.72642530879E-01  0.51100000000E-03 0. -1.
         11    1    4    4    0    0 -0.20615122212E-02 -0.80098279202E-02 -0.59131645407E-01  0.59709461440E-01  0.51100000000E-03 0.  1.
</event>
<event>
 8    1  0.1135368E+005  0.1043930E+01  0.7957747E-01            NaN
         13   -1    0    0    0    0  0.00000000000E+00  0.00000000000E+00  0.74505805969E-08  0.10566000000E+00  0.10566000000E+00 0.  1.
     999900   -1    0    0    0    0 -0.00000000000E+00 -0.00000000000E+00 -0.74505805969E-08  0.93827000000E+00  0.93827000000E+00 0.  1.
     999902    2    1    2    0    0 -0.19386628660E-01 -0.11574979838E-01  0.59654467457E-02  0.10205760264E+01  0.10203087854E+01 0.  0.
     999903    2    3    3    0    0  0.10495856016E+00 -0.35449611648E-01 -0.62643401938E-01  0.12887041456E+00  0.20258667909E-01 0.  0.
         14    1    1    2    0    0  0.19386628660E-01  0.11574979838E-01 -0.59654467457E-02  0.23353973622E-01  0.00000000000E+00 0. -1.
     999901    1    3    3    0    0 -0.12434518882E+00  0.23874631810E-01  0.68608848683E-01  0.89170561182E+00  0.88000000000E+00 0.  1.
        -11    1    4    4    0    0  0.21123670294E-01 -0.85301323314E-02 -0.41540073308E-02  0.23162243031E-01  0.51100000000E-03 0. -1.
         11    1    4    4    0    0  0.83834889869E-01 -0.26919479317E-01 -0.58489394607E-01  0.10570817153E+00  0.51100000000E-03 0.  1.
</event>
<event>
 8    1  0.1135368E+005  0.1043930E+01  0.7957747E-01            NaN
         13   -1    0    0    0    0  0.00000000000E+00  0.00000000000E+00  0.74505805969E-08  0.10566000000E+00  0.10566000000E+00 0.  1.
     999900   -1    0    0    0    0 -0.00000000000E+00 -0.00000000000E+00 -0.74505805969E-08  0.93827000000E+00  0.93827000000E+00 0. -1.
     999902    2    1    2    0    0 -0.17558668226E-01  0.12789789264E-01  0.68619266570E-02  0.10211490523E+01  0.10208949091E+01 0.  0.
     999903    2    3    3    0    0 -0.10693462433E+00  0.60283151920E-01  0.50585729118E-01  0.13426943709E+00  0.20007335145E-01 0.  0.
         14    1    1    2    0    0  0.17558668226E-01 -0.12789789264E-01 -0.68619266570E-02  0.22780947670E-01  0.00000000000E+00 0. -1.
     999901    1    3    3    0    0  0.89375956105E-01 -0.47493362656E-01 -0.43723802461E-01  0.88687961524E+00  0.88000000000E+00 0. -1.
        -11    1    4    4    0    0 -0.38547359914E-01  0.32927297949E-01  0.21797736391E-01  0.55186124518E-01  0.51100000000E-03 0. -1.
         11    1    4    4    0    0 -0.68387264418E-01  0.27355853971E-01  0.28787992727E-01  0.79083312572E-01  0.51100000000E-03 0.  1.
</event>
<event>
 8    1  0.1135368E+005  0.1043930E+01  0.7957747E-01            NaN
         13   -1    0    0    0    0  0.00000000000E+00  0.00000000000E+00  0.74505805969E-08  0.10566000000E+00  0.10566000000E+00 0. -1.
     999900   -1    0    0    0    0 -0.00000000000E+00 -0.00000000000E+00 -0.74505805969E-08  0.93827000000E+00  0.93827000000E+00 0.  1.
     999902    2    1    2    0    0  0.17305079912E-01 -0.16619254009E-01  0.45603475725E-02  0.10195074251E+01  0.10192148584E+01 0.  0.
     999903    2    3    3    0    0  0.10126337648E+00 -0.41117975811E-01 -0.70760818802E-01  0.13197012390E+00  0.21542069813E-01 0.  0.
         14    1    1    2    0    0 -0.17305079912E-01  0.16619254009E-01 -0.45603475725E-02  0.24422574896E-01  0.00000000000E+00 0.  1.
     999901    1    3    3    0    0 -0.83958296572E-01  0.24498721801E-01  0.75321166375E-01  0.88753730121E+00  0.88000000000E+00 0. -1.
        -11    1    4    4    0    0  0.32252477883E-01 -0.21561524287E-01 -0.32848844424E-01  0.50837283171E-01  0.51100000000E-03 0.  1.
         11    1    4    4    0    0  0.69010898600E-01 -0.19556451523E-01 -0.37911974378E-01  0.81132840725E-01  0.51100000000E-03 0. -1.
</event>
<event>
 8    1  0.1135368E+005  0.1043930E+01  0.7957747E-01            NaN
         13   -1    0    0    0    0  0.00000000000E+00  0.00000000000E+00  0.74505805969E-08  0.10566000000E+00  0.10566000000E+00 0.  1.
     999900   -1    0    0    0    0 -0.00000000000E+00 -0.00000000000E+00 -0.74505805969E-08  0.93827000000E+00  0.93827000000E+00 0.  1.
     999902    2    1    2    0    0 -0.16261795729E-01  0.18038674416E-01 -0.73564026400E-02  0.10185537033E+01  0.10182375411E+01 0.  0.
     999903    2    3    3    0    0 -0.12427948297E+00  0.37718959045E-01 -0.98166820567E-02  0.13172723360E+00  0.19687231036E-01 0.  0.
         14    1    1    2    0    0  0.16261795729E-01 -0.18038674416E-01  0.73564026400E-02  0.25376296712E-01  0.00000000000E+00 0.  1.
     999901    1    3    3    0    0  0.10801768725E+00 -0.19680284629E-01  0.24602794166E-02  0.88682646969E+00  0.88000000000E+00 0.  1.
        -11    1    4    4    0    0 -0.63207775516E-02  0.23800155926E-02  0.39166580739E-02  0.78241954567E-02  0.51100000000E-03 0.  1.
         11    1    4    4    0    0 -0.11795870542E+00  0.35338943453E-01 -0.13733340131E-01  0.12390303815E+00  0.51100000000E-03 0. -1.
</event>
<event>
 8    1  0.1135368E+005  0.1043930E+01  0.7957747E-01            NaN
         13   -1    0    0    0    0  0.00000000000E+00  0.00000000000E+00  0.74505805969E-08  0.10566000000E+00  0.10566000000E+00 0. -1.
     999900   -1    0    0    0    0 -0.00000000000E+00 -0.00000000000E+00 -0.74505805969E-08  0.93827000000E+00  0.93827000000E+00 0.  1.
     999902    2    1    2    0    0  0.92460697643E-02  0.10939611602E-01 -0.23021444996E-01  0.10168163164E+01  0.10164547553E+01 0.  0.
     999903    2    3    3    0    0  0.40208533864E-01 -0.77140991137E-01  0.87419426001E-01  0.12501249676E+00  0.20457507036E-01 0.  0.
         14    1    1    2    0    0 -0.92460697643E-02 -0.10939611602E-01  0.23021444996E-01  0.27113683589E-01  0.00000000000E+00 0. -1.
     999901    1    3    3    0    0 -0.30962464099E-01  0.88080602739E-01 -0.11044087100E+00  0.89180381965E+00  0.88000000000E+00 0.  1.
        -11    1    4    4    0    0  0.13124941178E-01 -0.32975263626E-01  0.49026409400E-01  0.60526705112E-01  0.51100000000E-03 0. -1.
         11    1    4    4    0    0  0.27083592686E-01 -0.44165727511E-01  0.38393016601E-01  0.64485791645E-01  0.51100000000E-03 0.  1.
</event>
<event>
 8    1  0.1135368E+005  0.1043930E+01  0.7957747E-01            NaN
         13   -1    0    0    0    0  0.00000000000E+00  0.00000000000E+00  0.74505805969E-08  0.10566000000E+00  0.10566000000E+00 0.  1.
     999900   -1    0    0    0    0 -0.00000000000E+00 -0.00000000000E+00 -0.74505805969E-08  0.93827000000E+00  0.93827000000E+00 0. -1.
     999902    2    1    2    0    0  0.10394827054E-01 -0.20128824445E-01 -0.80517554185E-02  0.10198872720E+01  0.10196038421E+01 0.  0.
     999903    2    3    3    0    0  0.80403812895E-01  0.28930237948E-01 -0.97306502240E-01  0.13125097999E+00  0.21366622886E-01 0.  0.
         14    1    1    2    0    0 -0.10394827054E-01  0.20128824445E-01  0.80517554185E-02  0.24042727972E-01  0.00000000000E+00 0. -1.
     999901    1    3    3    0    0 -0.70008985842E-01 -0.49059062393E-01  0.89254746822E-01  0.88863629204E+00  0.88000000000E+00 0.  1.
        -11    1    4    4    0    0  0.44723834723E-01  0.17807927536E-01 -0.38829271471E-01  0.61849148090E-01  0.51100000000E-03 0. -1.
         11    1    4    4    0    0  0.35679978172E-01  0.11122310412E-01 -0.58477230770E-01  0.69401831898E-01  0.51100000000E-03 0.  1.
</event>
<event>
 8    1  0.1135368E+005  0.1043930E+01  0.7957747E-01            NaN
         13   -1    0    0    0    0  0.00000000000E+00  0.00000000000E+00  0.74505805969E-08  0.10566000000E+00  0.10566000000E+00 0.  1.
     999900   -1    0    0    0    0 -0.00000000000E+00 -0.00000000000E+00 -0.74505805969E-08  0.93827000000E+00  0.93827000000E+00 0.  1.
     999902    2    1    2    0    0 -0.40060112112E-02  0.18229202566E-01  0.14073197838E-01  0.10205546530E+01  0.10202869169E+01 0.  0.
     999903    2    3    3    0    0 -0.82822275407E-01  0.87802962090E-01  0.53208188533E-01  0.13343343293E+00  0.20111694170E-01 0.  0.
         14    1    1    2    0    0  0.40060112112E-02 -0.18229202566E-01 -0.14073197838E-01  0.23375347044E-01  0.00000000000E+00 0. -1.
     999901    1    3    3    0    0  0.78816264195E-01 -0.69573759524E-01 -0.39134990695E-01  0.88712122002E+00  0.88000000000E+00 0. -1.
        -11    1    4    4    0    0 -0.25323567474E-01  0.30772773555E-01  0.27656471656E-01  0.48511732677E-01  0.51100000000E-03 0. -1.
         11    1    4    4    0    0 -0.57498707932E-01  0.57030188535E-01  0.25551716877E-01  0.84921700257E-01  0.51100000000E-03 0.  1.
</event>
<event>
 8    1  0.1135368E+005  0.1043930E+01  0.7957747E-01            NaN
         13   -1    0    0    0    0  0.00000000000E+00  0.00000000000E+00  0.74505805969E-08  0.10566000000E+00  0.10566000000E+00 0. -1.
     999900   -1    0    0    0    0 -0.00000000000E+00 -0.00000000000E+00 -0.74505805969E-08  0.93827000000E+00  0.93827000000E+00 0.  1.
     999902    2    1    2    0    0  0.21047338764E-01 -0.12584635761E-01 -0.12443497535E-01  0.10164308335E+01  0.10160587754E+01 0.  0.
     999903    2    3    3    0    0 -0.30028286732E-01  0.10242145615E+00  0.60930194435E-01  0.12445615934E+00  0.19621272157E-01 0.  0.
         14    1    1    2    0    0 -0.21047338764E-01  0.12584635761E-01  0.12443497535E-01  0.27499166482E-01  0.00000000000E+00 0. -1.
     999901    1    3    3    0    0  0.51075625497E-01 -0.11500609191E+00 -0.73373691970E-01  0.89197467417E+00  0.88000000000E+00 0.  1.
        -11    1    4    4    0    0 -0.25247124712E-01  0.60700902721E-01  0.29814790370E-01  0.72188639987E-01  0.51100000000E-03 0. -1.
         11    1    4    4    0    0 -0.47811620198E-02  0.41720553427E-01  0.31115404065E-01  0.52267519356E-01  0.51100000000E-03 0.  1.
</event>
<event>
 7    1  0.1135368E+005  0.1043930E+01  0.7957747E-01            NaN
         13   -1    0    0    0    0  0.00000000000E+00  0.00000000000E+00  0.74505805969E-08  0.10566000000E+00  0.10566000000E+00 0. -1.
     999900   -1    0    0    0    0 -0.00000000000E+00 -0.00000000000E+00 -0.74505805969E-08  0.93827000000E+00  0.93827000000E+00 0. -1.
     999902    2    1    2    0    0  0.35885671409E-03  0.60661677077E-02  0.21777950525E-01  0.10213201283E+01  0.10210698302E+01 0.  0.
         14    1    1    2    0    0 -0.35885671409E-03 -0.60661677077E-02 -0.21777950525E-01  0.22609871691E-01  0.00000000000E+00 0.  1.
     999901    1    3    3    0    0  0.12544343240E+00  0.20255363633E-01  0.14348203372E-01  0.88924248967E+00  0.88000000000E+00 0. -1.
        -11    1    3    3    0    0 -0.98056622691E-01 -0.53534683136E-02  0.21220052411E-01  0.10047045646E+00  0.51100000000E-03 0.  1.
         11    1    3    3    0    0 -0.27027952990E-01 -0.88357276116E-02 -0.13790305258E-01  0.31607182180E-01  0.51100000000E-03 0. -1.
</event>
<event>
 8    1  0.1135368E+005  0.1043930E+01  0.7957747E-01            NaN
         13   -1    0    0    0    0  0.00000000000E+00  0.00000000000E+00  0.74505805969E-08  0.10566000000E+00  0.10566000000E+00 0. -1.
     999900   -1    0    0    0    0 -0.00000000000E+00 -0.00000000000E+00 -0.74505805969E-08  0.93827000000E+00  0.93827000000E+00 0. -1.
     999902    2    1    2    0    0 -0.75241220605E-03 -0.19994578830E-01  0.15261600642E-01  0.10187652278E+01  0.10184543797E+01 0.  0.
     999903    2    3    3    0    0  0.50729375387E-01  0.29737634559E-01  0.11451469911E+00  0.13029753278E+00  0.20150292779E-01 0.  0.
         14    1    1    2    0    0  0.75241220605E-03  0.19994578830E-01 -0.15261600642E-01  0.25164772220E-01  0.00000000000E+00 0.  1.
     999901    1    3    3    0    0 -0.51481787593E-01 -0.49732213389E-01 -0.99253098472E-01  0.88846769500E+00  0.88000000000E+00 0. -1.
        -11    1    4    4    0    0  0.30556411484E-01  0.20711923340E-01  0.50370408989E-01  0.62450918920E-01  0.51100000000E-03 0.  1.
         11    1    4    4    0    0  0.20172963903E-01  0.90257112188E-02  0.64144290125E-01  0.67846613860E-01  0.51100000000E-03 0. -1.
</event>
<event>
 8    1  0.1135368E+005  0.1043930E+01  0.7957747E-01            NaN
         13   -1    0    0    0    0  0.00000000000E+00  0.00000000000E+00  0.74505805969E-08  0.10566000000E+00  0.10566000000E+00 0. -1.
     999900   -1    0    0    0    0 -0.00000000000E+00 -0.00000000000E+00 -0.74505805969E-08  0.93827000000E+00  0.93827000000E+00 0.  1.
     999902    2    1    2    0    0 -0.12269767498E-01  0.45408978221E-02 -0.19737104207E-01  0.10202504681E+01  0.10199756357E+01 0.  0.
     999903    2    3    3    0    0 -0.99895381912E-01 -0.70999047145E-01 -0.45802051594E-01  0.13229556326E+00  0.19604491963E-01 0.  0.
         14    1    1    2    0    0  0.12269767498E-01 -0.45408978221E-02  0.19737104207E-01  0.23679531878E-01  0.00000000000E+00 0. -1.
     999901    1    3    3    0    0  0.87625614414E-01  0.75539944967E-01  0.26064947387E-01  0.88795490486E+00  0.88000000000E+00 0. -1.
        -11    1    4    4    0    0 -0.52760291323E-01 -0.37796496823E-01 -0.13808195971E-01  0.66356242431E-01  0.51100000000E-03 0.  1.
         11    1    4    4    0    0 -0.47135090589E-01 -0.33202550322E-01 -0.31993855623E-01  0.65939320829E-01  0.51100000000E-03 0. -1.
</event>
<event>
 8    1  0.1135368E+005  0.1043930E+01  0.7957747E-01            NaN
         13   -1    0    0    0    0  0.00000000000E+00  0.00000000000E+00  0.74505805969E-08  0.10566000000E+00  0.10566000000E+00 0.  1.
     999900   -1    0    0    0    0 -0.00000000000E+00 -0.00000000000E+00 -0.74505805969E-08  0.93827000000E+00  0.93827000000E+00 0.  1.
     999902    2    1    2    0    0  0.18201504886E-01 -0.60809053265E-02  0.14119844867E-01  0.10201047569E+01  0.10198264915E+01 0.  0.
     999903    2    3    3    0    0 -0.52336778368E-01  0.11634325837E+00  0.18450537763E-02  0.12874961120E+00  0.17267484573E-01 0.  0.
         14    1    1    2    0    0 -0.18201504886E-01  0.60809053265E-02 -0.14119844867E-01  0.23825243100E-01  0.00000000000E+00 0. -1.
     999901    1    3    3    0    0  0.70538283253E-01 -0.12242416370E+00  0.12274791091E-01  0.89135514570E+00  0.88000000000E+00 0. -1.
        -11    1    4    4    0    0 -0.98318462971E-02  0.25610700715E-01  0.73398880833E-02  0.28402610282E-01  0.51100000000E-03 0.  1.
         11    1    4    4    0    0 -0.42504932070E-01  0.90732557656E-01 -0.54948343070E-02  0.10034700092E+00  0.51100000000E-03 0. -1.
</event>
<event>
 8    1  0.1135368E+005  0.1043930E+01  0.7957747E-01            NaN
         13   -1    0    0    0    0  0.00000000000E+00  0.00000000000E+00  0.74505805969E-08  0.10566000000E+00  0.10566000000E+00 0.  1.
     999900   -1    0    0    0    0 -0.00000000000E+00 -0.00000000000E+00 -0.74505805969E-08  0.93827000000E+00  0.93827000000E+00 0. -1.
     999902    2    1    2    0    0 -0.49617265060E-02 -0.16338271053E-04  0.24198218920E-01  0.10192283240E+01  0.10189289493E+01 0.  0.
     999903    2    3    3    0    0  0.36692890450E-01 -0.12140999005E+00 -0.12003153949E-01  0.12918222118E+00  0.21382625436E-01 0.  0.
         14    1    1    2    0    0  0.49617265060E-02  0.16338271053E-04 -0.24198218920E-01  0.24701675970E-01  0.00000000000E+00 0. -1.
     999901    1    3    3    0    0 -0.41654616956E-01  0.12139365178E+00  0.36201372869E-01  0.89004610285E+00  0.88000000000E+00 0.  1.
        -11    1    4    4    0    0  0.28734795800E-01 -0.90625290240E-01  0.32987137697E-03  0.95073664370E-01  0.51100000000E-03 0. -1.
         11    1    4    4    0    0  0.79580946504E-02 -0.30784699808E-01 -0.12333025326E-01  0.34108556807E-01  0.51100000000E-03 0.  1.
</event>
<event>
 8    1  0.1135368E+005  0.1043930E+01  0.7957747E-01            NaN
         13   -1    0    0    0    0  0.00000000000E+00  0.00000000000E+00  0.74505805969E-08  0.10566000000E+00  0.10566000000E+00 0.  1.
     999900   -1    0    0    0    0 -0.00000000000E+00 -0.00000000000E+00 -0.74505805969E-08  0.93827000000E+00  0.93827000000E+00 0.  1.
     999902    2    1    2    0    0 -0.47650399429E-02  0.25507667818E-01  0.11713563664E-02  0.10179546502E+01  0.10176231871E+01 0.  0.
     999903    2    3    3    0    0  0.78672949237E-01  0.24247275784E-01 -0.96715762634E-01  0.12860355263E+00  0.20188404652E-01 0.  0.
         14    1    1    2    0    0  0.47650399429E-02 -0.25507667818E-01 -0.11713563664E-02  0.25975349832E-01  0.00000000000E+00 0.  1.
     999901    1    3    3    0    0 -0.83437989180E-01  0.12603920338E-02  0.97887119001E-01  0.88935109754E+00  0.88000000000E+00 0. -1.
        -11    1    4    4    0    0  0.22211026422E-01  0.15179425430E-01 -0.23688918459E-01  0.35849276560E-01  0.51100000000E-03 0.  1.
         11    1    4    4    0    0  0.56461922815E-01  0.90678503543E-02 -0.73026844175E-01  0.92754276069E-01  0.51100000000E-03 0. -1.
</event>
<event>
 8    1  0.1135368E+005  0.1043930E+01  0.7957747E-01            NaN
         13   -1    0    0    0    0  0.00000000000E+00  0.00000000000E+00  0.74505805969E-08  0.10566000000E+00  0.10566000000E+00 0. -1.
     999900   -1    0    0    0    0 -0.00000000000E+00 -0.00000000000E+00 -0.74505805969E-08  0.93827000000E+00  0.93827000000E+00 0.  1.
     999902    2    1    2    0    0  0.22405152567E-01 -0.31170540650E-02 -0.35286489342E-02  0.10210354974E+01  0.10207787854E+01 0.  0.
     999903    2    3    3    0    0 -0.33548357151E-01 -0.11736210553E-01  0.12375061096E+00  0.13007809372E+00  0.18516637020E-01 0.  0.
         14    1    1    2    0    0 -0.22405152567E-01  0.31170540650E-02  0.35286489342E-02  0.22894502634E-01  0.00000000000E+00 0.  1.
     999901    1    3    3    0    0  0.55953509717E-01  0.86191564877E-02 -0.12727925990E+00  0.89095740364E+00  0.88000000000E+00 0.  1.
        -11    1    4    4    0    0 -0.14006517890E-01 -0.14445392435E-01  0.69179409065E-01  0.72047926171E-01  0.51100000000E-03 0.  1.
         11    1    4    4    0    0 -0.19541839260E-01  0.27091818825E-02  0.54571201900E-01  0.58030167550E-01  0.51100000000E-03 0. -1.
</event>
<event>
 8    1  0.1135368E+005  0.1043930E+01  0.7957747E-01            NaN
         13   -1    0    0    0    0  0.00000000000E+00  0.00000000000E+00  0.74505805969E-08  0.10566000000E+00  0.10566000000E+00 0.  1.
     999900   -1    0    0    0    0 -0.00000000000E+00 -0.00000000000E+00 -0.74505805969E-08  0.93827000000E+00  0.93827000000E+00 0. -1.
     999902    2    1    2    0    0  0.13354081928E-01  0.97442354690E-02  0.93156885354E-02  0.10249546559E+01  0.10247789923E+01 0.  0.
     999903    2    3    3    0    0  0.12353648548E+00 -0.50826455825E-01 -0.14897580276E-01  0.13568796193E+00  0.18565916564E-01 0.  0.
         14    1    1    2    0    0 -0.13354081928E-01 -0.97442354690E-02 -0.93156885354E-02  0.18975344053E-01  0.00000000000E+00 0. -1.
     999901    1    3    3    0    0 -0.11018240356E+00  0.60570691294E-01  0.24213268811E-01  0.88926669401E+00  0.88000000000E+00 0. -1.
        -11    1    4    4    0    0  0.80073887613E-01 -0.29287049954E-01 -0.17761808520E-01  0.87093637743E-01  0.51100000000E-03 0. -1.
         11    1    4    4    0    0  0.43462597871E-01 -0.21539405871E-01  0.28642282439E-02  0.48594324189E-01  0.51100000000E-03 0.  1.
</event>
<event>
 8    1  0.1135368E+005  0.1043930E+01  0.7957747E-01            NaN
         13   -1    0    0    0    0  0.00000000000E+00  0.00000000000E+00  0.74505805969E-08  0.10566000000E+00  0.10566000000E+00 0.  1.
     999900   -1    0    0    0    0 -0.00000000000E+00 -0.00000000000E+00 -0.74505805969E-08  0.93827000000E+00  0.93827000000E+00 0. -1.
     999902    2    1    2    0    0  0.10904388643E-02 -0.24340062850E-01 -0.21805855228E-02  0.10194681385E+01  0.10191746183E+01 0.  0.
     999903    2    3    3    0    0 -0.88457307180E-01  0.89980020289E-01  0.20463117819E-03  0.12756367638E+00  0.18744343499E-01 0.  0.
         14    1    1    2    0    0 -0.10904388643E-02  0.24340062850E-01  0.21805855228E-02  0.24461861533E-01  0.00000000000E+00 0. -1.
     999901    1    3    3    0    0  0.89547746044E-01 -0.11432008314E+00 -0.23852167010E-02  0.89190446209E+00  0.88000000000E+00 0.  1.
        -11    1    4    4    0    0 -0.15331710248E-01  0.94773847843E-02 -0.49011936843E-02  0.18685956813E-01  0.51100000000E-03 0.  1.
         11    1    4    4    0    0 -0.73125596931E-01  0.80502635504E-01  0.51058248625E-02  0.10887771957E+00  0.51100000000E-03 0. -1.
</event>
<event>
 8    1  0.1135368E+005  0.1043930E+01  0.7957747E-01            NaN
         13   -1    0    0    0    0  0.00000000000E+00  0.00000000000E+00  0.74505805969E-08  0.10566000000E+00  0.10566000000E+00 0. -1.
     999900   -1    0    0    0    0 -0.00000000000E+00 -0.00000000000E+00 -0.74505805969E-08  0.93827000000E+00  0.93827000000E+00 0. -1.
     999902    2    1    2    0    0  0.46350587719E-02  0.23161287237E-01 -0.41967044950E-02  0.10199395576E+01  0.10196573738E+01 0.  0.
     999903    2    3    3    0    0  0.59697157551E-01  0.55497966791E-01  0.10138245596E+00  0.13133140176E+00  0.18048816426E-01 0.  0.
         14    1    1    2    0    0 -0.46350587719E-02 -0.23161287237E-01  0.41967044950E-02  0.23990442366E-01  0.00000000000E+00 0. -1.
     999901    1    3    3    0    0 -0.55062098779E-01 -0.32336679554E-01 -0.10557916045E+00  0.88860815588E+00  0.88000000000E+00 0. -1.
        -11    1    4    4    0    0  0.33472409625E-01  0.29288735362E-01  0.41121534867E-01  0.60576183241E-01  0.51100000000E-03 0.  1.
         11    1    4    4    0    0  0.26224747927E-01  0.26209231429E-01  0.60260921090E-01  0.70755218518E-01  0.51100000000E-03 0. -1.
</event>
<event>
 8    1  0.1135368E+005  0.1043930E+01  0.7957747E-01            NaN
         13   -1    0    0    0    0  0.00000000000E+00  0.00000000000E+00  0.74505805969E-08  0.10566000000E+00  0.10566000000E+00 0. -1.
     999900   -1    0    0    0    0 -0.00000000000E+00 -0.00000000000E+00 -0.74505805969E-08  0.93827000000E+00  0.93827000000E+00 0.  1.
     999902    2    1    2    0    0 -0.12569758021E-01  0.13382515027E-01  0.17305628438E-01  0.10186995561E+01  0.10183870631E+01 0.  0.
     999903    2    3    3    0    0  0.34198793841E-01 -0.11957942778E+00  0.20745479332E-01  0.12747679590E+00  0.18739304468E-01 0.  0.
         14    1    1    2    0    0  0.12569758021E-01 -0.13382515027E-01 -0.17305628438E-01  0.25230443928E-01  0.00000000000E+00 0.  1.
     999901    1    3    3    0    0 -0.46768551862E-01  0.13296194281E+00 -0.34398508942E-02  0.89122276017E+00  0.88000000000E+00 0.  1.
        -11    1    4    4    0    0  0.20077151028E-01 -0.41709861778E-01  0.12210731602E-01  0.47876587705E-01  0.51100000000E-03 0. -1.
         11    1    4    4    0    0  0.14121642813E-01 -0.77869565999E-01  0.85347477299E-02  0.79600208194E-01  0.51100000000E-03 0.  1.
</event>
<event>
 8    1  0.1135368E+005  0.1043930E+01  0.7957747E-01            NaN
         13   -1    0    0    0    0  0.00000000000E+00  0.00000000000E+00  0.74505805969E-08  0.10566000000E+00  0.10566000000E+00 0. -1.
     999900   -1    0    0    0    0 -0.00000000000E+00 -0.00000000000E+00 -0.74505805969E-08  0.93827000000E+00  0.93827000000E+00 0. -1.
     999902    2    1    2    0    0  0.22188391181E-01 -0.17778710835E-02 -0.67905100632E-02  0.10206577729E+01  0.10203924210E+01 0.  0.
     999903    2    3    3    0    0  0.13472270342E-01 -0.54053532957E-01 -0.11857643794E+00  0.13200440442E+00  0.16171105614E-01 0.  0.
         14    1    1    2    0    0 -0.22188391181E-01  0.17778710835E-02  0.67905100632E-02  0.23272227133E-01  0.00000000000E+00 0. -1.
     999901    1    3    3    0    0  0.87161208391E-02  0.52275661873E-01  0.11178592788E+00  0.88865336845E+00  0.88000000000E+00 0.  1.
        -11    1    4    4    0    0  0.43229696579E-02 -0.10836041021E-01 -0.12552557998E-01  0.17144552632E-01  0.51100000000E-03 0.  1.
         11    1    4    4    0    0  0.91493006844E-02 -0.43217491936E-01 -0.10602387995E+00  0.11485985178E+00  0.51100000000E-03 0. -1.
</event>
<event>
 8    1  0.1135368E+005  0.1043930E+01  0.7957747E-01            NaN
         13   -1    0    0    0    0  0.00000000000E+00  0.00000000000E+00  0.74505805969E-08  0.10566000000E+00  0.10566000000E+00 0. -1.
     999900   -1    0    0    0    0 -0.00000000000E+00 -0.00000000000E+00 -0.74505805969E-08  0.93827000000E+00  0.93827000000E+00 0.  1.
     999902    2    1    2    0    0  0.21199121644E-01  0.86436399854E-02 -0.11758558265E-01  0.10181932760E+01  0.10178679523E+01 0.  0.
     999903    2    3    3    0    0  0.90647780364E-01  0.40596157905E-01 -0.84598569470E-01  0.13188083286E+00  0.19250142810E-01 0.  0.
         14    1    1    2    0    0 -0.21199121644E-01 -0.86436399854E-02  0.11758558265E-01  0.25736724018E-01  0.00000000000E+00 0.  1.
     999901    1    3    3    0    0 -0.69448658719E-01 -0.31952517919E-01  0.72840011206E-01  0.88631244312E+00  0.88000000000E+00 0. -1.
        -11    1    4    4    0    0  0.74563885456E-01  0.25773072668E-01 -0.61213318800E-01  0.99856676334E-01  0.51100000000E-03 0. -1.
         11    1    4    4    0    0  0.16083894908E-01  0.14823085236E-01 -0.23385250670E-01  0.32024156527E-01  0.51100000000E-03 0.  1.
</event>
<event>
 8    1  0.2027197E+005  0.1043930E+01  0.7957747E-01            NaN
         13   -1    0    0    0    0  0.00000000000E+00  0.00000000000E+00  0.74505805969E-08  0.10566000000E+00  0.10566000000E+00 0. -1.
     999900   -1    0    0    0    0 -0.00000000000E+00 -0.00000000000E+00 -0.74505805969E-08  0.93827000000E+00  0.93827000000E+00 0.  1.
     999902    2    1    2    0    0  0.35565866237E-03 -0.26680688673E-01 -0.26168926751E-01  0.10065562342E+01  0.10058621448E+01 0.  0.
     999903    2    3    3    0    0  0.39848144155E-01  0.63330920115E-02  0.10606133107E+00  0.11518963893E+00  0.19790510855E-01 0.  0.
         14    1    1    2    0    0 -0.35565866237E-03  0.26680688673E-01  0.26168926751E-01  0.37373765778E-01  0.00000000000E+00 0. -1.
     999901    1    3    3    0    0 -0.39492485492E-01 -0.33013780685E-01 -0.13223025782E+00  0.89136659530E+00  0.88000000000E+00 0.  1.
        -11    1    4    4    0    0  0.30150957132E-01  0.24699133144E-02  0.52294410566E-01  0.60416447969E-01  0.51100000000E-03 0.  1.
         11    1    4    4    0    0  0.96971870229E-02  0.38631786972E-02  0.53766920507E-01  0.54773190957E-01  0.51100000000E-03 0. -1.
</event>
<event>
 8    1  0.1135368E+005  0.1043930E+01  0.7957747E-01            NaN
         13   -1    0    0    0    0  0.00000000000E+00  0.00000000000E+00  0.74505805969E-08  0.10566000000E+00  0.10566000000E+00 0. -1.
     999900   -1    0    0    0    0 -0.00000000000E+00 -0.00000000000E+00 -0.74505805969E-08  0.93827000000E+00  0.93827000000E+00 0. -1.
     999902    2    1    2    0    0  0.57852389148E-02  0.16129593066E-01 -0.16130464799E-01  0.10203965205E+01  0.10201251072E+01 0.  0.
     999903    2    3    3    0    0 -0.84876585965E-01 -0.27829738642E-01  0.89988662963E-01  0.12831285930E+00  0.19690129571E-01 0.  0.
         14    1    1    2    0    0 -0.57852389148E-02 -0.16129593066E-01  0.16130464799E-01  0.23533479479E-01  0.00000000000E+00 0. -1.
     999901    1    3    3    0    0  0.90661824880E-01  0.43959331708E-01 -0.10611912776E+00  0.89208366122E+00  0.88000000000E+00 0. -1.
        -11    1    4    4    0    0 -0.69706748758E-01 -0.25118453393E-01  0.63128589486E-01  0.97341910063E-01  0.51100000000E-03 0. -1.
         11    1    4    4    0    0 -0.15169837208E-01 -0.27112852487E-02  0.26860073477E-01  0.30970949240E-01  0.51100000000E-03 0.  1.
</event>
<event>
 8    1  0.1135368E+005  0.1043930E+01  0.7957747E-01            NaN
         13   -1    0    0    0    0  0.00000000000E+00  0.00000000000E+00  0.74505805969E-08  0.10566000000E+00  0.10566000000E+00 0.  1.
     999900   -1    0    0    0    0 -0.00000000000E+00 -0.00000000000E+00 -0.74505805969E-08  0.93827000000E+00  0.93827000000E+00 0.  1.
     999902    2    1    2    0    0 -0.33601224258E-02  0.22782713451E-01 -0.22818069889E-02  0.10207880662E+01  0.10205257111E+01 0.  0.
     999903    2    3    3    0    0 -0.22752939934E-01  0.62656900581E-02 -0.12789343347E+00  0.13150342444E+00  0.19479865715E-01 0.  0.
         14    1    1    2    0    0  0.33601224258E-02 -0.22782713451E-01  0.22818069889E-02  0.23141933758E-01  0.00000000000E+00 0. -1.
     999901    1    3    3    0    0  0.19392817508E-01  0.16517023393E-01  0.12561162648E+00  0.88928464180E+00  0.88000000000E+00 0. -1.
        -11    1    4    4    0    0 -0.37213767856E-02 -0.39218226312E-02 -0.60318739095E-01  0.60562700939E-01  0.51100000000E-03 0.  1.
         11    1    4    4    0    0 -0.19031563148E-01  0.10187512689E-01 -0.67574694374E-01  0.70940723505E-01  0.51100000000E-03 0. -1.
</event>
<event>
 8    1  0.1135368E+005  0.1043930E+01  0.7957747E-01            NaN
         13   -1    0    0    0    0  0.00000000000E+00  0.00000000000E+00  0.74505805969E-08  0.10566000000E+00  0.10566000000E+00 0.  1.
     999900   -1    0    0    0    0 -0.00000000000E+00 -0.00000000000E+00 -0.74505805969E-08  0.93827000000E+00  0.93827000000E+00 0. -1.
     999902    2    1    2    0    0 -0.88966979424E-02  0.19622319765E-01  0.11946086508E-01  0.10192947478E+01  0.10189970006E+01 0.  0.
     999903    2    3    3    0    0 -0.89941068888E-01 -0.54935037704E-01 -0.70877887006E-01  0.12857211972E+00  0.19996521267E-01 0.  0.
         14    1    1    2    0    0  0.88966979424E-02 -0.19622319765E-01 -0.11946086508E-01  0.24635252182E-01  0.00000000000E+00 0. -1.
     999901    1    3    3    0    0  0.81044370946E-01  0.74557357469E-01  0.82823973514E-01  0.89072262810E+00  0.88000000000E+00 0.  1.
        -11    1    4    4    0    0 -0.40957464081E-01 -0.29872711000E-01 -0.44907178256E-01  0.67725981029E-01  0.51100000000E-03 0. -1.
         11    1    4    4    0    0 -0.48983604807E-01 -0.25062326704E-01 -0.25970708750E-01  0.60846138692E-01  0.51100000000E-03 0.  1.
</event>
<event>
 8    1  0.1135368E+005  0.1043930E+01  0.7957747E-01            NaN
         13   -1    0    0    0    0  0.00000000000E+00  0.00000000000E+00  0.74505805969E-08  0.10566000000E+00  0.10566000000E+00 0.  1.
     999900   -1    0    0    0    0 -0.00000000000E+00 -0.00000000000E+00 -0.74505805969E-08  0.93827000000E+00  0.93827000000E+00 0. -1.
     999902    2    1    2    0    0  0.16621763009E-01 -0.52608448073E-02  0.14851778925E-01  0.10210272746E+01  0.10207703761E+01 0.  0.
     999903    2    3    3    0    0  0.51861776559E-01 -0.34489533512E-01 -0.11276483584E+00  0.13064411260E+00  0.21744060492E-01 0.  0.
         14    1    1    2    0    0 -0.16621763009E-01  0.52608448073E-02 -0.14851778925E-01  0.22902725402E-01  0.00000000000E+00 0. -1.
     999901    1    3    3    0    0 -0.35240013550E-01  0.29228688705E-01  0.12761661476E+00  0.89038316199E+00  0.88000000000E+00 0.  1.
        -11    1    4    4    0    0  0.42539166061E-01 -0.28375113746E-01 -0.71553085902E-01  0.87947899079E-01  0.51100000000E-03 0. -1.
         11    1    4    4    0    0  0.93226104979E-02 -0.61144197662E-02 -0.41211749936E-01  0.42696213525E-01  0.51100000000E-03 0.  1.
</event>
<event>
 8    1  0.1135368E+005  0.1043930E+01  0.7957747E-01            NaN
         13   -1    0    0    0    0  0.00000000000E+00  0.00000000000E+00  0.74505805969E-08  0.10566000000E+00  0.10566000000E+00 0. -1.
     999900   -1    0    0    0    0 -0.00000000000E+00 -0.00000000000E+00 -0.74505805969E-08  0.93827000000E+00  0.93827000000E+00 0. -1.
     999902    2    1    2    0    0  0.31161503139E-02 -0.22545688410E-01 -0.22472305419E-02  0.10210593091E+01  0.10208031368E+01 0.  0.
     999903    2    3    3    0    0 -0.10432238848E+00 -0.77180849923E-01  0.18615807253E-01  0.13259810742E+00  0.19891341780E-01 0.  0.
         14    1    1    2    0    0 -0.31161503139E-02  0.22545688410E-01  0.22472305419E-02  0.22870690933E-01  0.00000000000E+00 0. -1.
     999901    1    3    3    0    0  0.10743853879E+00  0.54635161513E-01 -0.20863037795E-01  0.88846120165E+00  0.88000000000E+00 0. -1.
        -11    1    4    4    0    0 -0.61990916135E-01 -0.57474783459E-01  0.13770514009E-01  0.85651109706E-01  0.51100000000E-03 0.  1.
         11    1    4    4    0    0 -0.42331472345E-01 -0.19706066464E-01  0.48452932441E-02  0.46946997710E-01  0.51100000000E-03 0. -1.
</event>
<event>
 8    1  0.1135368E+005  0.1043930E+01  0.7957747E-01            NaN
         13   -1    0    0    0    0  0.00000000000E+00  0.00000000000E+00  0.74505805969E-08  0.10566000000E+00  0.10566000000E+00 0.  1.
     999900   -1    0    0    0    0 -0.00000000000E+00 -0.00000000000E+00 -0.74505805969E-08  0.93827000000E+00  0.93827000000E+00 0.  1.
     999902    2    1    2    0    0  0.23033906567E-01  0.57213021328E-02  0.32905811430E-02  0.10199691554E+01  0.10196876757E+01 0.  0.
     999903    2    3    3    0    0  0.11865042581E+00 -0.21752668792E-01  0.51960188494E-01  0.13302717955E+00  0.21101354623E-01 0.  0.
         14    1    1    2    0    0 -0.23033906567E-01 -0.57213021328E-02 -0.32905811430E-02  0.23960844603E-01  0.00000000000E+00 0. -1.
     999901    1    3    3    0    0 -0.95616519246E-01  0.27473970925E-01 -0.48669607351E-01  0.88694197584E+00  0.88000000000E+00 0.  1.
        -11    1    4    4    0    0  0.59666186370E-01 -0.16599911707E-01  0.36267436234E-01  0.71771853234E-01  0.51100000000E-03 0.  1.
         11    1    4    4    0    0  0.58984239443E-01 -0.51527570852E-02  0.15692752259E-01  0.61255326321E-01  0.51100000000E-03 0. -1.
</event>
<event>
 8    1  0.1135368E+005  0.1043930E+01  0.7957747E-01            NaN
         13   -1    0    0    0    0  0.00000000000E+00  0.00000000000E+00  0.74505805969E-08  0.10566000000E+00  0.10566000000E+00 0.  1.
     999900   -1    0    0    0    0 -0.00000000000E+00 -0.00000000000E+00 -0.74505805969E-08  0.93827000000E+00  0.93827000000E+00 0.  1.
     999902    2    1    2    0    0 -0.20594823132E-01  0.84206597714E-02 -0.71386428844E-02  0.10205630474E+01  0.10202955059E+01 0.  0.
     999903    2    3    3    0    0 -0.44874768835E-01  0.58133919242E-01  0.10716217674E+00  0.13144798102E+00  0.20038516566E-01 0.  0.
         14    1    1    2    0    0  0.20594823132E-01 -0.84206597714E-02  0.71386428844E-02  0.23366952583E-01  0.00000000000E+00 0. -1.
     999901    1    3    3    0    0  0.24279945704E-01 -0.49713259471E-01 -0.11430081962E+00  0.88911506640E+00  0.88000000000E+00 0.  1.
        -11    1    4    4    0    0 -0.25001412801E-01  0.44279923426E-01  0.61922141185E-01  0.80127367052E-01  0.51100000000E-03 0. -1.
         11    1    4    4    0    0 -0.19873356034E-01  0.13853995816E-01  0.45240035552E-01  0.51320613966E-01  0.51100000000E-03 0.  1.
</event>
<event>
 8    1  0.1135368E+005  0.1043930E+01  0.7957747E-01            NaN
         13   -1    0    0    0    0  0.00000000000E+00  0.00000000000E+00  0.74505805969E-08  0.10566000000E+00  0.10566000000E+00 0. -1.
     999900   -1    0    0    0    0 -0.00000000000E+00 -0.00000000000E+00 -0.74505805969E-08  0.93827000000E+00  0.93827000000E+00 0.  1.
     999902    2    1    2    0    0 -0.14091287855E-01 -0.61663935955E-02 -0.17466853823E-01  0.10206559848E+01  0.10203905916E+01 0.  0.
     999903    2    3    3    0    0 -0.39391651035E-01 -0.97515389643E-01 -0.78935376092E-01  0.13343384420E+00  0.22646054627E-01 0.  0.
         14    1    1    2    0    0  0.14091287855E-01  0.61663935955E-02  0.17466853823E-01  0.23274015250E-01  0.00000000000E+00 0.  1.
     999901    1    3    3    0    0  0.25300363180E-01  0.91348996047E-01  0.61468522270E-01  0.88722214055E+00  0.88000000000E+00 0. -1.
        -11    1    4    4    0    0 -0.77533717714E-02 -0.22538193025E-01 -0.30566247881E-01  0.38763920715E-01  0.51100000000E-03 0.  1.
         11    1    4    4    0    0 -0.31638279264E-01 -0.74977196617E-01 -0.48369128212E-01  0.94669923483E-01  0.51100000000E-03 0. -1.
</event>
<event>
 8    1  0.1135368E+005  0.1043930E+01  0.7957747E-01            NaN
         13   -1    0    0    0    0  0.00000000000E+00  0.00000000000E+00  0.74505805969E-08  0.10566000000E+00  0.10566000000E+00 0. -1.
     999900   -1    0    0    0    0 -0.00000000000E+00 -0.00000000000E+00 -0.74505805969E-08  0.93827000000E+00  0.93827000000E+00 0. -1.
     999902    2    1    2    0    0  0.68962365674E-02  0.24522917597E-01  0.91612273065E-02  0.10168586193E+01  0.10164982007E+01 0.  0.
     999903    2    3    3    0    0  0.14430669634E-01  0.97814372125E-01  0.82959265517E-01  0.13070143494E+00  0.20608972294E-01 0.  0.
         14    1    1    2    0    0 -0.68962365674E-02 -0.24522917597E-01 -0.91612273065E-02  0.27071380681E-01  0.00000000000E+00 0. -1.
     999901    1    3    3    0    0 -0.75344330671E-02 -0.73291454528E-01 -0.73798038210E-01  0.88615718438E+00  0.88000000000E+00 0. -1.
        -11    1    4    4    0    0  0.40873803991E-02  0.25873735244E-01  0.10974420414E-01  0.28405208650E-01  0.51100000000E-03 0.  1.
         11    1    4    4    0    0  0.10343289235E-01  0.71940636881E-01  0.71984845103E-01  0.10229622629E+00  0.51100000000E-03 0. -1.
</event>
<event>
 8    1  0.1135368E+005  0.1043930E+01  0.7957747E-01            NaN
         13   -1    0    0    0    0  0.00000000000E+00  0.00000000000E+00  0.74505805969E-08  0.10566000000E+00  0.10566000000E+00 0.  1.
     999900   -1    0    0    0    0 -0.00000000000E+00 -0.00000000000E+00 -0.74505805969E-08  0.93827000000E+00  0.93827000000E+00 0.  1.
     999902    2    1    2    0    0  0.18977175649E-01 -0.10793453070E-01 -0.79489046078E-02  0.10206960397E+01  0.10204315698E+01 0.  0.
     999903    2    3    3    0    0 -0.74933697009E-01 -0.60535397648E-01  0.84225077510E-01  0.12952290503E+00  0.20068032540E-01 0.  0.
         14    1    1    2    0    0 -0.18977175649E-01  0.10793453070E-01  0.79489046078E-02  0.23233960258E-01  0.00000000000E+00 0.  1.
     999901    1    3    3    0    0  0.93910872658E-01  0.49741944578E-01 -0.92173982117E-01  0.89117313471E+00  0.88000000000E+00 0. -1.
        -11    1    4    4    0    0 -0.38956365840E-01 -0.42578054979E-01  0.55807095197E-01  0.80281892109E-01  0.51100000000E-03 0.  1.
         11    1    4    4    0    0 -0.35977331169E-01 -0.17957342669E-01  0.28417982313E-01  0.49241012921E-01  0.51100000000E-03 0. -1.
</event>
<event>
 8    1  0.1135368E+005  0.1043930E+01  0.7957747E-01            NaN
         13   -1    0    0    0    0  0.00000000000E+00  0.00000000000E+00  0.74505805969E-08  0.10566000000E+00  0.10566000000E+00 0. -1.
     999900   -1    0    0    0    0 -0.00000000000E+00 -0.00000000000E+00 -0.74505805969E-08  0.93827000000E+00  0.93827000000E+00 0.  1.
     999902    2    1    2    0    0 -0.61923907959E-02  0.61293528174E-02  0.40534584244E-02  0.10343203593E+01  0.10342757178E+01 0.  0.
     999903    2    3    3    0    0  0.21041358452E-01  0.31306882254E-01 -0.13587733569E+00  0.14249290274E+00  0.20462583776E-01 0.  0.
         14    1    1    2    0    0  0.61923907959E-02 -0.61293528174E-02 -0.40534584244E-02  0.96096407284E-02  0.00000000000E+00 0.  1.
     999901    1    3    3    0    0 -0.27233749248E-01 -0.25177529437E-01  0.13993079411E+00  0.89182745653E+00  0.88000000000E+00 0. -1.
        -11    1    4    4    0    0  0.74311668113E-02  0.11044865745E-01 -0.85270036523E-01  0.86304412107E-01  0.51100000000E-03 0. -1.
         11    1    4    4    0    0  0.13610191641E-01  0.20262016509E-01 -0.50607299165E-01  0.56188490630E-01  0.51100000000E-03 0.  1.
</event>
<event>
 8    1  0.1135368E+005  0.1043930E+01  0.7957747E-01            NaN
         13   -1    0    0    0    0  0.00000000000E+00  0.00000000000E+00  0.74505805969E-08  0.10566000000E+00  0.10566000000E+00 0.  1.
     999900   -1    0    0    0    0 -0.00000000000E+00 -0.00000000000E+00 -0.74505805969E-08  0.93827000000E+00  0.93827000000E+00 0.  1.
     999902    2    1    2    0    0  0.22050537877E-01  0.79621450402E-02 -0.16594210843E-01  0.10152073642E+01  0.10148009669E+01 0.  0.
     999903    2    3    3    0    0  0.98660716059E-01  0.80522100977E-01  0.27906981415E-05  0.12874838202E+00  0.18931461295E-01 0.  0.
         14    1    1    2    0    0 -0.22050537877E-01 -0.79621450402E-02  0.16594210843E-01  0.28722635809E-01  0.00000000000E+00 0.  1.
     999901    1    3    3    0    0 -0.76610178182E-01 -0.72559955936E-01 -0.16597001541E-01  0.88645898217E+00  0.88000000000E+00 0. -1.
        -11    1    4    4    0    0  0.48545390593E-01  0.50729566146E-01  0.38073737664E-02  0.70319990367E-01  0.51100000000E-03 0.  1.
         11    1    4    4    0    0  0.50115325466E-01  0.29792534831E-01 -0.38045830682E-02  0.58428391656E-01  0.51100000000E-03 0. -1.
</event>
<event>
 8    1  0.1135368E+005  0.1043930E+01  0.7957747E-01            NaN
         13   -1    0    0    0    0  0.00000000000E+00  0.00000000000E+00  0.74505805969E-08  0.10566000000E+00  0.10566000000E+00 0.  1.
     999900   -1    0    0    0    0 -0.00000000000E+00 -0.00000000000E+00 -0.74505805969E-08  0.93827000000E+00  0.93827000000E+00 0.  1.
     999902    2    1    2    0    0  0.36006707145E-02 -0.17303169079E-01 -0.15477085164E-01  0.10204373489E+01  0.10201668875E+01 0.  0.
     999903    2    3    3    0    0 -0.11806999383E+00 -0.45946917457E-01  0.24327669540E-01  0.13071344038E+00  0.21036285884E-01 0.  0.
         14    1    1    2    0    0 -0.36006707145E-02  0.17303169079E-01  0.15477085164E-01  0.23492651084E-01  0.00000000000E+00 0.  1.
     999901    1    3    3    0    0  0.12167066454E+00  0.28643748378E-01 -0.39804754704E-01  0.88972390854E+00  0.88000000000E+00 0.  1.
        -11    1    4    4    0    0 -0.19503482974E-01 -0.23056200473E-02  0.97596019071E-02  0.21936560403E-01  0.51100000000E-03 0. -1.
         11    1    4    4    0    0 -0.98566510853E-01 -0.43641297410E-01  0.14568067633E-01  0.10877687997E+00  0.51100000000E-03 0.  1.
</event>
<event>
 8    1  0.1135368E+005  0.1043930E+01  0.7957747E-01            NaN
         13   -1    0    0    0    0  0.00000000000E+00  0.00000000000E+00  0.74505805969E-08  0.10566000000E+00  0.10566000000E+00 0. -1.
     999900   -1    0    0    0    0 -0.00000000000E+00 -0.00000000000E+00 -0.74505805969E-08  0.93827000000E+00  0.93827000000E+00 0. -1.
     999902    2    1    2    0    0  0.10072703567E-01  0.19694242621E-01 -0.92442145283E-02  0.10199554708E+01  0.10196736656E+01 0.  0.
     999903    2    3    3    0    0 -0.33366145423E-01 -0.29094045306E-02  0.12244084158E+00  0.12881080660E+00  0.21879211943E-01 0.  0.
         14    1    1    2    0    0 -0.10072703567E-01 -0.19694242621E-01  0.92442145283E-02  0.23974529231E-01  0.00000000000E+00 0.  1.
     999901    1    3    3    0    0  0.43438848990E-01  0.22603647152E-01 -0.13168505611E+00  0.89114466416E+00  0.88000000000E+00 0. -1.
        -11    1    4    4    0    0 -0.14316064062E-01  0.68774794085E-02  0.30320116708E-01  0.34231856675E-01  0.51100000000E-03 0. -1.
         11    1    4    4    0    0 -0.19050081361E-01 -0.97868839391E-02  0.92120724876E-01  0.94578949929E-01  0.51100000000E-03 0.  1.
</event>
<event>
 7    1  0.1135368E+005  0.1043930E+01  0.7957747E-01            NaN
         13   -1    0    0    0    0  0.00000000000E+00  0.00000000000E+00  0.74505805969E-08  0.10566000000E+00  0.10566000000E+00 0. -1.
     999900   -1    0    0    0    0 -0.00000000000E+00 -0.00000000000E+00 -0.74505805969E-08  0.93827000000E+00  0.93827000000E+00 0. -1.
     999902    2    1    2    0    0 -0.19271846318E-03 -0.16128497564E-01 -0.17129002595E-01  0.10204019677E+01  0.10201306815E+01 0.  0.
         14    1    1    2    0    0  0.19271846318E-03  0.16128497564E-01  0.17129002595E-01  0.23528032302E-01  0.00000000000E+00 0. -1.
     999901    1    3    3    0    0 -0.21129533847E-02  0.10368041244E+00  0.28215085099E-01  0.88653831475E+00  0.88000000000E+00 0. -1.
        -11    1    3    3    0    0 -0.49237370239E-02 -0.43203790488E-01  0.20273897083E-02  0.43533689585E-01  0.51100000000E-03 0. -1.
         11    1    3    3    0    0  0.68439719455E-02 -0.76605119519E-01 -0.47371477403E-01  0.90329963361E-01  0.51100000000E-03 0.  1.
</event>
<event>
 8    1  0.1135368E+005  0.1043930E+01  0.7957747E-01            NaN
         13   -1    0    0    0    0  0.00000000000E+00  0.00000000000E+00  0.74505805969E-08  0.10566000000E+00  0.10566000000E+00 0.  1.
     999900   -1    0    0    0    0 -0.00000000000E+00 -0.00000000000E+00 -0.74505805969E-08  0.93827000000E+00  0.93827000000E+00 0.  1.
     999902    2    1    2    0    0 -0.23538973011E-01 -0.41828914404E-02  0.21405891780E-02  0.10199266262E+01  0.10196441344E+01 0.  0.
     999903    2    3    3    0    0  0.12537225730E+00  0.25018508408E-03  0.92768613750E-02  0.12737683317E+00  0.20506876384E-01 0.  0.
         14    1    1    2    0    0  0.23538973011E-01  0.41828914404E-02 -0.21405891780E-02  0.24003373789E-01  0.00000000000E+00 0. -1.
     999901    1    3    3    0    0 -0.14891123031E+00 -0.44330765245E-02 -0.71362721970E-02  0.89254979304E+00  0.88000000000E+00 0. -1.
        -11    1    4    4    0    0  0.65489664121E-01  0.86622205174E-02 -0.81937823833E-03  0.66067107343E-01  0.51100000000E-03 0. -1.
         11    1    4    4    0    0  0.59882593176E-01 -0.84120354333E-02  0.10096239613E-01  0.61309725826E-01  0.51100000000E-03 0.  1.
</event>
<event>
 8    1  0.1135368E+005  0.1043930E+01  0.7957747E-01            NaN
         13   -1    0    0    0    0  0.00000000000E+00  0.00000000000E+00  0.74505805969E-08  0.10566000000E+00  0.10566000000E+00 0. -1.
     999900   -1    0    0    0    0 -0.00000000000E+00 -0.00000000000E+00 -0.74505805969E-08  0.93827000000E+00  0.93827000000E+00 0. -1.
     999902    2    1    2    0    0 -0.12711595580E-01 -0.50059748044E-03  0.21825254785E-01  0.10186678345E+01  0.10183545453E+01 0.  0.
     999903    2    3    3    0    0 -0.54763241566E-01  0.10608365626E+00  0.49457592631E-01  0.13080968694E+00  0.20306796297E-01 0.  0.
         14    1    1    2    0    0  0.12711595580E-01  0.50059748044E-03 -0.21825254785E-01  0.25262165513E-01  0.00000000000E+00 0.  1.
     999901    1    3    3    0    0  0.42051645986E-01 -0.10658425374E+00 -0.27632337846E-01  0.88785814755E+00  0.88000000000E+00 0. -1.
        -11    1    4    4    0    0 -0.14720276696E-01  0.20926994877E-01  0.19095129497E-01  0.31929778454E-01  0.51100000000E-03 0. -1.
         11    1    4    4    0    0 -0.40042964870E-01  0.85156661381E-01  0.30362463133E-01  0.98879908483E-01  0.51100000000E-03 0.  1.
</event>
<event>
 8    1  0.1135368E+005  0.1043930E+01  0.7957747E-01            NaN
         13   -1    0    0    0    0  0.00000000000E+00  0.00000000000E+00  0.74505805969E-08  0.10566000000E+00  0.10566000000E+00 0.  1.
     999900   -1    0    0    0    0 -0.00000000000E+00 -0.00000000000E+00 -0.74505805969E-08  0.93827000000E+00  0.93827000000E+00 0.  1.
     999902    2    1    2    0    0 -0.47347700945E-02 -0.10911974708E-01  0.19963855161E-01  0.10206911370E+01  0.10204265542E+01 0.  0.
     999903    2    3    3    0    0  0.72085234619E-01 -0.10849803168E+00  0.11392776014E-02  0.13177116516E+00  0.19855429642E-01 0.  0.
         14    1    1    2    0    0  0.47347700945E-02  0.10911974708E-01 -0.19963855161E-01  0.23238862983E-01  0.00000000000E+00 0. -1.
     999901    1    3    3    0    0 -0.76820004714E-01  0.97586056973E-01  0.18824577559E-01  0.88891997185E+00  0.88000000000E+00 0. -1.
        -11    1    4    4    0    0  0.45367803468E-01 -0.83548170904E-01  0.34881733526E-02  0.95136548851E-01  0.51100000000E-03 0.  1.
         11    1    4    4    0    0  0.26717431151E-01 -0.24949860777E-01 -0.23488957512E-02  0.36634616313E-01  0.51100000000E-03 0. -1.
</event>
<event>
 8    1  0.1135368E+005  0.1043930E+01  0.7957747E-01            NaN
         13   -1    0    0    0    0  0.00000000000E+00  0.00000000000E+00  0.74505805969E-08  0.10566000000E+00  0.10566000000E+00 0. -1.
     999900   -1    0    0    0    0 -0.00000000000E+00 -0.00000000000E+00 -0.74505805969E-08  0.93827000000E+00  0.93827000000E+00 0.  1.
     999902    2    1    2    0    0  0.15057385573E-01 -0.14065369775E-01 -0.11097913087E-01  0.10205265139E+01  0.10202581254E+01 0.  0.
     999903    2    3    3    0    0  0.23184505996E-01 -0.54238788449E-01 -0.11746140954E+00  0.13317475330E+00  0.21423461289E-01 0.  0.
         14    1    1    2    0    0 -0.15057385573E-01  0.14065369775E-01  0.11097913087E-01  0.23403486109E-01  0.00000000000E+00 0. -1.
     999901    1    3    3    0    0 -0.81271204228E-02  0.40173418674E-01  0.10636349645E+00  0.88735176060E+00  0.88000000000E+00 0. -1.
        -11    1    4    4    0    0  0.10323698736E-01 -0.43983649964E-01 -0.74012496092E-01  0.86713614378E-01  0.51100000000E-03 0. -1.
         11    1    4    4    0    0  0.12860807260E-01 -0.10255138485E-01 -0.43448913448E-01  0.46461138917E-01  0.51100000000E-03 0.  1.
</event>
<event>
 8    1  0.1135368E+005  0.1043930E+01  0.7957747E-01            NaN
         13   -1    0    0    0    0  0.00000000000E+00  0.00000000000E+00  0.74505805969E-08  0.10566000000E+00  0.10566000000E+00 0.  1.
     999900   -1    0    0    0    0 -0.00000000000E+00 -0.00000000000E+00 -0.74505805969E-08  0.93827000000E+00  0.93827000000E+00 0.  1.
     999902    2    1    2    0    0  0.16882434431E-02 -0.37691128278E-02  0.23551346493E-01  0.10200192848E+01  0.10197389956E+01 0.  0.
     999903    2    3    3    0    0  0.12870083742E-01  0.12779680514E+00  0.39907736831E-02  0.12995342193E+00  0.19346915415E-01 0.  0.
         14    1    1    2    0    0 -0.16882434431E-02  0.37691128278E-02 -0.23551346493E-01  0.23910715151E-01  0.00000000000E+00 0. -1.
     999901    1    3    3    0    0 -0.11181840299E-01 -0.13156591797E+00  0.19560572809E-01  0.89006586292E+00  0.88000000000E+00 0.  1.
        -11    1    4    4    0    0 -0.35145490172E-02  0.39242356477E-01 -0.36473399117E-02  0.39571186564E-01  0.51100000000E-03 0. -1.
         11    1    4    4    0    0  0.16384632759E-01  0.88554448668E-01  0.76381135948E-02  0.90382235366E-01  0.51100000000E-03 0.  1.
</event>
<event>
 8    1  0.1135368E+005  0.1043930E+01  0.7957747E-01            NaN
         13   -1    0    0    0    0  0.00000000000E+00  0.00000000000E+00  0.74505805969E-08  0.10566000000E+00  0.10566000000E+00 0.  1.
     999900   -1    0    0    0    0 -0.00000000000E+00 -0.00000000000E+00 -0.74505805969E-08  0.93827000000E+00  0.93827000000E+00 0.  1.
     999902    2    1    2    0    0 -0.13935360521E-01 -0.16284129614E-01  0.10797733117E-01  0.10199308710E+01  0.10196484804E+01 0.  0.
     999903    2    3    3    0    0 -0.93767686282E-01 -0.69089562796E-01  0.61810629279E-01  0.13327201354E+00  0.19368247836E-01 0.  0.
         14    1    1    2    0    0  0.13935360521E-01  0.16284129614E-01 -0.10797733117E-01  0.23999128955E-01  0.00000000000E+00 0.  1.
     999901    1    3    3    0    0  0.79832325761E-01  0.52805433183E-01 -0.51012896162E-01  0.88665885750E+00  0.88000000000E+00 0.  1.
        -11    1    4    4    0    0 -0.47752167773E-01 -0.46983788373E-01  0.36473670153E-01  0.76278015393E-01  0.51100000000E-03 0. -1.
         11    1    4    4    0    0 -0.46015518509E-01 -0.22105774424E-01  0.25336959126E-01  0.56993998151E-01  0.51100000000E-03 0.  1.
</event>
<event>
 8    1  0.1135368E+005  0.1043930E+01  0.7957747E-01            NaN
         13   -1    0    0    0    0  0.00000000000E+00  0.00000000000E+00  0.74505805969E-08  0.10566000000E+00  0.10566000000E+00 0.  1.
     999900   -1    0    0    0    0 -0.00000000000E+00 -0.00000000000E+00 -0.74505805969E-08  0.93827000000E+00  0.93827000000E+00 0. -1.
     999902    2    1    2    0    0 -0.53503820848E-02  0.20936405259E-02  0.21528258058E-01  0.10216482628E+01  0.10214052560E+01 0.  0.
     999903    2    3    3    0    0 -0.25344530223E-01 -0.12423826260E+00  0.31588870058E-01  0.13234475349E+00  0.20971074313E-01 0.  0.
         14    1    1    2    0    0  0.53503820848E-02 -0.20936405259E-02 -0.21528258058E-01  0.22281737233E-01  0.00000000000E+00 0. -1.
     999901    1    3    3    0    0  0.19994148138E-01  0.12633190312E+00 -0.10060612000E-01  0.88930350928E+00  0.88000000000E+00 0. -1.
        -11    1    4    4    0    0  0.27547539429E-02 -0.23916066574E-01  0.27075181041E-02  0.24231357472E-01  0.51100000000E-03 0.  1.
         11    1    4    4    0    0 -0.28099284166E-01 -0.10032219602E+00  0.28881351954E-01  0.10811339601E+00  0.51100000000E-03 0. -1.
</event>
<event>
 8    1  0.1135368E+005  0.1043930E+01  0.7957747E-01            NaN
         13   -1    0    0    0    0  0.00000000000E+00  0.00000000000E+00  0.74505805969E-08  0.10566000000E+00  0.10566000000E+00 0.  1.
     999900   -1    0    0    0    0 -0.00000000000E+00 -0.00000000000E+00 -0.74505805969E-08  0.93827000000E+00  0.93827000000E+00 0.  1.
     999902    2    1    2    0    0  0.15157326625E-01  0.17794352956E-01 -0.54991292892E-02  0.10199170041E+01  0.10196342831E+01 0.  0.
     999903    2    3    3    0    0 -0.97756732210E-01 -0.72539784074E-01  0.32258845071E-01  0.12731658646E+00  0.18721141464E-01 0.  0.
         14    1    1    2    0    0 -0.15157326625E-01 -0.17794352956E-01  0.54991292892E-02  0.24012995866E-01  0.00000000000E+00 0. -1.
     999901    1    3    3    0    0  0.11291405884E+00  0.90334137030E-01 -0.37757974360E-01  0.89260041767E+00  0.88000000000E+00 0.  1.
        -11    1    4    4    0    0 -0.56407507852E-01 -0.39097432207E-01  0.27438356114E-01  0.73915767293E-01  0.51100000000E-03 0. -1.
         11    1    4    4    0    0 -0.41349224358E-01 -0.33442351867E-01  0.48204889569E-02  0.53400819171E-01  0.51100000000E-03 0.  1.
</event>
<event>
 8    1  0.1135368E+005  0.1043930E+01  0.7957747E-01            NaN
         13   -1    0    0    0    0  0.00000000000E+00  0.00000000000E+00  0.74505805969E-08  0.10566000000E+00  0.10566000000E+00 0.  1.
     999900   -1    0    0    0    0 -0.00000000000E+00 -0.00000000000E+00 -0.74505805969E-08  0.93827000000E+00  0.93827000000E+00 0. -1.
     999902    2    1    2    0    0  0.23628515270E-01  0.11710262656E-02 -0.82331427601E-03  0.10202581627E+01  0.10199835109E+01 0.  0.
     999903    2    3    3    0    0 -0.17442751935E-01  0.63910119965E-01 -0.11014400158E+00  0.13032892079E+00  0.21567880784E-01 0.  0.
         14    1    1    2    0    0 -0.23628515270E-01 -0.11710262656E-02  0.82331427601E-03  0.23671837335E-01  0.00000000000E+00 0. -1.
     999901    1    3    3    0    0  0.41071267205E-01 -0.62739093700E-01  0.10932068731E+00  0.88992924187E+00  0.88000000000E+00 0.  1.
        -11    1    4    4    0    0 -0.21416876376E-01  0.57739987358E-01 -0.91596331528E-01  0.11037544022E+00  0.51100000000E-03 0. -1.
         11    1    4    4    0    0  0.39741244411E-02  0.61701326074E-02 -0.18547670054E-01  0.19953480571E-01  0.51100000000E-03 0.  1.
</event>
<event>
 8    1  0.1135368E+005  0.1043930E+01  0.7957747E-01            NaN
         13   -1    0    0    0    0  0.00000000000E+00  0.00000000000E+00  0.74505805969E-08  0.10566000000E+00  0.10566000000E+00 0. -1.
     999900   -1    0    0    0    0 -0.00000000000E+00 -0.00000000000E+00 -0.74505805969E-08  0.93827000000E+00  0.93827000000E+00 0.  1.
     999902    2    1    2    0    0 -0.13870639428E-01 -0.66960718244E-02 -0.18001174664E-01  0.10202387716E+01  0.10199636644E+01 0.  0.
     999903    2    3    3    0    0  0.95939971324E-01 -0.80082855221E-01  0.26415404711E-01  0.12927478646E+00  0.19911178021E-01 0.  0.
         14    1    1    2    0    0  0.13870639428E-01  0.66960718244E-02  0.18001174664E-01  0.23691228447E-01  0.00000000000E+00 0. -1.
     999901    1    3    3    0    0 -0.10981061075E+00  0.73386783396E-01 -0.44416579375E-01  0.89096398509E+00  0.88000000000E+00 0.  1.
        -11    1    4    4    0    0  0.58837306478E-01 -0.51945759553E-01  0.26072518161E-01  0.82705670261E-01  0.51100000000E-03 0.  1.
         11    1    4    4    0    0  0.37102664846E-01 -0.28137095668E-01  0.34288654953E-03  0.46569116198E-01  0.51100000000E-03 0. -1.
</event>
<event>
 8    1  0.1135368E+005  0.1043930E+01  0.7957747E-01            NaN
         13   -1    0    0    0    0  0.00000000000E+00  0.00000000000E+00  0.74505805969E-08  0.10566000000E+00  0.10566000000E+00 0. -1.
     999900   -1    0    0    0    0 -0.00000000000E+00 -0.00000000000E+00 -0.74505805969E-08  0.93827000000E+00  0.93827000000E+00 0. -1.
     999902    2    1    2    0    0 -0.32770013048E-02 -0.19834940765E-01 -0.12342278403E-01  0.10203398442E+01  0.10200671068E+01 0.  0.
     999903    2    3    3    0    0  0.41930053419E-01  0.39976075229E-01 -0.11578112511E+00  0.13111510862E+00  0.20728888175E-01 0.  0.
         14    1    1    2    0    0  0.32770013048E-02  0.19834940765E-01  0.12342278403E-01  0.23590155762E-01  0.00000000000E+00 0. -1.
     999901    1    3    3    0    0 -0.45207054724E-01 -0.59811015994E-01  0.10343884671E+00  0.88922473562E+00  0.88000000000E+00 0.  1.
        -11    1    4    4    0    0  0.91521065667E-02  0.38517173519E-03 -0.27140811859E-01  0.28649506126E-01  0.51100000000E-03 0.  1.
         11    1    4    4    0    0  0.32777946852E-01  0.39590903494E-01 -0.88640313253E-01  0.10246560249E+00  0.51100000000E-03 0. -1.
</event>
<event>
 8    1  0.1135368E+005  0.1043930E+01  0.7957747E-01            NaN
         13   -1    0    0    0    0  0.00000000000E+00  0.00000000000E+00  0.74505805969E-08  0.10566000000E+00  0.10566000000E+00 0. -1.
     999900   -1    0    0    0    0 -0.00000000000E+00 -0.00000000000E+00 -0.74505805969E-08  0.93827000000E+00  0.93827000000E+00 0. -1.
     999902    2    1    2    0    0  0.49946232709E-02  0.34251907293E-02 -0.23041372276E-01  0.10201059989E+01  0.10198277629E+01 0.  0.
     999903    2    3    3    0    0 -0.86373203068E-01  0.96043607209E-01 -0.90232555477E-02  0.13043035104E+00  0.15682877192E-01 0.  0.
         14    1    1    2    0    0 -0.49946232709E-02 -0.34251907293E-02  0.23041372276E-01  0.23824001123E-01  0.00000000000E+00 0. -1.
     999901    1    3    3    0    0  0.91367826339E-01 -0.92618416480E-01 -0.14018116729E-01  0.88967564784E+00  0.88000000000E+00 0. -1.
        -11    1    4    4    0    0 -0.38809301716E-01  0.43474919596E-01  0.37261072225E-02  0.58398420609E-01  0.51100000000E-03 0. -1.
         11    1    4    4    0    0 -0.47563901352E-01  0.52568687613E-01 -0.12749362770E-01  0.72031930429E-01  0.51100000000E-03 0.  1.
</event>
<event>
 8    1  0.1135368E+005  0.1043930E+01  0.7957747E-01            NaN
         13   -1    0    0    0    0  0.00000000000E+00  0.00000000000E+00  0.74505805969E-08  0.10566000000E+00  0.10566000000E+00 0. -1.
     999900   -1    0    0    0    0 -0.00000000000E+00 -0.00000000000E+00 -0.74505805969E-08  0.93827000000E+00  0.93827000000E+00 0.  1.
     999902    2    1    2    0    0 -0.16761969914E-03  0.64322985891E-02 -0.24509522900E-01  0.10185899275E+01  0.10182746786E+01 0.  0.
     999903    2    3    3    0    0 -0.17234162277E-01  0.21737551448E-01 -0.12770570346E+00  0.13226325560E+00  0.20378532643E-01 0.  0.
         14    1    1    2    0    0  0.16761969914E-03 -0.64322985891E-02  0.24509522900E-01  0.25340072500E-01  0.00000000000E+00 0. -1.
     999901    1    3    3    0    0  0.17066542577E-01 -0.15305252859E-01  0.10319618056E+00  0.88632667190E+00  0.88000000000E+00 0. -1.
        -11    1    4    4    0    0 -0.12822162621E-02  0.13544190779E-01 -0.30284399703E-01  0.33203842681E-01  0.51100000000E-03 0.  1.
         11    1    4    4    0    0 -0.15951946014E-01  0.81933606698E-02 -0.97421303758E-01  0.99059412918E-01  0.51100000000E-03 0. -1.
</event>
<event>
 8    1  0.1135368E+005  0.1043930E+01  0.7957747E-01            NaN
         13   -1    0    0    0    0  0.00000000000E+00  0.00000000000E+00  0.74505805969E-08  0.10566000000E+00  0.10566000000E+00 0.  1.
     999900   -1    0    0    0    0 -0.00000000000E+00 -0.00000000000E+00 -0.74505805969E-08  0.93827000000E+00  0.93827000000E+00 0.  1.
     999902    2    1    2    0    0 -0.19656695876E-01 -0.83843929446E-02  0.80582513227E-02  0.10210910168E+01  0.10208355624E+01 0.  0.
     999903    2    3    3    0    0  0.12100931569E+00  0.36919217973E-01  0.13571662503E-01  0.12875154013E+00  0.19659245239E-01 0.  0.
         14    1    1    2    0    0  0.19656695876E-01  0.83843929446E-02 -0.80582513227E-02  0.22838983169E-01  0.00000000000E+00 0. -1.
     999901    1    3    3    0    0 -0.14066601157E+00 -0.45303610918E-01 -0.55134111803E-02  0.89233947670E+00  0.88000000000E+00 0. -1.
        -11    1    4    4    0    0  0.68241136497E-01  0.15348061285E-01  0.15756669985E-01  0.71700414683E-01  0.51100000000E-03 0.  1.
         11    1    4    4    0    0  0.52768179194E-01  0.21571156688E-01 -0.21850074817E-02  0.57051125450E-01  0.51100000000E-03 0. -1.
</event>
<event>
 8    1  0.1135368E+005  0.1043930E+01  0.7957747E-01            NaN
         13   -1    0    0    0    0  0.00000000000E+00  0.00000000000E+00  0.74505805969E-08  0.10566000000E+00  0.10566000000E+00 0. -1.
     999900   -1    0    0    0    0 -0.00000000000E+00 -0.00000000000E+00 -0.74505805969E-08  0.93827000000E+00  0.93827000000E+00 0. -1.
     999902    2    1    2    0    0  0.14310213345E-02 -0.10508756887E-01  0.21575206507E-01  0.10198889657E+01  0.10196055762E+01 0.  0.
     999903    2    3    3    0    0 -0.23187169098E-02 -0.11431975989E+00  0.64706797671E-01  0.13272995008E+00  0.18864941894E-01 0.  0.
         14    1    1    2    0    0 -0.14310213345E-02  0.10508756887E-01 -0.21575206507E-01  0.24041034279E-01  0.00000000000E+00 0.  1.
     999901    1    3    3    0    0  0.37497382443E-02  0.10381100301E+00 -0.43131591164E-01  0.88715901564E+00  0.88000000000E+00 0. -1.
        -11    1    4    4    0    0 -0.92206678543E-02 -0.41253968111E-01  0.19734221878E-01  0.46654166317E-01  0.51100000000E-03 0.  1.
         11    1    4    4    0    0  0.69019509445E-02 -0.73065791782E-01  0.44972575794E-01  0.86075783761E-01  0.51100000000E-03 0. -1.
</event>
<event>
 8    1  0.1135368E+005  0.1043930E+01  0.7957747E-01            NaN
         13   -1    0    0    0    0  0.00000000000E+00  0.00000000000E+00  0.74505805969E-08  0.10566000000E+00  0.10566000000E+00 0.  1.
     999900   -1    0    0    0    0 -0.00000000000E+00 -0.00000000000E+00 -0.74505805969E-08  0.93827000000E+00  0.93827000000E+00 0.  1.
     999902    2    1    2    0    0 -0.22633108860E-01 -0.75829671041E-03  0.50300413031E-02  0.10207322858E+01  0.10204686498E+01 0.  0.
     999903    2    3    3    0    0  0.23543005544E-01 -0.50392933677E-01  0.11713395967E+00  0.13103395529E+00  0.18862981113E-01 0.  0.
         14    1    1    2    0    0  0.22633108860E-01  0.75829671041E-03 -0.50300413031E-02  0.23197714242E-01  0.00000000000E+00 0. -1.
     999901    1    3    3    0    0 -0.46176114403E-01  0.49634636967E-01 -0.11210391836E+00  0.88969833047E+00  0.88000000000E+00 0.  1.
        -11    1    4    4    0    0  0.21167826456E-02 -0.20764768492E-01  0.56408560170E-01  0.60148509214E-01  0.51100000000E-03 0.  1.
         11    1    4    4    0    0  0.21426222898E-01 -0.29628165185E-01  0.60725399497E-01  0.70885446074E-01  0.51100000000E-03 0. -1.
</event>
<event>
 8    1  0.1135368E+005  0.1043930E+01  0.7957747E-01            NaN
         13   -1    0    0    0    0  0.00000000000E+00  0.00000000000E+00  0.74505805969E-08  0.10566000000E+00  0.10566000000E+00 0. -1.
     999900   -1    0    0    0    0 -0.00000000000E+00 -0.00000000000E+00 -0.74505805969E-08  0.93827000000E+00  0.93827000000E+00 0.  1.
     999902    2    1    2    0    0  0.19371374638E-01 -0.41193033540E-02  0.12323393181E-01  0.10206043739E+01  0.10203377887E+01 0.  0.
     999903    2    3    3    0    0 -0.41842353921E-01  0.34111876269E-01 -0.11493298979E+00  0.12852650132E+00  0.19876285280E-01 0.  0.
         14    1    1    2    0    0 -0.19371374638E-01  0.41193033540E-02 -0.12323393181E-01  0.23325626144E-01  0.00000000000E+00 0.  1.
     999901    1    3    3    0    0  0.61213728560E-01 -0.38231179623E-01  0.12725638297E+00  0.89207787253E+00  0.88000000000E+00 0. -1.
        -11    1    4    4    0    0 -0.24573527023E-01  0.16433265696E-01 -0.83232377547E-01  0.88327799955E-01  0.51100000000E-03 0.  1.
         11    1    4    4    0    0 -0.17268826898E-01  0.17678610573E-01 -0.31700612239E-01  0.40198701367E-01  0.51100000000E-03 0. -1.
</event>
<event>
 8    1  0.1135368E+005  0.1043930E+01  0.7957747E-01            NaN
         13   -1    0    0    0    0  0.00000000000E+00  0.00000000000E+00  0.74505805969E-08  0.10566000000E+00  0.10566000000E+00 0. -1.
     999900   -1    0    0    0    0 -0.00000000000E+00 -0.00000000000E+00 -0.74505805969E-08  0.93827000000E+00  0.93827000000E+00 0.  1.
     999902    2    1    2    0    0  0.23648375048E-01 -0.13371554974E-01 -0.15399894113E-01  0.10127017938E+01  0.10122201946E+01 0.  0.
     999903    2    3    3    0    0 -0.49966406365E-01  0.17562396567E-01  0.10658214246E+00  0.12070646720E+00  0.20130042064E-01 0.  0.
         14    1    1    2    0    0 -0.23648375048E-01  0.13371554974E-01  0.15399894113E-01  0.31228206217E-01  0.00000000000E+00 0. -1.
     999901    1    3    3    0    0  0.73614781413E-01 -0.30933951541E-01 -0.12198203658E+00  0.89199532658E+00  0.88000000000E+00 0.  1.
        -11    1    4    4    0    0 -0.39072732519E-01  0.11006392642E-01  0.95731675791E-01  0.10398381593E+00  0.51100000000E-03 0. -1.
         11    1    4    4    0    0 -0.10893673846E-01  0.65560039251E-02  0.10850466672E-01  0.16722651265E-01  0.51100000000E-03 0.  1.
</event>
<event>
 8    1  0.1135368E+005  0.1043930E+01  0.7957747E-01            NaN
         13   -1    0    0    0    0  0.00000000000E+00  0.00000000000E+00  0.74505805969E-08  0.10566000000E+00  0.10566000000E+00 0. -1.
     999900   -1    0    0    0    0 -0.00000000000E+00 -0.00000000000E+00 -0.74505805969E-08  0.93827000000E+00  0.93827000000E+00 0. -1.
     999902    2    1    2    0    0  0.56956551058E-02  0.20508539590E-01 -0.10882671997E-01  0.10200244937E+01  0.10197443280E+01 0.  0.
     999903    2    3    3    0    0 -0.66697977547E-01  0.19927134961E-02  0.10845647202E+00  0.12883118963E+00  0.19546815151E-01 0.  0.
         14    1    1    2    0    0 -0.56956551058E-02 -0.20508539590E-01  0.10882671997E-01  0.23905506332E-01  0.00000000000E+00 0. -1.
     999901    1    3    3    0    0  0.72393632653E-01  0.18515826094E-01 -0.11933914402E+00  0.89119330404E+00  0.88000000000E+00 0. -1.
        -11    1    4    4    0    0 -0.55335016288E-01  0.83511088486E-02  0.81169366819E-01  0.98592252623E-01  0.51100000000E-03 0. -1.
         11    1    4    4    0    0 -0.11362961259E-01 -0.63583953524E-02  0.27287105202E-01  0.30238937008E-01  0.51100000000E-03 0.  1.
</event>
<event>
 8    1  0.1135368E+005  0.1043930E+01  0.7957747E-01            NaN
         13   -1    0    0    0    0  0.00000000000E+00  0.00000000000E+00  0.74505805969E-08  0.10566000000E+00  0.10566000000E+00 0. -1.
     999900   -1    0    0    0    0 -0.00000000000E+00 -0.00000000000E+00 -0.74505805969E-08  0.93827000000E+00  0.93827000000E+00 0. -1.
     999902    2    1    2    0    0 -0.71464006560E-02 -0.99292519287E-02 -0.18179207003E-01  0.10220177967E+01  0.10217828694E+01 0.  0.
     999903    2    3    3    0    0  0.24915049423E-01  0.12643947880E+00  0.68510695634E-02  0.13058586882E+00  0.19950701582E-01 0.  0.
         14    1    1    2    0    0  0.71464006560E-02  0.99292519287E-02  0.18179207003E-01  0.21912203300E-01  0.00000000000E+00 0. -1.
     999901    1    3    3    0    0 -0.32061450079E-01 -0.13636873073E+00 -0.25030276566E-01  0.89143192788E+00  0.88000000000E+00 0.  1.
        -11    1    4    4    0    0  0.23575958156E-01  0.69471744777E-01  0.19684402326E-02  0.73391314222E-01  0.51100000000E-03 0.  1.
         11    1    4    4    0    0  0.13390912675E-02  0.56967734024E-01  0.48826293308E-02  0.57194554596E-01  0.51100000000E-03 0. -1.
</event>
<event>
 8    1  0.1135368E+005  0.1043930E+01  0.7957747E-01            NaN
         13   -1    0    0    0    0  0.00000000000E+00  0.00000000000E+00  0.74505805969E-08  0.10566000000E+00  0.10566000000E+00 0. -1.
     999900   -1    0    0    0    0 -0.00000000000E+00 -0.00000000000E+00 -0.74505805969E-08  0.93827000000E+00  0.93827000000E+00 0. -1.
     999902    2    1    2    0    0  0.23301822433E-01 -0.26160111424E-02 -0.56633757473E-02  0.10198075568E+01  0.10195222217E+01 0.  0.
     999903    2    3    3    0    0  0.10304458251E+00 -0.70420947308E-01  0.38189126306E-01  0.13251985872E+00  0.22930498984E-01 0.  0.
         14    1    1    2    0    0 -0.23301822433E-01  0.26160111424E-02  0.56633757473E-02  0.24122443240E-01  0.00000000000E+00 0. -1.
     999901    1    3    3    0    0 -0.79742760075E-01  0.67804936165E-01 -0.43852502054E-01  0.88728769804E+00  0.88000000000E+00 0.  1.
        -11    1    4    4    0    0  0.64805531428E-02 -0.85899190510E-02  0.93986895683E-02  0.14296180082E-01  0.51100000000E-03 0. -1.
         11    1    4    4    0    0  0.96564029366E-01 -0.61831028257E-01  0.28790436738E-01  0.11822367864E+00  0.51100000000E-03 0.  1.
</event>
<event>
 8    1  0.1135368E+005  0.1043930E+01  0.7957747E-01            NaN
         13   -1    0    0    0    0  0.00000000000E+00  0.00000000000E+00  0.74505805969E-08  0.10566000000E+00  0.10566000000E+00 0. -1.
     999900   -1    0    0    0    0 -0.00000000000E+00 -0.00000000000E+00 -0.74505805969E-08  0.93827000000E+00  0.93827000000E+00 0. -1.
     999902    2    1    2    0    0 -0.22760336263E-01 -0.99937032073E-02 -0.18510320918E-02  0.10190034413E+01  0.10186985226E+01 0.  0.
     999903    2    3    3    0    0 -0.97798262989E-02 -0.76146966207E-01 -0.10363666152E+00  0.13057501860E+00  0.20378233598E-01 0.  0.
         14    1    1    2    0    0  0.22760336263E-01  0.99937032073E-02  0.18510320918E-02  0.24926558736E-01  0.00000000000E+00 0. -1.
     999901    1    3    3    0    0 -0.12980509964E-01  0.66153263000E-01  0.10178562943E+00  0.88842842267E+00  0.88000000000E+00 0.  1.
        -11    1    4    4    0    0 -0.98675239159E-02 -0.14304266156E-01 -0.26733996834E-01  0.31889618471E-01  0.51100000000E-03 0.  1.
         11    1    4    4    0    0  0.87697617018E-04 -0.61842700051E-01 -0.76902664691E-01  0.98685400126E-01  0.51100000000E-03 0. -1.
</event>
<event>
 8    1  0.1135368E+005  0.1043930E+01  0.7957747E-01            NaN
         13   -1    0    0    0    0  0.00000000000E+00  0.00000000000E+00  0.74505805969E-08  0.10566000000E+00  0.10566000000E+00 0. -1.
     999900   -1    0    0    0    0 -0.00000000000E+00 -0.00000000000E+00 -0.74505805969E-08  0.93827000000E+00  0.93827000000E+00 0.  1.
     999902    2    1    2    0    0 -0.35149039342E-02 -0.13206555756E-01  0.22073137075E-01  0.10179686625E+01  0.10176375616E+01 0.  0.
     999903    2    3    3    0    0  0.87402034865E-02 -0.72351434494E-01 -0.10234917162E+00  0.12716609445E+00  0.19614826426E-01 0.  0.
         14    1    1    2    0    0  0.35149039342E-02  0.13206555756E-01 -0.22073137075E-01  0.25961337503E-01  0.00000000000E+00 0.  1.
     999901    1    3    3    0    0 -0.12255107421E-01  0.59144878738E-01  0.12442230870E+00  0.89080256805E+00  0.88000000000E+00 0. -1.
        -11    1    4    4    0    0  0.31720927016E-02 -0.32084878651E-01 -0.29310644563E-01  0.43576101430E-01  0.51100000000E-03 0.  1.
         11    1    4    4    0    0  0.55681107849E-02 -0.40266555843E-01 -0.73038527058E-01  0.83589993020E-01  0.51100000000E-03 0. -1.
</event>
<event>
 8    1  0.1135368E+005  0.1043930E+01  0.7957747E-01            NaN
         13   -1    0    0    0    0  0.00000000000E+00  0.00000000000E+00  0.74505805969E-08  0.10566000000E+00  0.10566000000E+00 0.  1.
     999900   -1    0    0    0    0 -0.00000000000E+00 -0.00000000000E+00 -0.74505805969E-08  0.93827000000E+00  0.93827000000E+00 0. -1.
     999902    2    1    2    0    0  0.19554125203E-01  0.94305062838E-02 -0.98782619700E-02  0.10200788298E+01  0.10197999513E+01 0.  0.
     999903    2    3    3    0    0 -0.92918295848E-01  0.30071853849E-02 -0.87414830491E-01  0.12951539914E+00  0.22136692529E-01 0.  0.
         14    1    1    2    0    0 -0.19554125203E-01 -0.94305062838E-02  0.98782619700E-02  0.23851170218E-01  0.00000000000E+00 0. -1.
     999901    1    3    3    0    0  0.11247242105E+00  0.64233208989E-02  0.77536568521E-01  0.89056343065E+00  0.88000000000E+00 0.  1.
        -11    1    4    4    0    0 -0.25446215439E-01 -0.87344724610E-02 -0.21251307336E-01  0.34288191463E-01  0.51100000000E-03 0. -1.
         11    1    4    4    0    0 -0.67472080409E-01  0.11741657846E-01 -0.66163523155E-01  0.95227207672E-01  0.51100000000E-03 0.  1.
</event>
<event>
 8    1  0.1135368E+005  0.1043930E+01  0.7957747E-01            NaN
         13   -1    0    0    0    0  0.00000000000E+00  0.00000000000E+00  0.74505805969E-08  0.10566000000E+00  0.10566000000E+00 0. -1.
     999900   -1    0    0    0    0 -0.00000000000E+00 -0.00000000000E+00 -0.74505805969E-08  0.93827000000E+00  0.93827000000E+00 0. -1.
     999902    2    1    2    0    0  0.11570669656E-01  0.99415389761E-02 -0.18394368317E-01  0.10200329839E+01  0.10197530195E+01 0.  0.
     999903    2    3    3    0    0  0.10861756036E+00  0.47432650204E-01 -0.57159765697E-01  0.13305697606E+00  0.19730416639E-01 0.  0.
         14    1    1    2    0    0 -0.11570669656E-01 -0.99415389761E-02  0.18394368317E-01  0.23897016117E-01  0.00000000000E+00 0. -1.
     999901    1    3    3    0    0 -0.97046890702E-01 -0.37491111228E-01  0.38765397380E-01  0.88697600782E+00  0.88000000000E+00 0. -1.
        -11    1    4    4    0    0  0.45123921641E-01  0.20449503358E-01 -0.34755627998E-01  0.60519131607E-01  0.51100000000E-03 0. -1.
         11    1    4    4    0    0  0.63493638717E-01  0.26983146846E-01 -0.22404137699E-01  0.72537844455E-01  0.51100000000E-03 0.  1.
</event>
<event>
 8    1  0.1135368E+005  0.1043930E+01  0.7957747E-01            NaN
         13   -1    0    0    0    0  0.00000000000E+00  0.00000000000E+00  0.74505805969E-08  0.10566000000E+00  0.10566000000E+00 0. -1.
     999900   -1    0    0    0    0 -0.00000000000E+00 -0.00000000000E+00 -0.74505805969E-08  0.93827000000E+00  0.93827000000E+00 0. -1.
     999902    2    1    2    0    0  0.10300817817E-01 -0.13260505782E-01  0.16881150958E-01  0.10201198946E+01  0.10198419869E+01 0.  0.
     999903    2    3    3    0    0  0.65432742398E-01  0.60625262100E-01  0.95054234121E-01  0.13185773356E+00  0.19856693935E-01 0.  0.
         14    1    1    2    0    0 -0.10300817817E-01  0.13260505782E-01 -0.16881150958E-01  0.23810105396E-01  0.00000000000E+00 0.  1.
     999901    1    3    3    0    0 -0.55131924581E-01 -0.73885767882E-01 -0.78173083163E-01  0.88826216104E+00  0.88000000000E+00 0. -1.
        -11    1    4    4    0    0  0.49324314138E-01  0.40169422358E-01  0.78332323655E-01  0.10090928851E+00  0.51100000000E-03 0. -1.
         11    1    4    4    0    0  0.16108428260E-01  0.20455839742E-01  0.16721910467E-01  0.30948445054E-01  0.51100000000E-03 0.  1.
</event>
<event>
 8    1  0.1135368E+005  0.1043930E+01  0.7957747E-01            NaN
         13   -1    0    0    0    0  0.00000000000E+00  0.00000000000E+00  0.74505805969E-08  0.10566000000E+00  0.10566000000E+00 0. -1.
     999900   -1    0    0    0    0 -0.00000000000E+00 -0.00000000000E+00 -0.74505805969E-08  0.93827000000E+00  0.93827000000E+00 0. -1.
     999902    2    1    2    0    0  0.20396713379E-01  0.10251353489E-01  0.10358533097E-01  0.10188617856E+01  0.10185533480E+01 0.  0.
     999903    2    3    3    0    0  0.72940766294E-01  0.10560144803E+00 -0.21340133416E-01  0.13158656140E+00  0.19687575593E-01 0.  0.
         14    1    1    2    0    0 -0.20396713379E-01 -0.10251353489E-01 -0.10358533097E-01  0.25068214395E-01  0.00000000000E+00 0.  1.
     999901    1    3    3    0    0 -0.52544052914E-01 -0.95350094546E-01  0.31698666512E-01  0.88727522420E+00  0.88000000000E+00 0. -1.
        -11    1    4    4    0    0  0.33677037284E-01  0.39745932164E-01 -0.16957401178E-01  0.54787740778E-01  0.51100000000E-03 0. -1.
         11    1    4    4    0    0  0.39263729009E-01  0.65855515871E-01 -0.43827322377E-02  0.76798820624E-01  0.51100000000E-03 0.  1.
</event>
<event>
 8    1  0.1135368E+005  0.1043930E+01  0.7957747E-01            NaN
         13   -1    0    0    0    0  0.00000000000E+00  0.00000000000E+00  0.74505805969E-08  0.10566000000E+00  0.10566000000E+00 0.  1.
     999900   -1    0    0    0    0 -0.00000000000E+00 -0.00000000000E+00 -0.74505805969E-08  0.93827000000E+00  0.93827000000E+00 0. -1.
     999902    2    1    2    0    0  0.22476076838E-01  0.15754924118E-01  0.10648593534E-01  0.10144888008E+01  0.10140615084E+01 0.  0.
     999903    2    3    3    0    0  0.53286815738E-01  0.10991647151E+00  0.35056720157E-01  0.12859295183E+00  0.19648363611E-01 0.  0.
         14    1    1    2    0    0 -0.22476076838E-01 -0.15754924118E-01 -0.10648593534E-01  0.29441199164E-01  0.00000000000E+00 0. -1.
     999901    1    3    3    0    0 -0.30810738900E-01 -0.94161547389E-01 -0.24408126624E-01  0.88589584900E+00  0.88000000000E+00 0. -1.
        -11    1    4    4    0    0  0.30816816249E-01  0.63681006877E-01  0.30304784070E-01  0.76964848204E-01  0.51100000000E-03 0. -1.
         11    1    4    4    0    0  0.22469999490E-01  0.46235464629E-01  0.47519360875E-02  0.51628103627E-01  0.51100000000E-03 0.  1.
</event>
<event>
 8    1  0.1135368E+005  0.1043930E+01  0.7957747E-01            NaN
         13   -1    0    0    0    0  0.00000000000E+00  0.00000000000E+00  0.74505805969E-08  0.10566000000E+00  0.10566000000E+00 0. -1.
     999900   -1    0    0    0    0 -0.00000000000E+00 -0.00000000000E+00 -0.74505805969E-08  0.93827000000E+00  0.93827000000E+00 0. -1.
     999902    2    1    2    0    0  0.21191492082E-01  0.53427750782E-02 -0.70471565169E-02  0.10209672694E+01  0.10207090076E+01 0.  0.
     999903    2    3    3    0    0  0.43847556480E-01 -0.75042431371E-01 -0.97605544160E-01  0.13238643444E+00  0.21103342313E-01 0.  0.
         14    1    1    2    0    0 -0.21191492082E-01 -0.53427750782E-02  0.70471565169E-02  0.22962730612E-01  0.00000000000E+00 0. -1.
     999901    1    3    3    0    0 -0.22656064398E-01  0.80385206449E-01  0.90558387643E-01  0.88858083495E+00  0.88000000000E+00 0.  1.
        -11    1    4    4    0    0  0.30935205717E-01 -0.47225247626E-01 -0.76818658225E-01  0.95334035573E-01  0.51100000000E-03 0. -1.
         11    1    4    4    0    0  0.12912350763E-01 -0.27817183745E-01 -0.20786885936E-01  0.37052398864E-01  0.51100000000E-03 0.  1.
</event>
<event>
 8    1  0.1135368E+005  0.1043930E+01  0.7957747E-01            NaN
         13   -1    0    0    0    0  0.00000000000E+00  0.00000000000E+00  0.74505805969E-08  0.10566000000E+00  0.10566000000E+00 0.  1.
     999900   -1    0    0    0    0 -0.00000000000E+00 -0.00000000000E+00 -0.74505805969E-08  0.93827000000E+00  0.93827000000E+00 0. -1.
     999902    2    1    2    0    0 -0.18450412692E-01 -0.21250479226E-02 -0.13608365528E-01  0.10209056397E+01  0.10206459738E+01 0.  0.
     999903    2    3    3    0    0  0.13112512978E-01 -0.11347828176E+00 -0.61319230341E-01  0.13204564641E+00  0.25034901620E-01 0.  0.
         14    1    1    2    0    0  0.18450412692E-01  0.21250479226E-02  0.13608365528E-01  0.23024360350E-01  0.00000000000E+00 0.  1.
     999901    1    3    3    0    0 -0.31562925670E-01  0.11135323383E+00  0.47710864813E-01  0.88885999324E+00  0.88000000000E+00 0. -1.
        -11    1    4    4    0    0  0.96971261439E-02 -0.59889537917E-01 -0.46195652120E-01  0.76256740051E-01  0.51100000000E-03 0. -1.
         11    1    4    4    0    0  0.34153868341E-02 -0.53588743840E-01 -0.15123578221E-01  0.55788906359E-01  0.51100000000E-03 0.  1.
</event>
<event>
 8    1  0.1135368E+005  0.1043930E+01  0.7957747E-01            NaN
         13   -1    0    0    0    0  0.00000000000E+00  0.00000000000E+00  0.74505805969E-08  0.10566000000E+00  0.10566000000E+00 0.  1.
     999900   -1    0    0    0    0 -0.00000000000E+00 -0.00000000000E+00 -0.74505805969E-08  0.93827000000E+00  0.93827000000E+00 0. -1.
     999902    2    1    2    0    0 -0.34463117563E-03 -0.19860751926E-01 -0.12731397482E-01  0.10203364263E+01  0.10200636089E+01 0.  0.
     999903    2    3    3    0    0 -0.87935470735E-01 -0.44475638515E-01 -0.86622860336E-01  0.13256506154E+00  0.18953790489E-01 0.  0.
         14    1    1    2    0    0  0.34463117563E-03  0.19860751926E-01  0.12731397482E-01  0.23593573692E-01  0.00000000000E+00 0.  1.
     999901    1    3    3    0    0  0.87590839559E-01  0.24614886589E-01  0.73891462854E-01  0.88777136477E+00  0.88000000000E+00 0.  1.
        -11    1    4    4    0    0 -0.19315399822E-01 -0.60385180766E-02 -0.27601315635E-01  0.34229258196E-01  0.51100000000E-03 0.  1.
         11    1    4    4    0    0 -0.68620070912E-01 -0.38437120439E-01 -0.59021544701E-01  0.98335803345E-01  0.51100000000E-03 0. -1.
</event>
<event>
 8    1  0.1135368E+005  0.1043930E+01  0.7957747E-01            NaN
         13   -1    0    0    0    0  0.00000000000E+00  0.00000000000E+00  0.74505805969E-08  0.10566000000E+00  0.10566000000E+00 0. -1.
     999900   -1    0    0    0    0 -0.00000000000E+00 -0.00000000000E+00 -0.74505805969E-08  0.93827000000E+00  0.93827000000E+00 0.  1.
     999902    2    1    2    0    0  0.20375636172E-01  0.59053649334E-02  0.94251616978E-02  0.10207163498E+01  0.10204523473E+01 0.  0.
     999903    2    3    3    0    0  0.78597484850E-02  0.11230346850E+00  0.66620684169E-01  0.13237602552E+00  0.20279346393E-01 0.  0.
         14    1    1    2    0    0 -0.20375636172E-01 -0.59053649334E-02 -0.94251616978E-02  0.23213650239E-01  0.00000000000E+00 0.  1.
     999901    1    3    3    0    0  0.12515887687E-01 -0.10639810356E+00 -0.57195522471E-01  0.88834032424E+00  0.88000000000E+00 0.  1.
        -11    1    4    4    0    0 -0.29938371288E-02  0.83004291039E-01  0.50610180184E-01  0.97264211563E-01  0.51100000000E-03 0.  1.
         11    1    4    4    0    0  0.10853585614E-01  0.29299177457E-01  0.16010503985E-01  0.35111813954E-01  0.51100000000E-03 0. -1.
</event>
<event>
 8    1  0.1135368E+005  0.1043930E+01  0.7957747E-01            NaN
         13   -1    0    0    0    0  0.00000000000E+00  0.00000000000E+00  0.74505805969E-08  0.10566000000E+00  0.10566000000E+00 0. -1.
     999900   -1    0    0    0    0 -0.00000000000E+00 -0.00000000000E+00 -0.74505805969E-08  0.93827000000E+00  0.93827000000E+00 0. -1.
     999902    2    1    2    0    0 -0.49161022121E-02 -0.33706972454E-02 -0.25754431256E-01  0.10174947888E+01  0.10171513284E+01 0.  0.
     999903    2    3    3    0    0  0.12251612592E+00  0.28403634856E-01 -0.10945856792E-03  0.12737892806E+00  0.20209199630E-01 0.  0.
         14    1    1    2    0    0  0.49161022121E-02  0.33706972454E-02  0.25754431256E-01  0.26435211181E-01  0.00000000000E+00 0. -1.
     999901    1    3    3    0    0 -0.12743222813E+00 -0.31774332101E-01 -0.25644972688E-01  0.89011586076E+00  0.88000000000E+00 0. -1.
        -11    1    4    4    0    0  0.60472904172E-01  0.51992741352E-02 -0.53260306456E-02  0.60931373807E-01  0.51100000000E-03 0. -1.
         11    1    4    4    0    0  0.62043221747E-01  0.23204360720E-01  0.52165720777E-02  0.66447554255E-01  0.51100000000E-03 0.  1.
</event>
<event>
 8    1  0.1135368E+005  0.1043930E+01  0.7957747E-01            NaN
         13   -1    0    0    0    0  0.00000000000E+00  0.00000000000E+00  0.74505805969E-08  0.10566000000E+00  0.10566000000E+00 0.  1.
     999900   -1    0    0    0    0 -0.00000000000E+00 -0.00000000000E+00 -0.74505805969E-08  0.93827000000E+00  0.93827000000E+00 0.  1.
     999902    2    1    2    0    0 -0.97732287500E-02 -0.21682969675E-01  0.96098212983E-02  0.10182781806E+01  0.10179550271E+01 0.  0.
     999903    2    3    3    0    0  0.83882436266E-01 -0.95174476115E-01  0.21975402467E-01  0.13017610722E+00  0.19195222326E-01 0.  0.
         14    1    1    2    0    0  0.97732287500E-02  0.21682969675E-01 -0.96098212983E-02  0.25651819419E-01  0.00000000000E+00 0. -1.
     999901    1    3    3    0    0 -0.93655665016E-01  0.73491506440E-01 -0.12365581168E-01  0.88810207336E+00  0.88000000000E+00 0.  1.
        -11    1    4    4    0    0  0.23014607259E-01 -0.38901797140E-01  0.42152517062E-02  0.45398804345E-01  0.51100000000E-03 0. -1.
         11    1    4    4    0    0  0.60867829006E-01 -0.56272678975E-01  0.17760150761E-01  0.84777302876E-01  0.51100000000E-03 0.  1.
</event>
<event>
 8    1  0.1135368E+005  0.1043930E+01  0.7957747E-01            NaN
         13   -1    0    0    0    0  0.00000000000E+00  0.00000000000E+00  0.74505805969E-08  0.10566000000E+00  0.10566000000E+00 0. -1.
     999900   -1    0    0    0    0 -0.00000000000E+00 -0.00000000000E+00 -0.74505805969E-08  0.93827000000E+00  0.93827000000E+00 0.  1.
     999902    2    1    2    0    0 -0.11736812092E-01 -0.18979891853E-01  0.74407713887E-02  0.10204065196E+01  0.10201353396E+01 0.  0.
     999903    2    3    3    0    0  0.61248185254E-01 -0.95992047037E-01  0.64139212775E-01  0.13222163164E+00  0.20072567530E-01 0.  0.
         14    1    1    2    0    0  0.11736812092E-01  0.18979891853E-01 -0.74407713887E-02  0.23523480433E-01  0.00000000000E+00 0.  1.
     999901    1    3    3    0    0 -0.72984997346E-01  0.77012155184E-01 -0.56698441387E-01  0.88818488793E+00  0.88000000000E+00 0.  1.
        -11    1    4    4    0    0  0.54922941720E-01 -0.92805544070E-01  0.63363704498E-01  0.12507845021E+00  0.51100000000E-03 0. -1.
         11    1    4    4    0    0  0.63252435343E-02 -0.31865029662E-02  0.77550827741E-03  0.71431814348E-02  0.51100000000E-03 0.  1.
</event>
<event>
 8    1  0.1135368E+005  0.1043930E+01  0.7957747E-01            NaN
         13   -1    0    0    0    0  0.00000000000E+00  0.00000000000E+00  0.74505805969E-08  0.10566000000E+00  0.10566000000E+00 0.  1.
     999900   -1    0    0    0    0 -0.00000000000E+00 -0.00000000000E+00 -0.74505805969E-08  0.93827000000E+00  0.93827000000E+00 0.  1.
     999902    2    1    2    0    0  0.54336633222E-02 -0.21461632706E-01 -0.75114197710E-02  0.10205516382E+01  0.10202838322E+01 0.  0.
     999903    2    3    3    0    0  0.11396872446E+00  0.50972898842E-01  0.30571512464E-01  0.13011526728E+00  0.20205415909E-01 0.  0.
         14    1    1    2    0    0 -0.54336633222E-02  0.21461632706E-01  0.75114197710E-02  0.23378361844E-01  0.00000000000E+00 0.  1.
     999901    1    3    3    0    0 -0.10853506114E+00 -0.72434531549E-01 -0.38082932235E-01  0.89043637088E+00  0.88000000000E+00 0.  1.
        -11    1    4    4    0    0  0.39572331918E-01  0.81208399399E-02  0.62561844172E-02  0.40881761939E-01  0.51100000000E-03 0.  1.
         11    1    4    4    0    0  0.74396392545E-01  0.42852058903E-01  0.24315328046E-01  0.89233505338E-01  0.51100000000E-03 0. -1.
</event>
<event>
 8    1  0.1135368E+005  0.1043930E+01  0.7957747E-01            NaN
         13   -1    0    0    0    0  0.00000000000E+00  0.00000000000E+00  0.74505805969E-08  0.10566000000E+00  0.10566000000E+00 0.  1.
     999900   -1    0    0    0    0 -0.00000000000E+00 -0.00000000000E+00 -0.74505805969E-08  0.93827000000E+00  0.93827000000E+00 0.  1.
     999902    2    1    2    0    0  0.90004400547E-02  0.21178608823E-01 -0.50731046474E-02  0.10203656671E+01  0.10200935334E+01 0.  0.
     999903    2    3    3    0    0 -0.88057456188E-01  0.85102521253E-01 -0.44658275795E-01  0.13184246114E+00  0.19786820090E-01 0.  0.
         14    1    1    2    0    0 -0.90004400547E-02 -0.21178608823E-01  0.50731046474E-02  0.23564332870E-01  0.00000000000E+00 0.  1.
     999901    1    3    3    0    0  0.97057896243E-01 -0.63923912430E-01  0.39585171147E-01  0.88852320599E+00  0.88000000000E+00 0. -1.
        -11    1    4    4    0    0 -0.48216365881E-01  0.37003219743E-01 -0.29544102252E-01  0.67580850165E-01  0.51100000000E-03 0. -1.
         11    1    4    4    0    0 -0.39841090308E-01  0.48099301509E-01 -0.15114173542E-01  0.64261610978E-01  0.51100000000E-03 0.  1.
</event>
<event>
 8    1  0.1135368E+005  0.1043930E+01  0.7957747E-01            NaN
         13   -1    0    0    0    0  0.00000000000E+00  0.00000000000E+00  0.74505805969E-08  0.10566000000E+00  0.10566000000E+00 0.  1.
     999900   -1    0    0    0    0 -0.00000000000E+00 -0.00000000000E+00 -0.74505805969E-08  0.93827000000E+00  0.93827000000E+00 0.  1.
     999902    2    1    2    0    0 -0.13343893253E-01  0.15213818080E-01 -0.11939717183E-01  0.10204336898E+01  0.10201631431E+01 0.  0.
     999903    2    3    3    0    0  0.10982199323E+00  0.57545103664E-01 -0.35630544606E-01  0.13053311744E+00  0.19926110735E-01 0.  0.
         14    1    1    2    0    0  0.13343893253E-01 -0.15213818080E-01  0.11939717183E-01  0.23496310224E-01  0.00000000000E+00 0. -1.
     999901    1    3    3    0    0 -0.12316588648E+00 -0.42331285584E-01  0.23690827422E-01  0.88990057233E+00  0.88000000000E+00 0. -1.
        -11    1    4    4    0    0  0.10698298837E+00  0.57456549087E-01 -0.31432470816E-01  0.12543873475E+00  0.51100000000E-03 0.  1.
         11    1    4    4    0    0  0.28390048605E-02  0.88554577453E-04 -0.41980737903E-02  0.50943826966E-02  0.51100000000E-03 0. -1.
</event>
<event>
 8    1  0.1135368E+005  0.1043930E+01  0.7957747E-01            NaN
         13   -1    0    0    0    0  0.00000000000E+00  0.00000000000E+00  0.74505805969E-08  0.10566000000E+00  0.10566000000E+00 0. -1.
     999900   -1    0    0    0    0 -0.00000000000E+00 -0.00000000000E+00 -0.74505805969E-08  0.93827000000E+00  0.93827000000E+00 0. -1.
     999902    2    1    2    0    0 -0.29439414530E-02  0.22095709573E-01 -0.42014957480E-02  0.10212465316E+01  0.10209945830E+01 0.  0.
     999903    2    3    3    0    0  0.24349766387E-01 -0.11327259987E+00 -0.53511966984E-01  0.12911366689E+00  0.19575887310E-01 0.  0.
         14    1    1    2    0    0  0.29439414530E-02 -0.22095709573E-01  0.42014957480E-02  0.22683468415E-01  0.00000000000E+00 0. -1.
     999901    1    3    3    0    0 -0.27293707840E-01  0.13536830944E+00  0.49310471236E-01  0.89213286469E+00  0.88000000000E+00 0.  1.
        -11    1    4    4    0    0  0.72187041650E-02 -0.66317634175E-01 -0.23066842476E-01  0.70586674629E-01  0.51100000000E-03 0.  1.
         11    1    4    4    0    0  0.17131062222E-01 -0.46954965694E-01 -0.30445124508E-01  0.58526992264E-01  0.51100000000E-03 0. -1.
</event>
<event>
 8    1  0.1135368E+005  0.1043930E+01  0.7957747E-01            NaN
         13   -1    0    0    0    0  0.00000000000E+00  0.00000000000E+00  0.74505805969E-08  0.10566000000E+00  0.10566000000E+00 0.  1.
     999900   -1    0    0    0    0 -0.00000000000E+00 -0.00000000000E+00 -0.74505805969E-08  0.93827000000E+00  0.93827000000E+00 0. -1.
     999902    2    1    2    0    0 -0.28085094635E-02  0.15250059244E-01  0.17439523755E-01  0.10205935688E+01  0.10203267338E+01 0.  0.
     999903    2    3    3    0    0 -0.25674903633E-01  0.87793566603E-01 -0.91129482918E-01  0.13066511007E+00  0.20046878061E-01 0.  0.
         14    1    1    2    0    0  0.28085094635E-02 -0.15250059244E-01 -0.17439523755E-01  0.23336431200E-01  0.00000000000E+00 0. -1.
     999901    1    3    3    0    0  0.22866394170E-01 -0.72543507359E-01  0.10856900667E+00  0.88992845873E+00  0.88000000000E+00 0.  1.
        -11    1    4    4    0    0 -0.64668862331E-02  0.38222914300E-01 -0.26414973684E-01  0.46912937989E-01  0.51100000000E-03 0.  1.
         11    1    4    4    0    0 -0.19208017400E-01  0.49570652304E-01 -0.64714509235E-01  0.83752172084E-01  0.51100000000E-03 0. -1.
</event>
<event>
 8    1  0.1135368E+005  0.1043930E+01  0.7957747E-01            NaN
         13   -1    0    0    0    0  0.00000000000E+00  0.00000000000E+00  0.74505805969E-08  0.10566000000E+00  0.10566000000E+00 0.  1.
     999900   -1    0    0    0    0 -0.00000000000E+00 -0.00000000000E+00 -0.74505805969E-08  0.93827000000E+00  0.93827000000E+00 0. -1.
     999902    2    1    2    0    0 -0.17848338100E-01 -0.77254474844E-02  0.16715504531E-02  0.10244097594E+01  0.10242237624E+01 0.  0.
     999903    2    3    3    0    0  0.34983248597E-01  0.57475760020E-01  0.11342252378E+00  0.13338189562E+00  0.19969238982E-01 0.  0.
         14    1    1    2    0    0  0.17848338100E-01  0.77254474844E-02 -0.16715504531E-02  0.19520240590E-01  0.00000000000E+00 0. -1.
     999901    1    3    3    0    0 -0.52831586698E-01 -0.65201207504E-01 -0.11175097333E+00  0.89102786379E+00  0.88000000000E+00 0. -1.
        -11    1    4    4    0    0  0.56039733504E-02  0.27792946495E-01  0.48639163620E-01  0.56301702912E-01  0.51100000000E-03 0.  1.
         11    1    4    4    0    0  0.29379275247E-01  0.29682813525E-01  0.64783360161E-01  0.77080192706E-01  0.51100000000E-03 0. -1.
</event>
<event>
 8    1  0.1135368E+005  0.1043930E+01  0.7957747E-01            NaN
         13   -1    0    0    0    0  0.00000000000E+00  0.00000000000E+00  0.74505805969E-08  0.10566000000E+00  0.10566000000E+00 0. -1.
     999900   -1    0    0    0    0 -0.00000000000E+00 -0.00000000000E+00 -0.74505805969E-08  0.93827000000E+00  0.93827000000E+00 0. -1.
     999902    2    1    2    0    0  0.38492729401E-02  0.23096497289E-01  0.21819932329E-02  0.10204134913E+01  0.10201424738E+01 0.  0.
     999903    2    3    3    0    0 -0.74931133565E-02 -0.12416285945E+00  0.22823782593E-01  0.12786654496E+00  0.18877654843E-01 0.  0.
         14    1    1    2    0    0 -0.38492729401E-02 -0.23096497289E-01 -0.21819932329E-02  0.23516508748E-01  0.00000000000E+00 0.  1.
     999901    1    3    3    0    0  0.11342386297E-01  0.14725935674E+00 -0.20641789360E-01  0.89254694630E+00  0.88000000000E+00 0.  1.
        -11    1    4    4    0    0 -0.60054936595E-02 -0.57760854482E-01  0.19872240409E-01  0.61380365953E-01  0.51100000000E-03 0. -1.
         11    1    4    4    0    0 -0.14876196970E-02 -0.66402004969E-01  0.29515421845E-02  0.66486179004E-01  0.51100000000E-03 0.  1.
</event>
<event>
 8    1  0.1135368E+005  0.1043930E+01  0.7957747E-01            NaN
         13   -1    0    0    0    0  0.00000000000E+00  0.00000000000E+00  0.74505805969E-08  0.10566000000E+00  0.10566000000E+00 0. -1.
     999900   -1    0    0    0    0 -0.00000000000E+00 -0.00000000000E+00 -0.74505805969E-08  0.93827000000E+00  0.93827000000E+00 0.  1.
     999902    2    1    2    0    0  0.12190889582E-01  0.16553629345E-01  0.12658052159E-01  0.10197873672E+01  0.10195015486E+01 0.  0.
     999903    2    3    3    0    0  0.12166455906E+00  0.43116527265E-01  0.21966060135E-01  0.13255757124E+00  0.20680958386E-01 0.  0.
         14    1    1    2    0    0 -0.12190889582E-01 -0.16553629345E-01 -0.12658052159E-01  0.24142632784E-01  0.00000000000E+00 0.  1.
     999901    1    3    3    0    0 -0.10947366948E+00 -0.26562897920E-01 -0.93080079756E-02  0.88722979598E+00  0.88000000000E+00 0.  1.
        -11    1    4    4    0    0  0.94790455568E-01  0.41221236440E-01  0.13115020824E-01  0.10419542069E+00  0.51100000000E-03 0. -1.
         11    1    4    4    0    0  0.26874103494E-01  0.18952908254E-02  0.88510393105E-02  0.28362150550E-01  0.51100000000E-03 0.  1.
</event>
<event>
 8    1  0.1135368E+005  0.1043930E+01  0.7957747E-01            NaN
         13   -1    0    0    0    0  0.00000000000E+00  0.00000000000E+00  0.74505805969E-08  0.10566000000E+00  0.10566000000E+00 0.  1.
     999900   -1    0    0    0    0 -0.00000000000E+00 -0.00000000000E+00 -0.74505805969E-08  0.93827000000E+00  0.93827000000E+00 0.  1.
     999902    2    1    2    0    0  0.96443789334E-02  0.12463538560E-01 -0.18652737339E-01  0.10195111866E+01  0.10192187111E+01 0.  0.
     999903    2    3    3    0    0 -0.11589685246E+00  0.45516397788E-01 -0.31414349938E-01  0.12989556676E+00  0.19549271166E-01 0.  0.
         14    1    1    2    0    0 -0.96443789334E-02 -0.12463538560E-01  0.18652737339E-01  0.24418813417E-01  0.00000000000E+00 0.  1.
     999901    1    3    3    0    0  0.12554123139E+00 -0.33052859228E-01  0.12761612599E-01  0.88961561983E+00  0.88000000000E+00 0.  1.
        -11    1    4    4    0    0 -0.57523438524E-01  0.12133619105E-01 -0.14967442193E-01  0.60666763050E-01  0.51100000000E-03 0.  1.
         11    1    4    4    0    0 -0.58373413938E-01  0.33382778683E-01 -0.16446907744E-01  0.69228803707E-01  0.51100000000E-03 0. -1.
</event>
<event>
 8    1  0.1135368E+005  0.1043930E+01  0.7957747E-01            NaN
         13   -1    0    0    0    0  0.00000000000E+00  0.00000000000E+00  0.74505805969E-08  0.10566000000E+00  0.10566000000E+00 0. -1.
     999900   -1    0    0    0    0 -0.00000000000E+00 -0.00000000000E+00 -0.74505805969E-08  0.93827000000E+00  0.93827000000E+00 0. -1.
     999902    2    1    2    0    0  0.82207398400E-02  0.90301319398E-02  0.19497933370E-01  0.10209236258E+01  0.10206643702E+01 0.  0.
     999903    2    3    3    0    0 -0.66031463122E-01 -0.10862836127E+00  0.18870399793E-01  0.12999304242E+00  0.19540319714E-01 0.  0.
         14    1    1    2    0    0 -0.82207398400E-02 -0.90301319398E-02 -0.19497933370E-01  0.23006374162E-01  0.00000000000E+00 0.  1.
     999901    1    3    3    0    0  0.74252202962E-01  0.11765849321E+00  0.62753357766E-03  0.89093058342E+00  0.88000000000E+00 0. -1.
        -11    1    4    4    0    0 -0.16050469329E-01 -0.13334247945E-01  0.87401133239E-03  0.20891260152E-01  0.51100000000E-03 0.  1.
         11    1    4    4    0    0 -0.49980993793E-01 -0.95294113328E-01  0.17996388460E-01  0.10910178227E+00  0.51100000000E-03 0. -1.
</event>
<event>
 7    1  0.1387422E+005  0.1043930E+01  0.7957747E-01            NaN
         13   -1    0    0    0    0  0.00000000000E+00  0.00000000000E+00  0.74505805969E-08  0.10566000000E+00  0.10566000000E+00 0. -1.
     999900   -1    0    0    0    0 -0.00000000000E+00 -0.00000000000E+00 -0.74505805969E-08  0.93827000000E+00  0.93827000000E+00 0.  1.
     999903    2    1    2    0    0  0.44266832124E-01  0.15960192857E-01 -0.96120261921E-01  0.10879458488E+00  0.19567237058E-01 0.  0.
         14    1    1    2    0    0 -0.14371595902E-01 -0.43083968326E-01 -0.13583556534E-01  0.47405528197E-01  0.00000000000E+00 0.  1.
     999901    1    1    2    0    0 -0.29895236222E-01  0.27123775469E-01  0.10970381846E+00  0.88772988692E+00  0.88000000000E+00 0. -1.
        -11    1    3    3    0    0  0.32842526178E-01  0.33570085973E-02 -0.53070300443E-01  0.62502951471E-01  0.51100000000E-03 0. -1.
         11    1    3    3    0    0  0.11424305946E-01  0.12603184260E-01 -0.43049961478E-01  0.46291633413E-01  0.51100000000E-03 0.  1.
</event>
<event>
 8    1  0.1135368E+005  0.1043930E+01  0.7957747E-01            NaN
         13   -1    0    0    0    0  0.00000000000E+00  0.00000000000E+00  0.74505805969E-08  0.10566000000E+00  0.10566000000E+00 0.  1.
     999900   -1    0    0    0    0 -0.00000000000E+00 -0.00000000000E+00 -0.74505805969E-08  0.93827000000E+00  0.93827000000E+00 0.  1.
     999902    2    1    2    0    0 -0.13999896964E-01  0.15630281192E-03 -0.18129192754E-01  0.10210239053E+01  0.10207669303E+01 0.  0.
     999903    2    3    3    0    0  0.45134816005E-01  0.60683872929E-01 -0.10702305860E+00  0.13250681461E+00  0.19607059874E-01 0.  0.
         14    1    1    2    0    0  0.13999896964E-01 -0.15630281192E-03  0.18129192754E-01  0.22906094723E-01  0.00000000000E+00 0.  1.
     999901    1    3    3    0    0 -0.59134712969E-01 -0.60527570117E-01  0.88893865844E-01  0.88851709067E+00  0.88000000000E+00 0. -1.
        -11    1    4    4    0    0  0.12977807977E-01  0.23763176362E-01 -0.53515188385E-01  0.59977066947E-01  0.51100000000E-03 0. -1.
         11    1    4    4    0    0  0.32157008028E-01  0.36920696567E-01 -0.53507870214E-01  0.72529747663E-01  0.51100000000E-03 0.  1.
</event>
<event>
 8    1  0.1135368E+005  0.1043930E+01  0.7957747E-01            NaN
         13   -1    0    0    0    0  0.00000000000E+00  0.00000000000E+00  0.74505805969E-08  0.10566000000E+00  0.10566000000E+00 0.  1.
     999900   -1    0    0    0    0 -0.00000000000E+00 -0.00000000000E+00 -0.74505805969E-08  0.93827000000E+00  0.93827000000E+00 0.  1.
     999902    2    1    2    0    0  0.21998775494E-01 -0.93853892391E-02  0.62317751426E-03  0.10200046995E+01  0.10197240641E+01 0.  0.
     999903    2    3    3    0    0  0.78655254990E-01  0.36761400819E-01 -0.96382469329E-01  0.13166378609E+00  0.22532697247E-01 0.  0.
         14    1    1    2    0    0 -0.21998775494E-01  0.93853892391E-02 -0.62317751426E-03  0.23925300512E-01  0.00000000000E+00 0. -1.
     999901    1    3    3    0    0 -0.56656479496E-01 -0.46146790058E-01  0.97005646843E-01  0.88834091340E+00  0.88000000000E+00 0. -1.
        -11    1    4    4    0    0  0.20432051917E-01  0.51846505526E-02 -0.11570721661E-01  0.24051862041E-01  0.51100000000E-03 0. -1.
         11    1    4    4    0    0  0.58223203073E-01  0.31576750266E-01 -0.84811747668E-01  0.10761192405E+00  0.51100000000E-03 0.  1.
</event>
<event>
 7    1  0.1135368E+005  0.1043930E+01  0.7957747E-01            NaN
         13   -1    0    0    0    0  0.00000000000E+00  0.00000000000E+00  0.74505805969E-08  0.10566000000E+00  0.10566000000E+00 0.  1.
     999900   -1    0    0    0    0 -0.00000000000E+00 -0.00000000000E+00 -0.74505805969E-08  0.93827000000E+00  0.93827000000E+00 0.  1.
     999902    2    1    2    0    0 -0.20240182170E-01  0.85018374442E-02 -0.84587074139E-02  0.10204035055E+01  0.10201322552E+01 0.  0.
         14    1    1    2    0    0  0.20240182170E-01 -0.85018374442E-02  0.84587074139E-02  0.23526494540E-01  0.00000000000E+00 0. -1.
     999901    1    3    3    0    0  0.88203313226E-01 -0.11993790009E-01 -0.70812314486E-01  0.88732071955E+00  0.88000000000E+00 0.  1.
        -11    1    3    3    0    0 -0.32397682659E-01 -0.96721490392E-02  0.29660621418E-01  0.44979705342E-01  0.51100000000E-03 0.  1.
         11    1    3    3    0    0 -0.76045812737E-01  0.30167776492E-01  0.32692985653E-01  0.88103080566E-01  0.51100000000E-03 0. -1.
</event>
<event>
 8    1  0.1135368E+005  0.1043930E+01  0.7957747E-01            NaN
         13   -1    0    0    0    0  0.00000000000E+00  0.00000000000E+00  0.74505805969E-08  0.10566000000E+00  0.10566000000E+00 0. -1.
     999900   -1    0    0    0    0 -0.00000000000E+00 -0.00000000000E+00 -0.74505805969E-08  0.93827000000E+00  0.93827000000E+00 0. -1.
     999902    2    1    2    0    0  0.74894320362E-02  0.22024305909E-01 -0.24189949550E-02  0.10205416871E+01  0.10202736505E+01 0.  0.
     999903    2    3    3    0    0  0.57671110696E-02  0.41556951229E-01 -0.12353706634E+00  0.13202940367E+00  0.20251343319E-01 0.  0.
         14    1    1    2    0    0 -0.74894320362E-02 -0.22024305909E-01  0.24189949550E-02  0.23388312884E-01  0.00000000000E+00 0. -1.
     999901    1    3    3    0    0  0.17223209666E-02 -0.19532645321E-01  0.12111807139E+00  0.88851228345E+00  0.88000000000E+00 0.  1.
        -11    1    4    4    0    0  0.43633160625E-02  0.30856872689E-01 -0.60328393975E-01  0.67904059965E-01  0.51100000000E-03 0. -1.
         11    1    4    4    0    0  0.14037950071E-02  0.10700078541E-01 -0.63208672369E-01  0.64125343701E-01  0.51100000000E-03 0.  1.
</event>
<event>
 8    1  0.1135368E+005  0.1043930E+01  0.7957747E-01            NaN
         13   -1    0    0    0    0  0.00000000000E+00  0.00000000000E+00  0.74505805969E-08  0.10566000000E+00  0.10566000000E+00 0.  1.
     999900   -1    0    0    0    0 -0.00000000000E+00 -0.00000000000E+00 -0.74505805969E-08  0.93827000000E+00  0.93827000000E+00 0. -1.
     999902    2    1    2    0    0 -0.23304201731E-01  0.23060822648E-02  0.24600260027E-02  0.10203831199E+01  0.10201113938E+01 0.  0.
     999903    2    3    3    0    0 -0.10076917048E+00  0.51328124530E-02 -0.83805562858E-01  0.13277365421E+00  0.20608236344E-01 0.  0.
         14    1    1    2    0    0  0.23304201731E-01 -0.23060822648E-02 -0.24600260027E-02  0.23546880083E-01  0.00000000000E+00 0. -1.
     999901    1    3    3    0    0  0.77464968745E-01 -0.28267301882E-02  0.86265588860E-01  0.88760946570E+00  0.88000000000E+00 0.  1.
        -11    1    4    4    0    0 -0.80571390731E-01 -0.38373842775E-02 -0.62173973938E-01  0.10184467919E+00  0.51100000000E-03 0.  1.
         11    1    4    4    0    0 -0.20197779744E-01  0.89701967305E-02 -0.21631588919E-01  0.30928975026E-01  0.51100000000E-03 0. -1.
</event>
<event>
 8    1  0.1135368E+005  0.1043930E+01  0.7957747E-01            NaN
         13   -1    0    0    0    0  0.00000000000E+00  0.00000000000E+00  0.74505805969E-08  0.10566000000E+00  0.10566000000E+00 0. -1.
     999900   -1    0    0    0    0 -0.00000000000E+00 -0.00000000000E+00 -0.74505805969E-08  0.93827000000E+00  0.93827000000E+00 0.  1.
     999902    2    1    2    0    0 -0.54003380589E-02 -0.18892682523E-01 -0.16546644938E-01  0.10182417038E+01  0.10179176188E+01 0.  0.
     999903    2    3    3    0    0  0.97100887771E-01  0.26928469544E-01 -0.78082543843E-01  0.12897641933E+00  0.19603780557E-01 0.  0.
         14    1    1    2    0    0  0.54003380589E-02  0.18892682523E-01  0.16546644938E-01  0.25688296221E-01  0.00000000000E+00 0.  1.
     999901    1    3    3    0    0 -0.10250122583E+00 -0.45821152067E-01  0.61535898905E-01  0.88926528445E+00  0.88000000000E+00 0. -1.
        -11    1    4    4    0    0  0.26244662297E-01  0.50208181390E-04 -0.26517902697E-01  0.37312800811E-01  0.51100000000E-03 0.  1.
         11    1    4    4    0    0  0.70856225474E-01  0.26878261363E-01 -0.51564641146E-01  0.91663618518E-01  0.51100000000E-03 0. -1.
</event>
<event>
 8    1  0.1135368E+005  0.1043930E+01  0.7957747E-01            NaN
         13   -1    0    0    0    0  0.00000000000E+00  0.00000000000E+00  0.74505805969E-08  0.10566000000E+00  0.10566000000E+00 0.  1.
     999900   -1    0    0    0    0 -0.00000000000E+00 -0.00000000000E+00 -0.74505805969E-08  0.93827000000E+00  0.93827000000E+00 0.  1.
     999902    2    1    2    0    0 -0.43958583062E-02 -0.14940462589E-01  0.82693354023E-02  0.10262969940E+01  0.10261455048E+01 0.  0.
     999903    2    3    3    0    0 -0.92333828926E-01 -0.43355361394E-01  0.90195306691E-01  0.13767313774E+00  0.20334113677E-01 0.  0.
         14    1    1    2    0    0  0.43958583062E-02  0.14940462589E-01 -0.82693354023E-02  0.17633006000E-01  0.00000000000E+00 0. -1.
     999901    1    3    3    0    0  0.87937970619E-01  0.28414898805E-01 -0.81925971289E-01  0.88862385626E+00  0.88000000000E+00 0.  1.
        -11    1    4    4    0    0 -0.23179234952E-01 -0.88438887035E-02  0.34098367249E-01  0.42171685648E-01  0.51100000000E-03 0. -1.
         11    1    4    4    0    0 -0.69154593974E-01 -0.34511472690E-01  0.56096939442E-01  0.95501452087E-01  0.51100000000E-03 0.  1.
</event>
<event>
 8    1  0.1135368E+005  0.1043930E+01  0.7957747E-01            NaN
         13   -1    0    0    0    0  0.00000000000E+00  0.00000000000E+00  0.74505805969E-08  0.10566000000E+00  0.10566000000E+00 0.  1.
     999900   -1    0    0    0    0 -0.00000000000E+00 -0.00000000000E+00 -0.74505805969E-08  0.93827000000E+00  0.93827000000E+00 0. -1.
     999902    2    1    2    0    0 -0.22715974453E-01 -0.53485256262E-02 -0.58602156201E-02  0.10198683220E+01  0.10195844398E+01 0.  0.
     999903    2    3    3    0    0  0.10299396042E+00 -0.38695420038E-01  0.61670628033E-01  0.12774982205E+00  0.20289387792E-01 0.  0.
         14    1    1    2    0    0  0.22715974453E-01  0.53485256262E-02  0.58602156201E-02  0.24061678014E-01  0.00000000000E+00 0.  1.
     999901    1    3    3    0    0 -0.12570993487E+00  0.33346894412E-01 -0.67530843653E-01  0.89211849994E+00  0.88000000000E+00 0. -1.
        -11    1    4    4    0    0  0.55674447345E-01 -0.18485900546E-01  0.21542184418E-01  0.62495595338E-01  0.51100000000E-03 0. -1.
         11    1    4    4    0    0  0.47319513070E-01 -0.20209519492E-01  0.40128443615E-01  0.65254226708E-01  0.51100000000E-03 0.  1.
</event>
<event>
 8    1  0.1135368E+005  0.1043930E+01  0.7957747E-01            NaN
         13   -1    0    0    0    0  0.00000000000E+00  0.00000000000E+00  0.74505805969E-08  0.10566000000E+00  0.10566000000E+00 0. -1.
     999900   -1    0    0    0    0 -0.00000000000E+00 -0.00000000000E+00 -0.74505805969E-08  0.93827000000E+00  0.93827000000E+00 0. -1.
     999902    2    1    2    0    0  0.79405187146E-03  0.23492045367E-01 -0.40660829332E-02  0.10200754460E+01  0.10197964875E+01 0.  0.
     999903    2    3    3    0    0 -0.74500878646E-01 -0.90596354561E-01  0.47580355942E-01  0.12802564687E+00  0.19198843879E-01 0.  0.
         14    1    1    2    0    0 -0.79405187146E-03 -0.23492045367E-01  0.40660829332E-02  0.23854553954E-01  0.00000000000E+00 0. -1.
     999901    1    3    3    0    0  0.75294930518E-01  0.11408839993E+00 -0.51646438875E-01  0.89204979918E+00  0.88000000000E+00 0.  1.
        -11    1    4    4    0    0 -0.29006355455E-01 -0.49723982159E-01  0.20111564770E-01  0.60980154288E-01  0.51100000000E-03 0. -1.
         11    1    4    4    0    0 -0.45494523191E-01 -0.40872372402E-01  0.27468791172E-01  0.67045492583E-01  0.51100000000E-03 0.  1.
</event>
<event>
 8    1  0.1135368E+005  0.1043930E+01  0.7957747E-01            NaN
         13   -1    0    0    0    0  0.00000000000E+00  0.00000000000E+00  0.74505805969E-08  0.10566000000E+00  0.10566000000E+00 0.  1.
     999900   -1    0    0    0    0 -0.00000000000E+00 -0.00000000000E+00 -0.74505805969E-08  0.93827000000E+00  0.93827000000E+00 0. -1.
     999902    2    1    2    0    0 -0.23201630455E-01  0.95010595396E-02  0.33548855794E-02  0.10186349205E+01  0.10183208042E+01 0.  0.
     999903    2    3    3    0    0 -0.11766222482E+00  0.57569031916E-01  0.34521085848E-03  0.13227021455E+00  0.18349329720E-01 0.  0.
         14    1    1    2    0    0  0.23201630455E-01 -0.95010595396E-02 -0.33548855794E-02  0.25295079470E-01  0.00000000000E+00 0.  1.
     999901    1    3    3    0    0  0.94460594369E-01 -0.48067972376E-01  0.30096747209E-02  0.88636470598E+00  0.88000000000E+00 0. -1.
        -11    1    4    4    0    0 -0.11535401626E+00  0.52710839715E-01 -0.30815251534E-03  0.12682798496E+00  0.51100000000E-03 0. -1.
         11    1    4    4    0    0 -0.23082085675E-02  0.48581922009E-02  0.65336337382E-03  0.54422295936E-02  0.51100000000E-03 0.  1.
</event>
<event>
 8    1  0.1135368E+005  0.1043930E+01  0.7957747E-01            NaN
         13   -1    0    0    0    0  0.00000000000E+00  0.00000000000E+00  0.74505805969E-08  0.10566000000E+00  0.10566000000E+00 0. -1.
     999900   -1    0    0    0    0 -0.00000000000E+00 -0.00000000000E+00 -0.74505805969E-08  0.93827000000E+00  0.93827000000E+00 0. -1.
     999902    2    1    2    0    0 -0.23688507957E-02 -0.21860463779E-01 -0.86899246082E-02  0.10202866897E+01  0.10200127073E+01 0.  0.
     999903    2    3    3    0    0  0.19209896428E-02 -0.11738188100E+00 -0.60551733564E-01  0.13358922661E+00  0.19934212781E-01 0.  0.
         14    1    1    2    0    0  0.23688507957E-02  0.21860463779E-01  0.86899246082E-02  0.23643310268E-01  0.00000000000E+00 0. -1.
     999901    1    3    3    0    0 -0.42898404385E-02  0.95521417225E-01  0.51861808956E-01  0.88669746312E+00  0.88000000000E+00 0.  1.
        -11    1    4    4    0    0 -0.54380395066E-02 -0.86511445501E-01 -0.37963075650E-01  0.94632228707E-01  0.51100000000E-03 0. -1.
         11    1    4    4    0    0  0.73590291494E-02 -0.30870435504E-01 -0.22588657914E-01  0.38956997902E-01  0.51100000000E-03 0.  1.
</event>
<event>
 8    1  0.1135368E+005  0.1043930E+01  0.7957747E-01            NaN
         13   -1    0    0    0    0  0.00000000000E+00  0.00000000000E+00  0.74505805969E-08  0.10566000000E+00  0.10566000000E+00 0. -1.
     999900   -1    0    0    0    0 -0.00000000000E+00 -0.00000000000E+00 -0.74505805969E-08  0.93827000000E+00  0.93827000000E+00 0.  1.
     999902    2    1    2    0    0 -0.21341408845E-02  0.22404491612E-01  0.11123115996E-02  0.10213966239E+01  0.10211480354E+01 0.  0.
     999903    2    3    3    0    0 -0.38267807559E-01  0.12319602066E+00 -0.31547672510E-01  0.13430516933E+00  0.20023442941E-01 0.  0.
         14    1    1    2    0    0  0.21341408845E-02 -0.22404491612E-01 -0.11123115996E-02  0.22533376107E-01  0.00000000000E+00 0.  1.
     999901    1    3    3    0    0  0.36133666674E-01 -0.10079152905E+00  0.32659984110E-01  0.88709145456E+00  0.88000000000E+00 0. -1.
        -11    1    4    4    0    0 -0.22579842391E-03  0.18511551156E-01 -0.92904917828E-02  0.20719625231E-01  0.51100000000E-03 0. -1.
         11    1    4    4    0    0 -0.38042009135E-01  0.10468446950E+00 -0.22257180728E-01  0.11358554410E+00  0.51100000000E-03 0.  1.
</event>
<event>
 8    1  0.1135368E+005  0.1043930E+01  0.7957747E-01            NaN
         13   -1    0    0    0    0  0.00000000000E+00  0.00000000000E+00  0.74505805969E-08  0.10566000000E+00  0.10566000000E+00 0.  1.
     999900   -1    0    0    0    0 -0.00000000000E+00 -0.00000000000E+00 -0.74505805969E-08  0.93827000000E+00  0.93827000000E+00 0. -1.
     999902    2    1    2    0    0  0.11988046994E-01 -0.16664410683E-02  0.21295160602E-01  0.10194356300E+01  0.10191413197E+01 0.  0.
     999903    2    3    3    0    0 -0.55798467017E-01  0.97654122765E-01  0.62728290813E-01  0.13029205883E+00  0.19783465591E-01 0.  0.
         14    1    1    2    0    0 -0.11988046994E-01  0.16664410683E-02 -0.21295160602E-01  0.24494369999E-01  0.00000000000E+00 0. -1.
     999901    1    3    3    0    0  0.67786514010E-01 -0.99320563833E-01 -0.41433130210E-01  0.88914357117E+00  0.88000000000E+00 0. -1.
        -11    1    4    4    0    0 -0.30064417351E-01  0.38290263026E-01  0.19332673972E-01  0.52383459576E-01  0.51100000000E-03 0.  1.
         11    1    4    4    0    0 -0.25734049665E-01  0.59363859739E-01  0.43395616841E-01  0.77908599251E-01  0.51100000000E-03 0. -1.
</event>
<event>
 8    1  0.1135368E+005  0.1043930E+01  0.7957747E-01            NaN
         13   -1    0    0    0    0  0.00000000000E+00  0.00000000000E+00  0.74505805969E-08  0.10566000000E+00  0.10566000000E+00 0. -1.
     999900   -1    0    0    0    0 -0.00000000000E+00 -0.00000000000E+00 -0.74505805969E-08  0.93827000000E+00  0.93827000000E+00 0. -1.
     999902    2    1    2    0    0  0.15537653844E-01  0.15082331607E-01 -0.94686391997E-02  0.10202963261E+01  0.10200225696E+01 0.  0.
     999903    2    3    3    0    0  0.83097528742E-01 -0.86652901854E-01 -0.48486206314E-01  0.13100629188E+00  0.19945215625E-01 0.  0.
         14    1    1    2    0    0 -0.15537653844E-01 -0.15082331607E-01  0.94686391997E-02  0.23633673899E-01  0.00000000000E+00 0. -1.
     999901    1    3    3    0    0 -0.67559874898E-01  0.10173523346E+00  0.39017567115E-01  0.88929003422E+00  0.88000000000E+00 0. -1.
        -11    1    4    4    0    0  0.64865201810E-01 -0.56551541513E-01 -0.29223463078E-01  0.90883679330E-01  0.51100000000E-03 0. -1.
         11    1    4    4    0    0  0.18232326933E-01 -0.30101360341E-01 -0.19262743237E-01  0.40122612549E-01  0.51100000000E-03 0.  1.
</event>
<event>
 8    1  0.1135368E+005  0.1043930E+01  0.7957747E-01            NaN
         13   -1    0    0    0    0  0.00000000000E+00  0.00000000000E+00  0.74505805969E-08  0.10566000000E+00  0.10566000000E+00 0. -1.
     999900   -1    0    0    0    0 -0.00000000000E+00 -0.00000000000E+00 -0.74505805969E-08  0.93827000000E+00  0.93827000000E+00 0. -1.
     999902    2    1    2    0    0 -0.13707978186E-01 -0.18666096342E-01 -0.67241467803E-02  0.10198147358E+01  0.10195295726E+01 0.  0.
     999903    2    3    3    0    0  0.91645363125E-03 -0.70507785835E-01  0.10801364216E+00  0.13073307756E+00  0.21260360372E-01 0.  0.
         14    1    1    2    0    0  0.13707978186E-01  0.18666096342E-01  0.67241467803E-02  0.24115264222E-01  0.00000000000E+00 0. -1.
     999901    1    3    3    0    0 -0.14624431817E-01  0.51841689494E-01 -0.11473778894E+00  0.88908165822E+00  0.88000000000E+00 0. -1.
        -11    1    4    4    0    0  0.99876911360E-02 -0.21170211173E-01  0.37031066096E-01  0.43812016531E-01  0.51100000000E-03 0.  1.
         11    1    4    4    0    0 -0.90712375048E-02 -0.49337574663E-01  0.70982576068E-01  0.86921061025E-01  0.51100000000E-03 0. -1.
</event>
<event>
 8    1  0.1135368E+005  0.1043930E+01  0.7957747E-01            NaN
         13   -1    0    0    0    0  0.00000000000E+00  0.00000000000E+00  0.74505805969E-08  0.10566000000E+00  0.10566000000E+00 0.  1.
     999900   -1    0    0    0    0 -0.00000000000E+00 -0.00000000000E+00 -0.74505805969E-08  0.93827000000E+00  0.93827000000E+00 0. -1.
     999902    2    1    2    0    0  0.22955816602E-01  0.94153487236E-02  0.44585782258E-02  0.10187209297E+01  0.10184089725E+01 0.  0.
     999903    2    3    3    0    0 -0.12772216988E-01  0.11477837124E+00  0.56667324969E-01  0.13018077180E+00  0.19966061115E-01 0.  0.
         14    1    1    2    0    0 -0.22955816602E-01 -0.94153487236E-02 -0.44585782258E-02  0.25209070337E-01  0.00000000000E+00 0.  1.
     999901    1    3    3    0    0  0.35728033590E-01 -0.10536302251E+00 -0.52208746743E-01  0.88854015786E+00  0.88000000000E+00 0.  1.
        -11    1    4    4    0    0 -0.54210159107E-03  0.53842483288E-01  0.35610488553E-01  0.64557531681E-01  0.51100000000E-03 0.  1.
         11    1    4    4    0    0 -0.12230115397E-01  0.60935887950E-01  0.21056836416E-01  0.65623240119E-01  0.51100000000E-03 0. -1.
</event>
<event>
 8    1  0.1135368E+005  0.1043930E+01  0.7957747E-01            NaN
         13   -1    0    0    0    0  0.00000000000E+00  0.00000000000E+00  0.74505805969E-08  0.10566000000E+00  0.10566000000E+00 0.  1.
     999900   -1    0    0    0    0 -0.00000000000E+00 -0.00000000000E+00 -0.74505805969E-08  0.93827000000E+00  0.93827000000E+00 0.  1.
     999902    2    1    2    0    0 -0.72513386059E-02 -0.19557608010E-01  0.10570253422E-01  0.10205459841E+01  0.10202780471E+01 0.  0.
     999903    2    3    3    0    0 -0.71156157710E-02  0.12027177388E+00 -0.38257296588E-01  0.12816915556E+00  0.21160815563E-01 0.  0.
         14    1    1    2    0    0  0.72513386059E-02  0.19557608010E-01 -0.10570253422E-01  0.23384015909E-01  0.00000000000E+00 0. -1.
     999901    1    3    3    0    0 -0.13572283497E-03 -0.13982938189E+00  0.48827550010E-01  0.89237682853E+00  0.88000000000E+00 0. -1.
        -11    1    4    4    0    0 -0.55819616874E-02  0.49562900601E-01 -0.26466581651E-01  0.56465746055E-01  0.51100000000E-03 0. -1.
         11    1    4    4    0    0 -0.15336540836E-02  0.70708873276E-01 -0.11790714937E-01  0.71703409504E-01  0.51100000000E-03 0.  1.
</event>
<event>
 8    1  0.1135368E+005  0.1043930E+01  0.7957747E-01            NaN
         13   -1    0    0    0    0  0.00000000000E+00  0.00000000000E+00  0.74505805969E-08  0.10566000000E+00  0.10566000000E+00 0.  1.
     999900   -1    0    0    0    0 -0.00000000000E+00 -0.00000000000E+00 -0.74505805969E-08  0.93827000000E+00  0.93827000000E+00 0. -1.
     999902    2    1    2    0    0  0.16676018254E-01 -0.16640830664E-01  0.21786425347E-02  0.10202708936E+01  0.10199965407E+01 0.  0.
     999903    2    3    3    0    0  0.14549392621E-01  0.43132873964E-01 -0.11979748193E+00  0.12984650425E+00  0.20893739399E-01 0.  0.
         14    1    1    2    0    0 -0.16676018254E-01  0.16640830664E-01 -0.21786425347E-02  0.23659106350E-01  0.00000000000E+00 0. -1.
     999901    1    3    3    0    0  0.21266256327E-02 -0.59773704628E-01  0.12197612447E+00  0.89042438940E+00  0.88000000000E+00 0.  1.
        -11    1    4    4    0    0  0.64037919376E-02  0.15405639023E-01 -0.72665215967E-01  0.74557608581E-01  0.51100000000E-03 0. -1.
         11    1    4    4    0    0  0.81456006838E-02  0.27727234941E-01 -0.47132265965E-01  0.55288895666E-01  0.51100000000E-03 0.  1.
</event>
<event>
 7    1  0.1135368E+005  0.1043930E+01  0.7957747E-01            NaN
         13   -1    0    0    0    0  0.00000000000E+00  0.00000000000E+00  0.74505805969E-08  0.10566000000E+00  0.10566000000E+00 0.  1.
     999900   -1    0    0    0    0 -0.00000000000E+00 -0.00000000000E+00 -0.74505805969E-08  0.93827000000E+00  0.93827000000E+00 0. -1.
     999902    2    1    2    0    0 -0.16950976524E-01  0.12715099485E-01  0.12611841981E-01  0.10192709668E+01  0.10189726374E+01 0.  0.
         14    1    1    2    0    0  0.16950976524E-01 -0.12715099485E-01 -0.12611841981E-01  0.24659033196E-01  0.00000000000E+00 0. -1.
     999901    1    3    3    0    0  0.67505677966E-01  0.10498757965E+00  0.19193869485E-01  0.88901508034E+00  0.88000000000E+00 0.  1.
        -11    1    3    3    0    0 -0.59756957214E-01 -0.39372923482E-01 -0.66461441522E-02  0.71871784395E-01  0.51100000000E-03 0. -1.
         11    1    3    3    0    0 -0.24699697276E-01 -0.52899556685E-01  0.64116647518E-04  0.58384102074E-01  0.51100000000E-03 0.  1.
</event>
<event>
 8    1  0.1135368E+005  0.1043930E+01  0.7957747E-01            NaN
         13   -1    0    0    0    0  0.00000000000E+00  0.00000000000E+00  0.74505805969E-08  0.10566000000E+00  0.10566000000E+00 0.  1.
     999900   -1    0    0    0    0 -0.00000000000E+00 -0.00000000000E+00 -0.74505805969E-08  0.93827000000E+00  0.93827000000E+00 0. -1.
     999902    2    1    2    0    0 -0.62864861658E-02  0.20916334742E-01 -0.92117527303E-02  0.10202262164E+01  0.10199508142E+01 0.  0.
     999903    2    3    3    0    0  0.65395893032E-01 -0.26816604466E-01  0.10575202345E+00  0.12857972436E+00  0.18801647630E-01 0.  0.
         14    1    1    2    0    0  0.62864861658E-02 -0.20916334742E-01  0.92117527303E-02  0.23703783574E-01  0.00000000000E+00 0. -1.
     999901    1    3    3    0    0 -0.71682379198E-01  0.47732939207E-01 -0.11496377618E+00  0.89164649206E+00  0.88000000000E+00 0.  1.
        -11    1    4    4    0    0  0.54356362075E-01 -0.27079442405E-01  0.79087979268E-01  0.99714993279E-01  0.51100000000E-03 0. -1.
         11    1    4    4    0    0  0.11039530957E-01  0.26283793951E-03  0.26664044181E-01  0.28864731085E-01  0.51100000000E-03 0.  1.
</event>
<event>
 8    1  0.1135368E+005  0.1043930E+01  0.7957747E-01            NaN
         13   -1    0    0    0    0  0.00000000000E+00  0.00000000000E+00  0.74505805969E-08  0.10566000000E+00  0.10566000000E+00 0.  1.
     999900   -1    0    0    0    0 -0.00000000000E+00 -0.00000000000E+00 -0.74505805969E-08  0.93827000000E+00  0.93827000000E+00 0.  1.
     999902    2    1    2    0    0  0.20092568862E-01  0.69641600327E-02 -0.98930448622E-02  0.10204761478E+01  0.10202065893E+01 0.  0.
     999903    2    3    3    0    0  0.43130838618E-03 -0.63409166277E-01 -0.11329768267E+00  0.13141400744E+00  0.20306847584E-01 0.  0.
         14    1    1    2    0    0 -0.20092568862E-01 -0.69641600327E-02  0.98930448622E-02  0.23453852244E-01  0.00000000000E+00 0.  1.
     999901    1    3    3    0    0  0.19661260476E-01  0.70373326309E-01  0.10340463781E+00  0.88906214031E+00  0.88000000000E+00 0. -1.
        -11    1    4    4    0    0  0.93096500122E-02 -0.26700066869E-01 -0.56834594177E-01  0.63482244529E-01  0.51100000000E-03 0. -1.
         11    1    4    4    0    0 -0.88783416260E-02 -0.36709099407E-01 -0.56463088492E-01  0.67931762912E-01  0.51100000000E-03 0.  1.
</event>
<event>
 8    1  0.1310190E+005  0.1043930E+01  0.7957747E-01            NaN
         13   -1    0    0    0    0  0.00000000000E+00  0.00000000000E+00  0.74505805969E-08  0.10566000000E+00  0.10566000000E+00 0.  1.
     999900   -1    0    0    0    0 -0.00000000000E+00 -0.00000000000E+00 -0.74505805969E-08  0.93827000000E+00  0.93827000000E+00 0. -1.
     999902    2    1    2    0    0 -0.12166957880E-01  0.54912537317E-02  0.26351423184E-01  0.10143904293E+01  0.10139602344E+01 0.  0.
     999903    2    3    3    0    0 -0.12212031016E+00 -0.18575282243E-01  0.23060166180E-01  0.12721526613E+00  0.19837878061E-01 0.  0.
         14    1    1    2    0    0  0.12166957880E-01 -0.54912537317E-02 -0.26351423184E-01  0.29539570671E-01  0.00000000000E+00 0. -1.
     999901    1    3    3    0    0  0.10995335228E+00  0.24066535975E-01  0.32912570041E-02  0.88717516320E+00  0.88000000000E+00 0. -1.
        -11    1    4    4    0    0 -0.50208416484E-01 -0.12838206942E-01  0.18125669676E-01  0.54904514072E-01  0.51100000000E-03 0.  1.
         11    1    4    4    0    0 -0.71911893681E-01 -0.57370753019E-02  0.49344965041E-02  0.72310752053E-01  0.51100000000E-03 0. -1.
</event>
<event>
 8    1  0.1135368E+005  0.1043930E+01  0.7957747E-01            NaN
         13   -1    0    0    0    0  0.00000000000E+00  0.00000000000E+00  0.74505805969E-08  0.10566000000E+00  0.10566000000E+00 0.  1.
     999900   -1    0    0    0    0 -0.00000000000E+00 -0.00000000000E+00 -0.74505805969E-08  0.93827000000E+00  0.93827000000E+00 0.  1.
     999902    2    1    2    0    0  0.71985777040E-03 -0.15102201954E-01  0.17651281061E-01  0.10206886054E+01  0.10204239642E+01 0.  0.
     999903    2    3    3    0    0 -0.11841795319E+00 -0.30115475436E-01  0.45746981217E-01  0.13208937925E+00  0.20617088115E-01 0.  0.
         14    1    1    2    0    0 -0.71985777040E-03  0.15102201954E-01 -0.17651281061E-01  0.23241394583E-01  0.00000000000E+00 0. -1.
     999901    1    3    3    0    0  0.11913781096E+00  0.15013273482E-01 -0.28095700156E-01  0.88859922617E+00  0.88000000000E+00 0.  1.
        -11    1    4    4    0    0 -0.55601525576E-01 -0.21564854208E-01  0.14341882155E-01  0.61339410562E-01  0.51100000000E-03 0.  1.
         11    1    4    4    0    0 -0.62816427610E-01 -0.85506212288E-02  0.31405099061E-01  0.70749968686E-01  0.51100000000E-03 0. -1.
</event>
<event>
 8    1  0.1135368E+005  0.1043930E+01  0.7957747E-01            NaN
         13   -1    0    0    0    0  0.00000000000E+00  0.00000000000E+00  0.74505805969E-08  0.10566000000E+00  0.10566000000E+00 0. -1.
     999900   -1    0    0    0    0 -0.00000000000E+00 -0.00000000000E+00 -0.74505805969E-08  0.93827000000E+00  0.93827000000E+00 0. -1.
     999902    2    1    2    0    0 -0.15282366270E-01 -0.19731913104E-01  0.31840223055E-02  0.10187697712E+01  0.10184590368E+01 0.  0.
     999903    2    3    3    0    0 -0.32089263904E-01 -0.39401891104E-01  0.11898007808E+00  0.13080687427E+00  0.19285992236E-01 0.  0.
         14    1    1    2    0    0  0.15282366270E-01  0.19731913104E-01 -0.31840223055E-02  0.25160228767E-01  0.00000000000E+00 0.  1.
     999901    1    3    3    0    0  0.16806897634E-01  0.19669978000E-01 -0.11579605578E+00  0.88796289696E+00  0.88000000000E+00 0. -1.
        -11    1    4    4    0    0 -0.28532256634E-01 -0.20645493098E-01  0.79299417433E-01  0.86769722715E-01  0.51100000000E-03 0. -1.
         11    1    4    4    0    0 -0.35570072703E-02 -0.18756398006E-01  0.39680660649E-01  0.44037151559E-01  0.51100000000E-03 0.  1.
</event>
<event>
 8    1  0.1135368E+005  0.1043930E+01  0.7957747E-01            NaN
         13   -1    0    0    0    0  0.00000000000E+00  0.00000000000E+00  0.74505805969E-08  0.10566000000E+00  0.10566000000E+00 0.  1.
     999900   -1    0    0    0    0 -0.00000000000E+00 -0.00000000000E+00 -0.74505805969E-08  0.93827000000E+00  0.93827000000E+00 0. -1.
     999902    2    1    2    0    0 -0.10639384574E-01  0.18579175908E-01  0.10033341475E-01  0.10202857571E+01  0.10200117528E+01 0.  0.
     999903    2    3    3    0    0 -0.46246263714E-01 -0.54045445045E-01 -0.10575186058E+00  0.12902350701E+00  0.20099311110E-01 0.  0.
         14    1    1    2    0    0  0.10639384574E-01 -0.18579175908E-01 -0.10033341475E-01  0.23644242908E-01  0.00000000000E+00 0. -1.
     999901    1    3    3    0    0  0.35606879140E-01  0.72624620953E-01  0.11578520205E+00  0.89126225008E+00  0.88000000000E+00 0.  1.
        -11    1    4    4    0    0 -0.11665291143E-01 -0.27688374379E-01 -0.49766990713E-01  0.58135527682E-01  0.51100000000E-03 0. -1.
         11    1    4    4    0    0 -0.34580972571E-01 -0.26357070666E-01 -0.55984869866E-01  0.70887979326E-01  0.51100000000E-03 0.  1.
</event>
<event>
 8    1  0.1135368E+005  0.1043930E+01  0.7957747E-01            NaN
         13   -1    0    0    0    0  0.00000000000E+00  0.00000000000E+00  0.74505805969E-08  0.10566000000E+00  0.10566000000E+00 0.  1.
     999900   -1    0    0    0    0 -0.00000000000E+00 -0.00000000000E+00 -0.74505805969E-08  0.93827000000E+00  0.93827000000E+00 0.  1.
     999902    2    1    2    0    0  0.48845894225E-02  0.11369662075E-01  0.20645311128E-01  0.10198601579E+01  0.10195760807E+01 0.  0.
     999903    2    3    3    0    0 -0.40189156227E-01 -0.49637881267E-01 -0.10867383057E+00  0.12718048221E+00  0.16905208385E-01 0.  0.
         14    1    1    2    0    0 -0.48845894225E-02 -0.11369662075E-01 -0.20645311128E-01  0.24069842149E-01  0.00000000000E+00 0. -1.
     999901    1    3    3    0    0  0.45073745649E-01  0.61007543342E-01  0.12931914169E+00  0.89267967564E+00  0.88000000000E+00 0. -1.
        -11    1    4    4    0    0 -0.19602061886E-01 -0.34936170997E-01 -0.75356003366E-01  0.85343806093E-01  0.51100000000E-03 0.  1.
         11    1    4    4    0    0 -0.20587094340E-01 -0.14701710270E-01 -0.33317827200E-01  0.41836676118E-01  0.51100000000E-03 0. -1.
</event>
<event>
 8    1  0.1135368E+005  0.1043930E+01  0.7957747E-01            NaN
         13   -1    0    0    0    0  0.00000000000E+00  0.00000000000E+00  0.74505805969E-08  0.10566000000E+00  0.10566000000E+00 0.  1.
     999900   -1    0    0    0    0 -0.00000000000E+00 -0.00000000000E+00 -0.74505805969E-08  0.93827000000E+00  0.93827000000E+00 0. -1.
     999902    2    1    2    0    0  0.81960077058E-02  0.20233513350E-01 -0.13904205864E-01  0.10180476403E+01  0.10177185767E+01 0.  0.
     999903    2    3    3    0    0 -0.12252447668E+00  0.96412886519E-02 -0.30447410611E-01  0.12817477413E+00  0.19912962539E-01 0.  0.
         14    1    1    2    0    0 -0.81960077058E-02 -0.20233513350E-01  0.13904205864E-01  0.25882359737E-01  0.00000000000E+00 0.  1.
     999901    1    3    3    0    0  0.13072048439E+00  0.10592224698E-01  0.16543204747E-01  0.88987286614E+00  0.88000000000E+00 0.  1.
        -11    1    4    4    0    0 -0.57683795329E-01  0.26004619230E-02 -0.42982606583E-02  0.57904393714E-01  0.51100000000E-03 0.  1.
         11    1    4    4    0    0 -0.64840681351E-01  0.70408267289E-02 -0.26149149953E-01  0.70270380413E-01  0.51100000000E-03 0. -1.
</event>
<event>
 8    1  0.1135368E+005  0.1043930E+01  0.7957747E-01            NaN
         13   -1    0    0    0    0  0.00000000000E+00  0.00000000000E+00  0.74505805969E-08  0.10566000000E+00  0.10566000000E+00 0. -1.
     999900   -1    0    0    0    0 -0.00000000000E+00 -0.00000000000E+00 -0.74505805969E-08  0.93827000000E+00  0.93827000000E+00 0.  1.
     999902    2    1    2    0    0  0.72075305097E-03  0.13771670411E-01 -0.13429469652E-01  0.10246808690E+01  0.10245000508E+01 0.  0.
     999903    2    3    3    0    0 -0.65435863798E-01 -0.10432834715E+00 -0.47350629093E-01  0.13368426001E+00  0.21520757585E-01 0.  0.
         14    1    1    2    0    0 -0.72075305097E-03 -0.13771670411E-01  0.13429469652E-01  0.19249131045E-01  0.00000000000E+00 0.  1.
     999901    1    3    3    0    0  0.66156616849E-01  0.11810001756E+00  0.33921159441E-01  0.89099660895E+00  0.88000000000E+00 0. -1.
        -11    1    4    4    0    0 -0.12322472069E-01 -0.24940040746E-01 -0.18560607910E-02  0.27884673801E-01  0.51100000000E-03 0. -1.
         11    1    4    4    0    0 -0.53113391728E-01 -0.79388306407E-01 -0.45494568302E-01  0.10579958620E+00  0.51100000000E-03 0.  1.
</event>
<event>
 8    1  0.1135368E+005  0.1043930E+01  0.7957747E-01            NaN
         13   -1    0    0    0    0  0.00000000000E+00  0.00000000000E+00  0.74505805969E-08  0.10566000000E+00  0.10566000000E+00 0.  1.
     999900   -1    0    0    0    0 -0.00000000000E+00 -0.00000000000E+00 -0.74505805969E-08  0.93827000000E+00  0.93827000000E+00 0.  1.
     999902    2    1    2    0    0  0.18272707404E-01 -0.17462345190E-01  0.92844626760E-02  0.10170036823E+01  0.10166471676E+01 0.  0.
     999903    2    3    3    0    0 -0.95263770866E-02 -0.12051910025E+00  0.39497916480E-01  0.13003900624E+00  0.27100781383E-01 0.  0.
         14    1    1    2    0    0 -0.18272707404E-01  0.17462345190E-01 -0.92844626760E-02  0.26926317657E-01  0.00000000000E+00 0. -1.
     999901    1    3    3    0    0  0.27799084491E-01  0.10305675506E+00 -0.30213453804E-01  0.88696467610E+00  0.88000000000E+00 0.  1.
        -11    1    4    4    0    0 -0.18271405907E-01 -0.59314777969E-01  0.19743227772E-01  0.65131738217E-01  0.51100000000E-03 0. -1.
         11    1    4    4    0    0  0.87450288204E-02 -0.61204322283E-01  0.19754688709E-01  0.64907268023E-01  0.51100000000E-03 0.  1.
</event>
<event>
 8    1  0.1135368E+005  0.1043930E+01  0.7957747E-01            NaN
         13   -1    0    0    0    0  0.00000000000E+00  0.00000000000E+00  0.74505805969E-08  0.10566000000E+00  0.10566000000E+00 0. -1.
     999900   -1    0    0    0    0 -0.00000000000E+00 -0.00000000000E+00 -0.74505805969E-08  0.93827000000E+00  0.93827000000E+00 0. -1.
     999902    2    1    2    0    0 -0.20896751820E-01 -0.50986580628E-02  0.94802848317E-02  0.10204236955E+01  0.10201529160E+01 0.  0.
     999903    2    3    3    0    0 -0.78092572438E-01 -0.90931696350E-01  0.54383081597E-01  0.13326253003E+00  0.20841282970E-01 0.  0.
         14    1    1    2    0    0  0.20896751820E-01  0.50986580628E-02 -0.94802848317E-02  0.23506304498E-01  0.00000000000E+00 0.  1.
     999901    1    3    3    0    0  0.57195820618E-01  0.85833038287E-01 -0.44902796766E-01  0.88716116547E+00  0.88000000000E+00 0.  1.
        -11    1    4    4    0    0 -0.48965486315E-01 -0.52879606609E-01  0.43290330346E-01  0.84072501257E-01  0.51100000000E-03 0. -1.
         11    1    4    4    0    0 -0.29127086123E-01 -0.38052089741E-01  0.11092751251E-01  0.49190028776E-01  0.51100000000E-03 0.  1.
</event>
<event>
 8    1  0.1135368E+005  0.1043930E+01  0.7957747E-01            NaN
         13   -1    0    0    0    0  0.00000000000E+00  0.00000000000E+00  0.74505805969E-08  0.10566000000E+00  0.10566000000E+00 0.  1.
     999900   -1    0    0    0    0 -0.00000000000E+00 -0.00000000000E+00 -0.74505805969E-08  0.93827000000E+00  0.93827000000E+00 0. -1.
     999902    2    1    2    0    0 -0.95562023989E-02 -0.59882821586E-02 -0.25312597489E-01  0.10162188449E+01  0.10158409484E+01 0.  0.
     999903    2    3    3    0    0  0.37643606735E-01 -0.10578963899E+00  0.55046758716E-01  0.12568767812E+00  0.12599918272E-01 0.  0.
         14    1    1    2    0    0  0.95562023989E-02  0.59882821586E-02  0.25312597489E-01  0.27711155139E-01  0.00000000000E+00 0.  1.
     999901    1    3    3    0    0 -0.47199809134E-01  0.99801356831E-01 -0.80359356205E-01  0.89053116674E+00  0.88000000000E+00 0.  1.
        -11    1    4    4    0    0  0.11307489961E-01 -0.50016005115E-01  0.26442122541E-01  0.57696681554E-01  0.51100000000E-03 0. -1.
         11    1    4    4    0    0  0.26336116774E-01 -0.55773633875E-01  0.28604636175E-01  0.67990996566E-01  0.51100000000E-03 0.  1.
</event>
<event>
 8    1  0.1135368E+005  0.1043930E+01  0.7957747E-01            NaN
         13   -1    0    0    0    0  0.00000000000E+00  0.00000000000E+00  0.74505805969E-08  0.10566000000E+00  0.10566000000E+00 0. -1.
     999900   -1    0    0    0    0 -0.00000000000E+00 -0.00000000000E+00 -0.74505805969E-08  0.93827000000E+00  0.93827000000E+00 0. -1.
     999902    2    1    2    0    0 -0.19015397341E-01 -0.12895252547E-01 -0.45289145401E-02  0.10205124010E+01  0.10202436850E+01 0.  0.
     999903    2    3    3    0    0 -0.44072993165E-01  0.12092581500E+00  0.90733790323E-03  0.13002628993E+00  0.18453491623E-01 0.  0.
         14    1    1    2    0    0  0.19015397341E-01  0.12895252547E-01  0.45289145401E-02  0.23417598963E-01  0.00000000000E+00 0.  1.
     999901    1    3    3    0    0  0.25057595824E-01 -0.13382106754E+00 -0.54362524434E-02  0.89048611110E+00  0.88000000000E+00 0.  1.
        -11    1    4    4    0    0 -0.26962054271E-01  0.58321959045E-01  0.79436262530E-02  0.64743846012E-01  0.51100000000E-03 0. -1.
         11    1    4    4    0    0 -0.17110938894E-01  0.62603855950E-01 -0.70362883498E-02  0.65282443922E-01  0.51100000000E-03 0.  1.
</event>
<event>
 8    1  0.1181034E+005  0.1043930E+01  0.7957747E-01            NaN
         13   -1    0    0    0    0  0.00000000000E+00  0.00000000000E+00  0.74505805969E-08  0.10566000000E+00  0.10566000000E+00 0. -1.
     999900   -1    0    0    0    0 -0.00000000000E+00 -0.00000000000E+00 -0.74505805969E-08  0.93827000000E+00  0.93827000000E+00 0.  1.
     999902    2    1    2    0    0  0.21938319869E-01  0.18811566935E-02  0.80707607754E-02  0.10204786502E+01  0.10202091500E+01 0.  0.
     999903    2    3    3    0    0 -0.90504391457E-02 -0.15363671697E-01 -0.12671424960E+00  0.12951025213E+00  0.19961249881E-01 0.  0.
         14    1    1    2    0    0 -0.21938319869E-01 -0.18811566935E-02 -0.80707607754E-02  0.23451349827E-01  0.00000000000E+00 0.  1.
     999901    1    3    3    0    0  0.30988759015E-01  0.17244828391E-01  0.13478501038E+00  0.89096839804E+00  0.88000000000E+00 0. -1.
        -11    1    4    4    0    0 -0.13762304773E-02 -0.18007824311E-01 -0.74085673042E-01  0.76256959143E-01  0.51100000000E-03 0. -1.
         11    1    4    4    0    0 -0.76742086684E-02  0.26441526138E-02 -0.52628576563E-01  0.53253292985E-01  0.51100000000E-03 0.  1.
</event>
<event>
 8    1  0.1135368E+005  0.1043930E+01  0.7957747E-01            NaN
         13   -1    0    0    0    0  0.00000000000E+00  0.00000000000E+00  0.74505805969E-08  0.10566000000E+00  0.10566000000E+00 0.  1.
     999900   -1    0    0    0    0 -0.00000000000E+00 -0.00000000000E+00 -0.74505805969E-08  0.93827000000E+00  0.93827000000E+00 0. -1.
     999902    2    1    2    0    0  0.11176461344E-01  0.20308344555E-01 -0.59155502553E-02  0.10200064576E+01  0.10197258640E+01 0.  0.
     999903    2    3    3    0    0 -0.86593144822E-01  0.75514885178E-01 -0.60080139133E-01  0.13122050996E+00  0.20207139863E-01 0.  0.
         14    1    1    2    0    0 -0.11176461344E-01 -0.20308344555E-01  0.59155502553E-02  0.23923542412E-01  0.00000000000E+00 0.  1.
     999901    1    3    3    0    0  0.97769606166E-01 -0.55206540624E-01  0.54164588878E-01  0.88878594763E+00  0.88000000000E+00 0.  1.
        -11    1    4    4    0    0 -0.35386475851E-01  0.18595419823E-01 -0.17859590819E-01  0.43786052766E-01  0.51100000000E-03 0.  1.
         11    1    4    4    0    0 -0.51206668971E-01  0.56919465355E-01 -0.42220548314E-01  0.87434457191E-01  0.51100000000E-03 0. -1.
</event>
<event>
 8    1  0.1135368E+005  0.1043930E+01  0.7957747E-01            NaN
         13   -1    0    0    0    0  0.00000000000E+00  0.00000000000E+00  0.74505805969E-08  0.10566000000E+00  0.10566000000E+00 0.  1.
     999900   -1    0    0    0    0 -0.00000000000E+00 -0.00000000000E+00 -0.74505805969E-08  0.93827000000E+00  0.93827000000E+00 0. -1.
     999902    2    1    2    0    0 -0.12076911954E-02  0.20851827772E-01  0.11082882304E-01  0.10202849684E+01  0.10200109456E+01 0.  0.
     999903    2    3    3    0    0  0.12019483591E+00 -0.56079549101E-02  0.47399252556E-01  0.13081457966E+00  0.19685460924E-01 0.  0.
         14    1    1    2    0    0  0.12076911954E-02 -0.20851827772E-01 -0.11082882304E-01  0.23645031605E-01  0.00000000000E+00 0.  1.
     999901    1    3    3    0    0 -0.12140252710E+00  0.26459782682E-01 -0.36316370252E-01  0.88947038873E+00  0.88000000000E+00 0. -1.
        -11    1    4    4    0    0  0.55758614810E-01 -0.10982690987E-01  0.27666438290E-01  0.63208666775E-01  0.51100000000E-03 0. -1.
         11    1    4    4    0    0  0.64436221097E-01  0.53747360764E-02  0.19732814266E-01  0.67605912885E-01  0.51100000000E-03 0.  1.
</event>
<event>
 8    1  0.1135368E+005  0.1043930E+01  0.7957747E-01            NaN
         13   -1    0    0    0    0  0.00000000000E+00  0.00000000000E+00  0.74505805969E-08  0.10566000000E+00  0.10566000000E+00 0. -1.
     999900   -1    0    0    0    0 -0.00000000000E+00 -0.00000000000E+00 -0.74505805969E-08  0.93827000000E+00  0.93827000000E+00 0.  1.
     999902    2    1    2    0    0 -0.18172605985E-01  0.13650164891E-01  0.19271717416E-02  0.10211202521E+01  0.10208654586E+01 0.  0.
     999903    2    3    3    0    0 -0.40256449903E-01 -0.45454305709E-01 -0.11466873025E+00  0.13119012056E+00  0.19371483406E-01 0.  0.
         14    1    1    2    0    0  0.18172605985E-01 -0.13650164891E-01 -0.19271717416E-02  0.22809747933E-01  0.00000000000E+00 0. -1.
     999901    1    3    3    0    0  0.22083843918E-01  0.59104470600E-01  0.11659590199E+00  0.88993013151E+00  0.88000000000E+00 0. -1.
        -11    1    4    4    0    0 -0.27089698991E-01 -0.39279099426E-01 -0.98421136135E-01  0.10937861127E+00  0.51100000000E-03 0.  1.
         11    1    4    4    0    0 -0.13166750912E-01 -0.61752062830E-02 -0.16247594111E-01  0.21811509293E-01  0.51100000000E-03 0. -1.
</event>
<event>
 8    1  0.1135368E+005  0.1043930E+01  0.7957747E-01            NaN
         13   -1    0    0    0    0  0.00000000000E+00  0.00000000000E+00  0.74505805969E-08  0.10566000000E+00  0.10566000000E+00 0.  1.
     999900   -1    0    0    0    0 -0.00000000000E+00 -0.00000000000E+00 -0.74505805969E-08  0.93827000000E+00  0.93827000000E+00 0. -1.
     999902    2    1    2    0    0 -0.11427854120E-01 -0.80519699990E-03  0.20125133410E-01  0.10207725997E+01  0.10205098898E+01 0.  0.
     999903    2    3    3    0    0 -0.24402291644E-01 -0.12591151281E+00  0.22513573209E-01  0.13182623976E+00  0.20545452366E-01 0.  0.
         14    1    1    2    0    0  0.11427854120E-01  0.80519699990E-03 -0.20125133410E-01  0.23157400259E-01  0.00000000000E+00 0. -1.
     999901    1    3    3    0    0  0.12974437524E-01  0.12510631581E+00 -0.23884397995E-02  0.88894635998E+00  0.88000000000E+00 0. -1.
        -11    1    4    4    0    0 -0.19220426059E-01 -0.50092409557E-01  0.13237645669E-01  0.55264551541E-01  0.51100000000E-03 0. -1.
         11    1    4    4    0    0 -0.51818655852E-02 -0.75819103257E-01  0.92759275401E-02  0.76561688215E-01  0.51100000000E-03 0.  1.
</event>
<event>
 8    1  0.1135368E+005  0.1043930E+01  0.7957747E-01            NaN
         13   -1    0    0    0    0  0.00000000000E+00  0.00000000000E+00  0.74505805969E-08  0.10566000000E+00  0.10566000000E+00 0.  1.
     999900   -1    0    0    0    0 -0.00000000000E+00 -0.00000000000E+00 -0.74505805969E-08  0.93827000000E+00  0.93827000000E+00 0.  1.
     999902    2    1    2    0    0  0.20087369304E-01  0.11702427574E-01 -0.21589742349E-02  0.10205824008E+01  0.10203153074E+01 0.  0.
     999903    2    3    3    0    0 -0.35333298708E-01 -0.12173903131E+00 -0.11435971945E-01  0.12875050184E+00  0.19418458407E-01 0.  0.
         14    1    1    2    0    0 -0.20087369304E-01 -0.11702427574E-01  0.21589742349E-02  0.23347599158E-01  0.00000000000E+00 0.  1.
     999901    1    3    3    0    0  0.55420668012E-01  0.13344145889E+00  0.92769977100E-02  0.89183189900E+00  0.88000000000E+00 0.  1.
        -11    1    4    4    0    0 -0.15593368731E-01 -0.27753137416E-01 -0.70700210570E-02  0.32613434403E-01  0.51100000000E-03 0.  1.
         11    1    4    4    0    0 -0.19739929978E-01 -0.93985893897E-01 -0.43659508878E-02  0.96137067436E-01  0.51100000000E-03 0. -1.
</event>
<event>
 8    1  0.1135368E+005  0.1043930E+01  0.7957747E-01            NaN
         13   -1    0    0    0    0  0.00000000000E+00  0.00000000000E+00  0.74505805969E-08  0.10566000000E+00  0.10566000000E+00 0.  1.
     999900   -1    0    0    0    0 -0.00000000000E+00 -0.00000000000E+00 -0.74505805969E-08  0.93827000000E+00  0.93827000000E+00 0.  1.
     999902    2    1    2    0    0  0.24562893021E-01 -0.87884163662E-03  0.50195187458E-03  0.10193462649E+01  0.10190497769E+01 0.  0.
     999903    2    3    3    0    0 -0.21849641845E-01  0.59672830566E-01 -0.11065326955E+00  0.12907882662E+00  0.19466480508E-01 0.  0.
         14    1    1    2    0    0 -0.24562893021E-01  0.87884163662E-03 -0.50195187458E-03  0.24583735108E-01  0.00000000000E+00 0. -1.
     999901    1    3    3    0    0  0.46412534866E-01 -0.60551672203E-01  0.11115522142E+00  0.89026743827E+00  0.88000000000E+00 0. -1.
        -11    1    4    4    0    0 -0.52392786221E-02  0.17252048687E-01 -0.16340987786E-01  0.24338698141E-01  0.51100000000E-03 0. -1.
         11    1    4    4    0    0 -0.16610363223E-01  0.42420781880E-01 -0.94312281761E-01  0.10474012848E+00  0.51100000000E-03 0.  1.
</event>
<event>
 8    1  0.1135368E+005  0.1043930E+01  0.7957747E-01            NaN
         13   -1    0    0    0    0  0.00000000000E+00  0.00000000000E+00  0.74505805969E-08  0.10566000000E+00  0.10566000000E+00 0. -1.
     999900   -1    0    0    0    0 -0.00000000000E+00 -0.00000000000E+00 -0.74505805969E-08  0.93827000000E+00  0.93827000000E+00 0. -1.
     999902    2    1    2    0    0 -0.16840067543E-01  0.12411733013E-01 -0.10993522402E-01  0.10202974689E+01  0.10200237392E+01 0.  0.
     999903    2    3    3    0    0  0.37912005089E-01  0.10054611554E+00 -0.74097586270E-01  0.13195767934E+00  0.19378734924E-01 0.  0.
         14    1    1    2    0    0  0.16840067543E-01 -0.12411733013E-01  0.10993522402E-01  0.23632531097E-01  0.00000000000E+00 0. -1.
     999901    1    3    3    0    0 -0.54752072632E-01 -0.88134382523E-01  0.63104063868E-01  0.88833978956E+00  0.88000000000E+00 0.  1.
        -11    1    4    4    0    0  0.24698413553E-01  0.59109671266E-01 -0.55078719533E-01  0.84486042253E-01  0.51100000000E-03 0. -1.
         11    1    4    4    0    0  0.13213591536E-01  0.41436444270E-01 -0.19018866737E-01  0.47471637090E-01  0.51100000000E-03 0.  1.
</event>
<event>
 8    1  0.1135368E+005  0.1043930E+01  0.7957747E-01            NaN
         13   -1    0    0    0    0  0.00000000000E+00  0.00000000000E+00  0.74505805969E-08  0.10566000000E+00  0.10566000000E+00 0.  1.
     999900   -1    0    0    0    0 -0.00000000000E+00 -0.00000000000E+00 -0.74505805969E-08  0.93827000000E+00  0.93827000000E+00 0. -1.
     999902    2    1    2    0    0 -0.29901575017E-03 -0.24127550561E-01 -0.39274262362E-02  0.10194830619E+01  0.10191899041E+01 0.  0.
     999903    2    3    3    0    0 -0.12674461736E+00 -0.16308352481E-01 -0.16026627155E-01  0.13032839553E+00  0.19961901560E-01 0.  0.
         14    1    1    2    0    0  0.29901575017E-03  0.24127550561E-01  0.39274262362E-02  0.24446938117E-01  0.00000000000E+00 0.  1.
     999901    1    3    3    0    0  0.12644560161E+00 -0.78191980800E-02  0.12099200919E-01  0.88915466635E+00  0.88000000000E+00 0. -1.
        -11    1    4    4    0    0 -0.73239697617E-01 -0.49063023806E-02 -0.30773027202E-03  0.73406273090E-01  0.51100000000E-03 0. -1.
         11    1    4    4    0    0 -0.53504919745E-01 -0.11402050100E-01 -0.15718896883E-01  0.56922122445E-01  0.51100000000E-03 0.  1.
</event>
<event>
 8    1  0.1135368E+005  0.1043930E+01  0.7957747E-01            NaN
         13   -1    0    0    0    0  0.00000000000E+00  0.00000000000E+00  0.74505805969E-08  0.10566000000E+00  0.10566000000E+00 0.  1.
     999900   -1    0    0    0    0 -0.00000000000E+00 -0.00000000000E+00 -0.74505805969E-08  0.93827000000E+00  0.93827000000E+00 0. -1.
     999902    2    1    2    0    0  0.17740796286E-01  0.97122890555E-02 -0.15974656069E-01  0.10181568735E+01  0.10178306171E+01 0.  0.
     999903    2    3    3    0    0  0.12425985040E+00 -0.31686453568E-01 -0.10903684800E-01  0.13075286208E+00  0.23084168613E-01 0.  0.
         14    1    1    2    0    0 -0.17740796286E-01 -0.97122890555E-02  0.15974656069E-01  0.25773126471E-01  0.00000000000E+00 0.  1.
     999901    1    3    3    0    0 -0.10651905411E+00  0.41398742624E-01 -0.50709712699E-02  0.88740401145E+00  0.88000000000E+00 0.  1.
        -11    1    4    4    0    0  0.85165767688E-01 -0.32570672015E-01 -0.82575973254E-02  0.91556024903E-01  0.51100000000E-03 0. -1.
         11    1    4    4    0    0  0.39094082709E-01  0.88421844644E-03 -0.26460874741E-02  0.39196837181E-01  0.51100000000E-03 0.  1.
</event>
<event>
 8    1  0.1135368E+005  0.1043930E+01  0.7957747E-01            NaN
         13   -1    0    0    0    0  0.00000000000E+00  0.00000000000E+00  0.74505805969E-08  0.10566000000E+00  0.10566000000E+00 0. -1.
     999900   -1    0    0    0    0 -0.00000000000E+00 -0.00000000000E+00 -0.74505805969E-08  0.93827000000E+00  0.93827000000E+00 0.  1.
     999902    2    1    2    0    0 -0.21777461228E-01 -0.49674616754E-02 -0.40354095813E-02  0.10212315854E+01  0.10209793010E+01 0.  0.
     999903    2    3    3    0    0  0.12400981648E+00 -0.26612848395E-01  0.97550010883E-02  0.12886807849E+00  0.20619003968E-01 0.  0.
         14    1    1    2    0    0  0.21777461228E-01  0.49674616754E-02  0.40354095813E-02  0.22698414559E-01  0.00000000000E+00 0. -1.
     999901    1    3    3    0    0 -0.14578727771E+00  0.21645386719E-01 -0.13790410670E-01  0.89236350695E+00  0.88000000000E+00 0.  1.
        -11    1    4    4    0    0  0.73405570592E-01 -0.55443144775E-02  0.76120566070E-02  0.74008930163E-01  0.51100000000E-03 0.  1.
         11    1    4    4    0    0  0.50604245888E-01 -0.21068533917E-01  0.21429444813E-02  0.54859148329E-01  0.51100000000E-03 0. -1.
</event>
<event>
 8    1  0.1135368E+005  0.1043930E+01  0.7957747E-01            NaN
         13   -1    0    0    0    0  0.00000000000E+00  0.00000000000E+00  0.74505805969E-08  0.10566000000E+00  0.10566000000E+00 0. -1.
     999900   -1    0    0    0    0 -0.00000000000E+00 -0.00000000000E+00 -0.74505805969E-08  0.93827000000E+00  0.93827000000E+00 0. -1.
     999902    2    1    2    0    0 -0.70750680884E-02  0.89317554093E-02 -0.20255091318E-01  0.10206899146E+01  0.10204253036E+01 0.  0.
     999903    2    3    3    0    0  0.19478307828E-01  0.11745016704E+00  0.50683148375E-01  0.13079466166E+00  0.19092296198E-01 0.  0.
         14    1    1    2    0    0  0.70750680884E-02 -0.89317554093E-02  0.20255091318E-01  0.23240085358E-01  0.00000000000E+00 0. -1.
     999901    1    3    3    0    0 -0.26553375917E-01 -0.10851841163E+00 -0.70938239693E-01  0.88989525299E+00  0.88000000000E+00 0. -1.
        -11    1    4    4    0    0  0.23130242402E-01  0.92252954323E-01  0.40054296147E-01  0.10319991984E+00  0.51100000000E-03 0. -1.
         11    1    4    4    0    0 -0.36519345734E-02  0.25197212720E-01  0.10628852227E-01  0.27594741812E-01  0.51100000000E-03 0.  1.
</event>
<event>
 8    1  0.1135368E+005  0.1043930E+01  0.7957747E-01            NaN
         13   -1    0    0    0    0  0.00000000000E+00  0.00000000000E+00  0.74505805969E-08  0.10566000000E+00  0.10566000000E+00 0.  1.
     999900   -1    0    0    0    0 -0.00000000000E+00 -0.00000000000E+00 -0.74505805969E-08  0.93827000000E+00  0.93827000000E+00 0. -1.
     999902    2    1    2    0    0  0.13631036130E-01  0.17146761899E-01 -0.87863076293E-02  0.10203288180E+01  0.10200558225E+01 0.  0.
     999903    2    3    3    0    0 -0.92081367817E-01  0.22673703871E-01  0.85780378808E-01  0.12895430771E+00  0.16669281365E-01 0.  0.
         14    1    1    2    0    0 -0.13631036130E-01 -0.17146761899E-01  0.87863076293E-02  0.23601181990E-01  0.00000000000E+00 0. -1.
     999901    1    3    3    0    0  0.10571240395E+00 -0.55269419725E-02 -0.94566686437E-01  0.89137451030E+00  0.88000000000E+00 0. -1.
        -11    1    4    4    0    0 -0.13916031527E-01 -0.36080790030E-03  0.19211457092E-01  0.23730303841E-01  0.51100000000E-03 0. -1.
         11    1    4    4    0    0 -0.78165336290E-01  0.23034511771E-01  0.66568921715E-01  0.10522400386E+00  0.51100000000E-03 0.  1.
</event>
<event>
 8    1  0.1135368E+005  0.1043930E+01  0.7957747E-01            NaN
         13   -1    0    0    0    0  0.00000000000E+00  0.00000000000E+00  0.74505805969E-08  0.10566000000E+00  0.10566000000E+00 0.  1.
     999900   -1    0    0    0    0 -0.00000000000E+00 -0.00000000000E+00 -0.74505805969E-08  0.93827000000E+00  0.93827000000E+00 0.  1.
     999902    2    1    2    0    0  0.17326157094E-01 -0.14037568277E-01  0.48358054876E-02  0.10211125931E+01  0.10208576266E+01 0.  0.
     999903    2    3    3    0    0  0.65099776864E-01 -0.64250480594E-01  0.95318771716E-01  0.13376214233E+00  0.20988979851E-01 0.  0.
         14    1    1    2    0    0 -0.17326157094E-01  0.14037568277E-01 -0.48358054876E-02  0.22817406897E-01  0.00000000000E+00 0. -1.
     999901    1    3    3    0    0 -0.47773619769E-01  0.50212912318E-01 -0.90482966228E-01  0.88735045077E+00  0.88000000000E+00 0. -1.
        -11    1    4    4    0    0  0.53904687521E-01 -0.54589761320E-01  0.67205937636E-01  0.10199341426E+00  0.51100000000E-03 0.  1.
         11    1    4    4    0    0  0.11195089343E-01 -0.96607192742E-02  0.28112834080E-01  0.31768728071E-01  0.51100000000E-03 0. -1.
</event>
<event>
 8    1  0.1135368E+005  0.1043930E+01  0.7957747E-01            NaN
         13   -1    0    0    0    0  0.00000000000E+00  0.00000000000E+00  0.74505805969E-08  0.10566000000E+00  0.10566000000E+00 0. -1.
     999900   -1    0    0    0    0 -0.00000000000E+00 -0.00000000000E+00 -0.74505805969E-08  0.93827000000E+00  0.93827000000E+00 0.  1.
     999902    2    1    2    0    0  0.63406009599E-02 -0.20812710688E-01 -0.12060742112E-01  0.10190536328E+01  0.10187499560E+01 0.  0.
     999903    2    3    3    0    0  0.11274528843E+00  0.96963891835E-02  0.59317969976E-01  0.12925158555E+00  0.19540490748E-01 0.  0.
         14    1    1    2    0    0 -0.63406009599E-02  0.20812710688E-01  0.12060742112E-01  0.24876367239E-01  0.00000000000E+00 0. -1.
     999901    1    3    3    0    0 -0.10640468747E+00 -0.30509099872E-01 -0.71378712088E-01  0.88980204722E+00  0.88000000000E+00 0. -1.
        -11    1    4    4    0    0  0.36622901554E-01  0.12246669090E-01  0.21762654578E-01  0.44329359090E-01  0.51100000000E-03 0.  1.
         11    1    4    4    0    0  0.76122386871E-01 -0.25502799060E-02  0.37555315399E-01  0.84922226456E-01  0.51100000000E-03 0. -1.
</event>
<event>
 8    1  0.1135368E+005  0.1043930E+01  0.7957747E-01            NaN
         13   -1    0    0    0    0  0.00000000000E+00  0.00000000000E+00  0.74505805969E-08  0.10566000000E+00  0.10566000000E+00 0.  1.
     999900   -1    0    0    0    0 -0.00000000000E+00 -0.00000000000E+00 -0.74505805969E-08  0.93827000000E+00  0.93827000000E+00 0. -1.
     999902    2    1    2    0    0  0.12706448946E-01  0.19100275719E-01  0.54397154812E-02  0.10203532131E+01  0.10200807882E+01 0.  0.
     999903    2    3    3    0    0 -0.11087735064E+00  0.58849344340E-01 -0.28061786327E-01  0.13019856662E+00  0.20178470793E-01 0.  0.
         14    1    1    2    0    0 -0.12706448946E-01 -0.19100275719E-01 -0.54397154812E-02  0.23576786928E-01  0.00000000000E+00 0. -1.
     999901    1    3    3    0    0  0.12358379959E+00 -0.39749068621E-01  0.33501501808E-01  0.89015464645E+00  0.88000000000E+00 0.  1.
        -11    1    4    4    0    0 -0.35381391615E-01  0.28304031174E-01 -0.52126655575E-02  0.45611336930E-01  0.51100000000E-03 0.  1.
         11    1    4    4    0    0 -0.75495959026E-01  0.30545313166E-01 -0.22849120770E-01  0.84587229690E-01  0.51100000000E-03 0. -1.
</event>
<event>
 8    1  0.1135368E+005  0.1043930E+01  0.7957747E-01            NaN
         13   -1    0    0    0    0  0.00000000000E+00  0.00000000000E+00  0.74505805969E-08  0.10566000000E+00  0.10566000000E+00 0. -1.
     999900   -1    0    0    0    0 -0.00000000000E+00 -0.00000000000E+00 -0.74505805969E-08  0.93827000000E+00  0.93827000000E+00 0.  1.
     999902    2    1    2    0    0 -0.11607986353E-01 -0.95773972102E-02  0.17681951497E-01  0.10207109713E+01  0.10204468451E+01 0.  0.
     999903    2    3    3    0    0 -0.16685989160E-01 -0.77058371085E-01  0.10607924536E+00  0.13369713291E+00  0.20142052131E-01 0.  0.
         14    1    1    2    0    0  0.11607986353E-01  0.95773972102E-02 -0.17681951497E-01  0.23219028688E-01  0.00000000000E+00 0.  1.
     999901    1    3    3    0    0  0.50780028077E-02  0.67480973875E-01 -0.88397293865E-01  0.88701383840E+00  0.88000000000E+00 0.  1.
        -11    1    4    4    0    0  0.44501779232E-02 -0.15797498034E-01  0.18303689926E-01  0.24589656638E-01  0.51100000000E-03 0.  1.
         11    1    4    4    0    0 -0.21136167083E-01 -0.61260873051E-01  0.87775555436E-01  0.10910747627E+00  0.51100000000E-03 0. -1.
</event>
<event>
 8    1  0.1135368E+005  0.1043930E+01  0.7957747E-01            NaN
         13   -1    0    0    0    0  0.00000000000E+00  0.00000000000E+00  0.74505805969E-08  0.10566000000E+00  0.10566000000E+00 0. -1.
     999900   -1    0    0    0    0 -0.00000000000E+00 -0.00000000000E+00 -0.74505805969E-08  0.93827000000E+00  0.93827000000E+00 0.  1.
     999902    2    1    2    0    0  0.21717849189E-01  0.44574889167E-02  0.16214470861E-02  0.10217002166E+01  0.10214583541E+01 0.  0.
     999903    2    3    3    0    0  0.57970376451E-02 -0.12933021787E+00 -0.89076968768E-02  0.13138370790E+00  0.20552876684E-01 0.  0.
         14    1    1    2    0    0 -0.21717849189E-01 -0.44574889167E-02 -0.16214470861E-02  0.22229783433E-01  0.00000000000E+00 0.  1.
     999901    1    3    3    0    0  0.15920811544E-01  0.13378770678E+00  0.10529143963E-01  0.89031650866E+00  0.88000000000E+00 0.  1.
        -11    1    4    4    0    0 -0.42728820318E-02 -0.27517040963E-01  0.44479600465E-02  0.28204441738E-01  0.51100000000E-03 0. -1.
         11    1    4    4    0    0  0.10069919677E-01 -0.10181317690E+00 -0.13355656923E-01  0.10317926616E+00  0.51100000000E-03 0.  1.
</event>
<event>
 8    1  0.1135368E+005  0.1043930E+01  0.7957747E-01            NaN
         13   -1    0    0    0    0  0.00000000000E+00  0.00000000000E+00  0.74505805969E-08  0.10566000000E+00  0.10566000000E+00 0.  1.
     999900   -1    0    0    0    0 -0.00000000000E+00 -0.00000000000E+00 -0.74505805969E-08  0.93827000000E+00  0.93827000000E+00 0. -1.
     999902    2    1    2    0    0 -0.14650097027E-01  0.13318049328E-01 -0.14035818036E-01  0.10196606784E+01  0.10193718160E+01 0.  0.
     999903    2    3    3    0    0 -0.10329513180E+00  0.86345959601E-02  0.76945450874E-01  0.13052769164E+00  0.19298584774E-01 0.  0.
         14    1    1    2    0    0  0.14650097027E-01 -0.13318049328E-01  0.14035818036E-01  0.24269321555E-01  0.00000000000E+00 0.  1.
     999901    1    3    3    0    0  0.88645034775E-01  0.46834533676E-02 -0.90981268910E-01  0.88913298680E+00  0.88000000000E+00 0. -1.
        -11    1    4    4    0    0 -0.74732432747E-01  0.71392648291E-02  0.44499261002E-01  0.87271707657E-01  0.51100000000E-03 0. -1.
         11    1    4    4    0    0 -0.28562699054E-01  0.14953311311E-02  0.32446189871E-01  0.43255983986E-01  0.51100000000E-03 0.  1.
</event>
<event>
 8    1  0.1135368E+005  0.1043930E+01  0.7957747E-01            NaN
         13   -1    0    0    0    0  0.00000000000E+00  0.00000000000E+00  0.74505805969E-08  0.10566000000E+00  0.10566000000E+00 0.  1.
     999900   -1    0    0    0    0 -0.00000000000E+00 -0.00000000000E+00 -0.74505805969E-08  0.93827000000E+00  0.93827000000E+00 0. -1.
     999902    2    1    2    0    0  0.13534287555E-01 -0.19730824560E-01 -0.14586140755E-02  0.10199589772E+01  0.10196772555E+01 0.  0.
     999903    2    3    3    0    0 -0.95863615898E-01 -0.73644144142E-01  0.44782665341E-01  0.13034512661E+00  0.19263231694E-01 0.  0.
         14    1    1    2    0    0 -0.13534287555E-01  0.19730824560E-01  0.14586140755E-02  0.23971022766E-01  0.00000000000E+00 0. -1.
     999901    1    3    3    0    0  0.10939790345E+00  0.53913319582E-01 -0.46241279417E-01  0.88961385063E+00  0.88000000000E+00 0.  1.
        -11    1    4    4    0    0 -0.72148099413E-01 -0.61242216806E-01  0.41643064406E-01  0.10339421310E+00  0.51100000000E-03 0.  1.
         11    1    4    4    0    0 -0.23715516485E-01 -0.12401927336E-01  0.31396009347E-02  0.26950913507E-01  0.51100000000E-03 0. -1.
</event>
<event>
 8    1  0.1135368E+005  0.1043930E+01  0.7957747E-01            NaN
         13   -1    0    0    0    0  0.00000000000E+00  0.00000000000E+00  0.74505805969E-08  0.10566000000E+00  0.10566000000E+00 0. -1.
     999900   -1    0    0    0    0 -0.00000000000E+00 -0.00000000000E+00 -0.74505805969E-08  0.93827000000E+00  0.93827000000E+00 0.  1.
     999902    2    1    2    0    0  0.50792596635E-02  0.20919881159E-01 -0.67937730398E-02  0.10213557745E+01  0.10211062738E+01 0.  0.
     999903    2    3    3    0    0  0.27493540784E-02  0.20118195981E-02  0.12911051712E+00  0.13071953035E+00  0.20160942844E-01 0.  0.
         14    1    1    2    0    0 -0.50792596635E-02 -0.20919881159E-01  0.67937730398E-02  0.22574225536E-01  0.00000000000E+00 0. -1.
     999901    1    3    3    0    0  0.23299055851E-02  0.18908061561E-01 -0.13590429016E+00  0.89063624412E+00  0.88000000000E+00 0.  1.
        -11    1    4    4    0    0  0.11284912662E-01 -0.10520484319E-02  0.74432784779E-01  0.75292473931E-01  0.51100000000E-03 0. -1.
         11    1    4    4    0    0 -0.85355585836E-02  0.30638680301E-02  0.54677732343E-01  0.55427056415E-01  0.51100000000E-03 0.  1.
</event>
<event>
 8    1  0.1135368E+005  0.1043930E+01  0.7957747E-01            NaN
         13   -1    0    0    0    0  0.00000000000E+00  0.00000000000E+00  0.74505805969E-08  0.10566000000E+00  0.10566000000E+00 0. -1.
     999900   -1    0    0    0    0 -0.00000000000E+00 -0.00000000000E+00 -0.74505805969E-08  0.93827000000E+00  0.93827000000E+00 0.  1.
     999902    2    1    2    0    0 -0.55190407459E-02 -0.20381171272E-01  0.60802722358E-02  0.10219567967E+01  0.10217205453E+01 0.  0.
     999903    2    3    3    0    0 -0.80145953428E-02 -0.12630970274E+00  0.42114972107E-01  0.13486853661E+00  0.19936813884E-01 0.  0.
         14    1    1    2    0    0  0.55190407459E-02  0.20381171272E-01 -0.60802722358E-02  0.21973203309E-01  0.00000000000E+00 0.  1.
     999901    1    3    3    0    0  0.24955545969E-02  0.10592853147E+00 -0.36034699871E-01  0.88708826008E+00  0.88000000000E+00 0. -1.
        -11    1    4    4    0    0 -0.12429093872E-01 -0.85182971014E-01  0.34831347643E-01  0.92866058519E-01  0.51100000000E-03 0. -1.
         11    1    4    4    0    0  0.44144985289E-02 -0.41126731727E-01  0.72836244643E-02  0.42002478095E-01  0.51100000000E-03 0.  1.
</event>
<event>
 8    1  0.1135368E+005  0.1043930E+01  0.7957747E-01            NaN
         13   -1    0    0    0    0  0.00000000000E+00  0.00000000000E+00  0.74505805969E-08  0.10566000000E+00  0.10566000000E+00 0.  1.
     999900   -1    0    0    0    0 -0.00000000000E+00 -0.00000000000E+00 -0.74505805969E-08  0.93827000000E+00  0.93827000000E+00 0.  1.
     999902    2    1    2    0    0  0.24389505560E-02 -0.78092151960E-02  0.26216604605E-01  0.10164665210E+01  0.10160954412E+01 0.  0.
     999903    2    3    3    0    0 -0.65702039726E-02 -0.10301850999E+00 -0.69510567985E-01  0.12612407775E+00  0.20483723902E-01 0.  0.
         14    1    1    2    0    0 -0.24389505560E-02  0.78092151960E-02 -0.26216604605E-01  0.27463479000E-01  0.00000000000E+00 0. -1.
     999901    1    3    3    0    0  0.90091545286E-02  0.95209294798E-01  0.95727172590E-01  0.89034244325E+00  0.88000000000E+00 0.  1.
        -11    1    4    4    0    0 -0.23722111308E-02 -0.73735867475E-01 -0.38323349219E-01  0.83135706855E-01  0.51100000000E-03 0.  1.
         11    1    4    4    0    0 -0.41979928418E-02 -0.29282642520E-01 -0.31187218766E-01  0.42988370894E-01  0.51100000000E-03 0. -1.
</event>
<event>
 8    1  0.1135368E+005  0.1043930E+01  0.7957747E-01            NaN
         13   -1    0    0    0    0  0.00000000000E+00  0.00000000000E+00  0.74505805969E-08  0.10566000000E+00  0.10566000000E+00 0. -1.
     999900   -1    0    0    0    0 -0.00000000000E+00 -0.00000000000E+00 -0.74505805969E-08  0.93827000000E+00  0.93827000000E+00 0.  1.
     999902    2    1    2    0    0 -0.76340411138E-02  0.50554954819E-02  0.21847988586E-01  0.10202409472E+01  0.10199658911E+01 0.  0.
     999903    2    3    3    0    0 -0.12762356954E+00  0.93405454937E-02 -0.20170494375E-01  0.13109450171E+00  0.20097219769E-01 0.  0.
         14    1    1    2    0    0  0.76340411138E-02 -0.50554954819E-02 -0.21847988586E-01  0.23689052821E-01  0.00000000000E+00 0.  1.
     999901    1    3    3    0    0  0.11998952843E+00 -0.42850500118E-02  0.42018482961E-01  0.88914644547E+00  0.88000000000E+00 0.  1.
        -11    1    4    4    0    0 -0.71243634701E-02 -0.66788870645E-03  0.33425926944E-02  0.79143336484E-02  0.51100000000E-03 0. -1.
         11    1    4    4    0    0 -0.12049920607E+00  0.10008434200E-01 -0.23513087069E-01  0.12318016806E+00  0.51100000000E-03 0.  1.
</event>
<event>
 8    1  0.1135368E+005  0.1043930E+01  0.7957747E-01            NaN
         13   -1    0    0    0    0  0.00000000000E+00  0.00000000000E+00  0.74505805969E-08  0.10566000000E+00  0.10566000000E+00 0. -1.
     999900   -1    0    0    0    0 -0.00000000000E+00 -0.00000000000E+00 -0.74505805969E-08  0.93827000000E+00  0.93827000000E+00 0. -1.
     999902    2    1    2    0    0  0.11563244855E-01 -0.22736464928E-01 -0.20809801122E-02  0.10183373068E+01  0.10180156602E+01 0.  0.
     999903    2    3    3    0    0 -0.11547726487E+00  0.37169840679E-01  0.29858688016E-01  0.12662647978E+00  0.20642877034E-01 0.  0.
         14    1    1    2    0    0 -0.11563244855E-01  0.22736464928E-01  0.20809801122E-02  0.25592693239E-01  0.00000000000E+00 0.  1.
     999901    1    3    3    0    0  0.12704050973E+00 -0.59906305607E-01 -0.31939668128E-01  0.89171082699E+00  0.88000000000E+00 0. -1.
        -11    1    4    4    0    0 -0.22485622278E-01  0.15656399758E-01  0.97128025252E-02  0.29074485662E-01  0.51100000000E-03 0. -1.
         11    1    4    4    0    0 -0.92991642593E-01  0.21513440920E-01  0.20145885491E-01  0.97551994114E-01  0.51100000000E-03 0.  1.
</event>
<event>
 8    1  0.1135368E+005  0.1043930E+01  0.7957747E-01            NaN
         13   -1    0    0    0    0  0.00000000000E+00  0.00000000000E+00  0.74505805969E-08  0.10566000000E+00  0.10566000000E+00 0. -1.
     999900   -1    0    0    0    0 -0.00000000000E+00 -0.00000000000E+00 -0.74505805969E-08  0.93827000000E+00  0.93827000000E+00 0.  1.
     999902    2    1    2    0    0  0.71047803671E-02 -0.26538484314E-01 -0.88596581605E-02  0.10150637118E+01  0.10146531803E+01 0.  0.
     999903    2    3    3    0    0 -0.39104791165E-01 -0.11552627564E+00 -0.36635209825E-01  0.12893413164E+00  0.20158537815E-01 0.  0.
         14    1    1    2    0    0 -0.71047803671E-02  0.26538484314E-01  0.88596581605E-02  0.28866288235E-01  0.00000000000E+00 0. -1.
     999901    1    3    3    0    0  0.46209571532E-01  0.88987791326E-01  0.27775551664E-01  0.88612958013E+00  0.88000000000E+00 0. -1.
        -11    1    4    4    0    0 -0.30903180099E-02 -0.22898122262E-01 -0.29256470744E-03  0.23113216644E-01  0.51100000000E-03 0.  1.
         11    1    4    4    0    0 -0.36014473155E-01 -0.92628153378E-01 -0.36342645117E-01  0.10582091499E+00  0.51100000000E-03 0. -1.
</event>
<event>
 8    1  0.1135368E+005  0.1043930E+01  0.7957747E-01            NaN
         13   -1    0    0    0    0  0.00000000000E+00  0.00000000000E+00  0.74505805969E-08  0.10566000000E+00  0.10566000000E+00 0. -1.
     999900   -1    0    0    0    0 -0.00000000000E+00 -0.00000000000E+00 -0.74505805969E-08  0.93827000000E+00  0.93827000000E+00 0.  1.
     999902    2    1    2    0    0  0.54850210372E-02  0.15777393490E-01  0.20866946417E-01  0.10172009698E+01  0.10168497293E+01 0.  0.
     999903    2    3    3    0    0 -0.20672419053E-01  0.92737360426E-01  0.87858667664E-01  0.13091944633E+00  0.19828994299E-01 0.  0.
         14    1    1    2    0    0 -0.54850210372E-02 -0.15777393490E-01 -0.20866946417E-01  0.26729030171E-01  0.00000000000E+00 0.  1.
     999901    1    3    3    0    0  0.26157440090E-01 -0.76959966937E-01 -0.66991721247E-01  0.88628152350E+00  0.88000000000E+00 0.  1.
        -11    1    4    4    0    0 -0.12320310786E-01  0.29932291802E-01  0.19870532493E-01  0.37984619689E-01  0.51100000000E-03 0.  1.
         11    1    4    4    0    0 -0.83521082665E-02  0.62805068625E-01  0.67988135171E-01  0.92934826639E-01  0.51100000000E-03 0. -1.
</event>
<event>
 8    1  0.1135368E+005  0.1043930E+01  0.7957747E-01            NaN
         13   -1    0    0    0    0  0.00000000000E+00  0.00000000000E+00  0.74505805969E-08  0.10566000000E+00  0.10566000000E+00 0.  1.
     999900   -1    0    0    0    0 -0.00000000000E+00 -0.00000000000E+00 -0.74505805969E-08  0.93827000000E+00  0.93827000000E+00 0.  1.
     999902    2    1    2    0    0 -0.22965598565E-01  0.80509463649E-02 -0.21106144650E-02  0.10195027376E+01  0.10192100573E+01 0.  0.
     999903    2    3    3    0    0  0.28914051105E-01 -0.11747102702E+00  0.37363080883E-01  0.12820848962E+00  0.20148261890E-01 0.  0.
         14    1    1    2    0    0  0.22965598565E-01 -0.80509463649E-02  0.21106144650E-02  0.24427262398E-01  0.00000000000E+00 0.  1.
     999901    1    3    3    0    0 -0.51879649671E-01  0.12552197339E+00 -0.39473695348E-01  0.89129424798E+00  0.88000000000E+00 0.  1.
        -11    1    4    4    0    0  0.60037305791E-02 -0.29678948905E-01  0.54500401662E-03  0.30289320550E-01  0.51100000000E-03 0.  1.
         11    1    4    4    0    0  0.22910320526E-01 -0.87792078119E-01  0.36818076867E-01  0.97919169074E-01  0.51100000000E-03 0. -1.
</event>
<event>
 8    1  0.1135368E+005  0.1043930E+01  0.7957747E-01            NaN
         13   -1    0    0    0    0  0.00000000000E+00  0.00000000000E+00  0.74505805969E-08  0.10566000000E+00  0.10566000000E+00 0. -1.
     999900   -1    0    0    0    0 -0.00000000000E+00 -0.00000000000E+00 -0.74505805969E-08  0.93827000000E+00  0.93827000000E+00 0. -1.
     999902    2    1    2    0    0 -0.92159607402E-02 -0.21133348627E-01 -0.29698371326E-02  0.10206840909E+01  0.10204193457E+01 0.  0.
     999903    2    3    3    0    0  0.77782601512E-01  0.99174135980E-01 -0.41309771439E-02  0.12824698449E+00  0.23336274602E-01 0.  0.
         14    1    1    2    0    0  0.92159607402E-02  0.21133348627E-01  0.29698371326E-02  0.23245909084E-01  0.00000000000E+00 0. -1.
     999901    1    3    3    0    0 -0.86998562252E-01 -0.12030748461E+00  0.11611400114E-02  0.89243710643E+00  0.88000000000E+00 0.  1.
        -11    1    4    4    0    0  0.51083416500E-01  0.74666964106E-01 -0.11687838584E-01  0.91222462486E-01  0.51100000000E-03 0. -1.
         11    1    4    4    0    0  0.26699185012E-01  0.24507171874E-01  0.75568614403E-02  0.37024522000E-01  0.51100000000E-03 0.  1.
</event>
<event>
 8    1  0.1135368E+005  0.1043930E+01  0.7957747E-01            NaN
         13   -1    0    0    0    0  0.00000000000E+00  0.00000000000E+00  0.74505805969E-08  0.10566000000E+00  0.10566000000E+00 0. -1.
     999900   -1    0    0    0    0 -0.00000000000E+00 -0.00000000000E+00 -0.74505805969E-08  0.93827000000E+00  0.93827000000E+00 0. -1.
     999902    2    1    2    0    0  0.21404084989E-02  0.23023868394E-01 -0.75871613731E-02  0.10195939181E+01  0.10193034450E+01 0.  0.
     999903    2    3    3    0    0 -0.54692806324E-01 -0.64344274744E-01 -0.95500631779E-01  0.12909294392E+00  0.20325568727E-01 0.  0.
         14    1    1    2    0    0 -0.21404084989E-02 -0.23023868394E-01  0.75871613731E-02  0.24336081896E-01  0.00000000000E+00 0. -1.
     999901    1    3    3    0    0  0.56833214823E-01  0.87368143138E-01  0.87913470405E-01  0.89050097418E+00  0.88000000000E+00 0.  1.
        -11    1    4    4    0    0 -0.25806608312E-01 -0.21899258572E-01 -0.50638283285E-01  0.60910224213E-01  0.51100000000E-03 0.  1.
         11    1    4    4    0    0 -0.28886198012E-01 -0.42445016172E-01 -0.44862348493E-01  0.68182719708E-01  0.51100000000E-03 0. -1.
</event>
<event>
 8    1  0.1135368E+005  0.1043930E+01  0.7957747E-01            NaN
         13   -1    0    0    0    0  0.00000000000E+00  0.00000000000E+00  0.74505805969E-08  0.10566000000E+00  0.10566000000E+00 0.  1.
     999900   -1    0    0    0    0 -0.00000000000E+00 -0.00000000000E+00 -0.74505805969E-08  0.93827000000E+00  0.93827000000E+00 0. -1.
     999902    2    1    2    0    0  0.84807038127E-02  0.22379852862E-01  0.27309124831E-03  0.10199956162E+01  0.10197147651E+01 0.  0.
     999903    2    3    3    0    0  0.49714041397E-01  0.27263920225E-02 -0.11922200693E+00  0.13074563716E+00  0.20040348661E-01 0.  0.
         14    1    1    2    0    0 -0.84807038127E-02 -0.22379852862E-01 -0.27309124831E-03  0.23934383846E-01  0.00000000000E+00 0. -1.
     999901    1    3    3    0    0 -0.41233337584E-01  0.19653460839E-01  0.11949509818E+00  0.88924997899E+00  0.88000000000E+00 0.  1.
        -11    1    4    4    0    0  0.77408058157E-02  0.56697962773E-02 -0.10862183733E-01  0.14502235033E-01  0.51100000000E-03 0.  1.
         11    1    4    4    0    0  0.41973235581E-01 -0.29434042548E-02 -0.10835982320E+00  0.11624340213E+00  0.51100000000E-03 0. -1.
</event>
<event>
 8    1  0.1135368E+005  0.1043930E+01  0.7957747E-01            NaN
         13   -1    0    0    0    0  0.00000000000E+00  0.00000000000E+00  0.74505805969E-08  0.10566000000E+00  0.10566000000E+00 0.  1.
     999900   -1    0    0    0    0 -0.00000000000E+00 -0.00000000000E+00 -0.74505805969E-08  0.93827000000E+00  0.93827000000E+00 0. -1.
     999902    2    1    2    0    0 -0.20628333113E-01  0.92765426488E-02  0.72533411879E-02  0.10201772459E+01  0.10199006911E+01 0.  0.
     999903    2    3    3    0    0  0.13459925530E-02  0.11618285951E+00 -0.57080387978E-01  0.13110432406E+00  0.20734139876E-01 0.  0.
         14    1    1    2    0    0  0.20628333113E-01 -0.92765426488E-02 -0.72533411879E-02  0.23752754133E-01  0.00000000000E+00 0. -1.
     999901    1    3    3    0    0 -0.21974325666E-01 -0.10690631686E+00  0.64333729166E-01  0.88907292180E+00  0.88000000000E+00 0.  1.
        -11    1    4    4    0    0  0.26585295736E-03  0.11620365869E+00 -0.54689024153E-01  0.12843095987E+00  0.51100000000E-03 0. -1.
         11    1    4    4    0    0  0.10801395956E-02 -0.20799176954E-04 -0.23913638242E-02  0.26733641898E-02  0.51100000000E-03 0.  1.
</event>
<event>
 8    1  0.1135368E+005  0.1043930E+01  0.7957747E-01            NaN
         13   -1    0    0    0    0  0.00000000000E+00  0.00000000000E+00  0.74505805969E-08  0.10566000000E+00  0.10566000000E+00 0.  1.
     999900   -1    0    0    0    0 -0.00000000000E+00 -0.00000000000E+00 -0.74505805969E-08  0.93827000000E+00  0.93827000000E+00 0.  1.
     999902    2    1    2    0    0  0.12709766384E-01 -0.10147290219E-01  0.17696555674E-01  0.10198951556E+01  0.10196119138E+01 0.  0.
     999903    2    3    3    0    0  0.28835724190E-02 -0.12890084279E+00  0.19048380707E-01  0.13186318113E+00  0.20032859676E-01 0.  0.
         14    1    1    2    0    0 -0.12709766384E-01  0.10147290219E-01 -0.17696555674E-01  0.24034844353E-01  0.00000000000E+00 0. -1.
     999901    1    3    3    0    0  0.98261939651E-02  0.11875355258E+00 -0.13518250324E-02  0.88803197452E+00  0.88000000000E+00 0. -1.
        -11    1    4    4    0    0 -0.65687985273E-02 -0.58594111051E-01  0.14813672138E-01  0.60795764385E-01  0.51100000000E-03 0.  1.
         11    1    4    4    0    0  0.94523709463E-02 -0.70306731743E-01  0.42347085688E-02  0.71067416744E-01  0.51100000000E-03 0. -1.
</event>
<event>
 8    1  0.1135368E+005  0.1043930E+01  0.7957747E-01            NaN
         13   -1    0    0    0    0  0.00000000000E+00  0.00000000000E+00  0.74505805969E-08  0.10566000000E+00  0.10566000000E+00 0. -1.
     999900   -1    0    0    0    0 -0.00000000000E+00 -0.00000000000E+00 -0.74505805969E-08  0.93827000000E+00  0.93827000000E+00 0. -1.
     999902    2    1    2    0    0  0.19598315048E-01  0.63960593488E-02  0.10268302271E-01  0.10208986831E+01  0.10206388585E+01 0.  0.
     999903    2    3    3    0    0  0.12675192662E+00 -0.15966793669E-01 -0.29806565101E-01  0.13321180773E+00  0.23150917739E-01 0.  0.
         14    1    1    2    0    0 -0.19598315048E-01 -0.63960593488E-02 -0.10268302271E-01  0.23031316928E-01  0.00000000000E+00 0. -1.
     999901    1    3    3    0    0 -0.10715361157E+00  0.22362853017E-01  0.40074867372E-01  0.88768687535E+00  0.88000000000E+00 0.  1.
        -11    1    4    4    0    0  0.94873847501E-02 -0.27602643869E-02  0.36629637028E-02  0.10550258431E-01  0.51100000000E-03 0.  1.
         11    1    4    4    0    0  0.11726454187E+00 -0.13206529282E-01 -0.33469528804E-01  0.12266154929E+00  0.51100000000E-03 0. -1.
</event>
<event>
 8    1  0.1135368E+005  0.1043930E+01  0.7957747E-01            NaN
         13   -1    0    0    0    0  0.00000000000E+00  0.00000000000E+00  0.74505805969E-08  0.10566000000E+00  0.10566000000E+00 0. -1.
     999900   -1    0    0    0    0 -0.00000000000E+00 -0.00000000000E+00 -0.74505805969E-08  0.93827000000E+00  0.93827000000E+00 0. -1.
     999902    2    1    2    0    0  0.89189161532E-02  0.17698041375E-01 -0.77351853701E-02  0.10226555828E+01  0.10224342718E+01 0.  0.
     999903    2    3    3    0    0 -0.27013064925E-01 -0.16348037745E-01  0.12570898891E+00  0.13121989225E+00  0.20468175663E-01 0.  0.
         14    1    1    2    0    0 -0.89189161532E-02 -0.17698041375E-01  0.77351853701E-02  0.21274417185E-01  0.00000000000E+00 0.  1.
     999901    1    3    3    0    0  0.35931981078E-01  0.34046079120E-01 -0.13344417428E+00  0.89143569057E+00  0.88000000000E+00 0. -1.
        -11    1    4    4    0    0 -0.10053228993E-01 -0.16892436499E-01  0.82124919349E-01  0.84446345824E-01  0.51100000000E-03 0. -1.
         11    1    4    4    0    0 -0.16959835932E-01  0.54439875377E-03  0.43584069558E-01  0.46773546424E-01  0.51100000000E-03 0.  1.
</event>
<event>
 8    1  0.1135368E+005  0.1043930E+01  0.7957747E-01            NaN
         13   -1    0    0    0    0  0.00000000000E+00  0.00000000000E+00  0.74505805969E-08  0.10566000000E+00  0.10566000000E+00 0.  1.
     999900   -1    0    0    0    0 -0.00000000000E+00 -0.00000000000E+00 -0.74505805969E-08  0.93827000000E+00  0.93827000000E+00 0.  1.
     999902    2    1    2    0    0 -0.12320473744E-01 -0.18959284486E-01 -0.58204685878E-02  0.10205820580E+01  0.10203149566E+01 0.  0.
     999903    2    3    3    0    0 -0.91847937525E-01 -0.62146564675E-01 -0.71558630502E-01  0.13350186737E+00  0.20096563451E-01 0.  0.
         14    1    1    2    0    0  0.12320473744E-01  0.18959284486E-01  0.58204685878E-02  0.23347942009E-01  0.00000000000E+00 0.  1.
     999901    1    3    3    0    0  0.79527463781E-01  0.43187280190E-01  0.65738161915E-01  0.88708019062E+00  0.88000000000E+00 0. -1.
        -11    1    4    4    0    0 -0.17748290523E-01 -0.50879568706E-02 -0.17681615662E-01  0.25569313151E-01  0.51100000000E-03 0. -1.
         11    1    4    4    0    0 -0.74099647002E-01 -0.57058607805E-01 -0.53877014841E-01  0.10793255422E+00  0.51100000000E-03 0.  1.
</event>
<event>
 8    1  0.1135368E+005  0.1043930E+01  0.7957747E-01            NaN
         13   -1    0    0    0    0  0.00000000000E+00  0.00000000000E+00  0.74505805969E-08  0.10566000000E+00  0.10566000000E+00 0. -1.
     999900   -1    0    0    0    0 -0.00000000000E+00 -0.00000000000E+00 -0.74505805969E-08  0.93827000000E+00  0.93827000000E+00 0. -1.
     999902    2    1    2    0    0 -0.22417055677E-02  0.82371084411E-02 -0.21665394656E-01  0.10206434261E+01  0.10203777431E+01 0.  0.
     999903    2    3    3    0    0 -0.43490987908E-01  0.10603659273E+00  0.59286206597E-01  0.13057634762E+00  0.20002580758E-01 0.  0.
         14    1    1    2    0    0  0.22417055677E-02 -0.82371084411E-02  0.21665394656E-01  0.23286573920E-01  0.00000000000E+00 0.  1.
     999901    1    3    3    0    0  0.41249282340E-01 -0.97799484289E-01 -0.80951601253E-01  0.89006707846E+00  0.88000000000E+00 0. -1.
        -11    1    4    4    0    0 -0.18881380692E-01  0.23454745378E-01  0.13615315183E-01  0.33049501451E-01  0.51100000000E-03 0. -1.
         11    1    4    4    0    0 -0.24609607216E-01  0.82581847352E-01  0.45670891414E-01  0.97526846165E-01  0.51100000000E-03 0.  1.
</event>
<event>
 8    1  0.1135368E+005  0.1043930E+01  0.7957747E-01            NaN
         13   -1    0    0    0    0  0.00000000000E+00  0.00000000000E+00  0.74505805969E-08  0.10566000000E+00  0.10566000000E+00 0. -1.
     999900   -1    0    0    0    0 -0.00000000000E+00 -0.00000000000E+00 -0.74505805969E-08  0.93827000000E+00  0.93827000000E+00 0. -1.
     999902    2    1    2    0    0  0.21855363030E-01 -0.96288013393E-02 -0.85895350012E-03  0.10200321233E+01  0.10197521386E+01 0.  0.
     999903    2    3    3    0    0  0.31638883506E-01  0.63001915019E-01 -0.10801568999E+00  0.13050780977E+00  0.19865519889E-01 0.  0.
         14    1    1    2    0    0 -0.21855363030E-01  0.96288013393E-02  0.85895350012E-03  0.23897876674E-01  0.00000000000E+00 0.  1.
     999901    1    3    3    0    0 -0.97835204764E-02 -0.72630716359E-01  0.10715673649E+00  0.88952431356E+00  0.88000000000E+00 0.  1.
        -11    1    4    4    0    0  0.22340399995E-01  0.37331122135E-01 -0.49302934555E-01  0.65755202293E-01  0.51100000000E-03 0. -1.
         11    1    4    4    0    0  0.92984835116E-02  0.25670792884E-01 -0.58712755438E-01  0.64752607477E-01  0.51100000000E-03 0.  1.
</event>
<event>
 8    1  0.1350503E+005  0.1043930E+01  0.7957747E-01            NaN
         13   -1    0    0    0    0  0.00000000000E+00  0.00000000000E+00  0.74505805969E-08  0.10566000000E+00  0.10566000000E+00 0.  1.
     999900   -1    0    0    0    0 -0.00000000000E+00 -0.00000000000E+00 -0.74505805969E-08  0.93827000000E+00  0.93827000000E+00 0.  1.
     999902    2    1    2    0    0  0.57726545494E-03  0.15340362633E-01  0.18412883533E-01  0.10199572187E+01  0.10196754551E+01 0.  0.
     999903    2    3    3    0    0 -0.63780066559E-01  0.11277194116E+00  0.18238321785E-01  0.13224397160E+00  0.19246403289E-01 0.  0.
         14    1    1    2    0    0 -0.57726545494E-03 -0.15340362633E-01 -0.18412883533E-01  0.23972781255E-01  0.00000000000E+00 0. -1.
     999901    1    3    3    0    0  0.64357332014E-01 -0.97431578531E-01  0.17456174766E-03  0.88771324714E+00  0.88000000000E+00 0. -1.
        -11    1    4    4    0    0 -0.33780872141E-01  0.75455711229E-01  0.16659194645E-01  0.84335648257E-01  0.51100000000E-03 0. -1.
         11    1    4    4    0    0 -0.29999194418E-01  0.37316229935E-01  0.15791271403E-02  0.47908323346E-01  0.51100000000E-03 0.  1.
</event>
<event>
 8    1  0.1135368E+005  0.1043930E+01  0.7957747E-01            NaN
         13   -1    0    0    0    0  0.00000000000E+00  0.00000000000E+00  0.74505805969E-08  0.10566000000E+00  0.10566000000E+00 0.  1.
     999900   -1    0    0    0    0 -0.00000000000E+00 -0.00000000000E+00 -0.74505805969E-08  0.93827000000E+00  0.93827000000E+00 0. -1.
     999902    2    1    2    0    0 -0.17816063686E-01 -0.14487137282E-01 -0.56208764323E-02  0.10202892825E+01  0.10200153609E+01 0.  0.
     999903    2    3    3    0    0  0.11643928606E+00 -0.39515419229E-01 -0.34354835143E-01  0.12929177734E+00  0.20409147334E-01 0.  0.
         14    1    1    2    0    0  0.17816063686E-01  0.14487137282E-01  0.56208764323E-02  0.23640717497E-01  0.00000000000E+00 0.  1.
     999901    1    3    3    0    0 -0.13425534974E+00  0.25028281947E-01  0.28733958710E-01  0.89099750517E+00  0.88000000000E+00 0.  1.
        -11    1    4    4    0    0  0.47655718900E-01 -0.91195354392E-02 -0.21180812036E-01  0.52944512369E-01  0.51100000000E-03 0. -1.
         11    1    4    4    0    0  0.68783567156E-01 -0.30395883790E-01 -0.13174023107E-01  0.76347264967E-01  0.51100000000E-03 0.  1.
</event>
<event>
 8    1  0.1135368E+005  0.1043930E+01  0.7957747E-01            NaN
         13   -1    0    0    0    0  0.00000000000E+00  0.00000000000E+00  0.74505805969E-08  0.10566000000E+00  0.10566000000E+00 0. -1.
     999900   -1    0    0    0    0 -0.00000000000E+00 -0.00000000000E+00 -0.74505805969E-08  0.93827000000E+00  0.93827000000E+00 0. -1.
     999902    2    1    2    0    0  0.67282018279E-02  0.20797933441E-01  0.95179808059E-02  0.10200885509E+01  0.10198099024E+01 0.  0.
     999903    2    3    3    0    0  0.11024170109E+00 -0.63251534363E-01  0.18617284731E-01  0.12999745733E+00  0.19968634516E-01 0.  0.
         14    1    1    2    0    0 -0.67282018279E-02 -0.20797933441E-01 -0.95179808059E-02  0.23841449073E-01  0.00000000000E+00 0. -1.
     999901    1    3    3    0    0 -0.10351349926E+00  0.84049467805E-01 -0.90993039252E-02  0.89009109360E+00  0.88000000000E+00 0. -1.
        -11    1    4    4    0    0  0.58851698806E-01 -0.44131361502E-01  0.65635571655E-02  0.73854186909E-01  0.51100000000E-03 0.  1.
         11    1    4    4    0    0  0.51390002279E-01 -0.19120172862E-01  0.12053727566E-01  0.56143270422E-01  0.51100000000E-03 0. -1.
</event>
<event>
 8    1  0.1135368E+005  0.1043930E+01  0.7957747E-01            NaN
         13   -1    0    0    0    0  0.00000000000E+00  0.00000000000E+00  0.74505805969E-08  0.10566000000E+00  0.10566000000E+00 0. -1.
     999900   -1    0    0    0    0 -0.00000000000E+00 -0.00000000000E+00 -0.74505805969E-08  0.93827000000E+00  0.93827000000E+00 0. -1.
     999902    2    1    2    0    0 -0.15304388188E-01 -0.79106774585E-03  0.18329072694E-01  0.10200384745E+01  0.10197586403E+01 0.  0.
     999903    2    3    3    0    0 -0.54353605606E-02  0.80678145010E-01  0.10289744327E+00  0.13218350905E+00  0.18603494463E-01 0.  0.
         14    1    1    2    0    0  0.15304388188E-01  0.79106774585E-03 -0.18329072694E-01  0.23891525523E-01  0.00000000000E+00 0.  1.
     999901    1    3    3    0    0 -0.98690276278E-02 -0.81469212755E-01 -0.84568370577E-01  0.88785496543E+00  0.88000000000E+00 0.  1.
        -11    1    4    4    0    0  0.55616090369E-02  0.32106038728E-01  0.48487736108E-01  0.58421322236E-01  0.51100000000E-03 0.  1.
         11    1    4    4    0    0 -0.10996969597E-01  0.48572106281E-01  0.54409707163E-01  0.73762186813E-01  0.51100000000E-03 0. -1.
</event>
<event>
 8    1  0.1135368E+005  0.1043930E+01  0.7957747E-01            NaN
         13   -1    0    0    0    0  0.00000000000E+00  0.00000000000E+00  0.74505805969E-08  0.10566000000E+00  0.10566000000E+00 0.  1.
     999900   -1    0    0    0    0 -0.00000000000E+00 -0.00000000000E+00 -0.74505805969E-08  0.93827000000E+00  0.93827000000E+00 0.  1.
     999902    2    1    2    0    0 -0.93443654959E-02  0.12086004902E-01  0.28989160208E-02  0.10283803249E+01  0.10282627584E+01 0.  0.
     999903    2    3    3    0    0  0.12182422679E+00  0.39101297406E-01  0.39720400667E-01  0.13748703874E+00  0.30901810610E-01 0.  0.
         14    1    1    2    0    0  0.93443654959E-02 -0.12086004902E-01 -0.28989160208E-02  0.15549675080E-01  0.00000000000E+00 0.  1.
     999901    1    3    3    0    0 -0.13116859229E+00 -0.27015292505E-01 -0.36821484646E-01  0.89089328618E+00  0.88000000000E+00 0.  1.
        -11    1    4    4    0    0  0.77974422466E-01  0.22822100328E-01  0.40329749146E-01  0.90706166326E-01  0.51100000000E-03 0.  1.
         11    1    4    4    0    0  0.43849804328E-01  0.16279197078E-01 -0.60934847854E-03  0.46780872412E-01  0.51100000000E-03 0. -1.
</event>
<event>
 8    1  0.1135368E+005  0.1043930E+01  0.7957747E-01            NaN
         13   -1    0    0    0    0  0.00000000000E+00  0.00000000000E+00  0.74505805969E-08  0.10566000000E+00  0.10566000000E+00 0. -1.
     999900   -1    0    0    0    0 -0.00000000000E+00 -0.00000000000E+00 -0.74505805969E-08  0.93827000000E+00  0.93827000000E+00 0.  1.
     999902    2    1    2    0    0 -0.28054689130E-01  0.69528579917E-02  0.14115217524E-02  0.10149921319E+01  0.10145795324E+01 0.  0.
     999903    2    3    3    0    0 -0.32081819084E-01 -0.62434434146E-01  0.10316703129E+00  0.12640617781E+00  0.20193656448E-01 0.  0.
         14    1    1    2    0    0  0.28054689130E-01 -0.69528579917E-02 -0.14115217524E-02  0.28937868099E-01  0.00000000000E+00 0. -1.
     999901    1    3    3    0    0  0.40271299534E-02  0.69387292137E-01 -0.10175550954E+00  0.88858595409E+00  0.88000000000E+00 0.  1.
        -11    1    4    4    0    0 -0.31088236072E-01 -0.40435179164E-01  0.71257538255E-01  0.87632071841E-01  0.51100000000E-03 0. -1.
         11    1    4    4    0    0 -0.99358301114E-03 -0.21999254982E-01  0.31909493035E-01  0.38774105969E-01  0.51100000000E-03 0.  1.
</event>
<event>
 8    1  0.1135368E+005  0.1043930E+01  0.7957747E-01            NaN
         13   -1    0    0    0    0  0.00000000000E+00  0.00000000000E+00  0.74505805969E-08  0.10566000000E+00  0.10566000000E+00 0. -1.
     999900   -1    0    0    0    0 -0.00000000000E+00 -0.00000000000E+00 -0.74505805969E-08  0.93827000000E+00  0.93827000000E+00 0.  1.
     999902    2    1    2    0    0 -0.15078590240E-02 -0.23700812473E-01 -0.41944292400E-02  0.10198137112E+01  0.10195285234E+01 0.  0.
     999903    2    3    3    0    0 -0.10414671148E+00 -0.43536742648E-01 -0.64293520071E-01  0.13159071051E+00  0.20987446218E-01 0.  0.
         14    1    1    2    0    0  0.15078590240E-02  0.23700812473E-01  0.41944292400E-02  0.24116288839E-01  0.00000000000E+00 0. -1.
     999901    1    3    3    0    0  0.10263885245E+00  0.19835930175E-01  0.60099090831E-01  0.88822300065E+00  0.88000000000E+00 0. -1.
        -11    1    4    4    0    0 -0.73774426878E-01 -0.39944099879E-01 -0.51451278889E-01  0.98415915362E-01  0.51100000000E-03 0.  1.
         11    1    4    4    0    0 -0.30372284598E-01 -0.35926427693E-02 -0.12842241183E-01  0.33174795152E-01  0.51100000000E-03 0. -1.
</event>
<event>
 8    1  0.1135368E+005  0.1043930E+01  0.7957747E-01            NaN
         13   -1    0    0    0    0  0.00000000000E+00  0.00000000000E+00  0.74505805969E-08  0.10566000000E+00  0.10566000000E+00 0. -1.
     999900   -1    0    0    0    0 -0.00000000000E+00 -0.00000000000E+00 -0.74505805969E-08  0.93827000000E+00  0.93827000000E+00 0.  1.
     999902    2    1    2    0    0  0.15611574251E-01  0.13278264528E-01 -0.11323663884E-01  0.10205150705E+01  0.10202464164E+01 0.  0.
     999903    2    3    3    0    0  0.96531297404E-01  0.75284164868E-01  0.47252567334E-01  0.13269532070E+00  0.19729322310E-01 0.  0.
         14    1    1    2    0    0 -0.15611574251E-01 -0.13278264528E-01  0.11323663884E-01  0.23414929495E-01  0.00000000000E+00 0.  1.
     999901    1    3    3    0    0 -0.80919723153E-01 -0.62005900340E-01 -0.58576231218E-01  0.88781974980E+00  0.88000000000E+00 0.  1.
        -11    1    4    4    0    0  0.54112505326E-01  0.53035861038E-01  0.33593490335E-01  0.82883952021E-01  0.51100000000E-03 0. -1.
         11    1    4    4    0    0  0.42418792078E-01  0.22248303830E-01  0.13659076999E-01  0.49811368684E-01  0.51100000000E-03 0.  1.
</event>
<event>
 8    1  0.1135368E+005  0.1043930E+01  0.7957747E-01            NaN
         13   -1    0    0    0    0  0.00000000000E+00  0.00000000000E+00  0.74505805969E-08  0.10566000000E+00  0.10566000000E+00 0.  1.
     999900   -1    0    0    0    0 -0.00000000000E+00 -0.00000000000E+00 -0.74505805969E-08  0.93827000000E+00  0.93827000000E+00 0.  1.
     999902    2    1    2    0    0 -0.17172758738E-01 -0.72603596876E-02  0.14034111856E-01  0.10205939172E+01  0.10203270902E+01 0.  0.
     999903    2    3    3    0    0 -0.36360571516E-01  0.12090334859E+00 -0.25742855234E-01  0.13021404579E+00  0.18796070463E-01 0.  0.
         14    1    1    2    0    0  0.17172758738E-01  0.72603596876E-02 -0.14034111856E-01  0.23336082813E-01  0.00000000000E+00 0. -1.
     999901    1    3    3    0    0  0.19187812778E-01 -0.12816370828E+00  0.39776967090E-01  0.89037987140E+00  0.88000000000E+00 0.  1.
        -11    1    4    4    0    0 -0.15515262556E-01  0.70666635870E-01 -0.22311524583E-01  0.75713684679E-01  0.51100000000E-03 0.  1.
         11    1    4    4    0    0 -0.20845308960E-01  0.50236712717E-01 -0.34313306513E-02  0.54500361112E-01  0.51100000000E-03 0. -1.
</event>
<event>
 8    1  0.1135368E+005  0.1043930E+01  0.7957747E-01            NaN
         13   -1    0    0    0    0  0.00000000000E+00  0.00000000000E+00  0.74505805969E-08  0.10566000000E+00  0.10566000000E+00 0.  1.
     999900   -1    0    0    0    0 -0.00000000000E+00 -0.00000000000E+00 -0.74505805969E-08  0.93827000000E+00  0.93827000000E+00 0.  1.
     999902    2    1    2    0    0 -0.21715311103E-01 -0.71622489671E-02  0.61860044656E-02  0.10202420453E+01  0.10199670151E+01 0.  0.
     999903    2    3    3    0    0  0.42193333353E-02  0.40784944119E-01 -0.12112418756E+00  0.12941129589E+00  0.19874613223E-01 0.  0.
         14    1    1    2    0    0  0.21715311103E-01  0.71622489671E-02 -0.61860044656E-02  0.23687954699E-01  0.00000000000E+00 0. -1.
     999901    1    3    3    0    0 -0.25934644438E-01 -0.47947193086E-01  0.12731019203E+00  0.89083074941E+00  0.88000000000E+00 0. -1.
        -11    1    4    4    0    0  0.70775147858E-02  0.37569276776E-01 -0.87227616069E-01  0.95238962086E-01  0.51100000000E-03 0.  1.
         11    1    4    4    0    0 -0.28581814505E-02  0.32156673424E-02 -0.33896571490E-01  0.34172333802E-01  0.51100000000E-03 0. -1.
</event>
<event>
 8    1  0.1135368E+005  0.1043930E+01  0.7957747E-01            NaN
         13   -1    0    0    0    0  0.00000000000E+00  0.00000000000E+00  0.74505805969E-08  0.10566000000E+00  0.10566000000E+00 0. -1.
     999900   -1    0    0    0    0 -0.00000000000E+00 -0.00000000000E+00 -0.74505805969E-08  0.93827000000E+00  0.93827000000E+00 0. -1.
     999902    2    1    2    0    0  0.21200476947E-01 -0.86578955152E-02 -0.26418097023E-02  0.10208779169E+01  0.10206176182E+01 0.  0.
     999903    2    3    3    0    0  0.10854242991E+00  0.69167774168E-01 -0.25967591324E-01  0.13282975169E+00  0.20094453503E-01 0.  0.
         14    1    1    2    0    0 -0.21200476947E-01  0.86578955152E-02  0.26418097023E-02  0.23052083117E-01  0.00000000000E+00 0.  1.
     999901    1    3    3    0    0 -0.87341952962E-01 -0.77825669683E-01  0.23325781622E-01  0.88804816519E+00  0.88000000000E+00 0.  1.
        -11    1    4    4    0    0  0.32058780804E-01  0.31095988525E-01 -0.12094536774E-01  0.46273803277E-01  0.51100000000E-03 0. -1.
         11    1    4    4    0    0  0.76483649105E-01  0.38071785643E-01 -0.13873054550E-01  0.86555948415E-01  0.51100000000E-03 0.  1.
</event>
<event>
 8    1  0.1135368E+005  0.1043930E+01  0.7957747E-01            NaN
         13   -1    0    0    0    0  0.00000000000E+00  0.00000000000E+00  0.74505805969E-08  0.10566000000E+00  0.10566000000E+00 0. -1.
     999900   -1    0    0    0    0 -0.00000000000E+00 -0.00000000000E+00 -0.74505805969E-08  0.93827000000E+00  0.93827000000E+00 0.  1.
     999902    2    1    2    0    0 -0.15033992634E-01 -0.15696426968E-01  0.10508220387E-01  0.10197883047E+01  0.10195025086E+01 0.  0.
     999903    2    3    3    0    0 -0.36206627261E-01 -0.25753558155E-01 -0.12030641812E+00  0.12980971175E+00  0.20068916496E-01 0.  0.
         14    1    1    2    0    0  0.15033992634E-01  0.15696426968E-01 -0.10508220387E-01  0.24141695255E-01  0.00000000000E+00 0.  1.
     999901    1    3    3    0    0  0.21172634627E-01  0.10057131187E-01  0.13081463850E+00  0.88997859300E+00  0.88000000000E+00 0. -1.
        -11    1    4    4    0    0 -0.26104671079E-02 -0.90156967778E-02 -0.12398610298E-01  0.15559048340E-01  0.51100000000E-03 0.  1.
         11    1    4    4    0    0 -0.33596160153E-01 -0.16737861377E-01 -0.10790780782E+00  0.11425066341E+00  0.51100000000E-03 0. -1.
</event>
<event>
 8    1  0.1135368E+005  0.1043930E+01  0.7957747E-01            NaN
         13   -1    0    0    0    0  0.00000000000E+00  0.00000000000E+00  0.74505805969E-08  0.10566000000E+00  0.10566000000E+00 0. -1.
     999900   -1    0    0    0    0 -0.00000000000E+00 -0.00000000000E+00 -0.74505805969E-08  0.93827000000E+00  0.93827000000E+00 0. -1.
     999902    2    1    2    0    0  0.26569684067E-02  0.58911994462E-02 -0.22357560048E-01  0.10206571359E+01  0.10203917693E+01 0.  0.
     999903    2    3    3    0    0 -0.69436075395E-01 -0.65838086045E-01  0.83324602116E-01  0.12851857225E+00  0.20445340639E-01 0.  0.
         14    1    1    2    0    0 -0.26569684067E-02 -0.58911994462E-02  0.22357560048E-01  0.23272864098E-01  0.00000000000E+00 0. -1.
     999901    1    3    3    0    0  0.72093043802E-01  0.71729285492E-01 -0.10568216216E+00  0.89213856366E+00  0.88000000000E+00 0. -1.
        -11    1    4    4    0    0 -0.65585662938E-01 -0.53406811171E-01  0.75133248022E-01  0.11313281019E+00  0.51100000000E-03 0.  1.
         11    1    4    4    0    0 -0.38504124569E-02 -0.12431274874E-01  0.81913540941E-02  0.15385762054E-01  0.51100000000E-03 0. -1.
</event>
<event>
 8    1  0.1135368E+005  0.1043930E+01  0.7957747E-01            NaN
         13   -1    0    0    0    0  0.00000000000E+00  0.00000000000E+00  0.74505805969E-08  0.10566000000E+00  0.10566000000E+00 0.  1.
     999900   -1    0    0    0    0 -0.00000000000E+00 -0.00000000000E+00 -0.74505805969E-08  0.93827000000E+00  0.93827000000E+00 0.  1.
     999902    2    1    2    0    0  0.22204055581E-01  0.94259278645E-02  0.17071124927E-01  0.10143784940E+01  0.10139479462E+01 0.  0.
     999903    2    3    3    0    0 -0.11412841187E+00 -0.38641222266E-01 -0.75129161426E-02  0.12224545029E+00  0.19211136182E-01 0.  0.
         14    1    1    2    0    0 -0.22204055581E-01 -0.94259278645E-02 -0.17071124927E-01  0.29551505996E-01  0.00000000000E+00 0. -1.
     999901    1    3    3    0    0  0.13633246746E+00  0.48067150130E-01  0.24584041069E-01  0.89213304371E+00  0.88000000000E+00 0. -1.
        -11    1    4    4    0    0 -0.16063303446E-01  0.12919270468E-02 -0.58728880166E-03  0.16133964864E-01  0.51100000000E-03 0.  1.
         11    1    4    4    0    0 -0.98065108429E-01 -0.39933149312E-01 -0.69256273409E-02  0.10611148543E+00  0.51100000000E-03 0. -1.
</event>
<event>
 8    1  0.1135368E+005  0.1043930E+01  0.7957747E-01            NaN
         13   -1    0    0    0    0  0.00000000000E+00  0.00000000000E+00  0.74505805969E-08  0.10566000000E+00  0.10566000000E+00 0. -1.
     999900   -1    0    0    0    0 -0.00000000000E+00 -0.00000000000E+00 -0.74505805969E-08  0.93827000000E+00  0.93827000000E+00 0. -1.
     999902    2    1    2    0    0  0.13543051916E-01  0.31113644157E-02 -0.17275433931E-01  0.10217594010E+01  0.10215188388E+01 0.  0.
     999903    2    3    3    0    0 -0.11983090264E+00  0.21013379605E-01 -0.44476739783E-01  0.13111412650E+00  0.20291043221E-01 0.  0.
         14    1    1    2    0    0 -0.13543051916E-01 -0.31113644157E-02  0.17275433931E-01  0.22170599028E-01  0.00000000000E+00 0. -1.
     999901    1    3    3    0    0  0.13337395456E+00 -0.17902015189E-01  0.27201305852E-01  0.89064527447E+00  0.88000000000E+00 0. -1.
        -11    1    4    4    0    0 -0.74691408441E-01  0.19060676817E-01 -0.36258010558E-01  0.85188146748E-01  0.51100000000E-03 0.  1.
         11    1    4    4    0    0 -0.45139494202E-01  0.19527027876E-02 -0.82187292251E-02  0.45925979751E-01  0.51100000000E-03 0. -1.
</event>
<event>
 8    1  0.1135368E+005  0.1043930E+01  0.7957747E-01            NaN
         13   -1    0    0    0    0  0.00000000000E+00  0.00000000000E+00  0.74505805969E-08  0.10566000000E+00  0.10566000000E+00 0.  1.
     999900   -1    0    0    0    0 -0.00000000000E+00 -0.00000000000E+00 -0.74505805969E-08  0.93827000000E+00  0.93827000000E+00 0.  1.
     999902    2    1    2    0    0 -0.15429823587E-01  0.10918961080E-01  0.14320516779E-01  0.10202154398E+01  0.10199397841E+01 0.  0.
     999903    2    3    3    0    0  0.30458936097E-01  0.97534280477E-01  0.81919096925E-01  0.13219654364E+00  0.18014023755E-01 0.  0.
         14    1    1    2    0    0  0.15429823587E-01 -0.10918961080E-01 -0.14320516779E-01  0.23714560249E-01  0.00000000000E+00 0.  1.
     999901    1    3    3    0    0 -0.45888759684E-01 -0.86615319397E-01 -0.67598580146E-01  0.88801889611E+00  0.88000000000E+00 0.  1.
        -11    1    4    4    0    0  0.25313737753E-01  0.59534334492E-01  0.58758850420E-01  0.87395571547E-01  0.51100000000E-03 0. -1.
         11    1    4    4    0    0  0.51451983437E-02  0.37999945985E-01  0.23160246506E-01  0.44800972088E-01  0.51100000000E-03 0.  1.
</event>
<event>
 8    1  0.1135368E+005  0.1043930E+01  0.7957747E-01            NaN
         13   -1    0    0    0    0  0.00000000000E+00  0.00000000000E+00  0.74505805969E-08  0.10566000000E+00  0.10566000000E+00 0. -1.
     999900   -1    0    0    0    0 -0.00000000000E+00 -0.00000000000E+00 -0.74505805969E-08  0.93827000000E+00  0.93827000000E+00 0.  1.
     999902    2    1    2    0    0  0.43502105378E-04  0.19988927519E-01 -0.14270220561E-01  0.10193699041E+01  0.10190739929E+01 0.  0.
     999903    2    3    3    0    0  0.67084359271E-01 -0.95213376033E-01 -0.50879760198E-01  0.12858019510E+00  0.19447836353E-01 0.  0.
         14    1    1    2    0    0 -0.43502105378E-04 -0.19988927519E-01  0.14270220561E-01  0.24560095901E-01  0.00000000000E+00 0. -1.
     999901    1    3    3    0    0 -0.67040857166E-01  0.11520230355E+00  0.36609539637E-01  0.89078970900E+00  0.88000000000E+00 0. -1.
        -11    1    4    4    0    0  0.37348749396E-01 -0.68628231927E-01 -0.35617437734E-01  0.85869821769E-01  0.51100000000E-03 0.  1.
         11    1    4    4    0    0  0.29735609876E-01 -0.26585144106E-01 -0.15262322464E-01  0.42710373328E-01  0.51100000000E-03 0. -1.
</event>
<event>
 8    1  0.1135368E+005  0.1043930E+01  0.7957747E-01            NaN
         13   -1    0    0    0    0  0.00000000000E+00  0.00000000000E+00  0.74505805969E-08  0.10566000000E+00  0.10566000000E+00 0.  1.
     999900   -1    0    0    0    0 -0.00000000000E+00 -0.00000000000E+00 -0.74505805969E-08  0.93827000000E+00  0.93827000000E+00 0.  1.
     999902    2    1    2    0    0  0.11175798815E-01 -0.12396623499E-01 -0.16544596287E-01  0.10204289698E+01  0.10201583132E+01 0.  0.
     999903    2    3    3    0    0 -0.44117105640E-01  0.11906497052E+00  0.99087344410E-02  0.12855496824E+00  0.17476001450E-01 0.  0.
         14    1    1    2    0    0 -0.11175798815E-01  0.12396623499E-01  0.16544596287E-01  0.23501030182E-01  0.00000000000E+00 0.  1.
     999901    1    3    3    0    0  0.55292904455E-01 -0.13146159402E+00 -0.26453330728E-01  0.89187400158E+00  0.88000000000E+00 0.  1.
        -11    1    4    4    0    0 -0.36330629284E-01  0.10464112797E+00  0.31416545844E-02  0.11081431046E+00  0.51100000000E-03 0.  1.
         11    1    4    4    0    0 -0.77864763564E-02  0.14423842546E-01  0.67670798566E-02  0.17740657785E-01  0.51100000000E-03 0. -1.
</event>
<event>
 8    1  0.1135368E+005  0.1043930E+01  0.7957747E-01            NaN
         13   -1    0    0    0    0  0.00000000000E+00  0.00000000000E+00  0.74505805969E-08  0.10566000000E+00  0.10566000000E+00 0.  1.
     999900   -1    0    0    0    0 -0.00000000000E+00 -0.00000000000E+00 -0.74505805969E-08  0.93827000000E+00  0.93827000000E+00 0.  1.
     999902    2    1    2    0    0 -0.20191487065E-01 -0.12514301800E-01  0.55260356311E-02  0.10195406382E+01  0.10192488764E+01 0.  0.
     999903    2    3    3    0    0 -0.46532618170E-02 -0.12121614066E+00  0.47468884359E-01  0.13172493166E+00  0.19574397424E-01 0.  0.
         14    1    1    2    0    0  0.20191487065E-01  0.12514301800E-01 -0.55260356311E-02  0.24389361805E-01  0.00000000000E+00 0.  1.
     999901    1    3    3    0    0 -0.15538225248E-01  0.10870183886E+00 -0.41942848728E-01  0.88781570654E+00  0.88000000000E+00 0.  1.
        -11    1    4    4    0    0 -0.10337932701E-01 -0.43754921362E-01  0.21401951118E-01  0.49796291314E-01  0.51100000000E-03 0. -1.
         11    1    4    4    0    0  0.56846708838E-02 -0.77461219303E-01  0.26066933241E-01  0.81928640343E-01  0.51100000000E-03 0.  1.
</event>
<event>
 8    1  0.1135368E+005  0.1043930E+01  0.7957747E-01            NaN
         13   -1    0    0    0    0  0.00000000000E+00  0.00000000000E+00  0.74505805969E-08  0.10566000000E+00  0.10566000000E+00 0. -1.
     999900   -1    0    0    0    0 -0.00000000000E+00 -0.00000000000E+00 -0.74505805969E-08  0.93827000000E+00  0.93827000000E+00 0. -1.
     999902    2    1    2    0    0 -0.86758075032E-02 -0.86186796022E-02  0.19730109537E-01  0.10207173204E+01  0.10204533402E+01 0.  0.
     999903    2    3    3    0    0 -0.37005335802E-02 -0.12842971122E+00 -0.20066109002E-01  0.13169359983E+00  0.20800741127E-01 0.  0.
         14    1    1    2    0    0  0.86758075032E-02  0.86186796022E-02 -0.19730109537E-01  0.23212679644E-01  0.00000000000E+00 0.  1.
     999901    1    3    3    0    0 -0.49752739230E-02  0.11981103162E+00  0.39796218540E-01  0.88902372053E+00  0.88000000000E+00 0. -1.
        -11    1    4    4    0    0 -0.78219488924E-02 -0.46134997793E-01 -0.14988196405E-01  0.49137847514E-01  0.51100000000E-03 0.  1.
         11    1    4    4    0    0  0.41214153122E-02 -0.82294713432E-01 -0.50779125972E-02  0.82555752315E-01  0.51100000000E-03 0. -1.
</event>
<event>
 8    1  0.1135368E+005  0.1043930E+01  0.7957747E-01            NaN
         13   -1    0    0    0    0  0.00000000000E+00  0.00000000000E+00  0.74505805969E-08  0.10566000000E+00  0.10566000000E+00 0. -1.
     999900   -1    0    0    0    0 -0.00000000000E+00 -0.00000000000E+00 -0.74505805969E-08  0.93827000000E+00  0.93827000000E+00 0. -1.
     999902    2    1    2    0    0  0.16982780400E-01  0.14981122224E-01 -0.73482332996E-02  0.10201214850E+01  0.10198436149E+01 0.  0.
     999903    2    3    3    0    0  0.10338594267E+00 -0.92184891703E-02 -0.80018420031E-01  0.13257876284E+00  0.20013673551E-01 0.  0.
         14    1    1    2    0    0 -0.16982780400E-01 -0.14981122224E-01  0.73482332996E-02  0.23808514986E-01  0.00000000000E+00 0. -1.
     999901    1    3    3    0    0 -0.86403162266E-01  0.24199611395E-01  0.72670186732E-01  0.88754272217E+00  0.88000000000E+00 0.  1.
        -11    1    4    4    0    0  0.77430322138E-01  0.13711375955E-02 -0.54835110315E-01  0.94891966198E-01  0.51100000000E-03 0.  1.
         11    1    4    4    0    0  0.25955620527E-01 -0.10589626766E-01 -0.25183309716E-01  0.37686796644E-01  0.51100000000E-03 0. -1.
</event>
<event>
 8    1  0.1135368E+005  0.1043930E+01  0.7957747E-01            NaN
         13   -1    0    0    0    0  0.00000000000E+00  0.00000000000E+00  0.74505805969E-08  0.10566000000E+00  0.10566000000E+00 0. -1.
     999900   -1    0    0    0    0 -0.00000000000E+00 -0.00000000000E+00 -0.74505805969E-08  0.93827000000E+00  0.93827000000E+00 0.  1.
     999902    2    1    2    0    0 -0.20577278370E-01  0.17870573265E-02 -0.82616948472E-02  0.10216842462E+01  0.10214420323E+01 0.  0.
     999903    2    3    3    0    0 -0.10588941980E+00  0.53468238588E-01  0.58126104803E-01  0.13356463384E+00  0.19734375846E-01 0.  0.
         14    1    1    2    0    0  0.20577278370E-01 -0.17870573265E-02  0.82616948472E-02  0.22245753769E-01  0.00000000000E+00 0.  1.
     999901    1    3    3    0    0  0.85312141430E-01 -0.51681181261E-01 -0.66387799650E-01  0.88811961239E+00  0.88000000000E+00 0.  1.
        -11    1    4    4    0    0 -0.90845973511E-01  0.50079487459E-01  0.56296807355E-01  0.11802769847E+00  0.51100000000E-03 0.  1.
         11    1    4    4    0    0 -0.15043446289E-01  0.33887511284E-02  0.18292974478E-02  0.15536935368E-01  0.51100000000E-03 0. -1.
</event>
<event>
 8    1  0.1135368E+005  0.1043930E+01  0.7957747E-01            NaN
         13   -1    0    0    0    0  0.00000000000E+00  0.00000000000E+00  0.74505805969E-08  0.10566000000E+00  0.10566000000E+00 0.  1.
     999900   -1    0    0    0    0 -0.00000000000E+00 -0.00000000000E+00 -0.74505805969E-08  0.93827000000E+00  0.93827000000E+00 0. -1.
     999902    2    1    2    0    0 -0.52224038422E-02 -0.16699282841E-02 -0.23080070445E-01  0.10202076094E+01  0.10199317695E+01 0.  0.
     999903    2    3    3    0    0 -0.55770199502E-01 -0.11656938380E+00  0.57444502736E-02  0.13083265054E+00  0.19632812964E-01 0.  0.
         14    1    1    2    0    0  0.52224038422E-02  0.16699282841E-02  0.23080070445E-01  0.23722390564E-01  0.00000000000E+00 0.  1.
     999901    1    3    3    0    0  0.50547795660E-01  0.11489945552E+00 -0.28824520718E-01  0.88937495890E+00  0.88000000000E+00 0. -1.
        -11    1    4    4    0    0 -0.20850005298E-01 -0.63596801323E-01  0.75792797756E-02  0.67357126292E-01  0.51100000000E-03 0.  1.
         11    1    4    4    0    0 -0.34920194203E-01 -0.52972582479E-01 -0.18348295020E-02  0.63475524243E-01  0.51100000000E-03 0. -1.
</event>
<event>
 8    1  0.1135368E+005  0.1043930E+01  0.7957747E-01            NaN
         13   -1    0    0    0    0  0.00000000000E+00  0.00000000000E+00  0.74505805969E-08  0.10566000000E+00  0.10566000000E+00 0.  1.
     999900   -1    0    0    0    0 -0.00000000000E+00 -0.00000000000E+00 -0.74505805969E-08  0.93827000000E+00  0.93827000000E+00 0.  1.
     999902    2    1    2    0    0  0.22037970313E-01  0.85901180922E-02  0.40769096899E-02  0.10199282614E+01  0.10196458086E+01 0.  0.
     999903    2    3    3    0    0  0.11337224815E+00 -0.64901973204E-01 -0.31990549360E-02  0.13212424164E+00  0.19520463673E-01 0.  0.
         14    1    1    2    0    0 -0.22037970313E-01 -0.85901180922E-02 -0.40769096899E-02  0.24001738624E-01  0.00000000000E+00 0.  1.
     999901    1    3    3    0    0 -0.91334277834E-01  0.73492091296E-01  0.72759646259E-02  0.88780401973E+00  0.88000000000E+00 0.  1.
        -11    1    4    4    0    0  0.79328906717E-01 -0.38917894081E-01  0.50526857670E-02  0.88506884902E-01  0.51100000000E-03 0. -1.
         11    1    4    4    0    0  0.34043341430E-01 -0.25984079123E-01 -0.82517407030E-02  0.43617356743E-01  0.51100000000E-03 0.  1.
</event>
<event>
 8    1  0.1135368E+005  0.1043930E+01  0.7957747E-01            NaN
         13   -1    0    0    0    0  0.00000000000E+00  0.00000000000E+00  0.74505805969E-08  0.10566000000E+00  0.10566000000E+00 0. -1.
     999900   -1    0    0    0    0 -0.00000000000E+00 -0.00000000000E+00 -0.74505805969E-08  0.93827000000E+00  0.93827000000E+00 0. -1.
     999902    2    1    2    0    0  0.21796694908E-01 -0.82939709662E-02 -0.23670400099E-02  0.10204888238E+01  0.10202195601E+01 0.  0.
     999903    2    3    3    0    0  0.70133365342E-01 -0.91188721306E-01  0.63280939914E-01  0.13284157933E+00  0.20207325785E-01 0.  0.
         14    1    1    2    0    0 -0.21796694908E-01  0.82939709662E-02  0.23670400099E-02  0.23441176201E-01  0.00000000000E+00 0. -1.
     999901    1    3    3    0    0 -0.48336670434E-01  0.82894750339E-01 -0.65647979924E-01  0.88764724447E+00  0.88000000000E+00 0. -1.
        -11    1    4    4    0    0  0.36813536043E-01 -0.61365226438E-01  0.32799122857E-01  0.78720842430E-01  0.51100000000E-03 0. -1.
         11    1    4    4    0    0  0.33319829299E-01 -0.29823494868E-01  0.30481817057E-01  0.54120736901E-01  0.51100000000E-03 0.  1.
</event>
<event>
 8    1  0.1135368E+005  0.1043930E+01  0.7957747E-01            NaN
         13   -1    0    0    0    0  0.00000000000E+00  0.00000000000E+00  0.74505805969E-08  0.10566000000E+00  0.10566000000E+00 0.  1.
     999900   -1    0    0    0    0 -0.00000000000E+00 -0.00000000000E+00 -0.74505805969E-08  0.93827000000E+00  0.93827000000E+00 0. -1.
     999902    2    1    2    0    0  0.16058634285E-01  0.16770689148E-01 -0.47075807276E-02  0.10202382912E+01  0.10199631727E+01 0.  0.
     999903    2    3    3    0    0 -0.47434884848E-01 -0.40298150627E-01  0.11082257974E+00  0.12859066045E+00  0.19491139805E-01 0.  0.
         14    1    1    2    0    0 -0.16058634285E-01 -0.16770689148E-01  0.47075807276E-02  0.23691708801E-01  0.00000000000E+00 0.  1.
     999901    1    3    3    0    0  0.63493519133E-01  0.57068839775E-01 -0.11553016046E+00  0.89164763075E+00  0.88000000000E+00 0. -1.
        -11    1    4    4    0    0 -0.13165850805E-01 -0.11975131113E-01  0.51256057266E-01  0.54260371544E-01  0.51100000000E-03 0.  1.
         11    1    4    4    0    0 -0.34269034043E-01 -0.28323019514E-01  0.59566522470E-01  0.74330288905E-01  0.51100000000E-03 0. -1.
</event>
<event>
 8    1  0.1135368E+005  0.1043930E+01  0.7957747E-01            NaN
         13   -1    0    0    0    0  0.00000000000E+00  0.00000000000E+00  0.74505805969E-08  0.10566000000E+00  0.10566000000E+00 0.  1.
     999900   -1    0    0    0    0 -0.00000000000E+00 -0.00000000000E+00 -0.74505805969E-08  0.93827000000E+00  0.93827000000E+00 0. -1.
     999902    2    1    2    0    0  0.20476777143E-01  0.51718297882E-02 -0.86712722192E-02  0.10210993805E+01  0.10208441153E+01 0.  0.
     999903    2    3    3    0    0 -0.11550974966E+00 -0.50653501087E-01  0.14215136695E-01  0.12861263507E+00  0.20757175834E-01 0.  0.
         14    1    1    2    0    0 -0.20476777143E-01 -0.51718297882E-02  0.86712722192E-02  0.22830619514E-01  0.00000000000E+00 0.  1.
     999901    1    3    3    0    0  0.13598652680E+00  0.55825330875E-01 -0.22886408914E-01  0.89248674542E+00  0.88000000000E+00 0. -1.
        -11    1    4    4    0    0 -0.40961994819E-01 -0.90963349498E-02  0.10111516271E-01  0.43164015237E-01  0.51100000000E-03 0.  1.
         11    1    4    4    0    0 -0.74547754839E-01 -0.41557166137E-01  0.41036204231E-02  0.85448619828E-01  0.51100000000E-03 0. -1.
</event>
<event>
 8    1  0.1135368E+005  0.1043930E+01  0.7957747E-01            NaN
         13   -1    0    0    0    0  0.00000000000E+00  0.00000000000E+00  0.74505805969E-08  0.10566000000E+00  0.10566000000E+00 0. -1.
     999900   -1    0    0    0    0 -0.00000000000E+00 -0.00000000000E+00 -0.74505805969E-08  0.93827000000E+00  0.93827000000E+00 0. -1.
     999902    2    1    2    0    0 -0.10996390371E-01  0.20230071289E-01  0.98970049502E-02  0.10188675362E+01  0.10185592419E+01 0.  0.
     999903    2    3    3    0    0 -0.84978421755E-01 -0.20145035425E-01  0.93432566600E-01  0.13090262682E+00  0.27905171372E-01 0.  0.
         14    1    1    2    0    0  0.10996390371E-01 -0.20230071289E-01 -0.98970049502E-02  0.25062463816E-01  0.00000000000E+00 0. -1.
     999901    1    3    3    0    0  0.73982031385E-01  0.40375106715E-01 -0.83535561650E-01  0.88796490937E+00  0.88000000000E+00 0. -1.
        -11    1    4    4    0    0 -0.13731404652E-01 -0.47314060404E-02  0.31605408870E-02  0.14872384360E-01  0.51100000000E-03 0. -1.
         11    1    4    4    0    0 -0.71247017103E-01 -0.15413629385E-01  0.90272025713E-01  0.11603024246E+00  0.51100000000E-03 0.  1.
</event>
<event>
 8    1  0.1135368E+005  0.1043930E+01  0.7957747E-01            NaN
         13   -1    0    0    0    0  0.00000000000E+00  0.00000000000E+00  0.74505805969E-08  0.10566000000E+00  0.10566000000E+00 0.  1.
     999900   -1    0    0    0    0 -0.00000000000E+00 -0.00000000000E+00 -0.74505805969E-08  0.93827000000E+00  0.93827000000E+00 0.  1.
     999902    2    1    2    0    0  0.14067715158E-01  0.75911541134E-02  0.12872624195E-01  0.10234060948E+01  0.10232002757E+01 0.  0.
     999903    2    3    3    0    0 -0.20125348257E-01  0.10090179803E+00 -0.81583254062E-01  0.13278947988E+00  0.19774127926E-01 0.  0.
         14    1    1    2    0    0 -0.14067715158E-01 -0.75911541134E-02 -0.12872624195E-01  0.20523905189E-01  0.00000000000E+00 0. -1.
     999901    1    3    3    0    0  0.34193063415E-01 -0.93310643916E-01  0.94455878257E-01  0.89061661493E+00  0.88000000000E+00 0. -1.
        -11    1    4    4    0    0 -0.22291744979E-01  0.67896056102E-01 -0.59774977394E-01  0.93167083092E-01  0.51100000000E-03 0. -1.
         11    1    4    4    0    0  0.21663967222E-02  0.33005741928E-01 -0.21808276668E-01  0.39622396788E-01  0.51100000000E-03 0.  1.
</event>
<event>
 8    1  0.1135368E+005  0.1043930E+01  0.7957747E-01            NaN
         13   -1    0    0    0    0  0.00000000000E+00  0.00000000000E+00  0.74505805969E-08  0.10566000000E+00  0.10566000000E+00 0.  1.
     999900   -1    0    0    0    0 -0.00000000000E+00 -0.00000000000E+00 -0.74505805969E-08  0.93827000000E+00  0.93827000000E+00 0.  1.
     999902    2    1    2    0    0  0.82297862435E-02  0.23904592535E-02 -0.21434479086E-01  0.10208457939E+01  0.10205847610E+01 0.  0.
     999903    2    3    3    0    0  0.59117087411E-01 -0.10618851145E+00  0.44033106849E-01  0.13030387176E+00  0.16412023338E-01 0.  0.
         14    1    1    2    0    0 -0.82297862435E-02 -0.23904592535E-02  0.21434479086E-01  0.23084206089E-01  0.00000000000E+00 0.  1.
     999901    1    3    3    0    0 -0.50887301168E-01  0.10857897070E+00 -0.65467585936E-01  0.89054192215E+00  0.88000000000E+00 0.  1.
        -11    1    4    4    0    0  0.33594016723E-01 -0.75403004911E-01  0.32066622674E-01  0.88559022804E-01  0.51100000000E-03 0.  1.
         11    1    4    4    0    0  0.25523070688E-01 -0.30785506535E-01  0.11966484175E-01  0.41744848957E-01  0.51100000000E-03 0. -1.
</event>
<event>
 8    1  0.1135368E+005  0.1043930E+01  0.7957747E-01            NaN
         13   -1    0    0    0    0  0.00000000000E+00  0.00000000000E+00  0.74505805969E-08  0.10566000000E+00  0.10566000000E+00 0. -1.
     999900   -1    0    0    0    0 -0.00000000000E+00 -0.00000000000E+00 -0.74505805969E-08  0.93827000000E+00  0.93827000000E+00 0.  1.
     999902    2    1    2    0    0 -0.19891653205E-01 -0.14430265530E-01  0.16907747747E-02  0.10192973154E+01  0.10189996310E+01 0.  0.
     999903    2    3    3    0    0 -0.75006682064E-01  0.87080507129E-01 -0.57108348772E-01  0.12980339171E+00  0.19456102513E-01 0.  0.
         14    1    1    2    0    0  0.19891653205E-01  0.14430265530E-01 -0.16907747747E-02  0.24632684585E-01  0.00000000000E+00 0. -1.
     999901    1    3    3    0    0  0.55115028859E-01 -0.10151077266E+00  0.58799123546E-01  0.88949392370E+00  0.88000000000E+00 0.  1.
        -11    1    4    4    0    0 -0.36351035305E-01  0.44263562924E-01 -0.17742052233E-01  0.59964175213E-01  0.51100000000E-03 0.  1.
         11    1    4    4    0    0 -0.38655646759E-01  0.42816944205E-01 -0.39366296538E-01  0.69839216501E-01  0.51100000000E-03 0. -1.
</event>
<event>
 8    1  0.1135368E+005  0.1043930E+01  0.7957747E-01            NaN
         13   -1    0    0    0    0  0.00000000000E+00  0.00000000000E+00  0.74505805969E-08  0.10566000000E+00  0.10566000000E+00 0.  1.
     999900   -1    0    0    0    0 -0.00000000000E+00 -0.00000000000E+00 -0.74505805969E-08  0.93827000000E+00  0.93827000000E+00 0.  1.
     999902    2    1    2    0    0  0.19502031069E-01  0.70196411404E-03 -0.13134564222E-01  0.10204068466E+01  0.10201356742E+01 0.  0.
     999903    2    3    3    0    0 -0.47630037556E-01 -0.10601965568E+00 -0.55686137552E-01  0.13040299538E+00  0.19879824451E-01 0.  0.
         14    1    1    2    0    0 -0.19502031069E-01 -0.70196411404E-03  0.13134564222E-01  0.23523153418E-01  0.00000000000E+00 0.  1.
     999901    1    3    3    0    0  0.67132068625E-01  0.10672161979E+00  0.42551573330E-01  0.89000385121E+00  0.88000000000E+00 0. -1.
        -11    1    4    4    0    0 -0.31922202887E-01 -0.60796554160E-01 -0.22942866250E-01  0.72400858197E-01  0.51100000000E-03 0.  1.
         11    1    4    4    0    0 -0.15707834669E-01 -0.45223101517E-01 -0.32743271302E-01  0.58002137179E-01  0.51100000000E-03 0. -1.
</event>
<event>
 8    1  0.1135368E+005  0.1043930E+01  0.7957747E-01            NaN
         13   -1    0    0    0    0  0.00000000000E+00  0.00000000000E+00  0.74505805969E-08  0.10566000000E+00  0.10566000000E+00 0.  1.
     999900   -1    0    0    0    0 -0.00000000000E+00 -0.00000000000E+00 -0.74505805969E-08  0.93827000000E+00  0.93827000000E+00 0.  1.
     999902    2    1    2    0    0  0.23693133535E-01 -0.59254853357E-02  0.37822104464E-02  0.10192160147E+01  0.10189163379E+01 0.  0.
     999903    2    3    3    0    0 -0.10765327068E+00 -0.62720686432E-01  0.16637640529E-01  0.12756426943E+00  0.21742137858E-01 0.  0.
         14    1    1    2    0    0 -0.23693133535E-01  0.59254853357E-02 -0.37822104464E-02  0.24713985292E-01  0.00000000000E+00 0. -1.
     999901    1    3    3    0    0  0.13134640422E+00  0.56795201096E-01 -0.12855430082E-01  0.89165174527E+00  0.88000000000E+00 0.  1.
        -11    1    4    4    0    0 -0.21149069662E-01 -0.10714249129E-01 -0.52390573835E-02  0.24285533250E-01  0.51100000000E-03 0.  1.
         11    1    4    4    0    0 -0.86504201020E-01 -0.52006437303E-01  0.21876697912E-01  0.10327873618E+00  0.51100000000E-03 0. -1.
</event>
<event>
 8    1  0.1135368E+005  0.1043930E+01  0.7957747E-01            NaN
         13   -1    0    0    0    0  0.00000000000E+00  0.00000000000E+00  0.74505805969E-08  0.10566000000E+00  0.10566000000E+00 0. -1.
     999900   -1    0    0    0    0 -0.00000000000E+00 -0.00000000000E+00 -0.74505805969E-08  0.93827000000E+00  0.93827000000E+00 0.  1.
     999902    2    1    2    0    0  0.49648234011E-02  0.94379524264E-02 -0.18150536182E-01  0.10228784827E+01  0.10226618327E+01 0.  0.
     999903    2    3    3    0    0  0.61514223513E-02 -0.12972057689E+00  0.43217755984E-02  0.13165936872E+00  0.21218943509E-01 0.  0.
         14    1    1    2    0    0 -0.49648234011E-02 -0.94379524264E-02  0.18150536182E-01  0.21051517311E-01  0.00000000000E+00 0. -1.
     999901    1    3    3    0    0 -0.11865989503E-02  0.13915852931E+00 -0.22472311781E-01  0.89121911396E+00  0.88000000000E+00 0.  1.
        -11    1    4    4    0    0  0.10274382705E-01 -0.72393066624E-01 -0.55878965001E-02  0.73333517191E-01  0.51100000000E-03 0.  1.
         11    1    4    4    0    0 -0.41229603537E-02 -0.57327510263E-01  0.99096720985E-02  0.58325851534E-01  0.51100000000E-03 0. -1.
</event>
<event>
 8    1  0.1135368E+005  0.1043930E+01  0.7957747E-01            NaN
         13   -1    0    0    0    0  0.00000000000E+00  0.00000000000E+00  0.74505805969E-08  0.10566000000E+00  0.10566000000E+00 0.  1.
     999900   -1    0    0    0    0 -0.00000000000E+00 -0.00000000000E+00 -0.74505805969E-08  0.93827000000E+00  0.93827000000E+00 0.  1.
     999902    2    1    2    0    0  0.22714980896E-02  0.23539681054E-01 -0.23962926328E-02  0.10201598821E+01  0.10198829180E+01 0.  0.
     999903    2    3    3    0    0  0.85142345074E-01 -0.65885216814E-01  0.68170001008E-01  0.12895620646E+00  0.19810942112E-01 0.  0.
         14    1    1    2    0    0 -0.22714980896E-02 -0.23539681054E-01  0.23962926328E-02  0.23770117923E-01  0.00000000000E+00 0.  1.
     999901    1    3    3    0    0 -0.82870846984E-01  0.89424897868E-01 -0.70566293641E-01  0.89120367562E+00  0.88000000000E+00 0.  1.
        -11    1    4    4    0    0  0.48400651050E-01 -0.29658231436E-01  0.26580783145E-01  0.62681997954E-01  0.51100000000E-03 0.  1.
         11    1    4    4    0    0  0.36741694024E-01 -0.36226985378E-01  0.41589217863E-01  0.66274208504E-01  0.51100000000E-03 0. -1.
</event>
<event>
 8    1  0.1135368E+005  0.1043930E+01  0.7957747E-01            NaN
         13   -1    0    0    0    0  0.00000000000E+00  0.00000000000E+00  0.74505805969E-08  0.10566000000E+00  0.10566000000E+00 0. -1.
     999900   -1    0    0    0    0 -0.00000000000E+00 -0.00000000000E+00 -0.74505805969E-08  0.93827000000E+00  0.93827000000E+00 0. -1.
     999902    2    1    2    0    0  0.18996398946E-01 -0.13236001226E-01  0.76371220599E-02  0.10195500793E+01  0.10192585460E+01 0.  0.
     999903    2    3    3    0    0 -0.37323139984E-01  0.11057110331E+00  0.49100499552E-01  0.12813586507E+00  0.19721947088E-01 0.  0.
         14    1    1    2    0    0 -0.18996398946E-01  0.13236001226E-01 -0.76371220599E-02  0.24379920729E-01  0.00000000000E+00 0. -1.
     999901    1    3    3    0    0  0.56319538930E-01 -0.12380710454E+00 -0.41463377492E-01  0.89141421420E+00  0.88000000000E+00 0. -1.
        -11    1    4    4    0    0 -0.64913595557E-02  0.23678842196E-01  0.21041687785E-02  0.24647798357E-01  0.51100000000E-03 0. -1.
         11    1    4    4    0    0 -0.30831780428E-01  0.86892261114E-01  0.46996330773E-01  0.10348806672E+00  0.51100000000E-03 0.  1.
</event>
<event>
 8    1  0.1135368E+005  0.1043930E+01  0.7957747E-01            NaN
         13   -1    0    0    0    0  0.00000000000E+00  0.00000000000E+00  0.74505805969E-08  0.10566000000E+00  0.10566000000E+00 0.  1.
     999900   -1    0    0    0    0 -0.00000000000E+00 -0.00000000000E+00 -0.74505805969E-08  0.93827000000E+00  0.93827000000E+00 0.  1.
     999902    2    1    2    0    0 -0.18756936809E-01 -0.72724126828E-02 -0.15423591523E-01  0.10185804864E+01  0.10182649996E+01 0.  0.
     999903    2    3    3    0    0  0.10394437846E+00  0.38346671941E-01  0.56441870868E-01  0.12599919691E+00  0.20376745885E-01 0.  0.
         14    1    1    2    0    0  0.18756936809E-01  0.72724126828E-02  0.15423591523E-01  0.25349513608E-01  0.00000000000E+00 0.  1.
     999901    1    3    3    0    0 -0.12270131527E+00 -0.45619084624E-01 -0.71865462391E-01  0.89258128948E+00  0.88000000000E+00 0.  1.
        -11    1    4    4    0    0  0.78647310747E-01  0.33881750534E-01  0.51205291609E-01  0.99777830788E-01  0.51100000000E-03 0.  1.
         11    1    4    4    0    0  0.25297067711E-01  0.44649214068E-02  0.52365792586E-02  0.26221366122E-01  0.51100000000E-03 0. -1.
</event>
<event>
 8    1  0.1135368E+005  0.1043930E+01  0.7957747E-01            NaN
         13   -1    0    0    0    0  0.00000000000E+00  0.00000000000E+00  0.74505805969E-08  0.10566000000E+00  0.10566000000E+00 0.  1.
     999900   -1    0    0    0    0 -0.00000000000E+00 -0.00000000000E+00 -0.74505805969E-08  0.93827000000E+00  0.93827000000E+00 0.  1.
     999902    2    1    2    0    0 -0.69897737796E-02  0.10998332694E-01  0.18536658091E-01  0.10212710514E+01  0.10210196533E+01 0.  0.
     999903    2    3    3    0    0 -0.35655772497E-01  0.12248755986E+00  0.34501756414E-01  0.13363009264E+00  0.19801364395E-01 0.  0.
         14    1    1    2    0    0  0.69897737796E-02 -0.10998332694E-01 -0.18536658091E-01  0.22658948623E-01  0.00000000000E+00 0. -1.
     999901    1    3    3    0    0  0.28665998718E-01 -0.11148922716E+00 -0.15965098323E-01  0.88764095873E+00  0.88000000000E+00 0.  1.
        -11    1    4    4    0    0 -0.29305382339E-01  0.79893758084E-01  0.30401385962E-01  0.90367712178E-01  0.51100000000E-03 0.  1.
         11    1    4    4    0    0 -0.63503901582E-02  0.42593801774E-01  0.41003704527E-02  0.43262380466E-01  0.51100000000E-03 0. -1.
</event>
<event>
 8    1  0.1135368E+005  0.1043930E+01  0.7957747E-01            NaN
         13   -1    0    0    0    0  0.00000000000E+00  0.00000000000E+00  0.74505805969E-08  0.10566000000E+00  0.10566000000E+00 0.  1.
     999900   -1    0    0    0    0 -0.00000000000E+00 -0.00000000000E+00 -0.74505805969E-08  0.93827000000E+00  0.93827000000E+00 0.  1.
     999902    2    1    2    0    0  0.19108936014E-01  0.18856789371E-02 -0.13937804179E-01  0.10202030195E+01  0.10199270716E+01 0.  0.
     999903    2    3    3    0    0  0.32556450509E-02 -0.12621236509E+00  0.24032243901E-01  0.12997711539E+00  0.19399521924E-01 0.  0.
         14    1    1    2    0    0 -0.19108936014E-01 -0.18856789371E-02  0.13937804179E-01  0.23726980549E-01  0.00000000000E+00 0.  1.
     999901    1    3    3    0    0  0.15853290963E-01  0.12809804403E+00 -0.37970048080E-01  0.89022590407E+00  0.88000000000E+00 0.  1.
        -11    1    4    4    0    0 -0.69464149586E-02 -0.26203338006E-01  0.30808637541E-02  0.27287734349E-01  0.51100000000E-03 0. -1.
         11    1    4    4    0    0  0.10202060009E-01 -0.10000902708E+00  0.20951380147E-01  0.10268938104E+00  0.51100000000E-03 0.  1.
</event>
<event>
 8    1  0.1135368E+005  0.1043930E+01  0.7957747E-01            NaN
         13   -1    0    0    0    0  0.00000000000E+00  0.00000000000E+00  0.74505805969E-08  0.10566000000E+00  0.10566000000E+00 0.  1.
     999900   -1    0    0    0    0 -0.00000000000E+00 -0.00000000000E+00 -0.74505805969E-08  0.93827000000E+00  0.93827000000E+00 0.  1.
     999902    2    1    2    0    0  0.20782516990E-01 -0.51465021474E-02 -0.84363808604E-02  0.10209175682E+01  0.10206581744E+01 0.  0.
     999903    2    3    3    0    0 -0.25895433346E-01 -0.70911165380E-01 -0.10622177447E+00  0.13183612916E+00  0.19968293286E-01 0.  0.
         14    1    1    2    0    0 -0.20782516990E-01  0.51465021474E-02  0.84363808604E-02  0.23012431832E-01  0.00000000000E+00 0.  1.
     999901    1    3    3    0    0  0.46677950335E-01  0.65764663232E-01  0.97785393614E-01  0.88908143900E+00  0.88000000000E+00 0. -1.
        -11    1    4    4    0    0 -0.20718821000E-01 -0.44043058760E-01 -0.52805882697E-01  0.71817706292E-01  0.51100000000E-03 0.  1.
         11    1    4    4    0    0 -0.51766123456E-02 -0.26868106619E-01 -0.53415891778E-01  0.60018422873E-01  0.51100000000E-03 0. -1.
</event>
<event>
 8    1  0.1135368E+005  0.1043930E+01  0.7957747E-01            NaN
         13   -1    0    0    0    0  0.00000000000E+00  0.00000000000E+00  0.74505805969E-08  0.10566000000E+00  0.10566000000E+00 0. -1.
     999900   -1    0    0    0    0 -0.00000000000E+00 -0.00000000000E+00 -0.74505805969E-08  0.93827000000E+00  0.93827000000E+00 0. -1.
     999902    2    1    2    0    0 -0.16325120366E-01 -0.12576496929E-01  0.11914601046E-01  0.10201258922E+01  0.10198481261E+01 0.  0.
     999903    2    3    3    0    0 -0.86179047569E-01  0.44990198466E-01  0.87552855930E-01  0.13225504508E+00  0.19363578445E-01 0.  0.
         14    1    1    2    0    0  0.16325120366E-01  0.12576496929E-01 -0.11914601046E-01  0.23804107798E-01  0.00000000000E+00 0.  1.
     999901    1    3    3    0    0  0.69853927202E-01 -0.57566695395E-01 -0.75638254884E-01  0.88787084712E+00  0.88000000000E+00 0. -1.
        -11    1    4    4    0    0 -0.54356353961E-01  0.33398020322E-01  0.67559063629E-01  0.92922167306E-01  0.51100000000E-03 0. -1.
         11    1    4    4    0    0 -0.31822693607E-01  0.11592178144E-01  0.19993792301E-01  0.39332877776E-01  0.51100000000E-03 0.  1.
</event>
<event>
 8    1  0.1135368E+005  0.1043930E+01  0.7957747E-01            NaN
         13   -1    0    0    0    0  0.00000000000E+00  0.00000000000E+00  0.74505805969E-08  0.10566000000E+00  0.10566000000E+00 0.  1.
     999900   -1    0    0    0    0 -0.00000000000E+00 -0.00000000000E+00 -0.74505805969E-08  0.93827000000E+00  0.93827000000E+00 0. -1.
     999902    2    1    2    0    0  0.14574385871E-01 -0.49995914452E-02  0.16860423599E-01  0.10210896296E+01  0.10208341438E+01 0.  0.
     999903    2    3    3    0    0 -0.48445694767E-01  0.74244507642E-02 -0.11723476817E+00  0.12861699253E+00  0.19905579320E-01 0.  0.
         14    1    1    2    0    0 -0.14574385871E-01  0.49995914452E-02 -0.16860423599E-01  0.22840370445E-01  0.00000000000E+00 0. -1.
     999901    1    3    3    0    0  0.63020080638E-01 -0.12424042209E-01  0.13409519177E+00  0.89247263703E+00  0.88000000000E+00 0.  1.
        -11    1    4    4    0    0 -0.27581493300E-01 -0.10035386774E-02 -0.84469455663E-01  0.88865605965E-01  0.51100000000E-03 0. -1.
         11    1    4    4    0    0 -0.20864201466E-01  0.84279894417E-02 -0.32765312508E-01  0.39751386562E-01  0.51100000000E-03 0.  1.
</event>
<event>
 8    1  0.1135368E+005  0.1043930E+01  0.7957747E-01            NaN
         13   -1    0    0    0    0  0.00000000000E+00  0.00000000000E+00  0.74505805969E-08  0.10566000000E+00  0.10566000000E+00 0.  1.
     999900   -1    0    0    0    0 -0.00000000000E+00 -0.00000000000E+00 -0.74505805969E-08  0.93827000000E+00  0.93827000000E+00 0. -1.
     999902    2    1    2    0    0  0.49038316906E-02 -0.22765232712E-01 -0.66169471967E-02  0.10197207585E+01  0.10194333415E+01 0.  0.
     999903    2    3    3    0    0  0.72991973605E-01  0.43516025683E-01  0.94757170732E-01  0.12881901749E+00  0.19848051777E-01 0.  0.
         14    1    1    2    0    0 -0.49038316906E-02  0.22765232712E-01  0.66169471967E-02  0.24209241539E-01  0.00000000000E+00 0.  1.
     999901    1    3    3    0    0 -0.68088141914E-01 -0.66281258395E-01 -0.10137411793E+00  0.89090174097E+00  0.88000000000E+00 0. -1.
        -11    1    4    4    0    0  0.21771614135E-01  0.78479393041E-02  0.37771574698E-01  0.44300635543E-01  0.51100000000E-03 0.  1.
         11    1    4    4    0    0  0.51220359469E-01  0.35668086379E-01  0.56985596034E-01  0.84518381944E-01  0.51100000000E-03 0. -1.
</event>
<event>
 8    1  0.1135368E+005  0.1043930E+01  0.7957747E-01            NaN
         13   -1    0    0    0    0  0.00000000000E+00  0.00000000000E+00  0.74505805969E-08  0.10566000000E+00  0.10566000000E+00 0. -1.
     999900   -1    0    0    0    0 -0.00000000000E+00 -0.00000000000E+00 -0.74505805969E-08  0.93827000000E+00  0.93827000000E+00 0.  1.
     999902    2    1    2    0    0  0.12227118579E-01  0.12850221453E-01  0.16819175867E-01  0.10194858740E+01  0.10191927845E+01 0.  0.
     999903    2    3    3    0    0 -0.36188418580E-01  0.97308940171E-01 -0.75366580749E-01  0.12933108231E+00  0.16363858999E-01 0.  0.
         14    1    1    2    0    0 -0.12227118579E-01 -0.12850221453E-01 -0.16819175867E-01  0.24444126022E-01  0.00000000000E+00 0.  1.
     999901    1    3    3    0    0  0.48415537159E-01 -0.84458718717E-01  0.92185756616E-01  0.89015479167E+00  0.88000000000E+00 0. -1.
        -11    1    4    4    0    0 -0.26093177853E-01  0.49596028618E-01 -0.35523881098E-01  0.66353803466E-01  0.51100000000E-03 0. -1.
         11    1    4    4    0    0 -0.10095240727E-01  0.47712911553E-01 -0.39842699651E-01  0.62977278844E-01  0.51100000000E-03 0.  1.
</event>
<event>
 8    1  0.1135368E+005  0.1043930E+01  0.7957747E-01            NaN
         13   -1    0    0    0    0  0.00000000000E+00  0.00000000000E+00  0.74505805969E-08  0.10566000000E+00  0.10566000000E+00 0.  1.
     999900   -1    0    0    0    0 -0.00000000000E+00 -0.00000000000E+00 -0.74505805969E-08  0.93827000000E+00  0.93827000000E+00 0.  1.
     999902    2    1    2    0    0  0.13561607702E-01 -0.72767105907E-02  0.16292225938E-01  0.10215178527E+01  0.10212719614E+01 0.  0.
     999903    2    3    3    0    0 -0.17200830570E-01 -0.36088931093E-01  0.12607268283E+00  0.13369567435E+00  0.19543092516E-01 0.  0.
         14    1    1    2    0    0 -0.13561607702E-01  0.72767105907E-02 -0.16292225938E-01  0.22412147298E-01  0.00000000000E+00 0. -1.
     999901    1    3    3    0    0  0.30762438272E-01  0.28812220502E-01 -0.10978045689E+00  0.88782217835E+00  0.88000000000E+00 0.  1.
        -11    1    4    4    0    0 -0.11105452333E-01 -0.36484778665E-01  0.10344340440E+00  0.11025093732E+00  0.51100000000E-03 0. -1.
         11    1    4    4    0    0 -0.60953782367E-02  0.39584757202E-03  0.22629278429E-01  0.23444737030E-01  0.51100000000E-03 0.  1.
</event>
<event>
 8    1  0.1135368E+005  0.1043930E+01  0.7957747E-01            NaN
         13   -1    0    0    0    0  0.00000000000E+00  0.00000000000E+00  0.74505805969E-08  0.10566000000E+00  0.10566000000E+00 0.  1.
     999900   -1    0    0    0    0 -0.00000000000E+00 -0.00000000000E+00 -0.74505805969E-08  0.93827000000E+00  0.93827000000E+00 0.  1.
     999902    2    1    2    0    0  0.19071894972E-01 -0.13048175079E-01  0.57674797288E-02  0.10201128660E+01  0.10198347922E+01 0.  0.
     999903    2    3    3    0    0 -0.11285851981E+00 -0.33649721244E-01 -0.47571678921E-01  0.12844301458E+00  0.19110052973E-01 0.  0.
         14    1    1    2    0    0 -0.19071894972E-01  0.13048175079E-01 -0.57674797288E-02  0.23817134024E-01  0.00000000000E+00 0. -1.
     999901    1    3    3    0    0  0.13193041478E+00  0.20601546165E-01  0.53339158650E-01  0.89166985140E+00  0.88000000000E+00 0.  1.
        -11    1    4    4    0    0 -0.41807801986E-01 -0.19740398705E-01 -0.25233192574E-01  0.52674004750E-01  0.51100000000E-03 0. -1.
         11    1    4    4    0    0 -0.71050717824E-01 -0.13909322539E-01 -0.22338486347E-01  0.75769009826E-01  0.51100000000E-03 0.  1.
</event>
<event>
 8    1  0.1135368E+005  0.1043930E+01  0.7957747E-01            NaN
         13   -1    0    0    0    0  0.00000000000E+00  0.00000000000E+00  0.74505805969E-08  0.10566000000E+00  0.10566000000E+00 0. -1.
     999900   -1    0    0    0    0 -0.00000000000E+00 -0.00000000000E+00 -0.74505805969E-08  0.93827000000E+00  0.93827000000E+00 0.  1.
     999902    2    1    2    0    0 -0.21069336171E-01 -0.32474340317E-03 -0.11298701721E-01  0.10200201057E+01  0.10197398359E+01 0.  0.
     999903    2    3    3    0    0  0.10158563613E+00  0.12425884971E-01  0.72202869147E-01  0.12750717409E+00  0.23891024377E-01 0.  0.
         14    1    1    2    0    0  0.21069336171E-01  0.32474340317E-03  0.11298701721E-01  0.23909894302E-01  0.00000000000E+00 0. -1.
     999901    1    3    3    0    0 -0.12265497230E+00 -0.12750628375E-01 -0.83501570868E-01  0.89251293161E+00  0.88000000000E+00 0.  1.
        -11    1    4    4    0    0  0.36360922552E-01 -0.69240315366E-02  0.27134612627E-01  0.45897791069E-01  0.51100000000E-03 0.  1.
         11    1    4    4    0    0  0.65224713576E-01  0.19349916508E-01  0.45068256520E-01  0.81609383019E-01  0.51100000000E-03 0. -1.
</event>
<event>
 8    1  0.1135368E+005  0.1043930E+01  0.7957747E-01            NaN
         13   -1    0    0    0    0  0.00000000000E+00  0.00000000000E+00  0.74505805969E-08  0.10566000000E+00  0.10566000000E+00 0. -1.
     999900   -1    0    0    0    0 -0.00000000000E+00 -0.00000000000E+00 -0.74505805969E-08  0.93827000000E+00  0.93827000000E+00 0. -1.
     999902    2    1    2    0    0  0.22867743487E-01  0.35897997682E-02  0.50541456683E-03  0.10207766893E+01  0.10205140732E+01 0.  0.
     999903    2    3    3    0    0 -0.23888069202E-01 -0.87928201991E-01  0.90768613103E-01  0.13020996201E+00  0.20339236130E-01 0.  0.
         14    1    1    2    0    0 -0.22867743487E-01 -0.35897997682E-02 -0.50541456683E-03  0.23153310745E-01  0.00000000000E+00 0.  1.
     999901    1    3    3    0    0  0.46755812688E-01  0.91518001760E-01 -0.90263198536E-01  0.89056672725E+00  0.88000000000E+00 0. -1.
        -11    1    4    4    0    0 -0.91428053554E-02 -0.62209258014E-01  0.53310424072E-01  0.82436915931E-01  0.51100000000E-03 0.  1.
         11    1    4    4    0    0 -0.14745263846E-01 -0.25718943977E-01  0.37458189031E-01  0.47773046079E-01  0.51100000000E-03 0. -1.
</event>
<event>
 8    1  0.1135368E+005  0.1043930E+01  0.7957747E-01            NaN
         13   -1    0    0    0    0  0.00000000000E+00  0.00000000000E+00  0.74505805969E-08  0.10566000000E+00  0.10566000000E+00 0. -1.
     999900   -1    0    0    0    0 -0.00000000000E+00 -0.00000000000E+00 -0.74505805969E-08  0.93827000000E+00  0.93827000000E+00 0.  1.
     999902    2    1    2    0    0 -0.22587912903E-02 -0.74130009582E-02 -0.13742156012E-01  0.10281533852E+01  0.10280323351E+01 0.  0.
     999903    2    3    3    0    0  0.13352247047E+00 -0.23505429735E-01  0.94590514629E-02  0.13729210910E+00  0.19465205310E-01 0.  0.
         14    1    1    2    0    0  0.22587912903E-02  0.74130009582E-02  0.13742156012E-01  0.15776614756E-01  0.00000000000E+00 0. -1.
     999901    1    3    3    0    0 -0.13578126176E+00  0.16092428777E-01 -0.23201207475E-01  0.89086127615E+00  0.88000000000E+00 0.  1.
        -11    1    4    4    0    0  0.17734383427E-01 -0.36528333840E-02  0.80061692027E-02  0.19804328152E-01  0.51100000000E-03 0.  1.
         11    1    4    4    0    0  0.11578808705E+00 -0.19852596351E-01  0.14528822602E-02  0.11748778095E+00  0.51100000000E-03 0. -1.
</event>
<event>
 8    1  0.1135368E+005  0.1043930E+01  0.7957747E-01            NaN
         13   -1    0    0    0    0  0.00000000000E+00  0.00000000000E+00  0.74505805969E-08  0.10566000000E+00  0.10566000000E+00 0.  1.
     999900   -1    0    0    0    0 -0.00000000000E+00 -0.00000000000E+00 -0.74505805969E-08  0.93827000000E+00  0.93827000000E+00 0. -1.
     999902    2    1    2    0    0 -0.17069680588E-01  0.11721631972E-01 -0.16276165153E-02  0.10231593528E+01  0.10229485038E+01 0.  0.
     999903    2    3    3    0    0 -0.90741769847E-01 -0.73699367517E-01  0.61430774710E-01  0.13372094309E+00  0.21021060178E-01 0.  0.
         14    1    1    2    0    0  0.17069680588E-01 -0.11721631972E-01  0.16276165153E-02  0.20770647245E-01  0.00000000000E+00 0. -1.
     999901    1    3    3    0    0  0.73672089259E-01  0.85420999489E-01 -0.63058391225E-01  0.88943840967E+00  0.88000000000E+00 0. -1.
        -11    1    4    4    0    0 -0.29260096174E-01 -0.11872868358E-01  0.16361876952E-01  0.35568108884E-01  0.51100000000E-03 0. -1.
         11    1    4    4    0    0 -0.61481673673E-01 -0.61826499159E-01  0.45068897758E-01  0.98152834203E-01  0.51100000000E-03 0.  1.
</event>
<event>
 8    1  0.1135368E+005  0.1043930E+01  0.7957747E-01            NaN
         13   -1    0    0    0    0  0.00000000000E+00  0.00000000000E+00  0.74505805969E-08  0.10566000000E+00  0.10566000000E+00 0. -1.
     999900   -1    0    0    0    0 -0.00000000000E+00 -0.00000000000E+00 -0.74505805969E-08  0.93827000000E+00  0.93827000000E+00 0. -1.
     999902    2    1    2    0    0 -0.18623138833E-01 -0.15419576231E-01 -0.46061432138E-03  0.10197474278E+01  0.10194606514E+01 0.  0.
     999903    2    3    3    0    0  0.26568266633E-01 -0.81967424984E-01  0.95780604331E-01  0.13085302945E+00  0.22892348080E-01 0.  0.
         14    1    1    2    0    0  0.18623138833E-01  0.15419576231E-01  0.46061432138E-03  0.24182572168E-01  0.00000000000E+00 0. -1.
     999901    1    3    3    0    0 -0.45191405466E-01  0.66547848753E-01 -0.96241218652E-01  0.88889439838E+00  0.88000000000E+00 0. -1.
        -11    1    4    4    0    0  0.23244780910E-01 -0.79898330928E-01  0.95814865123E-01  0.12690473838E+00  0.51100000000E-03 0.  1.
         11    1    4    4    0    0  0.33234857231E-02 -0.20690940554E-02 -0.34260792606E-04  0.39482910688E-02  0.51100000000E-03 0. -1.
</event>
<event>
 8    1  0.1135368E+005  0.1043930E+01  0.7957747E-01            NaN
         13   -1    0    0    0    0  0.00000000000E+00  0.00000000000E+00  0.74505805969E-08  0.10566000000E+00  0.10566000000E+00 0. -1.
     999900   -1    0    0    0    0 -0.00000000000E+00 -0.00000000000E+00 -0.74505805969E-08  0.93827000000E+00  0.93827000000E+00 0.  1.
     999902    2    1    2    0    0  0.13859942359E-01  0.18498795638E-01 -0.13113260560E-01  0.10173544277E+01  0.10170072617E+01 0.  0.
     999903    2    3    3    0    0  0.29190636169E-01  0.28976201483E-01 -0.12222947499E+00  0.13042085944E+00  0.19438171899E-01 0.  0.
         14    1    1    2    0    0 -0.13859942359E-01 -0.18498795638E-01  0.13113260560E-01  0.26575572331E-01  0.00000000000E+00 0. -1.
     999901    1    3    3    0    0 -0.15330693811E-01 -0.10477405845E-01  0.10911621443E+00  0.88693356823E+00  0.88000000000E+00 0. -1.
        -11    1    4    4    0    0 -0.50666510120E-04  0.10779076419E-01 -0.35420490863E-01  0.37027872603E-01  0.51100000000E-03 0.  1.
         11    1    4    4    0    0  0.29241302679E-01  0.18197125064E-01 -0.86808984129E-01  0.93392986833E-01  0.51100000000E-03 0. -1.
</event>
<event>
 8    1  0.1135368E+005  0.1043930E+01  0.7957747E-01            NaN
         13   -1    0    0    0    0  0.00000000000E+00  0.00000000000E+00  0.74505805969E-08  0.10566000000E+00  0.10566000000E+00 0.  1.
     999900   -1    0    0    0    0 -0.00000000000E+00 -0.00000000000E+00 -0.74505805969E-08  0.93827000000E+00  0.93827000000E+00 0. -1.
     999902    2    1    2    0    0 -0.21583082913E-01 -0.17811196785E-02 -0.90982787952E-02  0.10204399908E+01  0.10201695909E+01 0.  0.
     999903    2    3    3    0    0 -0.82663278835E-02  0.11851311462E+00 -0.51617166187E-01  0.13113920110E+00  0.20480910805E-01 0.  0.
         14    1    1    2    0    0  0.21583082913E-01  0.17811196785E-02  0.90982787952E-02  0.23490009203E-01  0.00000000000E+00 0.  1.
     999901    1    3    3    0    0 -0.13316755029E-01 -0.12029423430E+00  0.42518887392E-01  0.88930078970E+00  0.88000000000E+00 0.  1.
        -11    1    4    4    0    0 -0.74194226704E-02  0.43120820241E-01 -0.95078241860E-02  0.44778486048E-01  0.51100000000E-03 0. -1.
         11    1    4    4    0    0 -0.84690521315E-03  0.75392294376E-01 -0.42109342001E-01  0.86360715053E-01  0.51100000000E-03 0.  1.
</event>
<event>
 8    1  0.1135368E+005  0.1043930E+01  0.7957747E-01            NaN
         13   -1    0    0    0    0  0.00000000000E+00  0.00000000000E+00  0.74505805969E-08  0.10566000000E+00  0.10566000000E+00 0. -1.
     999900   -1    0    0    0    0 -0.00000000000E+00 -0.00000000000E+00 -0.74505805969E-08  0.93827000000E+00  0.93827000000E+00 0. -1.
     999902    2    1    2    0    0 -0.85910769500E-03 -0.23531068172E-01  0.20381146815E-02  0.10202952132E+01  0.10200214306E+01 0.  0.
     999903    2    3    3    0    0 -0.62886600743E-01  0.10330840178E+00  0.37586567092E-01  0.12833145077E+00  0.20708954576E-01 0.  0.
         14    1    1    2    0    0  0.85910769500E-03  0.23531068172E-01 -0.20381146815E-02  0.23634786794E-01  0.00000000000E+00 0.  1.
     999901    1    3    3    0    0  0.62027493048E-01 -0.12683946995E+00 -0.35548452411E-01  0.89196376244E+00  0.88000000000E+00 0. -1.
        -11    1    4    4    0    0 -0.45063648352E-01  0.56676328466E-01  0.17337280291E-01  0.74456571369E-01  0.51100000000E-03 0. -1.
         11    1    4    4    0    0 -0.17822952391E-01  0.46632073313E-01  0.20249286801E-01  0.53874879400E-01  0.51100000000E-03 0.  1.
</event>
<event>
 8    1  0.1135368E+005  0.1043930E+01  0.7957747E-01            NaN
         13   -1    0    0    0    0  0.00000000000E+00  0.00000000000E+00  0.74505805969E-08  0.10566000000E+00  0.10566000000E+00 0.  1.
     999900   -1    0    0    0    0 -0.00000000000E+00 -0.00000000000E+00 -0.74505805969E-08  0.93827000000E+00  0.93827000000E+00 0.  1.
     999902    2    1    2    0    0  0.63893087995E-02 -0.70090812894E-02  0.19864865824E-01  0.10219171996E+01  0.10216800866E+01 0.  0.
     999903    2    3    3    0    0 -0.78531143407E-01  0.49198193586E-01 -0.88205595699E-01  0.12947674466E+00  0.19909735267E-01 0.  0.
         14    1    1    2    0    0 -0.63893087995E-02  0.70090812894E-02 -0.19864865824E-01  0.22012800404E-01  0.00000000000E+00 0. -1.
     999901    1    3    3    0    0  0.84920452206E-01 -0.56207274875E-01  0.10807046152E+00  0.89244045494E+00  0.88000000000E+00 0. -1.
        -11    1    4    4    0    0 -0.47241406608E-01  0.30960016125E-01 -0.66496081993E-01  0.87248284443E-01  0.51100000000E-03 0. -1.
         11    1    4    4    0    0 -0.31289736798E-01  0.18238177461E-01 -0.21709513706E-01  0.42228460218E-01  0.51100000000E-03 0.  1.
</event>
<event>
 8    1  0.1135368E+005  0.1043930E+01  0.7957747E-01            NaN
         13   -1    0    0    0    0  0.00000000000E+00  0.00000000000E+00  0.74505805969E-08  0.10566000000E+00  0.10566000000E+00 0.  1.
     999900   -1    0    0    0    0 -0.00000000000E+00 -0.00000000000E+00 -0.74505805969E-08  0.93827000000E+00  0.93827000000E+00 0.  1.
     999902    2    1    2    0    0 -0.35920019079E-02 -0.20815558889E-01 -0.12494037755E-01  0.10193883833E+01  0.10190929227E+01 0.  0.
     999903    2    3    3    0    0 -0.12354182383E+00  0.61209894494E-02 -0.36163420897E-01  0.13052743969E+00  0.20726088747E-01 0.  0.
         14    1    1    2    0    0  0.35920019079E-02  0.20815558889E-01  0.12494037755E-01  0.24541616674E-01  0.00000000000E+00 0. -1.
     999901    1    3    3    0    0  0.11994982192E+00 -0.26936548338E-01  0.23669383142E-01  0.88886094363E+00  0.88000000000E+00 0. -1.
        -11    1    4    4    0    0 -0.36850437109E-01  0.11364608775E-01 -0.11148186858E-01  0.40145388763E-01  0.51100000000E-03 0.  1.
         11    1    4    4    0    0 -0.86691386722E-01 -0.52436193255E-02 -0.25015234039E-01  0.90382050931E-01  0.51100000000E-03 0. -1.
</event>
<event>
 8    1  0.1135368E+005  0.1043930E+01  0.7957747E-01            NaN
         13   -1    0    0    0    0  0.00000000000E+00  0.00000000000E+00  0.74505805969E-08  0.10566000000E+00  0.10566000000E+00 0. -1.
     999900   -1    0    0    0    0 -0.00000000000E+00 -0.00000000000E+00 -0.74505805969E-08  0.93827000000E+00  0.93827000000E+00 0. -1.
     999902    2    1    2    0    0  0.89338548158E-02 -0.18925289701E-01 -0.98376318489E-02  0.10208051356E+01  0.10205431718E+01 0.  0.
     999903    2    3    3    0    0 -0.82289439028E-01 -0.92896386072E-01 -0.41822451729E-01  0.13242658954E+00  0.19656902793E-01 0.  0.
         14    1    1    2    0    0 -0.89338548158E-02  0.18925289701E-01  0.98376318489E-02  0.23124864378E-01  0.00000000000E+00 0. -1.
     999901    1    3    3    0    0  0.91223293844E-01  0.73971096371E-01  0.31984819880E-01  0.88837854608E+00  0.88000000000E+00 0.  1.
        -11    1    4    4    0    0 -0.12334800381E-01 -0.64799508970E-02 -0.86177610930E-02  0.16390972861E-01  0.51100000000E-03 0. -1.
         11    1    4    4    0    0 -0.69954638647E-01 -0.86416435175E-01 -0.33204690636E-01  0.11603561668E+00  0.51100000000E-03 0.  1.
</event>
<event>
 7    1  0.2377261E+005  0.1043930E+01  0.7957747E-01            NaN
         13   -1    0    0    0    0  0.00000000000E+00  0.00000000000E+00  0.74505805969E-08  0.10566000000E+00  0.10566000000E+00 0. -1.
     999900   -1    0    0    0    0 -0.00000000000E+00 -0.00000000000E+00 -0.74505805969E-08  0.93827000000E+00  0.93827000000E+00 0.  1.
     999903    2    1    2    0    0  0.56575699987E-01  0.48996577354E-01 -0.84737885740E-01  0.11637654833E+00  0.27595602915E-01 0.  0.
         14    1    1    2    0    0  0.24612097485E-01 -0.16628574097E-01  0.28931773590E-01  0.41464591427E-01  0.00000000000E+00 0. -1.
     999901    1    1    2    0    0 -0.81187797472E-01 -0.32368003256E-01  0.55806112150E-01  0.88608886024E+00  0.88000000000E+00 0.  1.
        -11    1    3    3    0    0  0.32647252249E-01  0.10755617414E-01 -0.31876701901E-01  0.46881890219E-01  0.51100000000E-03 0.  1.
         11    1    3    3    0    0  0.23928447738E-01  0.38240959939E-01 -0.52861183839E-01  0.69494658112E-01  0.51100000000E-03 0. -1.
</event>
<event>
 8    1  0.1135368E+005  0.1043930E+01  0.7957747E-01            NaN
         13   -1    0    0    0    0  0.00000000000E+00  0.00000000000E+00  0.74505805969E-08  0.10566000000E+00  0.10566000000E+00 0. -1.
     999900   -1    0    0    0    0 -0.00000000000E+00 -0.00000000000E+00 -0.74505805969E-08  0.93827000000E+00  0.93827000000E+00 0.  1.
     999902    2    1    2    0    0 -0.16087566442E-01  0.19980201049E-01 -0.63972434587E-03  0.10182701583E+01  0.10179468001E+01 0.  0.
     999903    2    3    3    0    0 -0.96978331714E-01  0.22289642921E-01 -0.82575836705E-01  0.13076681977E+00  0.19482488060E-01 0.  0.
         14    1    1    2    0    0  0.16087566442E-01 -0.19980201049E-01  0.63972434587E-03  0.25659841683E-01  0.00000000000E+00 0.  1.
     999901    1    3    3    0    0  0.80890765272E-01 -0.23094418724E-02  0.81936112359E-01  0.88750333855E+00  0.88000000000E+00 0. -1.
        -11    1    4    4    0    0 -0.48579885695E-01  0.20898725053E-01 -0.40380881328E-01  0.66540504212E-01  0.51100000000E-03 0.  1.
         11    1    4    4    0    0 -0.48398446019E-01  0.13909178685E-02 -0.42194955377E-01  0.64226315555E-01  0.51100000000E-03 0. -1.
</event>
<event>
 8    1  0.1135368E+005  0.1043930E+01  0.7957747E-01            NaN
         13   -1    0    0    0    0  0.00000000000E+00  0.00000000000E+00  0.74505805969E-08  0.10566000000E+00  0.10566000000E+00 0. -1.
     999900   -1    0    0    0    0 -0.00000000000E+00 -0.00000000000E+00 -0.74505805969E-08  0.93827000000E+00  0.93827000000E+00 0.  1.
     999902    2    1    2    0    0 -0.45020735526E-02 -0.88921443918E-02  0.22974253592E-01  0.10188869326E+01  0.10185791212E+01 0.  0.
     999903    2    3    3    0    0 -0.64192824423E-01  0.86631169641E-01 -0.64462706704E-01  0.12740899606E+00  0.21258726685E-01 0.  0.
         14    1    1    2    0    0  0.45020735526E-02  0.88921443918E-02 -0.22974253592E-01  0.25043067429E-01  0.00000000000E+00 0.  1.
     999901    1    3    3    0    0  0.59690750870E-01 -0.95523314032E-01  0.87436960296E-01  0.89147793651E+00  0.88000000000E+00 0. -1.
        -11    1    4    4    0    0 -0.21562443961E-01  0.14207347633E-01 -0.13894076406E-01  0.29327362590E-01  0.51100000000E-03 0. -1.
         11    1    4    4    0    0 -0.42630380462E-01  0.72423822008E-01 -0.50568630298E-01  0.98081633468E-01  0.51100000000E-03 0.  1.
</event>
<event>
 8    1  0.1135368E+005  0.1043930E+01  0.7957747E-01            NaN
         13   -1    0    0    0    0  0.00000000000E+00  0.00000000000E+00  0.74505805969E-08  0.10566000000E+00  0.10566000000E+00 0. -1.
     999900   -1    0    0    0    0 -0.00000000000E+00 -0.00000000000E+00 -0.74505805969E-08  0.93827000000E+00  0.93827000000E+00 0. -1.
     999902    2    1    2    0    0  0.11725217771E-01  0.15043644613E-01  0.13491246294E-01  0.10205675151E+01  0.10203000770E+01 0.  0.
     999903    2    3    3    0    0  0.33070114617E-01  0.19603958661E-01 -0.12255052990E+00  0.12984659024E+00  0.19067169182E-01 0.  0.
         14    1    1    2    0    0 -0.11725217771E-01 -0.15043644613E-01 -0.13491246294E-01  0.23362484918E-01  0.00000000000E+00 0. -1.
     999901    1    3    3    0    0 -0.21344896846E-01 -0.45603140488E-02  0.13604177620E+00  0.89072092484E+00  0.88000000000E+00 0.  1.
        -11    1    4    4    0    0  0.30206731295E-01  0.16080311918E-01 -0.11961746572E+00  0.12441713014E+00  0.51100000000E-03 0. -1.
         11    1    4    4    0    0  0.28633833217E-02  0.35236467429E-02 -0.29330641868E-02  0.54294600965E-02  0.51100000000E-03 0.  1.
</event>
<event>
 8    1  0.1135368E+005  0.1043930E+01  0.7957747E-01            NaN
         13   -1    0    0    0    0  0.00000000000E+00  0.00000000000E+00  0.74505805969E-08  0.10566000000E+00  0.10566000000E+00 0. -1.
     999900   -1    0    0    0    0 -0.00000000000E+00 -0.00000000000E+00 -0.74505805969E-08  0.93827000000E+00  0.93827000000E+00 0.  1.
     999902    2    1    2    0    0  0.21416741641E-01 -0.69254075990E-02 -0.73740474916E-02  0.10202442518E+01  0.10199692734E+01 0.  0.
     999903    2    3    3    0    0  0.94040912929E-02 -0.52569668328E-01  0.11711129816E+00  0.13023059817E+00  0.19822855020E-01 0.  0.
         14    1    1    2    0    0 -0.21416741641E-01  0.69254075990E-02  0.73740474916E-02  0.23685748233E-01  0.00000000000E+00 0. -1.
     999901    1    3    3    0    0  0.12012650348E-01  0.45644260729E-01 -0.12448534565E+00  0.89001365360E+00  0.88000000000E+00 0.  1.
        -11    1    4    4    0    0  0.71985398771E-02 -0.35173179012E-01  0.97584755749E-01  0.10398085003E+00  0.51100000000E-03 0. -1.
         11    1    4    4    0    0  0.22055514158E-02 -0.17396489316E-01  0.19526542414E-01  0.26249748136E-01  0.51100000000E-03 0.  1.
</event>
<event>
 8    1  0.1135368E+005  0.1043930E+01  0.7957747E-01            NaN
         13   -1    0    0    0    0  0.00000000000E+00  0.00000000000E+00  0.74505805969E-08  0.10566000000E+00  0.10566000000E+00 0. -1.
     999900   -1    0    0    0    0 -0.00000000000E+00 -0.00000000000E+00 -0.74505805969E-08  0.93827000000E+00  0.93827000000E+00 0.  1.
     999902    2    1    2    0    0 -0.23332196048E-01 -0.10258270025E-01 -0.13294650357E-01  0.10151833271E+01  0.10147762396E+01 0.  0.
     999903    2    3    3    0    0  0.51271401585E-01  0.10477079685E+00 -0.28227798477E-01  0.12444184835E+00  0.32913348653E-01 0.  0.
         14    1    1    2    0    0  0.23332196048E-01  0.10258270025E-01  0.13294650357E-01  0.28746672928E-01  0.00000000000E+00 0. -1.
     999901    1    3    3    0    0 -0.74603597633E-01 -0.11502906688E+00  0.14933148120E-01  0.89074147872E+00  0.88000000000E+00 0. -1.
        -11    1    4    4    0    0  0.26237042459E-01  0.70741718706E-01 -0.32140112680E-01  0.82012323017E-01  0.51100000000E-03 0.  1.
         11    1    4    4    0    0  0.25034359126E-01  0.34029078147E-01  0.39123142029E-02  0.42429525331E-01  0.51100000000E-03 0. -1.
</event>
<event>
 8    1  0.1135368E+005  0.1043930E+01  0.7957747E-01            NaN
         13   -1    0    0    0    0  0.00000000000E+00  0.00000000000E+00  0.74505805969E-08  0.10566000000E+00  0.10566000000E+00 0.  1.
     999900   -1    0    0    0    0 -0.00000000000E+00 -0.00000000000E+00 -0.74505805969E-08  0.93827000000E+00  0.93827000000E+00 0.  1.
     999902    2    1    2    0    0  0.11675542101E-01  0.18228956320E-01  0.85481926931E-02  0.10206558785E+01  0.10203904829E+01 0.  0.
     999903    2    3    3    0    0  0.98745830303E-01  0.86721231719E-01  0.12499848048E-01  0.13370151530E+00  0.21178714755E-01 0.  0.
         14    1    1    2    0    0 -0.11675542101E-01 -0.18228956320E-01 -0.85481926931E-02  0.23274121470E-01  0.00000000000E+00 0. -1.
     999901    1    3    3    0    0 -0.87070288202E-01 -0.68492275399E-01 -0.39516553548E-02  0.88695436323E+00  0.88000000000E+00 0.  1.
        -11    1    4    4    0    0  0.75607202822E-01  0.59039379416E-01  0.13599015707E-02  0.95938563121E-01  0.51100000000E-03 0. -1.
         11    1    4    4    0    0  0.23138627481E-01  0.27681852303E-01  0.11139946477E-01  0.37762952177E-01  0.51100000000E-03 0.  1.
</event>
<event>
 8    1  0.1135368E+005  0.1043930E+01  0.7957747E-01            NaN
         13   -1    0    0    0    0  0.00000000000E+00  0.00000000000E+00  0.74505805969E-08  0.10566000000E+00  0.10566000000E+00 0.  1.
     999900   -1    0    0    0    0 -0.00000000000E+00 -0.00000000000E+00 -0.74505805969E-08  0.93827000000E+00  0.93827000000E+00 0.  1.
     999902    2    1    2    0    0 -0.93404348310E-02 -0.92534546057E-03 -0.20538974601E-01  0.10213479393E+01  0.10210982635E+01 0.  0.
     999903    2    3    3    0    0 -0.97022499453E-01  0.66212714213E-01 -0.59115787934E-01  0.13360707958E+00  0.23636548140E-01 0.  0.
         14    1    1    2    0    0  0.93404348310E-02  0.92534546057E-03  0.20538974601E-01  0.22582060684E-01  0.00000000000E+00 0.  1.
     999901    1    3    3    0    0  0.87682064622E-01 -0.67138059673E-01  0.38576813333E-01  0.88774085973E+00  0.88000000000E+00 0.  1.
        -11    1    4    4    0    0 -0.41156519050E-01  0.18886419116E-01 -0.13154699937E-01  0.47157853416E-01  0.51100000000E-03 0.  1.
         11    1    4    4    0    0 -0.55865980403E-01  0.47326295096E-01 -0.45961087997E-01  0.86449226167E-01  0.51100000000E-03 0. -1.
</event>
<event>
 8    1  0.1135368E+005  0.1043930E+01  0.7957747E-01            NaN
         13   -1    0    0    0    0  0.00000000000E+00  0.00000000000E+00  0.74505805969E-08  0.10566000000E+00  0.10566000000E+00 0. -1.
     999900   -1    0    0    0    0 -0.00000000000E+00 -0.00000000000E+00 -0.74505805969E-08  0.93827000000E+00  0.93827000000E+00 0.  1.
     999902    2    1    2    0    0  0.15382589956E-01  0.87770803475E-03 -0.15716626637E-01  0.10219207565E+01  0.10216837210E+01 0.  0.
     999903    2    3    3    0    0 -0.31000319646E-01  0.11702375538E+00 -0.49119676908E-01  0.13245066576E+00  0.21791215191E-01 0.  0.
         14    1    1    2    0    0 -0.15382589956E-01 -0.87770803475E-03  0.15716626637E-01  0.22009243467E-01  0.00000000000E+00 0. -1.
     999901    1    3    3    0    0  0.46382909602E-01 -0.11614604734E+00  0.33403050271E-01  0.88947009078E+00  0.88000000000E+00 0. -1.
        -11    1    4    4    0    0 -0.25724124542E-01  0.66146641913E-01 -0.20690034212E-01  0.73928664647E-01  0.51100000000E-03 0.  1.
         11    1    4    4    0    0 -0.52761951039E-02  0.50877113464E-01 -0.28429642695E-01  0.58522001111E-01  0.51100000000E-03 0. -1.
</event>
<event>
 8    1  0.1135368E+005  0.1043930E+01  0.7957747E-01            NaN
         13   -1    0    0    0    0  0.00000000000E+00  0.00000000000E+00  0.74505805969E-08  0.10566000000E+00  0.10566000000E+00 0. -1.
     999900   -1    0    0    0    0 -0.00000000000E+00 -0.00000000000E+00 -0.74505805969E-08  0.93827000000E+00  0.93827000000E+00 0.  1.
     999902    2    1    2    0    0 -0.24061386883E-02  0.10440180032E-02  0.13167367772E-01  0.10305039413E+01  0.10304164760E+01 0.  0.
     999903    2    3    3    0    0  0.67099940002E-01  0.54010709184E-01 -0.10621656394E+00  0.13815362420E+00  0.19619041047E-01 0.  0.
         14    1    1    2    0    0  0.24061386883E-02 -0.10440180032E-02 -0.13167367772E-01  0.13426058656E-01  0.00000000000E+00 0.  1.
     999901    1    3    3    0    0 -0.69506078691E-01 -0.52966691180E-01  0.11938393171E+00  0.89235031714E+00  0.88000000000E+00 0.  1.
        -11    1    4    4    0    0  0.49064270641E-01  0.36330809289E-01 -0.60675078872E-01  0.86075296539E-01  0.51100000000E-03 0. -1.
         11    1    4    4    0    0  0.18035669361E-01  0.17679899894E-01 -0.45541485065E-01  0.52078327666E-01  0.51100000000E-03 0.  1.
</event>
<event>
 8    1  0.1135368E+005  0.1043930E+01  0.7957747E-01            NaN
         13   -1    0    0    0    0  0.00000000000E+00  0.00000000000E+00  0.74505805969E-08  0.10566000000E+00  0.10566000000E+00 0.  1.
     999900   -1    0    0    0    0 -0.00000000000E+00 -0.00000000000E+00 -0.74505805969E-08  0.93827000000E+00  0.93827000000E+00 0. -1.
     999902    2    1    2    0    0 -0.15178830708E-01 -0.99049943564E-02 -0.16400037794E-01  0.10194868608E+01  0.10191937952E+01 0.  0.
     999903    2    3    3    0    0  0.12379000060E+00 -0.14178905273E-01 -0.25215509616E-01  0.12852765020E+00  0.18934870926E-01 0.  0.
         14    1    1    2    0    0  0.15178830708E-01  0.99049943564E-02  0.16400037794E-01  0.24443139211E-01  0.00000000000E+00 0.  1.
     999901    1    3    3    0    0 -0.13896883131E+00  0.42739109169E-02  0.88154718223E-02  0.89095921059E+00  0.88000000000E+00 0.  1.
        -11    1    4    4    0    0  0.70284978163E-01 -0.38217843071E-03 -0.19694717348E-01  0.72994980842E-01  0.51100000000E-03 0.  1.
         11    1    4    4    0    0  0.53505022438E-01 -0.13796726843E-01 -0.55207922685E-02  0.55532669357E-01  0.51100000000E-03 0. -1.
</event>
<event>
 8    1  0.1135368E+005  0.1043930E+01  0.7957747E-01            NaN
         13   -1    0    0    0    0  0.00000000000E+00  0.00000000000E+00  0.74505805969E-08  0.10566000000E+00  0.10566000000E+00 0. -1.
     999900   -1    0    0    0    0 -0.00000000000E+00 -0.00000000000E+00 -0.74505805969E-08  0.93827000000E+00  0.93827000000E+00 0.  1.
     999902    2    1    2    0    0  0.25039226090E-02 -0.51842865536E-03  0.27931597936E-01  0.10158816033E+01  0.10154943226E+01 0.  0.
     999903    2    3    3    0    0 -0.66369517994E-01  0.13987831808E-01  0.10820211887E+00  0.12942949573E+00  0.21064744899E-01 0.  0.
         14    1    1    2    0    0 -0.25039226090E-02  0.51842865536E-03 -0.27931597936E-01  0.28048396744E-01  0.00000000000E+00 0.  1.
     999901    1    3    3    0    0  0.68873440603E-01 -0.14506260463E-01 -0.80270520938E-01  0.88645210753E+00  0.88000000000E+00 0.  1.
        -11    1    4    4    0    0 -0.15562381745E-01  0.38099838299E-02  0.11533845171E-01  0.19748276072E-01  0.51100000000E-03 0.  1.
         11    1    4    4    0    0 -0.50807136249E-01  0.10177847978E-01  0.96668273702E-01  0.10968121965E+00  0.51100000000E-03 0. -1.
</event>
<event>
 8    1  0.1135368E+005  0.1043930E+01  0.7957747E-01            NaN
         13   -1    0    0    0    0  0.00000000000E+00  0.00000000000E+00  0.74505805969E-08  0.10566000000E+00  0.10566000000E+00 0. -1.
     999900   -1    0    0    0    0 -0.00000000000E+00 -0.00000000000E+00 -0.74505805969E-08  0.93827000000E+00  0.93827000000E+00 0.  1.
     999902    2    1    2    0    0  0.51963676900E-02 -0.83561112744E-02 -0.20706183773E-01  0.10210046237E+01  0.10207472110E+01 0.  0.
     999903    2    3    3    0    0 -0.37410585627E-02  0.11534708267E+00 -0.59668229629E-01  0.13145395127E+00  0.20022454283E-01 0.  0.
         14    1    1    2    0    0 -0.51963676900E-02  0.83561112744E-02  0.20706183773E-01  0.22925376317E-01  0.00000000000E+00 0. -1.
     999901    1    3    3    0    0  0.89374262526E-02 -0.12370319395E+00  0.38962045856E-01  0.88955067242E+00  0.88000000000E+00 0.  1.
        -11    1    4    4    0    0  0.87655458274E-03  0.10983995791E+00 -0.57144176987E-01  0.12381963813E+00  0.51100000000E-03 0.  1.
         11    1    4    4    0    0 -0.46176131454E-02  0.55071247605E-02 -0.25240526429E-02  0.76343131343E-02  0.51100000000E-03 0. -1.
</event>
<event>
 8    1  0.1135368E+005  0.1043930E+01  0.7957747E-01            NaN
         13   -1    0    0    0    0  0.00000000000E+00  0.00000000000E+00  0.74505805969E-08  0.10566000000E+00  0.10566000000E+00 0. -1.
     999900   -1    0    0    0    0 -0.00000000000E+00 -0.00000000000E+00 -0.74505805969E-08  0.93827000000E+00  0.93827000000E+00 0. -1.
     999902    2    1    2    0    0  0.22287639651E-01 -0.10577398512E-02  0.65817593306E-02  0.10206667833E+01  0.10204016392E+01 0.  0.
     999903    2    3    3    0    0 -0.12436140720E+00  0.62392439412E-02  0.23607388815E-01  0.12833889460E+00  0.20220665040E-01 0.  0.
         14    1    1    2    0    0 -0.22287639651E-01  0.10577398512E-02 -0.65817593306E-02  0.23263216688E-01  0.00000000000E+00 0.  1.
     999901    1    3    3    0    0  0.14664904685E+00 -0.72969837924E-02 -0.17025629485E-01  0.89232788871E+00  0.88000000000E+00 0.  1.
        -11    1    4    4    0    0 -0.30811480245E-01 -0.70181763817E-02  0.76114926859E-02  0.32508430546E-01  0.51100000000E-03 0. -1.
         11    1    4    4    0    0 -0.93549926954E-01  0.13257420323E-01  0.15995896129E-01  0.95830464054E-01  0.51100000000E-03 0.  1.
</event>
<event>
 8    1  0.1135368E+005  0.1043930E+01  0.7957747E-01            NaN
         13   -1    0    0    0    0  0.00000000000E+00  0.00000000000E+00  0.74505805969E-08  0.10566000000E+00  0.10566000000E+00 0. -1.
     999900   -1    0    0    0    0 -0.00000000000E+00 -0.00000000000E+00 -0.74505805969E-08  0.93827000000E+00  0.93827000000E+00 0.  1.
     999902    2    1    2    0    0 -0.25836306790E-01 -0.25334372863E-02 -0.14018980697E-01  0.10144263583E+01  0.10139972246E+01 0.  0.
     999903    2    3    3    0    0  0.24713756896E-01  0.12017442205E+00 -0.73397130866E-02  0.12445043712E+00  0.19528912353E-01 0.  0.
         14    1    1    2    0    0  0.25836306790E-01  0.25334372863E-02  0.14018980697E-01  0.29503641688E-01  0.00000000000E+00 0. -1.
     999901    1    3    3    0    0 -0.50550063686E-01 -0.12270785933E+00 -0.66792676109E-02  0.88997592119E+00  0.88000000000E+00 0.  1.
        -11    1    4    4    0    0  0.18751059822E-01  0.80022099964E-01  0.40378105935E-02  0.82290362513E-01  0.51100000000E-03 0.  1.
         11    1    4    4    0    0  0.59626970731E-02  0.40152322083E-01 -0.11377523680E-01  0.42160074610E-01  0.51100000000E-03 0. -1.
</event>
<event>
 8    1  0.1135368E+005  0.1043930E+01  0.7957747E-01            NaN
         13   -1    0    0    0    0  0.00000000000E+00  0.00000000000E+00  0.74505805969E-08  0.10566000000E+00  0.10566000000E+00 0.  1.
     999900   -1    0    0    0    0 -0.00000000000E+00 -0.00000000000E+00 -0.74505805969E-08  0.93827000000E+00  0.93827000000E+00 0. -1.
     999902    2    1    2    0    0  0.25704590890E-02 -0.21395465965E-01 -0.92093972346E-02  0.10204952774E+01  0.10202261637E+01 0.  0.
     999903    2    3    3    0    0 -0.43142122482E-02  0.57356542218E-01  0.11322649460E+00  0.12850882850E+00  0.19644199139E-01 0.  0.
         14    1    1    2    0    0 -0.25704590890E-02  0.21395465965E-01  0.92093972346E-02  0.23434722555E-01  0.00000000000E+00 0.  1.
     999901    1    3    3    0    0  0.68846713372E-02 -0.78752008183E-01 -0.12243589184E+00  0.89198644895E+00  0.88000000000E+00 0. -1.
        -11    1    4    4    0    0 -0.37051944543E-04  0.37684357782E-01  0.53218426096E-01  0.65211764210E-01  0.51100000000E-03 0. -1.
         11    1    4    4    0    0 -0.42771603037E-02  0.19672184436E-01  0.60008068507E-01  0.63297064290E-01  0.51100000000E-03 0.  1.
</event>
<event>
 8    1  0.1135368E+005  0.1043930E+01  0.7957747E-01            NaN
         13   -1    0    0    0    0  0.00000000000E+00  0.00000000000E+00  0.74505805969E-08  0.10566000000E+00  0.10566000000E+00 0. -1.
     999900   -1    0    0    0    0 -0.00000000000E+00 -0.00000000000E+00 -0.74505805969E-08  0.93827000000E+00  0.93827000000E+00 0. -1.
     999902    2    1    2    0    0 -0.20819995550E-01  0.39681289029E-02  0.15347344633E-02  0.10226797371E+01  0.10224589337E+01 0.  0.
     999903    2    3    3    0    0  0.10056996821E+00 -0.55356410485E-01 -0.58369233115E-01  0.13035501508E+00  0.20169578426E-01 0.  0.
         14    1    1    2    0    0  0.20819995550E-01 -0.39681289029E-02 -0.15347344633E-02  0.21250262858E-01  0.00000000000E+00 0. -1.
     999901    1    3    3    0    0 -0.12138996376E+00  0.59324539388E-01  0.59903967578E-01  0.89232472206E+00  0.88000000000E+00 0.  1.
        -11    1    4    4    0    0  0.29042146134E-01 -0.25368481421E-01 -0.24728794351E-01  0.45812449102E-01  0.51100000000E-03 0.  1.
         11    1    4    4    0    0  0.71527822076E-01 -0.29987929064E-01 -0.33640438764E-01  0.84542565976E-01  0.51100000000E-03 0. -1.
</event>
<event>
 8    1  0.1135368E+005  0.1043930E+01  0.7957747E-01            NaN
         13   -1    0    0    0    0  0.00000000000E+00  0.00000000000E+00  0.74505805969E-08  0.10566000000E+00  0.10566000000E+00 0.  1.
     999900   -1    0    0    0    0 -0.00000000000E+00 -0.00000000000E+00 -0.74505805969E-08  0.93827000000E+00  0.93827000000E+00 0.  1.
     999902    2    1    2    0    0 -0.61881572725E-02  0.48021418502E-02  0.21504285121E-01  0.10210435819E+01  0.10207870532E+01 0.  0.
     999903    2    3    3    0    0  0.55726101329E-01  0.34304154903E-01  0.11458593140E+00  0.13348066180E+00  0.20124064860E-01 0.  0.
         14    1    1    2    0    0  0.61881572725E-02 -0.48021418502E-02 -0.21504285121E-01  0.22886418141E-01  0.00000000000E+00 0. -1.
     999901    1    3    3    0    0 -0.61914258601E-01 -0.29502013053E-01 -0.93081646279E-01  0.88756292006E+00  0.88000000000E+00 0.  1.
        -11    1    4    4    0    0  0.28548429311E-01  0.15402911809E-01  0.37502723546E-01  0.49588082265E-01  0.51100000000E-03 0.  1.
         11    1    4    4    0    0  0.27177672018E-01  0.18901243094E-01  0.77083207854E-01  0.83892579534E-01  0.51100000000E-03 0. -1.
</event>
<event>
 8    1  0.1135368E+005  0.1043930E+01  0.7957747E-01            NaN
         13   -1    0    0    0    0  0.00000000000E+00  0.00000000000E+00  0.74505805969E-08  0.10566000000E+00  0.10566000000E+00 0. -1.
     999900   -1    0    0    0    0 -0.00000000000E+00 -0.00000000000E+00 -0.74505805969E-08  0.93827000000E+00  0.93827000000E+00 0.  1.
     999902    2    1    2    0    0  0.60655489347E-02 -0.22165216152E-01  0.64407028710E-02  0.10200643271E+01  0.10197851053E+01 0.  0.
     999903    2    3    3    0    0 -0.11646486131E-01  0.53651943953E-01 -0.11436269479E+00  0.12840552526E+00  0.19874134663E-01 0.  0.
         14    1    1    2    0    0 -0.60655489347E-02  0.22165216152E-01 -0.64407028710E-02  0.23865672930E-01  0.00000000000E+00 0.  1.
     999901    1    3    3    0    0  0.17712035066E-01 -0.75817160106E-01  0.12080339766E+00  0.89165880181E+00  0.88000000000E+00 0. -1.
        -11    1    4    4    0    0 -0.12971458038E-01  0.19378492459E-01 -0.36427134549E-01  0.43254848816E-01  0.51100000000E-03 0.  1.
         11    1    4    4    0    0  0.13249719070E-02  0.34273451494E-01 -0.77935560243E-01  0.85150676447E-01  0.51100000000E-03 0. -1.
</event>
<event>
 8    1  0.1135368E+005  0.1043930E+01  0.7957747E-01            NaN
         13   -1    0    0    0    0  0.00000000000E+00  0.00000000000E+00  0.74505805969E-08  0.10566000000E+00  0.10566000000E+00 0.  1.
     999900   -1    0    0    0    0 -0.00000000000E+00 -0.00000000000E+00 -0.74505805969E-08  0.93827000000E+00  0.93827000000E+00 0.  1.
     999902    2    1    2    0    0  0.43310272422E-02 -0.13049174479E-01  0.27288219204E-01  0.10133737296E+01  0.10129129431E+01 0.  0.
     999903    2    3    3    0    0 -0.36884303738E-01 -0.32506346827E-01 -0.10938400695E+00  0.12165820186E+00  0.20463202544E-01 0.  0.
         14    1    1    2    0    0 -0.43310272422E-02  0.13049174479E-01 -0.27288219204E-01  0.30556270369E-01  0.00000000000E+00 0. -1.
     999901    1    3    3    0    0  0.41215330980E-01  0.19457172348E-01  0.13667222615E+00  0.89171552777E+00  0.88000000000E+00 0. -1.
        -11    1    4    4    0    0 -0.28200225050E-01 -0.22501282209E-01 -0.55728110582E-01  0.66388582030E-01  0.51100000000E-03 0. -1.
         11    1    4    4    0    0 -0.86840786872E-02 -0.10005064618E-01 -0.53655896365E-01  0.55269619832E-01  0.51100000000E-03 0.  1.
</event>
<event>
 8    1  0.1135368E+005  0.1043930E+01  0.7957747E-01            NaN
         13   -1    0    0    0    0  0.00000000000E+00  0.00000000000E+00  0.74505805969E-08  0.10566000000E+00  0.10566000000E+00 0.  1.
     999900   -1    0    0    0    0 -0.00000000000E+00 -0.00000000000E+00 -0.74505805969E-08  0.93827000000E+00  0.93827000000E+00 0.  1.
     999902    2    1    2    0    0  0.13314034983E-01 -0.30142728501E-02 -0.20461221507E-01  0.10193330296E+01  0.10190362183E+01 0.  0.
     999903    2    3    3    0    0  0.17389237979E-01 -0.79050357431E-01 -0.10258654270E+00  0.13223514218E+00  0.20267942111E-01 0.  0.
         14    1    1    2    0    0 -0.13314034983E-01  0.30142728501E-02  0.20461221507E-01  0.24596970421E-01  0.00000000000E+00 0.  1.
     999901    1    3    3    0    0 -0.40752029962E-02  0.76036084581E-01  0.82125321195E-01  0.88709788739E+00  0.88000000000E+00 0. -1.
        -11    1    4    4    0    0  0.10278988533E-01 -0.33201937355E-01 -0.59533435208E-01  0.68938503596E-01  0.51100000000E-03 0. -1.
         11    1    4    4    0    0  0.71102494459E-02 -0.45848420076E-01 -0.43053107495E-01  0.63296638589E-01  0.51100000000E-03 0.  1.
</event>
<event>
 8    1  0.1135368E+005  0.1043930E+01  0.7957747E-01            NaN
         13   -1    0    0    0    0  0.00000000000E+00  0.00000000000E+00  0.74505805969E-08  0.10566000000E+00  0.10566000000E+00 0. -1.
     999900   -1    0    0    0    0 -0.00000000000E+00 -0.00000000000E+00 -0.74505805969E-08  0.93827000000E+00  0.93827000000E+00 0.  1.
     999902    2    1    2    0    0  0.11817951999E-01  0.18792569711E-01 -0.84050056419E-02  0.10201925025E+01  0.10199163071E+01 0.  0.
     999903    2    3    3    0    0 -0.77704098235E-01  0.96608707975E-01 -0.39954851801E-01  0.13167410563E+00  0.19248651182E-01 0.  0.
         14    1    1    2    0    0 -0.11817951999E-01 -0.18792569711E-01  0.84050056419E-02  0.23737497459E-01  0.00000000000E+00 0. -1.
     999901    1    3    3    0    0  0.89522050234E-01 -0.77816138264E-01  0.31549846159E-01  0.88851839691E+00  0.88000000000E+00 0. -1.
        -11    1    4    4    0    0 -0.32440559463E-01  0.30430455575E-01 -0.21468656837E-01  0.49391971738E-01  0.51100000000E-03 0. -1.
         11    1    4    4    0    0 -0.45263538772E-01  0.66178252400E-01 -0.18486194964E-01  0.82282133894E-01  0.51100000000E-03 0.  1.
</event>
<event>
 8    1  0.1135368E+005  0.1043930E+01  0.7957747E-01            NaN
         13   -1    0    0    0    0  0.00000000000E+00  0.00000000000E+00  0.74505805969E-08  0.10566000000E+00  0.10566000000E+00 0.  1.
     999900   -1    0    0    0    0 -0.00000000000E+00 -0.00000000000E+00 -0.74505805969E-08  0.93827000000E+00  0.93827000000E+00 0.  1.
     999902    2    1    2    0    0  0.32993228224E-02 -0.78224937165E-02  0.22732791649E-01  0.10196636291E+01  0.10193748377E+01 0.  0.
     999903    2    3    3    0    0 -0.50133647886E-01 -0.11590650201E+00  0.29482148415E-01  0.13141659760E+00  0.21293782943E-01 0.  0.
         14    1    1    2    0    0 -0.32993228224E-02  0.78224937165E-02 -0.22732791649E-01  0.24266370869E-01  0.00000000000E+00 0. -1.
     999901    1    3    3    0    0  0.53432970709E-01  0.10808400829E+00 -0.67493567666E-02  0.88824703153E+00  0.88000000000E+00 0.  1.
        -11    1    4    4    0    0 -0.20152103098E-01 -0.72407925889E-01  0.19488743949E-01  0.77647197326E-01  0.51100000000E-03 0.  1.
         11    1    4    4    0    0 -0.29981544788E-01 -0.43498576117E-01  0.99934044662E-02  0.53769400274E-01  0.51100000000E-03 0. -1.
</event>
<event>
 8    1  0.1135368E+005  0.1043930E+01  0.7957747E-01            NaN
         13   -1    0    0    0    0  0.00000000000E+00  0.00000000000E+00  0.74505805969E-08  0.10566000000E+00  0.10566000000E+00 0.  1.
     999900   -1    0    0    0    0 -0.00000000000E+00 -0.00000000000E+00 -0.74505805969E-08  0.93827000000E+00  0.93827000000E+00 0. -1.
     999902    2    1    2    0    0 -0.75767988889E-02 -0.17417125771E-01  0.14444848621E-01  0.10200675231E+01  0.10197883770E+01 0.  0.
     999903    2    3    3    0    0 -0.83689536449E-01  0.96165711369E-01  0.11133711318E-01  0.12950299803E+00  0.19881760885E-01 0.  0.
         14    1    1    2    0    0  0.75767988889E-02  0.17417125771E-01 -0.14444848621E-01  0.23862476888E-01  0.00000000000E+00 0. -1.
     999901    1    3    3    0    0  0.76112737560E-01 -0.11358283714E+00  0.33111373029E-02  0.89056452509E+00  0.88000000000E+00 0.  1.
        -11    1    4    4    0    0 -0.42291511205E-01  0.50282049738E-01  0.15631222316E-01  0.67538527360E-01  0.51100000000E-03 0.  1.
         11    1    4    4    0    0 -0.41398025244E-01  0.45883661631E-01 -0.44975109976E-02  0.61964470666E-01  0.51100000000E-03 0. -1.
</event>
<event>
 8    1  0.1135368E+005  0.1043930E+01  0.7957747E-01            NaN
         13   -1    0    0    0    0  0.00000000000E+00  0.00000000000E+00  0.74505805969E-08  0.10566000000E+00  0.10566000000E+00 0. -1.
     999900   -1    0    0    0    0 -0.00000000000E+00 -0.00000000000E+00 -0.74505805969E-08  0.93827000000E+00  0.93827000000E+00 0.  1.
     999902    2    1    2    0    0  0.17456543952E-03  0.18653033929E-01 -0.14948987161E-01  0.10200252230E+01  0.10197450746E+01 0.  0.
     999903    2    3    3    0    0 -0.12185313107E-01  0.10197687307E+00  0.78832003910E-01  0.13104237552E+00  0.20244872052E-01 0.  0.
         14    1    1    2    0    0 -0.17456543952E-03 -0.18653033929E-01  0.14948987161E-01  0.23904777033E-01  0.00000000000E+00 0. -1.
     999901    1    3    3    0    0  0.12359878547E-01 -0.83323839144E-01 -0.93780991071E-01  0.88898284745E+00  0.88000000000E+00 0.  1.
        -11    1    4    4    0    0 -0.16416813693E-01  0.91493462851E-01  0.66429741726E-01  0.11425295280E+00  0.51100000000E-03 0. -1.
         11    1    4    4    0    0  0.42315005855E-02  0.10483410222E-01  0.12402262184E-01  0.16789422723E-01  0.51100000000E-03 0.  1.
</event>
<event>
 8    1  0.1135368E+005  0.1043930E+01  0.7957747E-01            NaN
         13   -1    0    0    0    0  0.00000000000E+00  0.00000000000E+00  0.74505805969E-08  0.10566000000E+00  0.10566000000E+00 0. -1.
     999900   -1    0    0    0    0 -0.00000000000E+00 -0.00000000000E+00 -0.74505805969E-08  0.93827000000E+00  0.93827000000E+00 0.  1.
     999902    2    1    2    0    0  0.14471116687E-01  0.17462119309E-01 -0.70722908218E-02  0.10201738192E+01  0.10198971837E+01 0.  0.
     999903    2    3    3    0    0 -0.31627549401E-02  0.12299488268E+00 -0.45921075996E-01  0.13284223197E+00  0.20014224706E-01 0.  0.
         14    1    1    2    0    0 -0.14471116687E-01 -0.17462119309E-01  0.70722908218E-02  0.23756180804E-01  0.00000000000E+00 0. -1.
     999901    1    3    3    0    0  0.17633871627E-01 -0.10553276337E+00  0.38848785175E-01  0.88733158722E+00  0.88000000000E+00 0.  1.
        -11    1    4    4    0    0 -0.70374330017E-03  0.95417369481E-01 -0.26544584922E-01  0.99044665495E-01  0.51100000000E-03 0. -1.
         11    1    4    4    0    0 -0.24590116400E-02  0.27577513200E-01 -0.19376491074E-01  0.33797566479E-01  0.51100000000E-03 0.  1.
</event>
<event>
 8    1  0.1135368E+005  0.1043930E+01  0.7957747E-01            NaN
         13   -1    0    0    0    0  0.00000000000E+00  0.00000000000E+00  0.74505805969E-08  0.10566000000E+00  0.10566000000E+00 0.  1.
     999900   -1    0    0    0    0 -0.00000000000E+00 -0.00000000000E+00 -0.74505805969E-08  0.93827000000E+00  0.93827000000E+00 0.  1.
     999902    2    1    2    0    0  0.17723860584E-01 -0.16083072410E-02  0.15656142254E-01  0.10202269058E+01  0.10199515197E+01 0.  0.
     999903    2    3    3    0    0  0.81839824989E-01 -0.46464587400E-01  0.92581914706E-01  0.13341209013E+00  0.19252532951E-01 0.  0.
         14    1    1    2    0    0 -0.17723860584E-01  0.16083072410E-02 -0.15656142254E-01  0.23703094238E-01  0.00000000000E+00 0. -1.
     999901    1    3    3    0    0 -0.64115964405E-01  0.44856280159E-01 -0.76925772452E-01  0.88681481563E+00  0.88000000000E+00 0.  1.
        -11    1    4    4    0    0  0.73226614805E-01 -0.45465578415E-01  0.77030517623E-01  0.11559938453E+00  0.51100000000E-03 0. -1.
         11    1    4    4    0    0  0.86132101833E-02 -0.99900898542E-03  0.15551397083E-01  0.17812705602E-01  0.51100000000E-03 0.  1.
</event>
<event>
 8    1  0.1135368E+005  0.1043930E+01  0.7957747E-01            NaN
         13   -1    0    0    0    0  0.00000000000E+00  0.00000000000E+00  0.74505805969E-08  0.10566000000E+00  0.10566000000E+00 0. -1.
     999900   -1    0    0    0    0 -0.00000000000E+00 -0.00000000000E+00 -0.74505805969E-08  0.93827000000E+00  0.93827000000E+00 0.  1.
     999902    2    1    2    0    0 -0.11885368817E-01  0.16827821384E-01  0.10437812608E-01  0.10208348599E+01  0.10205735768E+01 0.  0.
     999903    2    3    3    0    0 -0.38653911497E-01 -0.12155510086E+00 -0.10469670139E-01  0.12937341323E+00  0.18923494375E-01 0.  0.
         14    1    1    2    0    0  0.11885368817E-01 -0.16827821384E-01 -0.10437812608E-01  0.23095140105E-01  0.00000000000E+00 0.  1.
     999901    1    3    3    0    0  0.26768542681E-01  0.13838292225E+00  0.20907482747E-01  0.89146144666E+00  0.88000000000E+00 0. -1.
        -11    1    4    4    0    0 -0.18684223683E-01 -0.34637094198E-01  0.15156690331E-02  0.39387648860E-01  0.51100000000E-03 0. -1.
         11    1    4    4    0    0 -0.19969687814E-01 -0.86918006665E-01 -0.11985339173E-01  0.89985764375E-01  0.51100000000E-03 0.  1.
</event>
<event>
 8    1  0.1135368E+005  0.1043930E+01  0.7957747E-01            NaN
         13   -1    0    0    0    0  0.00000000000E+00  0.00000000000E+00  0.74505805969E-08  0.10566000000E+00  0.10566000000E+00 0. -1.
     999900   -1    0    0    0    0 -0.00000000000E+00 -0.00000000000E+00 -0.74505805969E-08  0.93827000000E+00  0.93827000000E+00 0. -1.
     999902    2    1    2    0    0 -0.21104347875E-02  0.11540474145E-01  0.13012082178E-01  0.10264099897E+01  0.10262604524E+01 0.  0.
     999903    2    3    3    0    0 -0.83646222870E-01  0.12641477597E-01  0.10674199338E+00  0.13768360143E+00  0.20159945301E-01 0.  0.
         14    1    1    2    0    0  0.21104347875E-02 -0.11540474145E-01 -0.13012082178E-01  0.17520010305E-01  0.00000000000E+00 0.  1.
     999901    1    3    3    0    0  0.81535788083E-01 -0.11010034515E-02 -0.93729911205E-01  0.88872638827E+00  0.88000000000E+00 0. -1.
        -11    1    4    4    0    0 -0.45586790134E-01 -0.31759423880E-02  0.58363479971E-01  0.74126911173E-01  0.51100000000E-03 0.  1.
         11    1    4    4    0    0 -0.38059432736E-01  0.15817419985E-01  0.48378513413E-01  0.63556690255E-01  0.51100000000E-03 0. -1.
</event>
<event>
 8    1  0.1135368E+005  0.1043930E+01  0.7957747E-01            NaN
         13   -1    0    0    0    0  0.00000000000E+00  0.00000000000E+00  0.74505805969E-08  0.10566000000E+00  0.10566000000E+00 0.  1.
     999900   -1    0    0    0    0 -0.00000000000E+00 -0.00000000000E+00 -0.74505805969E-08  0.93827000000E+00  0.93827000000E+00 0.  1.
     999902    2    1    2    0    0  0.13976238823E-01 -0.53326123875E-02 -0.19251151357E-01  0.10195501141E+01  0.10192585817E+01 0.  0.
     999903    2    3    3    0    0 -0.56740372205E-01 -0.59203574057E-01 -0.10032759104E+00  0.13136302311E+00  0.21589008727E-01 0.  0.
         14    1    1    2    0    0 -0.13976238823E-01  0.53326123875E-02  0.19251151357E-01  0.24379885871E-01  0.00000000000E+00 0.  1.
     999901    1    3    3    0    0  0.70716611028E-01  0.53870961670E-01  0.81076439678E-01  0.88818709102E+00  0.88000000000E+00 0. -1.
        -11    1    4    4    0    0 -0.29731068634E-01 -0.15797241006E-01 -0.39994126250E-01  0.52280785390E-01  0.51100000000E-03 0. -1.
         11    1    4    4    0    0 -0.27009303571E-01 -0.43406333051E-01 -0.60333464786E-01  0.79082237718E-01  0.51100000000E-03 0.  1.
</event>
<event>
 8    1  0.1135368E+005  0.1043930E+01  0.7957747E-01            NaN
         13   -1    0    0    0    0  0.00000000000E+00  0.00000000000E+00  0.74505805969E-08  0.10566000000E+00  0.10566000000E+00 0. -1.
     999900   -1    0    0    0    0 -0.00000000000E+00 -0.00000000000E+00 -0.74505805969E-08  0.93827000000E+00  0.93827000000E+00 0. -1.
     999902    2    1    2    0    0  0.13604925233E-01 -0.18553530855E-01 -0.72026708602E-02  0.10198217864E+01  0.10195367919E+01 0.  0.
     999903    2    3    3    0    0 -0.51233984411E-01  0.11488868812E+00 -0.80039595963E-02  0.12740285330E+00  0.18522738526E-01 0.  0.
         14    1    1    2    0    0 -0.13604925233E-01  0.18553530855E-01  0.72026708602E-02  0.24108213648E-01  0.00000000000E+00 0. -1.
     999901    1    3    3    0    0  0.64838909644E-01 -0.13344221898E+00  0.80128873610E-03  0.89241893305E+00  0.88000000000E+00 0. -1.
        -11    1    4    4    0    0 -0.35399992384E-01  0.77765968460E-01 -0.14042369012E-01  0.86591885069E-01  0.51100000000E-03 0. -1.
         11    1    4    4    0    0 -0.15833992028E-01  0.37122719661E-01  0.60384094157E-02  0.40810968229E-01  0.51100000000E-03 0.  1.
</event>
<event>
 8    1  0.1135368E+005  0.1043930E+01  0.7957747E-01            NaN
         13   -1    0    0    0    0  0.00000000000E+00  0.00000000000E+00  0.74505805969E-08  0.10566000000E+00  0.10566000000E+00 0.  1.
     999900   -1    0    0    0    0 -0.00000000000E+00 -0.00000000000E+00 -0.74505805969E-08  0.93827000000E+00  0.93827000000E+00 0.  1.
     999902    2    1    2    0    0 -0.83578037926E-02  0.23219717391E-02 -0.22051177431E-01  0.10202340328E+01  0.10199588142E+01 0.  0.
     999903    2    3    3    0    0 -0.39167055247E-01  0.55817418248E-01 -0.11286568492E+00  0.13340922056E+00  0.20241415487E-01 0.  0.
         14    1    1    2    0    0  0.83578037926E-02 -0.23219717391E-02  0.22051177431E-01  0.23695967232E-01  0.00000000000E+00 0.  1.
     999901    1    3    3    0    0  0.30809251455E-01 -0.53495446509E-01  0.90814507493E-01  0.88682481221E+00  0.88000000000E+00 0. -1.
        -11    1    4    4    0    0 -0.16212743111E-01  0.31769220546E-01 -0.74782692592E-01  0.82854382175E-01  0.51100000000E-03 0.  1.
         11    1    4    4    0    0 -0.22954312136E-01  0.24048197702E-01 -0.38082992332E-01  0.50554838387E-01  0.51100000000E-03 0. -1.
</event>
<event>
 8    1  0.1135368E+005  0.1043930E+01  0.7957747E-01            NaN
         13   -1    0    0    0    0  0.00000000000E+00  0.00000000000E+00  0.74505805969E-08  0.10566000000E+00  0.10566000000E+00 0. -1.
     999900   -1    0    0    0    0 -0.00000000000E+00 -0.00000000000E+00 -0.74505805969E-08  0.93827000000E+00  0.93827000000E+00 0.  1.
     999902    2    1    2    0    0  0.29550816353E-02 -0.22401866420E-01  0.11499197623E-02  0.10213048272E+01  0.10210541865E+01 0.  0.
     999903    2    3    3    0    0  0.55797169656E-01  0.10484411481E+00 -0.47500467713E-01  0.12925623765E+00  0.18581388178E-01 0.  0.
         14    1    1    2    0    0 -0.29550816353E-02  0.22401866420E-01 -0.11499197623E-02  0.22625172751E-01  0.00000000000E+00 0. -1.
     999901    1    3    3    0    0 -0.52842088021E-01 -0.12724598123E+00  0.48650387476E-01  0.89204858960E+00  0.88000000000E+00 0. -1.
        -11    1    4    4    0    0  0.16518742741E-01  0.19368903220E-01 -0.15912486193E-01  0.30024849901E-01  0.51100000000E-03 0. -1.
         11    1    4    4    0    0  0.39278426915E-01  0.85475211589E-01 -0.31587981520E-01  0.99231387749E-01  0.51100000000E-03 0.  1.
</event>
<event>
 8    1  0.1135368E+005  0.1043930E+01  0.7957747E-01            NaN
         13   -1    0    0    0    0  0.00000000000E+00  0.00000000000E+00  0.74505805969E-08  0.10566000000E+00  0.10566000000E+00 0.  1.
     999900   -1    0    0    0    0 -0.00000000000E+00 -0.00000000000E+00 -0.74505805969E-08  0.93827000000E+00  0.93827000000E+00 0.  1.
     999902    2    1    2    0    0  0.48280688371E-02 -0.16063219060E-01 -0.10896266237E-01  0.10239283532E+01  0.10237329763E+01 0.  0.
     999903    2    3    3    0    0  0.86911445012E-01  0.92286185307E-01 -0.33136112504E-01  0.13321409781E+00  0.24034446731E-01 0.  0.
         14    1    1    2    0    0 -0.48280688371E-02  0.16063219060E-01  0.10896266237E-01  0.20001646761E-01  0.00000000000E+00 0.  1.
     999901    1    3    3    0    0 -0.82083376175E-01 -0.10834940437E+00  0.22239846267E-01  0.89071425543E+00  0.88000000000E+00 0. -1.
        -11    1    4    4    0    0  0.32181302028E-01  0.35331638404E-01 -0.24631142124E-01  0.53767231246E-01  0.51100000000E-03 0. -1.
         11    1    4    4    0    0  0.54730142983E-01  0.56954546903E-01 -0.85049703800E-02  0.79446866559E-01  0.51100000000E-03 0.  1.
</event>
<event>
 8    1  0.1135368E+005  0.1043930E+01  0.7957747E-01            NaN
         13   -1    0    0    0    0  0.00000000000E+00  0.00000000000E+00  0.74505805969E-08  0.10566000000E+00  0.10566000000E+00 0. -1.
     999900   -1    0    0    0    0 -0.00000000000E+00 -0.00000000000E+00 -0.74505805969E-08  0.93827000000E+00  0.93827000000E+00 0. -1.
     999902    2    1    2    0    0  0.21585878556E-01 -0.66262126565E-02  0.29118473667E-02  0.10211630129E+01  0.10209091846E+01 0.  0.
     999903    2    3    3    0    0 -0.39590500192E-01 -0.12384916046E+00 -0.11205632549E-01  0.13117252302E+00  0.13215231486E-01 0.  0.
         14    1    1    2    0    0 -0.21585878556E-01  0.66262126565E-02 -0.29118473667E-02  0.22766987115E-01  0.00000000000E+00 0.  1.
     999901    1    3    3    0    0  0.61176378749E-01  0.11722294780E+00  0.14117479916E-01  0.88999048986E+00  0.88000000000E+00 0. -1.
        -11    1    4    4    0    0 -0.26046878206E-01 -0.70030208348E-01 -0.11948080697E-01  0.75668274058E-01  0.51100000000E-03 0. -1.
         11    1    4    4    0    0 -0.13543621987E-01 -0.53818952110E-01  0.74244814775E-03  0.55504248963E-01  0.51100000000E-03 0.  1.
</event>
<event>
 8    1  0.1135368E+005  0.1043930E+01  0.7957747E-01            NaN
         13   -1    0    0    0    0  0.00000000000E+00  0.00000000000E+00  0.74505805969E-08  0.10566000000E+00  0.10566000000E+00 0.  1.
     999900   -1    0    0    0    0 -0.00000000000E+00 -0.00000000000E+00 -0.74505805969E-08  0.93827000000E+00  0.93827000000E+00 0. -1.
     999902    2    1    2    0    0  0.22984218212E-02 -0.23133876485E-01 -0.40715557327E-02  0.10203283782E+01  0.10200553725E+01 0.  0.
     999903    2    3    3    0    0  0.48373468126E-01  0.71055259863E-01  0.93396119650E-01  0.12875984410E+00  0.21619896286E-01 0.  0.
         14    1    1    2    0    0 -0.22984218212E-02  0.23133876485E-01  0.40715557327E-02  0.23601621770E-01  0.00000000000E+00 0. -1.
     999901    1    3    3    0    0 -0.46075046305E-01 -0.94189136348E-01 -0.97467675383E-01  0.89156853413E+00  0.88000000000E+00 0. -1.
        -11    1    4    4    0    0  0.47135357583E-01  0.66903507666E-01  0.79125353661E-01  0.11383718191E+00  0.51100000000E-03 0. -1.
         11    1    4    4    0    0  0.12381105427E-02  0.41517521968E-02  0.14270765989E-01  0.14922662193E-01  0.51100000000E-03 0.  1.
</event>
<event>
 8    1  0.1135368E+005  0.1043930E+01  0.7957747E-01            NaN
         13   -1    0    0    0    0  0.00000000000E+00  0.00000000000E+00  0.74505805969E-08  0.10566000000E+00  0.10566000000E+00 0.  1.
     999900   -1    0    0    0    0 -0.00000000000E+00 -0.00000000000E+00 -0.74505805969E-08  0.93827000000E+00  0.93827000000E+00 0. -1.
     999902    2    1    2    0    0  0.14061133052E-01 -0.31564542621E-02  0.20242104489E-01  0.10190820331E+01  0.10187790578E+01 0.  0.
     999903    2    3    3    0    0  0.67932466091E-01 -0.12821203260E-01 -0.10633505765E+00  0.12834228103E+00  0.19631439412E-01 0.  0.
         14    1    1    2    0    0 -0.14061133052E-01  0.31564542621E-02 -0.20242104489E-01  0.24847966926E-01  0.00000000000E+00 0. -1.
     999901    1    3    3    0    0 -0.53871333040E-01  0.96647489982E-02  0.12657716213E+00  0.89073975204E+00  0.88000000000E+00 0.  1.
        -11    1    4    4    0    0  0.23400462218E-01 -0.33261404037E-03 -0.51737091938E-01  0.56786266538E-01  0.51100000000E-03 0. -1.
         11    1    4    4    0    0  0.44532003873E-01 -0.12488589220E-01 -0.54597965707E-01  0.71556014492E-01  0.51100000000E-03 0.  1.
</event>
<event>
 8    1  0.1135368E+005  0.1043930E+01  0.7957747E-01            NaN
         13   -1    0    0    0    0  0.00000000000E+00  0.00000000000E+00  0.74505805969E-08  0.10566000000E+00  0.10566000000E+00 0.  1.
     999900   -1    0    0    0    0 -0.00000000000E+00 -0.00000000000E+00 -0.74505805969E-08  0.93827000000E+00  0.93827000000E+00 0.  1.
     999902    2    1    2    0    0 -0.87867215775E-02 -0.82603967404E-02 -0.16641845304E-01  0.10233778311E+01  0.10231714390E+01 0.  0.
     999903    2    3    3    0    0 -0.11468827605E+00  0.25658918967E-01  0.59780823936E-01  0.13309355990E+00  0.18120926830E-01 0.  0.
         14    1    1    2    0    0  0.87867215775E-02  0.82603967404E-02  0.16641845304E-01  0.20552168876E-01  0.00000000000E+00 0.  1.
     999901    1    3    3    0    0  0.10590155448E+00 -0.33919315708E-01 -0.76422669240E-01  0.89028427123E+00  0.88000000000E+00 0.  1.
        -11    1    4    4    0    0 -0.10301379968E+00  0.18727239135E-01  0.48306232246E-01  0.11530960760E+00  0.51100000000E-03 0. -1.
         11    1    4    4    0    0 -0.11674476375E-01  0.69316798320E-02  0.11474591690E-01  0.17783952299E-01  0.51100000000E-03 0.  1.
</event>
<event>
 8    1  0.1135368E+005  0.1043930E+01  0.7957747E-01            NaN
         13   -1    0    0    0    0  0.00000000000E+00  0.00000000000E+00  0.74505805969E-08  0.10566000000E+00  0.10566000000E+00 0. -1.
     999900   -1    0    0    0    0 -0.00000000000E+00 -0.00000000000E+00 -0.74505805969E-08  0.93827000000E+00  0.93827000000E+00 0. -1.
     999902    2    1    2    0    0 -0.11972132254E-01 -0.19527221956E-01  0.19360989550E-02  0.10209432032E+01  0.10206843936E+01 0.  0.
     999903    2    3    3    0    0 -0.57576650288E-01 -0.10836881513E-01  0.11688892887E+00  0.13225346702E+00  0.19885904267E-01 0.  0.
         14    1    1    2    0    0  0.11972132254E-01  0.19527221956E-01 -0.19360989550E-02  0.22986796802E-01  0.00000000000E+00 0.  1.
     999901    1    3    3    0    0  0.45604518034E-01 -0.86903404429E-02 -0.11495282991E+00  0.88868973618E+00  0.88000000000E+00 0. -1.
        -11    1    4    4    0    0 -0.38285200628E-01 -0.79548090710E-02  0.55913023830E-01  0.68231685669E-01  0.51100000000E-03 0.  1.
         11    1    4    4    0    0 -0.19291449660E-01 -0.28820724424E-02  0.60975905036E-01  0.64021781352E-01  0.51100000000E-03 0. -1.
</event>
<event>
 8    1  0.1135368E+005  0.1043930E+01  0.7957747E-01            NaN
         13   -1    0    0    0    0  0.00000000000E+00  0.00000000000E+00  0.74505805969E-08  0.10566000000E+00  0.10566000000E+00 0. -1.
     999900   -1    0    0    0    0 -0.00000000000E+00 -0.00000000000E+00 -0.74505805969E-08  0.93827000000E+00  0.93827000000E+00 0.  1.
     999902    2    1    2    0    0 -0.23527503699E-01 -0.39457563506E-03  0.17434703287E-02  0.10203346867E+01  0.10200618286E+01 0.  0.
     999903    2    3    3    0    0  0.15419257724E-01  0.10994498493E+00  0.61172684310E-01  0.13060242343E+00  0.31452225364E-01 0.  0.
         14    1    1    2    0    0  0.23527503699E-01  0.39457563506E-03 -0.17434703287E-02  0.23595313285E-01  0.00000000000E+00 0.  1.
     999901    1    3    3    0    0 -0.38946761423E-01 -0.11033956057E+00 -0.59429213982E-01  0.88973226328E+00  0.88000000000E+00 0.  1.
        -11    1    4    4    0    0 -0.14227282431E-02  0.86521640946E-01  0.45627293984E-01  0.97827039130E-01  0.51100000000E-03 0.  1.
         11    1    4    4    0    0  0.16841985967E-01  0.23423343986E-01  0.15545390327E-01  0.32775384303E-01  0.51100000000E-03 0. -1.
</event>
<event>
 8    1  0.1135368E+005  0.1043930E+01  0.7957747E-01            NaN
         13   -1    0    0    0    0  0.00000000000E+00  0.00000000000E+00  0.74505805969E-08  0.10566000000E+00  0.10566000000E+00 0. -1.
     999900   -1    0    0    0    0 -0.00000000000E+00 -0.00000000000E+00 -0.74505805969E-08  0.93827000000E+00  0.93827000000E+00 0. -1.
     999902    2    1    2    0    0 -0.94747896447E-02  0.11367162948E-01 -0.18875890823E-01  0.10199449362E+01  0.10196628803E+01 0.  0.
     999903    2    3    3    0    0 -0.10722481527E+00  0.65186167922E-01  0.33341280906E-01  0.13136281514E+00  0.19953713699E-01 0.  0.
         14    1    1    2    0    0  0.94747896447E-02 -0.11367162948E-01  0.18875890823E-01  0.23985063825E-01  0.00000000000E+00 0. -1.
     999901    1    3    3    0    0  0.97750025624E-01 -0.53819004974E-01 -0.52217171729E-01  0.88858212104E+00  0.88000000000E+00 0. -1.
        -11    1    4    4    0    0 -0.10837469975E-01  0.29442387428E-03  0.23719314964E-02  0.11109663401E-01  0.51100000000E-03 0.  1.
         11    1    4    4    0    0 -0.96387345295E-01  0.64891744048E-01  0.30969349409E-01  0.12025315174E+00  0.51100000000E-03 0. -1.
</event>
<event>
 8    1  0.1135368E+005  0.1043930E+01  0.7957747E-01            NaN
         13   -1    0    0    0    0  0.00000000000E+00  0.00000000000E+00  0.74505805969E-08  0.10566000000E+00  0.10566000000E+00 0. -1.
     999900   -1    0    0    0    0 -0.00000000000E+00 -0.00000000000E+00 -0.74505805969E-08  0.93827000000E+00  0.93827000000E+00 0.  1.
     999902    2    1    2    0    0  0.67604553733E-02  0.17232383711E-01 -0.18614597063E-01  0.10176781043E+01  0.10173394526E+01 0.  0.
     999903    2    3    3    0    0  0.11469197995E+00 -0.46995487718E-01 -0.26255021831E-01  0.12872770659E+00  0.22774330741E-01 0.  0.
         14    1    1    2    0    0 -0.67604553733E-02 -0.17232383711E-01  0.18614597063E-01  0.26251895722E-01  0.00000000000E+00 0. -1.
     999901    1    3    3    0    0 -0.10793152458E+00  0.64227871429E-01  0.76404247681E-02  0.88895039769E+00  0.88000000000E+00 0. -1.
        -11    1    4    4    0    0  0.41428011025E-01 -0.15808067951E-01  0.15874660161E-02  0.44372922815E-01  0.51100000000E-03 0. -1.
         11    1    4    4    0    0  0.73263968925E-01 -0.31187419767E-01 -0.27842487847E-01  0.84354783770E-01  0.51100000000E-03 0.  1.
</event>
<event>
 8    1  0.1135368E+005  0.1043930E+01  0.7957747E-01            NaN
         13   -1    0    0    0    0  0.00000000000E+00  0.00000000000E+00  0.74505805969E-08  0.10566000000E+00  0.10566000000E+00 0. -1.
     999900   -1    0    0    0    0 -0.00000000000E+00 -0.00000000000E+00 -0.74505805969E-08  0.93827000000E+00  0.93827000000E+00 0.  1.
     999902    2    1    2    0    0 -0.21050434760E-01 -0.84167263043E-02  0.52895843192E-02  0.10206503568E+01  0.10203848338E+01 0.  0.
     999903    2    3    3    0    0 -0.47049751031E-01 -0.14390383195E-01  0.12153771848E+00  0.13260459350E+00  0.19793913310E-01 0.  0.
         14    1    1    2    0    0  0.21050434760E-01  0.84167263043E-02 -0.52895843192E-02  0.23279643200E-01  0.00000000000E+00 0. -1.
     999901    1    3    3    0    0  0.25999316271E-01  0.59736568912E-02 -0.11624813416E+00  0.88804576330E+00  0.88000000000E+00 0.  1.
        -11    1    4    4    0    0 -0.50374250811E-02 -0.42793423781E-02  0.37762262802E-01  0.38339770938E-01  0.51100000000E-03 0. -1.
         11    1    4    4    0    0 -0.42012325950E-01 -0.10111040817E-01  0.83775455673E-01  0.94264822560E-01  0.51100000000E-03 0.  1.
</event>
<event>
 8    1  0.1135368E+005  0.1043930E+01  0.7957747E-01            NaN
         13   -1    0    0    0    0  0.00000000000E+00  0.00000000000E+00  0.74505805969E-08  0.10566000000E+00  0.10566000000E+00 0.  1.
     999900   -1    0    0    0    0 -0.00000000000E+00 -0.00000000000E+00 -0.74505805969E-08  0.93827000000E+00  0.93827000000E+00 0.  1.
     999902    2    1    2    0    0  0.14705254052E-01 -0.18024609328E-01  0.11923146243E-02  0.10206372403E+01  0.10203714146E+01 0.  0.
     999903    2    3    3    0    0  0.70769006791E-01 -0.11074451527E+00 -0.15134636118E-01  0.13384149461E+00  0.20295035990E-01 0.  0.
         14    1    1    2    0    0 -0.14705254052E-01  0.18024609328E-01 -0.11923146243E-02  0.23292759655E-01  0.00000000000E+00 0. -1.
     999901    1    3    3    0    0 -0.56063752739E-01  0.92719905939E-01  0.16326950742E-01  0.88679574573E+00  0.88000000000E+00 0.  1.
        -11    1    4    4    0    0  0.16313085894E-01 -0.18693802382E-01  0.41578588098E-02  0.25161954013E-01  0.51100000000E-03 0. -1.
         11    1    4    4    0    0  0.54455920898E-01 -0.92050712885E-01 -0.19292494928E-01  0.10867954060E+00  0.51100000000E-03 0.  1.
</event>
<event>
 8    1  0.1135368E+005  0.1043930E+01  0.7957747E-01            NaN
         13   -1    0    0    0    0  0.00000000000E+00  0.00000000000E+00  0.74505805969E-08  0.10566000000E+00  0.10566000000E+00 0.  1.
     999900   -1    0    0    0    0 -0.00000000000E+00 -0.00000000000E+00 -0.74505805969E-08  0.93827000000E+00  0.93827000000E+00 0.  1.
     999902    2    1    2    0    0 -0.11561884708E-01  0.21363377224E-01 -0.53178314469E-02  0.10190633477E+01  0.10187599110E+01 0.  0.
     999903    2    3    3    0    0 -0.11884393938E-01 -0.12479562538E+00  0.37439615489E-02  0.12696207872E+00  0.19752601130E-01 0.  0.
         14    1    1    2    0    0  0.11561884708E-01 -0.21363377224E-01  0.53178314469E-02  0.24866652283E-01  0.00000000000E+00 0.  1.
     999901    1    3    3    0    0  0.32250922933E-03  0.14615900260E+00 -0.90617929958E-02  0.89210126900E+00  0.88000000000E+00 0. -1.
        -11    1    4    4    0    0 -0.17425022235E-01 -0.95757448131E-01  0.22284109981E-02  0.97356803610E-01  0.51100000000E-03 0. -1.
         11    1    4    4    0    0  0.55406282971E-02 -0.29038177249E-01  0.15155505508E-02  0.29605275110E-01  0.51100000000E-03 0.  1.
</event>
<event>
 8    1  0.1135368E+005  0.1043930E+01  0.7957747E-01            NaN
         13   -1    0    0    0    0  0.00000000000E+00  0.00000000000E+00  0.74505805969E-08  0.10566000000E+00  0.10566000000E+00 0. -1.
     999900   -1    0    0    0    0 -0.00000000000E+00 -0.00000000000E+00 -0.74505805969E-08  0.93827000000E+00  0.93827000000E+00 0.  1.
     999902    2    1    2    0    0  0.27970387278E-04 -0.17490519169E-01 -0.14901570733E-01  0.10209522748E+01  0.10206936718E+01 0.  0.
     999903    2    3    3    0    0  0.13603781082E-01 -0.13124992833E+00 -0.30129857506E-02  0.13344630626E+00  0.19678211957E-01 0.  0.
         14    1    1    2    0    0 -0.27970387278E-04  0.17490519169E-01  0.14901570733E-01  0.22977725159E-01  0.00000000000E+00 0. -1.
     999901    1    3    3    0    0 -0.13575810695E-01  0.11375940916E+00 -0.11888584983E-01  0.88750596858E+00  0.88000000000E+00 0.  1.
        -11    1    4    4    0    0  0.18247068696E-01 -0.92155808933E-01 -0.44045357181E-02  0.94049506601E-01  0.51100000000E-03 0.  1.
         11    1    4    4    0    0 -0.46432876135E-02 -0.39094119397E-01  0.13915499675E-02  0.39396799662E-01  0.51100000000E-03 0. -1.
</event>
<event>
 8    1  0.1135368E+005  0.1043930E+01  0.7957747E-01            NaN
         13   -1    0    0    0    0  0.00000000000E+00  0.00000000000E+00  0.74505805969E-08  0.10566000000E+00  0.10566000000E+00 0. -1.
     999900   -1    0    0    0    0 -0.00000000000E+00 -0.00000000000E+00 -0.74505805969E-08  0.93827000000E+00  0.93827000000E+00 0.  1.
     999902    2    1    2    0    0 -0.15980897378E-02  0.18716364827E-01 -0.78904631684E-02  0.10235556138E+01  0.10233528126E+01 0.  0.
     999903    2    3    3    0    0 -0.70306384380E-01 -0.10280649656E+00 -0.38867153652E-01  0.13201302317E+00  0.20115149385E-01 0.  0.
         14    1    1    2    0    0  0.15980897378E-02 -0.18716364827E-01  0.78904631684E-02  0.20374386179E-01  0.00000000000E+00 0. -1.
     999901    1    3    3    0    0  0.68708294643E-01  0.12152286138E+00  0.30976690484E-01  0.89154259065E+00  0.88000000000E+00 0.  1.
        -11    1    4    4    0    0 -0.29924522159E-01 -0.30177723726E-01 -0.19078000733E-01  0.46587587067E-01  0.51100000000E-03 0.  1.
         11    1    4    4    0    0 -0.40381862222E-01 -0.72628772830E-01 -0.19789152919E-01  0.85425436103E-01  0.51100000000E-03 0. -1.
</event>
<event>
 8    1  0.1135368E+005  0.1043930E+01  0.7957747E-01            NaN
         13   -1    0    0    0    0  0.00000000000E+00  0.00000000000E+00  0.74505805969E-08  0.10566000000E+00  0.10566000000E+00 0. -1.
     999900   -1    0    0    0    0 -0.00000000000E+00 -0.00000000000E+00 -0.74505805969E-08  0.93827000000E+00  0.93827000000E+00 0.  1.
     999902    2    1    2    0    0 -0.36771232402E-02 -0.20200069150E-01  0.14237377737E-01  0.10189446652E+01  0.10186382890E+01 0.  0.
     999903    2    3    3    0    0 -0.26562974152E-01  0.11761561174E+00  0.36484828521E-01  0.12764680640E+00  0.20580105755E-01 0.  0.
         14    1    1    2    0    0  0.36771232402E-02  0.20200069150E-01 -0.14237377737E-01  0.24985334775E-01  0.00000000000E+00 0. -1.
     999901    1    3    3    0    0  0.22885850912E-01 -0.13781568089E+00 -0.22247450784E-01  0.89129785882E+00  0.88000000000E+00 0.  1.
        -11    1    4    4    0    0 -0.51078661827E-02  0.68482872966E-01  0.19057621738E-01  0.71270248028E-01  0.51100000000E-03 0.  1.
         11    1    4    4    0    0 -0.21455107970E-01  0.49132738771E-01  0.17427206783E-01  0.56376558377E-01  0.51100000000E-03 0. -1.
</event>
<event>
 8    1  0.1135368E+005  0.1043930E+01  0.7957747E-01            NaN
         13   -1    0    0    0    0  0.00000000000E+00  0.00000000000E+00  0.74505805969E-08  0.10566000000E+00  0.10566000000E+00 0. -1.
     999900   -1    0    0    0    0 -0.00000000000E+00 -0.00000000000E+00 -0.74505805969E-08  0.93827000000E+00  0.93827000000E+00 0.  1.
     999902    2    1    2    0    0  0.22213538519E-01  0.47860989629E-02 -0.74133394582E-02  0.10200279993E+01  0.10197479167E+01 0.  0.
     999903    2    3    3    0    0  0.86169424585E-01  0.98531879064E-01  0.32072257546E-02  0.13267721010E+00  0.21430232301E-01 0.  0.
         14    1    1    2    0    0 -0.22213538519E-01 -0.47860989629E-02  0.74133394582E-02  0.23902000727E-01  0.00000000000E+00 0. -1.
     999901    1    3    3    0    0 -0.63955886066E-01 -0.93745780101E-01 -0.10620565213E-01  0.88735078918E+00  0.88000000000E+00 0.  1.
        -11    1    4    4    0    0  0.56380211944E-01  0.49897863839E-01  0.63328316503E-02  0.75557203444E-01  0.51100000000E-03 0. -1.
         11    1    4    4    0    0  0.29789212641E-01  0.48634015225E-01 -0.31256058957E-02  0.57120006652E-01  0.51100000000E-03 0.  1.
</event>
<event>
 8    1  0.1135368E+005  0.1043930E+01  0.7957747E-01            NaN
         13   -1    0    0    0    0  0.00000000000E+00  0.00000000000E+00  0.74505805969E-08  0.10566000000E+00  0.10566000000E+00 0.  1.
     999900   -1    0    0    0    0 -0.00000000000E+00 -0.00000000000E+00 -0.74505805969E-08  0.93827000000E+00  0.93827000000E+00 0.  1.
     999902    2    1    2    0    0 -0.85256938704E-02  0.11485259734E-01 -0.18952449780E-01  0.10201856533E+01  0.10199092966E+01 0.  0.
     999903    2    3    3    0    0  0.52126232594E-01  0.94857324541E-01 -0.73670587109E-01  0.13247870170E+00  0.20203832726E-01 0.  0.
         14    1    1    2    0    0  0.85256938704E-02 -0.11485259734E-01  0.18952449780E-01  0.23744346691E-01  0.00000000000E+00 0.  1.
     999901    1    3    3    0    0 -0.60651926464E-01 -0.83372064807E-01  0.54718137328E-01  0.88770695160E+00  0.88000000000E+00 0. -1.
        -11    1    4    4    0    0  0.41620193342E-01  0.85391990489E-01 -0.69568629305E-01  0.11774586123E+00  0.51100000000E-03 0.  1.
         11    1    4    4    0    0  0.10506039252E-01  0.94653340518E-02 -0.41019578036E-02  0.14732840470E-01  0.51100000000E-03 0. -1.
</event>
<event>
 8    1  0.1135368E+005  0.1043930E+01  0.7957747E-01            NaN
         13   -1    0    0    0    0  0.00000000000E+00  0.00000000000E+00  0.74505805969E-08  0.10566000000E+00  0.10566000000E+00 0. -1.
     999900   -1    0    0    0    0 -0.00000000000E+00 -0.00000000000E+00 -0.74505805969E-08  0.93827000000E+00  0.93827000000E+00 0. -1.
     999902    2    1    2    0    0 -0.18255351762E-01 -0.91422322587E-02  0.11775058719E-01  0.10203611586E+01  0.10200889195E+01 0.  0.
     999903    2    3    3    0    0  0.97807402797E-01 -0.24801882303E-01  0.79513239705E-01  0.13002175767E+00  0.20046964118E-01 0.  0.
         14    1    1    2    0    0  0.18255351762E-01  0.91422322587E-02 -0.11775058719E-01  0.23568841433E-01  0.00000000000E+00 0.  1.
     999901    1    3    3    0    0 -0.11606275456E+00  0.15659650045E-01 -0.67738180986E-01  0.89033940090E+00  0.88000000000E+00 0. -1.
        -11    1    4    4    0    0  0.47672193214E-01 -0.22315606122E-01  0.42431608743E-01  0.67611587941E-01  0.51100000000E-03 0.  1.
         11    1    4    4    0    0  0.50135209583E-01 -0.24862761810E-02  0.37081630962E-01  0.62410169724E-01  0.51100000000E-03 0. -1.
</event>
<event>
 8    1  0.1135368E+005  0.1043930E+01  0.7957747E-01            NaN
         13   -1    0    0    0    0  0.00000000000E+00  0.00000000000E+00  0.74505805969E-08  0.10566000000E+00  0.10566000000E+00 0.  1.
     999900   -1    0    0    0    0 -0.00000000000E+00 -0.00000000000E+00 -0.74505805969E-08  0.93827000000E+00  0.93827000000E+00 0. -1.
     999902    2    1    2    0    0  0.12366702198E-01 -0.11588732768E-01  0.15864608158E-01  0.10207153528E+01  0.10204513275E+01 0.  0.
     999903    2    3    3    0    0  0.31689366688E-01 -0.27719462979E-01 -0.12102250069E+00  0.12977672062E+00  0.20566160398E-01 0.  0.
         14    1    1    2    0    0 -0.12366702198E-01  0.11588732768E-01 -0.15864608158E-01  0.23214647153E-01  0.00000000000E+00 0. -1.
     999901    1    3    3    0    0 -0.19322664490E-01  0.16130730211E-01  0.13688710885E+00  0.89093863222E+00  0.88000000000E+00 0.  1.
        -11    1    4    4    0    0  0.21300127615E-01 -0.28054388708E-01 -0.79243962307E-01  0.86721455507E-01  0.51100000000E-03 0.  1.
         11    1    4    4    0    0  0.10389239074E-01  0.33492572938E-03 -0.41778538383E-01  0.43055265116E-01  0.51100000000E-03 0. -1.
</event>
<event>
 8    1  0.1135368E+005  0.1043930E+01  0.7957747E-01            NaN
         13   -1    0    0    0    0  0.00000000000E+00  0.00000000000E+00  0.74505805969E-08  0.10566000000E+00  0.10566000000E+00 0.  1.
     999900   -1    0    0    0    0 -0.00000000000E+00 -0.00000000000E+00 -0.74505805969E-08  0.93827000000E+00  0.93827000000E+00 0.  1.
     999902    2    1    2    0    0  0.68232982469E-02 -0.56029265568E-02  0.22824146135E-01  0.10194577334E+01  0.10191639605E+01 0.  0.
     999903    2    3    3    0    0 -0.65864006310E-03 -0.11471035661E+00 -0.56191849250E-01  0.12917466707E+00  0.19226829434E-01 0.  0.
         14    1    1    2    0    0 -0.68232982469E-02  0.56029265568E-02 -0.22824146135E-01  0.24472266584E-01  0.00000000000E+00 0. -1.
     999901    1    3    3    0    0  0.74819383100E-02  0.10910743005E+00  0.79015995385E-01  0.89028306635E+00  0.88000000000E+00 0. -1.
        -11    1    4    4    0    0 -0.29281275628E-02 -0.73354365897E-01 -0.25863335532E-01  0.77837074540E-01  0.51100000000E-03 0.  1.
         11    1    4    4    0    0  0.22694874997E-02 -0.41355990715E-01 -0.30328513718E-01  0.51337592531E-01  0.51100000000E-03 0. -1.
</event>
<event>
 8    1  0.1135368E+005  0.1043930E+01  0.7957747E-01            NaN
         13   -1    0    0    0    0  0.00000000000E+00  0.00000000000E+00  0.74505805969E-08  0.10566000000E+00  0.10566000000E+00 0. -1.
     999900   -1    0    0    0    0 -0.00000000000E+00 -0.00000000000E+00 -0.74505805969E-08  0.93827000000E+00  0.93827000000E+00 0.  1.
     999902    2    1    2    0    0  0.14824639567E-01 -0.85405230749E-02 -0.10943329898E-01  0.10236207178E+01  0.10234192235E+01 0.  0.
     999903    2    3    3    0    0  0.37619427695E-02  0.45331286814E-01  0.12220122841E+00  0.13190774352E+00  0.19935766823E-01 0.  0.
         14    1    1    2    0    0 -0.14824639567E-01  0.85405230749E-02  0.10943329898E-01  0.20309282162E-01  0.00000000000E+00 0. -1.
     999901    1    3    3    0    0  0.11062696797E-01 -0.53871809889E-01 -0.13314455830E+00  0.89171297432E+00  0.88000000000E+00 0.  1.
        -11    1    4    4    0    0 -0.70402212345E-02  0.91955014681E-02  0.22515672782E-01  0.25324663948E-01  0.51100000000E-03 0.  1.
         11    1    4    4    0    0  0.10802164004E-01  0.36135785346E-01  0.99685555625E-01  0.10658307957E+00  0.51100000000E-03 0. -1.
</event>
<event>
 8    1  0.1135368E+005  0.1043930E+01  0.7957747E-01            NaN
         13   -1    0    0    0    0  0.00000000000E+00  0.00000000000E+00  0.74505805969E-08  0.10566000000E+00  0.10566000000E+00 0.  1.
     999900   -1    0    0    0    0 -0.00000000000E+00 -0.00000000000E+00 -0.74505805969E-08  0.93827000000E+00  0.93827000000E+00 0.  1.
     999902    2    1    2    0    0  0.21827725435E-02  0.18520922036E-01 -0.16564549029E-01  0.10189865974E+01  0.10186812614E+01 0.  0.
     999903    2    3    3    0    0 -0.11102671379E+00  0.40017616865E-02 -0.64948196756E-01  0.13029757913E+00  0.20402097808E-01 0.  0.
         14    1    1    2    0    0 -0.21827725435E-02 -0.18520922036E-01  0.16564549029E-01  0.24943402606E-01  0.00000000000E+00 0. -1.
     999901    1    3    3    0    0  0.11320948633E+00  0.14519160349E-01  0.48383647727E-01  0.88868901826E+00  0.88000000000E+00 0. -1.
        -11    1    4    4    0    0 -0.85898136122E-01  0.52426652236E-02 -0.40138418108E-01  0.94959618034E-01  0.51100000000E-03 0. -1.
         11    1    4    4    0    0 -0.25128577665E-01 -0.12409035371E-02 -0.24809778648E-01  0.35337961099E-01  0.51100000000E-03 0.  1.
</event>
<event>
 8    1  0.1135368E+005  0.1043930E+01  0.7957747E-01            NaN
         13   -1    0    0    0    0  0.00000000000E+00  0.00000000000E+00  0.74505805969E-08  0.10566000000E+00  0.10566000000E+00 0.  1.
     999900   -1    0    0    0    0 -0.00000000000E+00 -0.00000000000E+00 -0.74505805969E-08  0.93827000000E+00  0.93827000000E+00 0. -1.
     999902    2    1    2    0    0 -0.15160892229E-01  0.16838433412E-01 -0.52080932323E-02  0.10206811349E+01  0.10204163216E+01 0.  0.
     999903    2    3    3    0    0  0.69039904191E-01  0.85294417095E-01  0.68678404871E-01  0.13094229096E+00  0.19685383138E-01 0.  0.
         14    1    1    2    0    0  0.15160892229E-01 -0.16838433412E-01  0.52080932323E-02  0.23248865092E-01  0.00000000000E+00 0. -1.
     999901    1    3    3    0    0 -0.84200796420E-01 -0.68455983683E-01 -0.73886498103E-01  0.88973884394E+00  0.88000000000E+00 0. -1.
        -11    1    4    4    0    0  0.36939271785E-01  0.60598843979E-01  0.44577661761E-01  0.83810254389E-01  0.51100000000E-03 0. -1.
         11    1    4    4    0    0  0.32100632406E-01  0.24695573116E-01  0.24100743110E-01  0.47132036576E-01  0.51100000000E-03 0.  1.
</event>
<event>
 8    1  0.1135368E+005  0.1043930E+01  0.7957747E-01            NaN
         13   -1    0    0    0    0  0.00000000000E+00  0.00000000000E+00  0.74505805969E-08  0.10566000000E+00  0.10566000000E+00 0. -1.
     999900   -1    0    0    0    0 -0.00000000000E+00 -0.00000000000E+00 -0.74505805969E-08  0.93827000000E+00  0.93827000000E+00 0. -1.
     999902    2    1    2    0    0 -0.96902621875E-02  0.91984386156E-02  0.18870329372E-01  0.10208085428E+01  0.10205466570E+01 0.  0.
     999903    2    3    3    0    0 -0.56445528438E-01 -0.10385116913E+00  0.54375459053E-01  0.13163652174E+00  0.20008005856E-01 0.  0.
         14    1    1    2    0    0  0.96902621875E-02 -0.91984386156E-02 -0.18870329372E-01  0.23121457238E-01  0.00000000000E+00 0.  1.
     999901    1    3    3    0    0  0.46755266251E-01  0.11304960775E+00 -0.35505129682E-01  0.88917202102E+00  0.88000000000E+00 0. -1.
        -11    1    4    4    0    0 -0.34899087569E-01 -0.63622458550E-01  0.22524509271E-01  0.75982749253E-01  0.51100000000E-03 0.  1.
         11    1    4    4    0    0 -0.21546440869E-01 -0.40228710579E-01  0.31850949783E-01  0.55653772487E-01  0.51100000000E-03 0. -1.
</event>
<event>
 8    1  0.1135368E+005  0.1043930E+01  0.7957747E-01            NaN
         13   -1    0    0    0    0  0.00000000000E+00  0.00000000000E+00  0.74505805969E-08  0.10566000000E+00  0.10566000000E+00 0.  1.
     999900   -1    0    0    0    0 -0.00000000000E+00 -0.00000000000E+00 -0.74505805969E-08  0.93827000000E+00  0.93827000000E+00 0. -1.
     999902    2    1    2    0    0 -0.10987935775E-01  0.34098254737E-02  0.20781343849E-01  0.10201765604E+01  0.10198999894E+01 0.  0.
     999903    2    3    3    0    0 -0.11832295315E+00  0.25649710720E-01 -0.45703034688E-01  0.13088718618E+00  0.19607631777E-01 0.  0.
         14    1    1    2    0    0  0.10987935775E-01 -0.34098254737E-02 -0.20781343849E-01  0.23753439636E-01  0.00000000000E+00 0. -1.
     999901    1    3    3    0    0  0.10733501737E+00 -0.22239885246E-01  0.66484378537E-01  0.88928937419E+00  0.88000000000E+00 0.  1.
        -11    1    4    4    0    0 -0.54763641005E-01  0.64460090319E-02 -0.29503600790E-01  0.62540634704E-01  0.51100000000E-03 0. -1.
         11    1    4    4    0    0 -0.63559312145E-01  0.19203701688E-01 -0.16199433897E-01  0.68346551475E-01  0.51100000000E-03 0.  1.
</event>
<event>
 8    1  0.1135368E+005  0.1043930E+01  0.7957747E-01            NaN
         13   -1    0    0    0    0  0.00000000000E+00  0.00000000000E+00  0.74505805969E-08  0.10566000000E+00  0.10566000000E+00 0. -1.
     999900   -1    0    0    0    0 -0.00000000000E+00 -0.00000000000E+00 -0.74505805969E-08  0.93827000000E+00  0.93827000000E+00 0. -1.
     999902    2    1    2    0    0  0.14485609708E-01  0.69914411234E-02 -0.17062753902E-01  0.10204811043E+01  0.10202116612E+01 0.  0.
     999903    2    3    3    0    0 -0.34882522732E-01 -0.51078304189E-01  0.11001389634E+00  0.12809229733E+00  0.21881400688E-01 0.  0.
         14    1    1    2    0    0 -0.14485609708E-01 -0.69914411234E-02  0.17062753902E-01  0.23448895674E-01  0.00000000000E+00 0. -1.
     999901    1    3    3    0    0  0.49368132440E-01  0.58069745312E-01 -0.12707665024E+00  0.89238880700E+00  0.88000000000E+00 0. -1.
        -11    1    4    4    0    0 -0.10009542690E-01 -0.26093248663E-01  0.32052255977E-01  0.42528305926E-01  0.51100000000E-03 0. -1.
         11    1    4    4    0    0 -0.24872980041E-01 -0.24985055525E-01  0.77961640361E-01  0.85563991402E-01  0.51100000000E-03 0.  1.
</event>
<event>
 8    1  0.1135368E+005  0.1043930E+01  0.7957747E-01            NaN
         13   -1    0    0    0    0  0.00000000000E+00  0.00000000000E+00  0.74505805969E-08  0.10566000000E+00  0.10566000000E+00 0.  1.
     999900   -1    0    0    0    0 -0.00000000000E+00 -0.00000000000E+00 -0.74505805969E-08  0.93827000000E+00  0.93827000000E+00 0. -1.
     999902    2    1    2    0    0  0.33467604232E-02  0.16478598305E-01 -0.16597501676E-01  0.10203032764E+01  0.10200296828E+01 0.  0.
     999903    2    3    3    0    0 -0.12554689614E+00 -0.19732288637E-01 -0.19296091775E-01  0.13017290085E+00  0.20524585602E-01 0.  0.
         14    1    1    2    0    0 -0.33467604232E-02 -0.16478598305E-01  0.16597501676E-01  0.23626723626E-01  0.00000000000E+00 0.  1.
     999901    1    3    3    0    0  0.12889365656E+00  0.36210886942E-01  0.26985900989E-02  0.89013037552E+00  0.88000000000E+00 0. -1.
        -11    1    4    4    0    0 -0.43940553688E-01  0.24681287922E-02 -0.95756386699E-02  0.45042401081E-01  0.51100000000E-03 0.  1.
         11    1    4    4    0    0 -0.81606342450E-01 -0.22200417429E-01 -0.97204531051E-02  0.85130499773E-01  0.51100000000E-03 0. -1.
</event>
<event>
 8    1  0.1135368E+005  0.1043930E+01  0.7957747E-01            NaN
         13   -1    0    0    0    0  0.00000000000E+00  0.00000000000E+00  0.74505805969E-08  0.10566000000E+00  0.10566000000E+00 0.  1.
     999900   -1    0    0    0    0 -0.00000000000E+00 -0.00000000000E+00 -0.74505805969E-08  0.93827000000E+00  0.93827000000E+00 0. -1.
     999902    2    1    2    0    0  0.21543788815E-01  0.54093062985E-02 -0.76652461869E-02  0.10204320973E+01  0.10201615136E+01 0.  0.
     999903    2    3    3    0    0  0.29223292861E-01  0.12165965918E+00  0.36030889804E-01  0.13167877293E+00  0.19646900584E-01 0.  0.
         14    1    1    2    0    0 -0.21543788815E-01 -0.54093062985E-02  0.76652461869E-02  0.23497902678E-01  0.00000000000E+00 0.  1.
     999901    1    3    3    0    0 -0.76795040456E-02 -0.11625035288E+00 -0.43696135991E-01  0.88875332440E+00  0.88000000000E+00 0.  1.
        -11    1    4    4    0    0  0.24486983556E-01  0.10758450466E+00  0.37982333154E-01  0.11669171676E+00  0.51100000000E-03 0.  1.
         11    1    4    4    0    0  0.47363093044E-02  0.14075154514E-01 -0.19514433497E-02  0.14987056167E-01  0.51100000000E-03 0. -1.
</event>
<event>
 8    1  0.1135368E+005  0.1043930E+01  0.7957747E-01            NaN
         13   -1    0    0    0    0  0.00000000000E+00  0.00000000000E+00  0.74505805969E-08  0.10566000000E+00  0.10566000000E+00 0. -1.
     999900   -1    0    0    0    0 -0.00000000000E+00 -0.00000000000E+00 -0.74505805969E-08  0.93827000000E+00  0.93827000000E+00 0. -1.
     999902    2    1    2    0    0  0.27093306075E-01 -0.94536701798E-03 -0.47133641704E-02  0.10164135185E+01  0.10160409853E+01 0.  0.
     999903    2    3    3    0    0  0.11409714956E+00 -0.31838779074E-01 -0.49486605300E-01  0.13045149063E+00  0.23168942828E-01 0.  0.
         14    1    1    2    0    0 -0.27093306075E-01  0.94536701798E-03  0.47133641704E-02  0.27516481509E-01  0.00000000000E+00 0. -1.
     999901    1    3    3    0    0 -0.87003843489E-01  0.30893412056E-01  0.44773241130E-01  0.88596202786E+00  0.88000000000E+00 0.  1.
        -11    1    4    4    0    0  0.70555864888E-01 -0.13336835352E-01 -0.40004401949E-01  0.82198628599E-01  0.51100000000E-03 0.  1.
         11    1    4    4    0    0  0.43541284676E-01 -0.18501943722E-01 -0.94822033513E-02  0.48252862030E-01  0.51100000000E-03 0. -1.
</event>
<event>
 8    1  0.1135368E+005  0.1043930E+01  0.7957747E-01            NaN
         13   -1    0    0    0    0  0.00000000000E+00  0.00000000000E+00  0.74505805969E-08  0.10566000000E+00  0.10566000000E+00 0. -1.
     999900   -1    0    0    0    0 -0.00000000000E+00 -0.00000000000E+00 -0.74505805969E-08  0.93827000000E+00  0.93827000000E+00 0.  1.
     999902    2    1    2    0    0 -0.11717351815E-01 -0.11480256784E-01  0.63877226715E-02  0.10263261473E+01  0.10261751629E+01 0.  0.
     999903    2    3    3    0    0 -0.29546540146E-01  0.66440800464E-01 -0.11179090065E+00  0.13483539684E+00  0.19899768126E-01 0.  0.
         14    1    1    2    0    0  0.11717351815E-01  0.11480256784E-01 -0.63877226715E-02  0.17603852712E-01  0.00000000000E+00 0. -1.
     999901    1    3    3    0    0  0.17829188331E-01 -0.77921057248E-01  0.11817862333E+00  0.89149075045E+00  0.88000000000E+00 0. -1.
        -11    1    4    4    0    0 -0.14737142244E-01  0.31437546637E-01 -0.71256776225E-01  0.79267218817E-01  0.51100000000E-03 0. -1.
         11    1    4    4    0    0 -0.14809397903E-01  0.35003253827E-01 -0.40534124430E-01  0.55568178025E-01  0.51100000000E-03 0.  1.
</event>
<event>
 8    1  0.1135368E+005  0.1043930E+01  0.7957747E-01            NaN
         13   -1    0    0    0    0  0.00000000000E+00  0.00000000000E+00  0.74505805969E-08  0.10566000000E+00  0.10566000000E+00 0.  1.
     999900   -1    0    0    0    0 -0.00000000000E+00 -0.00000000000E+00 -0.74505805969E-08  0.93827000000E+00  0.93827000000E+00 0.  1.
     999902    2    1    2    0    0  0.94212047410E-02  0.26439255183E-02  0.22021455807E-01  0.10198324077E+01  0.10195476672E+01 0.  0.
     999903    2    3    3    0    0 -0.80648655839E-01  0.90536005110E-01  0.44284739924E-01  0.13060057553E+00  0.19859461965E-01 0.  0.
         14    1    1    2    0    0 -0.94212047410E-02 -0.26439255183E-02 -0.22021455807E-01  0.24097592344E-01  0.00000000000E+00 0. -1.
     999901    1    3    3    0    0  0.90069860580E-01 -0.87892079592E-01 -0.22263284117E-01  0.88923183212E+00  0.88000000000E+00 0.  1.
        -11    1    4    4    0    0 -0.36389266170E-01  0.40493464682E-01  0.94588507512E-02  0.55259662982E-01  0.51100000000E-03 0.  1.
         11    1    4    4    0    0 -0.44259389669E-01  0.50042540429E-01  0.34825889173E-01  0.75340912552E-01  0.51100000000E-03 0. -1.
</event>
<event>
 8    1  0.1135368E+005  0.1043930E+01  0.7957747E-01            NaN
         13   -1    0    0    0    0  0.00000000000E+00  0.00000000000E+00  0.74505805969E-08  0.10566000000E+00  0.10566000000E+00 0. -1.
     999900   -1    0    0    0    0 -0.00000000000E+00 -0.00000000000E+00 -0.74505805969E-08  0.93827000000E+00  0.93827000000E+00 0.  1.
     999902    2    1    2    0    0  0.19866932371E-01  0.11840581886E-01 -0.37436223952E-02  0.10205011910E+01  0.10202322146E+01 0.  0.
     999903    2    3    3    0    0 -0.39392461455E-01  0.11427414707E+00 -0.46782132070E-01  0.13153739854E+00  0.22431509695E-01 0.  0.
         14    1    1    2    0    0 -0.19866932371E-01 -0.11840581886E-01  0.37436223952E-02  0.23428808972E-01  0.00000000000E+00 0. -1.
     999901    1    3    3    0    0  0.59259393826E-01 -0.10243356518E+00  0.43038509675E-01  0.88896379248E+00  0.88000000000E+00 0. -1.
        -11    1    4    4    0    0 -0.15558457874E-01  0.76153784673E-01 -0.33634381698E-01  0.84693549251E-01  0.51100000000E-03 0. -1.
         11    1    4    4    0    0 -0.23834003581E-01  0.38120362394E-01 -0.13147750372E-01  0.46843849293E-01  0.51100000000E-03 0.  1.
</event>
<event>
 8    1  0.1135368E+005  0.1043930E+01  0.7957747E-01            NaN
         13   -1    0    0    0    0  0.00000000000E+00  0.00000000000E+00  0.74505805969E-08  0.10566000000E+00  0.10566000000E+00 0.  1.
     999900   -1    0    0    0    0 -0.00000000000E+00 -0.00000000000E+00 -0.74505805969E-08  0.93827000000E+00  0.93827000000E+00 0. -1.
     999902    2    1    2    0    0 -0.90384445216E-02  0.22111152580E-01  0.83931768412E-02  0.10186111934E+01  0.10182964801E+01 0.  0.
     999903    2    3    3    0    0 -0.10039751543E+00 -0.64351699598E-01  0.42492604174E-01  0.12901292704E+00  0.24857827536E-01 0.  0.
         14    1    1    2    0    0  0.90384445216E-02 -0.22111152580E-01 -0.83931768412E-02  0.25318806553E-01  0.00000000000E+00 0. -1.
     999901    1    3    3    0    0  0.91359070905E-01  0.86462852178E-01 -0.34099427333E-01  0.88959826640E+00  0.88000000000E+00 0.  1.
        -11    1    4    4    0    0 -0.36561024621E-01 -0.10550390575E-01  0.93441271255E-02  0.39186644349E-01  0.51100000000E-03 0. -1.
         11    1    4    4    0    0 -0.63836490806E-01 -0.53801309023E-01  0.33148477049E-01  0.89826282694E-01  0.51100000000E-03 0.  1.
</event>
<event>
 8    1  0.1135368E+005  0.1043930E+01  0.7957747E-01            NaN
         13   -1    0    0    0    0  0.00000000000E+00  0.00000000000E+00  0.74505805969E-08  0.10566000000E+00  0.10566000000E+00 0.  1.
     999900   -1    0    0    0    0 -0.00000000000E+00 -0.00000000000E+00 -0.74505805969E-08  0.93827000000E+00  0.93827000000E+00 0. -1.
     999902    2    1    2    0    0  0.16725603645E-01  0.17283639078E-01 -0.79281487920E-03  0.10198655334E+01  0.10195815846E+01 0.  0.
     999903    2    3    3    0    0 -0.11007655390E+00  0.29625361492E-01  0.57076622948E-01  0.12880999243E+00  0.18432674831E-01 0.  0.
         14    1    1    2    0    0 -0.16725603645E-01 -0.17283639078E-01  0.79281487920E-03  0.24064466595E-01  0.00000000000E+00 0. -1.
     999901    1    3    3    0    0  0.12680215754E+00 -0.12341722414E-01 -0.57869437827E-01  0.89105554098E+00  0.88000000000E+00 0. -1.
        -11    1    4    4    0    0 -0.30239884251E-01  0.77064976226E-02  0.25121083253E-01  0.40064580991E-01  0.51100000000E-03 0.  1.
         11    1    4    4    0    0 -0.79836669645E-01  0.21918863869E-01  0.31955539694E-01  0.88745411439E-01  0.51100000000E-03 0. -1.
</event>
<event>
 8    1  0.1135368E+005  0.1043930E+01  0.7957747E-01            NaN
         13   -1    0    0    0    0  0.00000000000E+00  0.00000000000E+00  0.74505805969E-08  0.10566000000E+00  0.10566000000E+00 0.  1.
     999900   -1    0    0    0    0 -0.00000000000E+00 -0.00000000000E+00 -0.74505805969E-08  0.93827000000E+00  0.93827000000E+00 0.  1.
     999902    2    1    2    0    0 -0.24733307757E-01 -0.16471606404E-02 -0.61472181917E-02  0.10183910505E+01  0.10180707705E+01 0.  0.
     999903    2    3    3    0    0 -0.63206186116E-01  0.10498103769E+00  0.38386403757E-01  0.13000319683E+00  0.20279915037E-01 0.  0.
         14    1    1    2    0    0  0.24733307757E-01  0.16471606404E-02  0.61472181917E-02  0.25538949514E-01  0.00000000000E+00 0.  1.
     999901    1    3    3    0    0  0.38472878359E-01 -0.10662819833E+00 -0.44533621948E-01  0.88838785366E+00  0.88000000000E+00 0.  1.
        -11    1    4    4    0    0 -0.11243791185E-01  0.28327799853E-01  0.17213817016E-01  0.35006623687E-01  0.51100000000E-03 0. -1.
         11    1    4    4    0    0 -0.51962394931E-01  0.76653237836E-01  0.21172586741E-01  0.94996573138E-01  0.51100000000E-03 0.  1.
</event>
<event>
 8    1  0.1135368E+005  0.1043930E+01  0.7957747E-01            NaN
         13   -1    0    0    0    0  0.00000000000E+00  0.00000000000E+00  0.74505805969E-08  0.10566000000E+00  0.10566000000E+00 0. -1.
     999900   -1    0    0    0    0 -0.00000000000E+00 -0.00000000000E+00 -0.74505805969E-08  0.93827000000E+00  0.93827000000E+00 0. -1.
     999902    2    1    2    0    0  0.75310455510E-02 -0.86210863117E-02  0.19884008829E-01  0.10209862953E+01  0.10207284662E+01 0.  0.
     999903    2    3    3    0    0  0.11980056535E+00 -0.53289848922E-01 -0.61392670706E-02  0.13234859959E+00  0.16925653789E-01 0.  0.
         14    1    1    2    0    0 -0.75310455510E-02  0.86210863117E-02 -0.19884008829E-01  0.22943704657E-01  0.00000000000E+00 0.  1.
     999901    1    3    3    0    0 -0.11226951980E+00  0.44668762610E-01  0.26023275900E-01  0.88863769576E+00  0.88000000000E+00 0.  1.
        -11    1    4    4    0    0  0.22796461215E-01 -0.15183999725E-01  0.37863778987E-02  0.27655564905E-01  0.51100000000E-03 0. -1.
         11    1    4    4    0    0  0.97004104135E-01 -0.38105849196E-01 -0.99256449693E-02  0.10469303468E+00  0.51100000000E-03 0.  1.
</event>
<event>
 8    1  0.1135368E+005  0.1043930E+01  0.7957747E-01            NaN
         13   -1    0    0    0    0  0.00000000000E+00  0.00000000000E+00  0.74505805969E-08  0.10566000000E+00  0.10566000000E+00 0.  1.
     999900   -1    0    0    0    0 -0.00000000000E+00 -0.00000000000E+00 -0.74505805969E-08  0.93827000000E+00  0.93827000000E+00 0.  1.
     999902    2    1    2    0    0  0.94305519779E-02 -0.24393896496E-03  0.20024285373E-01  0.10217948058E+01  0.10215550197E+01 0.  0.
     999903    2    3    3    0    0  0.12685985742E+00  0.29791649082E-01 -0.16209008964E-01  0.13274777110E+00  0.19449241144E-01 0.  0.
         14    1    1    2    0    0 -0.94305519779E-02  0.24393896496E-03 -0.20024285373E-01  0.22135194183E-01  0.00000000000E+00 0. -1.
     999901    1    3    3    0    0 -0.11742930544E+00 -0.30035588047E-01  0.36233294337E-01  0.88904703472E+00  0.88000000000E+00 0. -1.
        -11    1    4    4    0    0  0.17703712612E-01  0.12624597942E-02 -0.84311566169E-02  0.19656061861E-01  0.51100000000E-03 0. -1.
         11    1    4    4    0    0  0.10915614480E+00  0.28529189288E-01 -0.77778523471E-02  0.11309170924E+00  0.51100000000E-03 0.  1.
</event>
<event>
 8    1  0.1135368E+005  0.1043930E+01  0.7957747E-01            NaN
         13   -1    0    0    0    0  0.00000000000E+00  0.00000000000E+00  0.74505805969E-08  0.10566000000E+00  0.10566000000E+00 0.  1.
     999900   -1    0    0    0    0 -0.00000000000E+00 -0.00000000000E+00 -0.74505805969E-08  0.93827000000E+00  0.93827000000E+00 0.  1.
     999902    2    1    2    0    0 -0.81067551845E-02  0.12598738376E-01  0.18210421193E-01  0.10203489244E+01  0.10200763993E+01 0.  0.
     999903    2    3    3    0    0 -0.90266690356E-01  0.95024379374E-01  0.31209119516E-02  0.13255844540E+00  0.19603400027E-01 0.  0.
         14    1    1    2    0    0  0.81067551845E-02 -0.12598738376E-01 -0.18210421193E-01  0.23581075639E-01  0.00000000000E+00 0. -1.
     999901    1    3    3    0    0  0.82159935171E-01 -0.82425640998E-01  0.15089509241E-01  0.88779047896E+00  0.88000000000E+00 0. -1.
        -11    1    4    4    0    0 -0.34367631322E-01  0.32753160547E-01 -0.79779481986E-02  0.48143664037E-01  0.51100000000E-03 0.  1.
         11    1    4    4    0    0 -0.55899059034E-01  0.62271218827E-01  0.11098860150E-01  0.84414781364E-01  0.51100000000E-03 0. -1.
</event>
<event>
 8    1  0.1135368E+005  0.1043930E+01  0.7957747E-01            NaN
         13   -1    0    0    0    0  0.00000000000E+00  0.00000000000E+00  0.74505805969E-08  0.10566000000E+00  0.10566000000E+00 0.  1.
     999900   -1    0    0    0    0 -0.00000000000E+00 -0.00000000000E+00 -0.74505805969E-08  0.93827000000E+00  0.93827000000E+00 0.  1.
     999902    2    1    2    0    0 -0.24609249117E-01  0.25013704740E-02  0.71304784763E-03  0.10191836784E+01  0.10188832072E+01 0.  0.
     999903    2    3    3    0    0 -0.12985792281E+00  0.42833828043E-02  0.17909441041E-01  0.13274350848E+00  0.20461267775E-01 0.  0.
         14    1    1    2    0    0  0.24609249117E-01 -0.25013704740E-02 -0.71304784763E-03  0.24746321617E-01  0.00000000000E+00 0.  1.
     999901    1    3    3    0    0  0.10524867370E+00 -0.17820123302E-02 -0.17196393194E-01  0.88644016991E+00  0.88000000000E+00 0.  1.
        -11    1    4    4    0    0 -0.80806916315E-01  0.12398536926E-01  0.92690305328E-02  0.82277928330E-01  0.51100000000E-03 0.  1.
         11    1    4    4    0    0 -0.49051006498E-01 -0.81151541217E-02  0.86404105085E-02  0.50465580148E-01  0.51100000000E-03 0. -1.
</event>
<event>
 8    1  0.1135368E+005  0.1043930E+01  0.7957747E-01            NaN
         13   -1    0    0    0    0  0.00000000000E+00  0.00000000000E+00  0.74505805969E-08  0.10566000000E+00  0.10566000000E+00 0.  1.
     999900   -1    0    0    0    0 -0.00000000000E+00 -0.00000000000E+00 -0.74505805969E-08  0.93827000000E+00  0.93827000000E+00 0. -1.
     999902    2    1    2    0    0  0.21305015327E-02  0.18618837166E-01 -0.17599920519E-01  0.10182209095E+01  0.10178962929E+01 0.  0.
     999903    2    3    3    0    0 -0.48265633598E-01  0.10215169318E+00 -0.64665758626E-01  0.13157966206E+00  0.19157435210E-01 0.  0.
         14    1    1    2    0    0 -0.21305015327E-02 -0.18618837166E-01  0.17599920519E-01  0.25709090541E-01  0.00000000000E+00 0.  1.
     999901    1    3    3    0    0  0.50396135131E-01 -0.83532856011E-01  0.47065838108E-01  0.88664124740E+00  0.88000000000E+00 0.  1.
        -11    1    4    4    0    0 -0.28362149980E-01  0.47879090838E-01 -0.22506496811E-01  0.60030179166E-01  0.51100000000E-03 0.  1.
         11    1    4    4    0    0 -0.19903483618E-01  0.54272602339E-01 -0.42159261815E-01  0.71549482895E-01  0.51100000000E-03 0. -1.
</event>
<event>
 8    1  0.1135368E+005  0.1043930E+01  0.7957747E-01            NaN
         13   -1    0    0    0    0  0.00000000000E+00  0.00000000000E+00  0.74505805969E-08  0.10566000000E+00  0.10566000000E+00 0. -1.
     999900   -1    0    0    0    0 -0.00000000000E+00 -0.00000000000E+00 -0.74505805969E-08  0.93827000000E+00  0.93827000000E+00 0. -1.
     999902    2    1    2    0    0  0.21221827028E-03  0.22563298247E-02 -0.23828442074E-01  0.10199940289E+01  0.10197131402E+01 0.  0.
     999903    2    3    3    0    0 -0.58124679387E-01 -0.53118104227E-01  0.97294139792E-01  0.12806342543E+00  0.27093909711E-01 0.  0.
         14    1    1    2    0    0 -0.21221827028E-03 -0.22563298247E-02  0.23828442074E-01  0.23935971101E-01  0.00000000000E+00 0. -1.
     999901    1    3    3    0    0  0.58336897657E-01  0.55374434051E-01 -0.12112258187E+00  0.89193060347E+00  0.88000000000E+00 0.  1.
        -11    1    4    4    0    0 -0.10624843386E-01 -0.25088512638E-01  0.23840469432E-01  0.36207041679E-01  0.51100000000E-03 0. -1.
         11    1    4    4    0    0 -0.47499836001E-01 -0.28029591588E-01  0.73453670360E-01  0.91856383747E-01  0.51100000000E-03 0.  1.
</event>
<event>
 8    1  0.1135368E+005  0.1043930E+01  0.7957747E-01            NaN
         13   -1    0    0    0    0  0.00000000000E+00  0.00000000000E+00  0.74505805969E-08  0.10566000000E+00  0.10566000000E+00 0. -1.
     999900   -1    0    0    0    0 -0.00000000000E+00 -0.00000000000E+00 -0.74505805969E-08  0.93827000000E+00  0.93827000000E+00 0. -1.
     999902    2    1    2    0    0 -0.19494579445E-01  0.78288478254E-02  0.10945004634E-01  0.10202419732E+01  0.10199669413E+01 0.  0.
     999903    2    3    3    0    0  0.30575333744E-01  0.16956420392E-01  0.12507249128E+00  0.13141387286E+00  0.20102404839E-01 0.  0.
         14    1    1    2    0    0  0.19494579445E-01 -0.78288478254E-02 -0.10945004634E-01  0.23688026774E-01  0.00000000000E+00 0.  1.
     999901    1    3    3    0    0 -0.50069913189E-01 -0.91275725668E-02 -0.11412748664E+00  0.88882810036E+00  0.88000000000E+00 0. -1.
        -11    1    4    4    0    0  0.96084411406E-02  0.62079878014E-02  0.15134548973E-01  0.18978328359E-01  0.51100000000E-03 0. -1.
         11    1    4    4    0    0  0.20966892603E-01  0.10748432591E-01  0.10993794230E+00  0.11243554450E+00  0.51100000000E-03 0.  1.
</event>
<event>
 8    1  0.1135368E+005  0.1043930E+01  0.7957747E-01            NaN
         13   -1    0    0    0    0  0.00000000000E+00  0.00000000000E+00  0.74505805969E-08  0.10566000000E+00  0.10566000000E+00 0.  1.
     999900   -1    0    0    0    0 -0.00000000000E+00 -0.00000000000E+00 -0.74505805969E-08  0.93827000000E+00  0.93827000000E+00 0.  1.
     999902    2    1    2    0    0 -0.22676751439E-01  0.30237733764E-03 -0.63808601675E-02  0.10203706735E+01  0.10200986568E+01 0.  0.
     999903    2    3    3    0    0 -0.20138585378E-02 -0.20385797299E-02  0.12839507675E+00  0.12986689003E+00  0.19284759784E-01 0.  0.
         14    1    1    2    0    0  0.22676751439E-01 -0.30237733764E-03  0.63808601675E-02  0.23559326484E-01  0.00000000000E+00 0. -1.
     999901    1    3    3    0    0 -0.20662892902E-01  0.23409570675E-02 -0.13477593692E+00  0.89050378348E+00  0.88000000000E+00 0.  1.
        -11    1    4    4    0    0 -0.99847810247E-02  0.61296214565E-03  0.48094686748E-01  0.49126689173E-01  0.51100000000E-03 0. -1.
         11    1    4    4    0    0  0.79709224869E-02 -0.26515418756E-02  0.80300390002E-01  0.80740200861E-01  0.51100000000E-03 0.  1.
</event>
<event>
 8    1  0.1135368E+005  0.1043930E+01  0.7957747E-01            NaN
         13   -1    0    0    0    0  0.00000000000E+00  0.00000000000E+00  0.74505805969E-08  0.10566000000E+00  0.10566000000E+00 0. -1.
     999900   -1    0    0    0    0 -0.00000000000E+00 -0.00000000000E+00 -0.74505805969E-08  0.93827000000E+00  0.93827000000E+00 0. -1.
     999902    2    1    2    0    0 -0.23084392944E-01  0.36777766925E-02  0.16085787862E-02  0.10204991920E+01  0.10202301692E+01 0.  0.
     999903    2    3    3    0    0 -0.31490214670E-02 -0.10774859509E+00 -0.70254460443E-01  0.13034327767E+00  0.20832780455E-01 0.  0.
         14    1    1    2    0    0  0.23084392944E-01 -0.36777766925E-02 -0.16085787862E-02  0.23430808025E-01  0.00000000000E+00 0.  1.
     999901    1    3    3    0    0 -0.19935371477E-01  0.11142637178E+00  0.71863039229E-01  0.89015591430E+00  0.88000000000E+00 0.  1.
        -11    1    4    4    0    0 -0.17906916227E-04 -0.18582585264E-01 -0.22361468407E-01  0.29079360138E-01  0.51100000000E-03 0.  1.
         11    1    4    4    0    0 -0.31311145508E-02 -0.89166009826E-01 -0.47892992037E-01  0.10126391753E+00  0.51100000000E-03 0. -1.
</event>
<event>
 8    1  0.1135368E+005  0.1043930E+01  0.7957747E-01            NaN
         13   -1    0    0    0    0  0.00000000000E+00  0.00000000000E+00  0.74505805969E-08  0.10566000000E+00  0.10566000000E+00 0.  1.
     999900   -1    0    0    0    0 -0.00000000000E+00 -0.00000000000E+00 -0.74505805969E-08  0.93827000000E+00  0.93827000000E+00 0. -1.
     999902    2    1    2    0    0  0.29642376825E-02 -0.17417780704E-01  0.17307290480E-01  0.10191972668E+01  0.10188971295E+01 0.  0.
     999903    2    3    3    0    0  0.10490459154E-02  0.13189621976E-01  0.12967276184E+00  0.13152250638E+00  0.17552147924E-01 0.  0.
         14    1    1    2    0    0 -0.29642376825E-02  0.17417780704E-01 -0.17307290480E-01  0.24732733239E-01  0.00000000000E+00 0. -1.
     999901    1    3    3    0    0  0.19151917671E-02 -0.30607402681E-01 -0.11236547136E+00  0.88767476038E+00  0.88000000000E+00 0. -1.
        -11    1    4    4    0    0 -0.79180603070E-02  0.42671795459E-02  0.65092506033E-01  0.65713012128E-01  0.51100000000E-03 0.  1.
         11    1    4    4    0    0  0.89671062223E-02  0.89224424302E-02  0.64580255807E-01  0.65809494255E-01  0.51100000000E-03 0. -1.
</event>
<event>
 8    1  0.1135368E+005  0.1043930E+01  0.7957747E-01            NaN
         13   -1    0    0    0    0  0.00000000000E+00  0.00000000000E+00  0.74505805969E-08  0.10566000000E+00  0.10566000000E+00 0. -1.
     999900   -1    0    0    0    0 -0.00000000000E+00 -0.00000000000E+00 -0.74505805969E-08  0.93827000000E+00  0.93827000000E+00 0. -1.
     999902    2    1    2    0    0  0.16539264684E-01  0.21808692388E-02 -0.99405928474E-02  0.10245104518E+01  0.10243263869E+01 0.  0.
     999903    2    3    3    0    0 -0.94463448024E-01 -0.74980824413E-01  0.52191753979E-01  0.13202182008E+00  0.12661546151E-01 0.  0.
         14    1    1    2    0    0 -0.16539264684E-01 -0.21808692388E-02  0.99405928474E-02  0.19419548220E-01  0.00000000000E+00 0. -1.
     999901    1    3    3    0    0  0.11100271271E+00  0.77161693652E-01 -0.62132346826E-01  0.89248863170E+00  0.88000000000E+00 0.  1.
        -11    1    4    4    0    0 -0.55171517016E-01 -0.42375623646E-01  0.23377486561E-01  0.73391809953E-01  0.51100000000E-03 0. -1.
         11    1    4    4    0    0 -0.39291931007E-01 -0.32605200767E-01  0.28814267418E-01  0.58630010124E-01  0.51100000000E-03 0.  1.
</event>
<event>
 8    1  0.1135368E+005  0.1043930E+01  0.7957747E-01            NaN
         13   -1    0    0    0    0  0.00000000000E+00  0.00000000000E+00  0.74505805969E-08  0.10566000000E+00  0.10566000000E+00 0. -1.
     999900   -1    0    0    0    0 -0.00000000000E+00 -0.00000000000E+00 -0.74505805969E-08  0.93827000000E+00  0.93827000000E+00 0.  1.
     999902    2    1    2    0    0  0.31214554777E-02  0.24209360875E-01 -0.85584436825E-03  0.10195052358E+01  0.10192126160E+01 0.  0.
     999903    2    3    3    0    0  0.82625501882E-01 -0.38734786836E-01 -0.89268012909E-01  0.12928078616E+00  0.20430033526E-01 0.  0.
         14    1    1    2    0    0 -0.31214554777E-02 -0.24209360875E-01  0.85584436825E-03  0.24424764233E-01  0.00000000000E+00 0.  1.
     999901    1    3    3    0    0 -0.79504046404E-01  0.62944147711E-01  0.88412168541E-01  0.89022444960E+00  0.88000000000E+00 0. -1.
        -11    1    4    4    0    0  0.29669174963E-02 -0.33831095211E-02 -0.11934475832E-01  0.12764829174E-01  0.51100000000E-03 0. -1.
         11    1    4    4    0    0  0.79658584386E-01 -0.35351677315E-01 -0.77333537077E-01  0.11651595699E+00  0.51100000000E-03 0.  1.
</event>
<event>
 8    1  0.1135368E+005  0.1043930E+01  0.7957747E-01            NaN
         13   -1    0    0    0    0  0.00000000000E+00  0.00000000000E+00  0.74505805969E-08  0.10566000000E+00  0.10566000000E+00 0. -1.
     999900   -1    0    0    0    0 -0.00000000000E+00 -0.00000000000E+00 -0.74505805969E-08  0.93827000000E+00  0.93827000000E+00 0. -1.
     999902    2    1    2    0    0  0.15840292183E-01 -0.17091429176E-01  0.23451092444E-02  0.10205092540E+01  0.10202404648E+01 0.  0.
     999903    2    3    3    0    0  0.13784418506E-01 -0.10383714414E+00 -0.78901540524E-01  0.13251710097E+00  0.19056921453E-01 0.  0.
         14    1    1    2    0    0 -0.15840292183E-01  0.17091429176E-01 -0.23451092444E-02  0.23420746040E-01  0.00000000000E+00 0. -1.
     999901    1    3    3    0    0  0.20558736769E-02  0.86745714961E-01  0.81246649768E-01  0.88799215299E+00  0.88000000000E+00 0.  1.
        -11    1    4    4    0    0  0.13216438159E-01 -0.90316718989E-01 -0.59882064919E-01  0.10916916592E+00  0.51100000000E-03 0. -1.
         11    1    4    4    0    0  0.56798034659E-03 -0.13520425147E-01 -0.19019475605E-01  0.23347935050E-01  0.51100000000E-03 0.  1.
</event>
<event>
 8    1  0.1135368E+005  0.1043930E+01  0.7957747E-01            NaN
         13   -1    0    0    0    0  0.00000000000E+00  0.00000000000E+00  0.74505805969E-08  0.10566000000E+00  0.10566000000E+00 0.  1.
     999900   -1    0    0    0    0 -0.00000000000E+00 -0.00000000000E+00 -0.74505805969E-08  0.93827000000E+00  0.93827000000E+00 0. -1.
     999902    2    1    2    0    0  0.16066232521E-01  0.59322472940E-02  0.16399498729E-01  0.10202180000E+01  0.10199424045E+01 0.  0.
     999903    2    3    3    0    0  0.72270698917E-01 -0.10621293565E+00 -0.14197518167E-01  0.13079590586E+00  0.20043897985E-01 0.  0.
         14    1    1    2    0    0 -0.16066232521E-01 -0.59322472940E-02 -0.16399498729E-01  0.23711999999E-01  0.00000000000E+00 0. -1.
     999901    1    3    3    0    0 -0.56204466396E-01  0.11214518295E+00  0.30597016896E-01  0.88942209414E+00  0.88000000000E+00 0. -1.
        -11    1    4    4    0    0  0.47878480065E-01 -0.52719979497E-01 -0.69292671424E-02  0.71554321712E-01  0.51100000000E-03 0.  1.
         11    1    4    4    0    0  0.24392218852E-01 -0.53492956154E-01 -0.72682510243E-02  0.59241584150E-01  0.51100000000E-03 0. -1.
</event>
<event>
 8    1  0.1135368E+005  0.1043930E+01  0.7957747E-01            NaN
         13   -1    0    0    0    0  0.00000000000E+00  0.00000000000E+00  0.74505805969E-08  0.10566000000E+00  0.10566000000E+00 0.  1.
     999900   -1    0    0    0    0 -0.00000000000E+00 -0.00000000000E+00 -0.74505805969E-08  0.93827000000E+00  0.93827000000E+00 0.  1.
     999902    2    1    2    0    0 -0.22095296645E-01 -0.71053689364E-02  0.65386375571E-02  0.10198168877E+01  0.10195317760E+01 0.  0.
     999903    2    3    3    0    0 -0.62482199535E-01  0.10636362863E+00  0.39288102815E-01  0.13100934794E+00  0.20066077627E-01 0.  0.
         14    1    1    2    0    0  0.22095296645E-01  0.71053689364E-02 -0.65386375571E-02  0.24113112256E-01  0.00000000000E+00 0. -1.
     999901    1    3    3    0    0  0.40386902889E-01 -0.11346899757E+00 -0.32749465258E-01  0.88880753980E+00  0.88000000000E+00 0. -1.
        -11    1    4    4    0    0 -0.28574521098E-01  0.30263682082E-01  0.11520138305E-01  0.43189911053E-01  0.51100000000E-03 0. -1.
         11    1    4    4    0    0 -0.33907678437E-01  0.76099946548E-01  0.27767964510E-01  0.87819436890E-01  0.51100000000E-03 0.  1.
</event>
<event>
 8    1  0.1135368E+005  0.1043930E+01  0.7957747E-01            NaN
         13   -1    0    0    0    0  0.00000000000E+00  0.00000000000E+00  0.74505805969E-08  0.10566000000E+00  0.10566000000E+00 0.  1.
     999900   -1    0    0    0    0 -0.00000000000E+00 -0.00000000000E+00 -0.74505805969E-08  0.93827000000E+00  0.93827000000E+00 0.  1.
     999902    2    1    2    0    0  0.20238954536E-01  0.13820440578E-01 -0.58148617498E-02  0.10187420569E+01  0.10184306290E+01 0.  0.
     999903    2    3    3    0    0  0.78212515543E-01 -0.10062511829E+00  0.90212202978E-02  0.12931593350E+00  0.19965375641E-01 0.  0.
         14    1    1    2    0    0 -0.20238954536E-01 -0.13820440578E-01  0.58148617498E-02  0.25187943062E-01  0.00000000000E+00 0. -1.
     999901    1    3    3    0    0 -0.57973561007E-01  0.11444555886E+00 -0.14836082048E-01  0.88942612344E+00  0.88000000000E+00 0.  1.
        -11    1    4    4    0    0  0.43469663809E-01 -0.49748584564E-01 -0.45717820516E-02  0.66224584936E-01  0.51100000000E-03 0. -1.
         11    1    4    4    0    0  0.34742851734E-01 -0.50876533721E-01  0.13593002349E-01  0.63091348566E-01  0.51100000000E-03 0.  1.
</event>
<event>
 8    1  0.1135368E+005  0.1043930E+01  0.7957747E-01            NaN
         13   -1    0    0    0    0  0.00000000000E+00  0.00000000000E+00  0.74505805969E-08  0.10566000000E+00  0.10566000000E+00 0.  1.
     999900   -1    0    0    0    0 -0.00000000000E+00 -0.00000000000E+00 -0.74505805969E-08  0.93827000000E+00  0.93827000000E+00 0. -1.
     999902    2    1    2    0    0  0.10739577118E-01 -0.16376916728E-01  0.13766256452E-01  0.10199915010E+01  0.10197105522E+01 0.  0.
     999903    2    3    3    0    0  0.53230003712E-01  0.10336243633E+00 -0.51051698209E-01  0.12850716783E+00  0.19763343690E-01 0.  0.
         14    1    1    2    0    0 -0.10739577118E-01  0.16376916728E-01 -0.13766256452E-01  0.23938499011E-01  0.00000000000E+00 0. -1.
     999901    1    3    3    0    0 -0.42490426594E-01 -0.11973935306E+00  0.64817954661E-01  0.89148433316E+00  0.88000000000E+00 0.  1.
        -11    1    4    4    0    0  0.38597563727E-01  0.85268525161E-01 -0.47500361935E-01  0.10496208274E+00  0.51100000000E-03 0.  1.
         11    1    4    4    0    0  0.14632439986E-01  0.18093911171E-01 -0.35513362740E-02  0.23545085086E-01  0.51100000000E-03 0. -1.
</event>
<event>
 8    1  0.1135368E+005  0.1043930E+01  0.7957747E-01            NaN
         13   -1    0    0    0    0  0.00000000000E+00  0.00000000000E+00  0.74505805969E-08  0.10566000000E+00  0.10566000000E+00 0.  1.
     999900   -1    0    0    0    0 -0.00000000000E+00 -0.00000000000E+00 -0.74505805969E-08  0.93827000000E+00  0.93827000000E+00 0.  1.
     999902    2    1    2    0    0  0.12183277767E-01  0.71970750884E-02  0.20037921279E-01  0.10193994387E+01  0.10191042475E+01 0.  0.
     999903    2    3    3    0    0  0.66275160187E-01 -0.60735609212E-01 -0.89309598231E-01  0.12839008897E+00  0.20654285884E-01 0.  0.
         14    1    1    2    0    0 -0.12183277767E-01 -0.71970750884E-02 -0.20037921279E-01  0.24530561269E-01  0.00000000000E+00 0. -1.
     999901    1    3    3    0    0 -0.54091882419E-01  0.67932684300E-01  0.10934751951E+00  0.89100934976E+00  0.88000000000E+00 0. -1.
        -11    1    4    4    0    0  0.10791425643E-01 -0.16601764670E-01 -0.30034004398E-01  0.35977437357E-01  0.51100000000E-03 0.  1.
         11    1    4    4    0    0  0.55483734543E-01 -0.44133844542E-01 -0.59275593833E-01  0.92412651613E-01  0.51100000000E-03 0. -1.
</event>
<event>
 8    1  0.1135368E+005  0.1043930E+01  0.7957747E-01            NaN
         13   -1    0    0    0    0  0.00000000000E+00  0.00000000000E+00  0.74505805969E-08  0.10566000000E+00  0.10566000000E+00 0. -1.
     999900   -1    0    0    0    0 -0.00000000000E+00 -0.00000000000E+00 -0.74505805969E-08  0.93827000000E+00  0.93827000000E+00 0.  1.
     999902    2    1    2    0    0  0.17514002466E-01  0.84274223892E-02 -0.12568819014E-01  0.10207840081E+01  0.10205215599E+01 0.  0.
     999903    2    3    3    0    0 -0.11383801067E+00 -0.27245184622E-01 -0.51637172949E-01  0.12946351436E+00  0.19824509113E-01 0.  0.
         14    1    1    2    0    0 -0.17514002466E-01 -0.84274223892E-02  0.12568819014E-01  0.23145991919E-01  0.00000000000E+00 0.  1.
     999901    1    3    3    0    0  0.13135201314E+00  0.35672607011E-01  0.39068353935E-01  0.89132049372E+00  0.88000000000E+00 0. -1.
        -11    1    4    4    0    0 -0.22971164774E-01 -0.13514271113E-01 -0.88123619128E-02  0.28075412344E-01  0.51100000000E-03 0. -1.
         11    1    4    4    0    0 -0.90866845899E-01 -0.13730913509E-01 -0.42824811036E-01  0.10138810202E+00  0.51100000000E-03 0.  1.
</event>
<event>
 8    1  0.1135368E+005  0.1043930E+01  0.7957747E-01            NaN
         13   -1    0    0    0    0  0.00000000000E+00  0.00000000000E+00  0.74505805969E-08  0.10566000000E+00  0.10566000000E+00 0.  1.
     999900   -1    0    0    0    0 -0.00000000000E+00 -0.00000000000E+00 -0.74505805969E-08  0.93827000000E+00  0.93827000000E+00 0. -1.
     999902    2    1    2    0    0  0.21714941717E-01  0.61272031183E-02  0.72004607839E-02  0.10202460825E+01  0.10199711471E+01 0.  0.
     999903    2    3    3    0    0  0.18790527916E-01  0.35259591264E-01 -0.12237824555E+00  0.13027535863E+00  0.19972765619E-01 0.  0.
         14    1    1    2    0    0 -0.21714941717E-01 -0.61272031183E-02 -0.72004607839E-02  0.23683917482E-01  0.00000000000E+00 0. -1.
     999901    1    3    3    0    0  0.29244138002E-02 -0.29132388146E-01  0.12957870634E+00  0.88997072388E+00  0.88000000000E+00 0.  1.
        -11    1    4    4    0    0  0.70980034878E-02  0.22593832700E-01 -0.43475673293E-01  0.49510182981E-01  0.51100000000E-03 0. -1.
         11    1    4    4    0    0  0.11692524429E-01  0.12665758564E-01 -0.78902572262E-01  0.80765175652E-01  0.51100000000E-03 0.  1.
</event>
<event>
 8    1  0.1135368E+005  0.1043930E+01  0.7957747E-01            NaN
         13   -1    0    0    0    0  0.00000000000E+00  0.00000000000E+00  0.74505805969E-08  0.10566000000E+00  0.10566000000E+00 0. -1.
     999900   -1    0    0    0    0 -0.00000000000E+00 -0.00000000000E+00 -0.74505805969E-08  0.93827000000E+00  0.93827000000E+00 0.  1.
     999902    2    1    2    0    0  0.45114003086E-02 -0.20191629233E-01  0.65069873188E-02  0.10222413968E+01  0.10220112905E+01 0.  0.
     999903    2    3    3    0    0 -0.20494824867E-01 -0.23843704861E-01  0.12902431737E+00  0.13339430923E+00  0.12578042602E-01 0.  0.
         14    1    1    2    0    0 -0.45114003086E-02  0.20191629233E-01 -0.65069873188E-02  0.21688603178E-01  0.00000000000E+00 0. -1.
     999901    1    3    3    0    0  0.25006225176E-01  0.36520756275E-02 -0.12251733005E+00  0.88884708759E+00  0.88000000000E+00 0.  1.
        -11    1    4    4    0    0 -0.15006628942E-01 -0.17410559868E-01  0.11249706125E+00  0.11482236898E+00  0.51100000000E-03 0. -1.
         11    1    4    4    0    0 -0.54881959259E-02 -0.64331449925E-02  0.16527256120E-01  0.18571940256E-01  0.51100000000E-03 0.  1.
</event>
<event>
 8    1  0.1135368E+005  0.1043930E+01  0.7957747E-01            NaN
         13   -1    0    0    0    0  0.00000000000E+00  0.00000000000E+00  0.74505805969E-08  0.10566000000E+00  0.10566000000E+00 0. -1.
     999900   -1    0    0    0    0 -0.00000000000E+00 -0.00000000000E+00 -0.74505805969E-08  0.93827000000E+00  0.93827000000E+00 0. -1.
     999902    2    1    2    0    0 -0.23261617635E-01 -0.25734459607E-02 -0.24068348727E-02  0.10204030297E+01  0.10201317683E+01 0.  0.
     999903    2    3    3    0    0 -0.42677254836E-01 -0.91944666728E-01  0.81581323481E-01  0.13168586835E+00  0.20260448224E-01 0.  0.
         14    1    1    2    0    0  0.23261617635E-01  0.25734459607E-02  0.24068348727E-02  0.23526970336E-01  0.00000000000E+00 0.  1.
     999901    1    3    3    0    0  0.19415637202E-01  0.89371220767E-01 -0.83988158354E-01  0.88871716131E+00  0.88000000000E+00 0. -1.
        -11    1    4    4    0    0 -0.30623486610E-01 -0.66988640205E-01  0.47039476033E-01  0.87397078184E-01  0.51100000000E-03 0.  1.
         11    1    4    4    0    0 -0.12053768226E-01 -0.24956026522E-01  0.34541847448E-01  0.44288790166E-01  0.51100000000E-03 0. -1.
</event>
<event>
 8    1  0.1135368E+005  0.1043930E+01  0.7957747E-01            NaN
         13   -1    0    0    0    0  0.00000000000E+00  0.00000000000E+00  0.74505805969E-08  0.10566000000E+00  0.10566000000E+00 0.  1.
     999900   -1    0    0    0    0 -0.00000000000E+00 -0.00000000000E+00 -0.74505805969E-08  0.93827000000E+00  0.93827000000E+00 0.  1.
     999902    2    1    2    0    0  0.71130481834E-02 -0.14302907419E-01 -0.18145626945E-01  0.10197549634E+01  0.10194683679E+01 0.  0.
     999903    2    3    3    0    0 -0.49635992156E-01  0.10600993389E+00  0.46063403778E-01  0.12744423674E+00  0.20453814094E-01 0.  0.
         14    1    1    2    0    0 -0.71130481834E-02  0.14302907419E-01  0.18145626945E-01  0.24175036553E-01  0.00000000000E+00 0.  1.
     999901    1    3    3    0    0  0.56749040339E-01 -0.12031284131E+00 -0.64209030723E-01  0.89231072670E+00  0.88000000000E+00 0.  1.
        -11    1    4    4    0    0 -0.23612545921E-01  0.33404714952E-01  0.23035636483E-01  0.46950281949E-01  0.51100000000E-03 0.  1.
         11    1    4    4    0    0 -0.26023446235E-01  0.72605218939E-01  0.23027767294E-01  0.80493954796E-01  0.51100000000E-03 0. -1.
</event>
<event>
 8    1  0.1135368E+005  0.1043930E+01  0.7957747E-01            NaN
         13   -1    0    0    0    0  0.00000000000E+00  0.00000000000E+00  0.74505805969E-08  0.10566000000E+00  0.10566000000E+00 0. -1.
     999900   -1    0    0    0    0 -0.00000000000E+00 -0.00000000000E+00 -0.74505805969E-08  0.93827000000E+00  0.93827000000E+00 0. -1.
     999902    2    1    2    0    0  0.39706440122E-03  0.63832525624E-02  0.22488862543E-01  0.10205493988E+01  0.10202815410E+01 0.  0.
     999903    2    3    3    0    0  0.70851084873E-01  0.22580771639E-01  0.10889273774E+00  0.13336747932E+00  0.19987214249E-01 0.  0.
         14    1    1    2    0    0 -0.39706440122E-03 -0.63832525624E-02 -0.22488862543E-01  0.23380601187E-01  0.00000000000E+00 0.  1.
     999901    1    3    3    0    0 -0.70454020471E-01 -0.16197519077E-01 -0.86403875193E-01  0.88718191949E+00  0.88000000000E+00 0.  1.
        -11    1    4    4    0    0  0.19488320410E-01 -0.74653409996E-03  0.18957349040E-01  0.27202833477E-01  0.51100000000E-03 0. -1.
         11    1    4    4    0    0  0.51362764462E-01  0.23327305739E-01  0.89935388696E-01  0.10616464584E+00  0.51100000000E-03 0.  1.
</event>
<event>
 8    1  0.1135368E+005  0.1043930E+01  0.7957747E-01            NaN
         13   -1    0    0    0    0  0.00000000000E+00  0.00000000000E+00  0.74505805969E-08  0.10566000000E+00  0.10566000000E+00 0.  1.
     999900   -1    0    0    0    0 -0.00000000000E+00 -0.00000000000E+00 -0.74505805969E-08  0.93827000000E+00  0.93827000000E+00 0. -1.
     999902    2    1    2    0    0 -0.12013629994E-01 -0.20465717228E-01 -0.14526006460E-02  0.10201543205E+01  0.10198772253E+01 0.  0.
     999903    2    3    3    0    0 -0.44764888506E-01 -0.10866714929E+00  0.59049029820E-01  0.13307338572E+00  0.20231003086E-01 0.  0.
         14    1    1    2    0    0  0.12013629994E-01  0.20465717228E-01  0.14526006460E-02  0.23775679506E-01  0.00000000000E+00 0. -1.
     999901    1    3    3    0    0  0.32751258512E-01  0.88201432064E-01 -0.60501630466E-01  0.88708093477E+00  0.88000000000E+00 0.  1.
        -11    1    4    4    0    0 -0.28415624140E-01 -0.63410757068E-01  0.45575966207E-01  0.83101152964E-01  0.51100000000E-03 0.  1.
         11    1    4    4    0    0 -0.16349264366E-01 -0.45256392224E-01  0.13473063613E-01  0.49972232755E-01  0.51100000000E-03 0. -1.
</event>
<event>
 8    1  0.1135368E+005  0.1043930E+01  0.7957747E-01            NaN
         13   -1    0    0    0    0  0.00000000000E+00  0.00000000000E+00  0.74505805969E-08  0.10566000000E+00  0.10566000000E+00 0.  1.
     999900   -1    0    0    0    0 -0.00000000000E+00 -0.00000000000E+00 -0.74505805969E-08  0.93827000000E+00  0.93827000000E+00 0.  1.
     999902    2    1    2    0    0 -0.21428213643E-01  0.66335342124E-02 -0.69075046391E-02  0.10204590448E+01  0.10201890886E+01 0.  0.
     999903    2    3    3    0    0  0.10196181079E+00 -0.22951006917E-01  0.71074646423E-01  0.12794486619E+00  0.19882752369E-01 0.  0.
         14    1    1    2    0    0  0.21428213643E-01 -0.66335342124E-02  0.69075046391E-02  0.23470955166E-01  0.00000000000E+00 0.  1.
     999901    1    3    3    0    0 -0.12339002443E+00  0.29584541129E-01 -0.77982151062E-01  0.89251417865E+00  0.88000000000E+00 0.  1.
        -11    1    4    4    0    0  0.70024351827E-01 -0.61503929935E-02  0.47244180253E-01  0.84696581227E-01  0.51100000000E-03 0.  1.
         11    1    4    4    0    0  0.31937458961E-01 -0.16800613923E-01  0.23830466170E-01  0.43248284960E-01  0.51100000000E-03 0. -1.
</event>
<event>
 8    1  0.1135368E+005  0.1043930E+01  0.7957747E-01            NaN
         13   -1    0    0    0    0  0.00000000000E+00  0.00000000000E+00  0.74505805969E-08  0.10566000000E+00  0.10566000000E+00 0.  1.
     999900   -1    0    0    0    0 -0.00000000000E+00 -0.00000000000E+00 -0.74505805969E-08  0.93827000000E+00  0.93827000000E+00 0.  1.
     999902    2    1    2    0    0  0.15642950845E-01 -0.12007349602E-01  0.10013767871E-01  0.10218131760E+01  0.10215737921E+01 0.  0.
     999903    2    3    3    0    0 -0.28826649974E-01 -0.11700640724E+00 -0.50758343699E-01  0.13237762634E+00  0.20638590482E-01 0.  0.
         14    1    1    2    0    0 -0.15642950845E-01  0.12007349602E-01 -0.10013767871E-01  0.22116823972E-01  0.00000000000E+00 0. -1.
     999901    1    3    3    0    0  0.44469600819E-01  0.10499905764E+00  0.60772111570E-01  0.88943554969E+00  0.88000000000E+00 0. -1.
        -11    1    4    4    0    0 -0.94125938641E-02 -0.63598455551E-01 -0.35903475747E-01  0.73638856342E-01  0.51100000000E-03 0. -1.
         11    1    4    4    0    0 -0.19414056110E-01 -0.53407951688E-01 -0.14854867952E-01  0.58738769999E-01  0.51100000000E-03 0.  1.
</event>
<event>
 8    1  0.1135368E+005  0.1043930E+01  0.7957747E-01            NaN
         13   -1    0    0    0    0  0.00000000000E+00  0.00000000000E+00  0.74505805969E-08  0.10566000000E+00  0.10566000000E+00 0.  1.
     999900   -1    0    0    0    0 -0.00000000000E+00 -0.00000000000E+00 -0.74505805969E-08  0.93827000000E+00  0.93827000000E+00 0. -1.
     999902    2    1    2    0    0  0.50140604580E-02 -0.17948684375E-01  0.14766893491E-01  0.10201527584E+01  0.10198756264E+01 0.  0.
     999903    2    3    3    0    0  0.94211006180E-01  0.74256100860E-01 -0.42895600144E-01  0.12898342508E+00  0.20174469818E-01 0.  0.
         14    1    1    2    0    0 -0.50140604580E-02  0.17948684375E-01 -0.14766893491E-01  0.23777241565E-01  0.00000000000E+00 0. -1.
     999901    1    3    3    0    0 -0.89196945722E-01 -0.92204785234E-01  0.57662493635E-01  0.89116933336E+00  0.88000000000E+00 0. -1.
        -11    1    4    4    0    0  0.54477849196E-01  0.30532741569E-01 -0.19343035858E-01  0.65379649112E-01  0.51100000000E-03 0.  1.
         11    1    4    4    0    0  0.39733156985E-01  0.43723359290E-01 -0.23552564285E-01  0.63603775965E-01  0.51100000000E-03 0. -1.
</event>
<event>
 8    1  0.1135368E+005  0.1043930E+01  0.7957747E-01            NaN
         13   -1    0    0    0    0  0.00000000000E+00  0.00000000000E+00  0.74505805969E-08  0.10566000000E+00  0.10566000000E+00 0. -1.
     999900   -1    0    0    0    0 -0.00000000000E+00 -0.00000000000E+00 -0.74505805969E-08  0.93827000000E+00  0.93827000000E+00 0.  1.
     999902    2    1    2    0    0  0.22367558708E-01 -0.93194069782E-02  0.49159351262E-02  0.10192050036E+01  0.10189050564E+01 0.  0.
     999903    2    3    3    0    0  0.26064731309E-01 -0.68526252768E-01  0.10713911686E+00  0.13130371485E+00  0.19663611987E-01 0.  0.
         14    1    1    2    0    0 -0.22367558708E-01  0.93194069782E-02 -0.49159351262E-02  0.24724996403E-01  0.00000000000E+00 0.  1.
     999901    1    3    3    0    0 -0.36971726009E-02  0.59206845790E-01 -0.10222318173E+00  0.88790128875E+00  0.88000000000E+00 0.  1.
        -11    1    4    4    0    0  0.25268630968E-01 -0.40066280949E-01  0.69415628087E-01  0.84039283218E-01  0.51100000000E-03 0. -1.
         11    1    4    4    0    0  0.79610034111E-03 -0.28459971819E-01  0.37723488768E-01  0.47264431633E-01  0.51100000000E-03 0.  1.
</event>
<event>
 8    1  0.1135368E+005  0.1043930E+01  0.7957747E-01            NaN
         13   -1    0    0    0    0  0.00000000000E+00  0.00000000000E+00  0.74505805969E-08  0.10566000000E+00  0.10566000000E+00 0.  1.
     999900   -1    0    0    0    0 -0.00000000000E+00 -0.00000000000E+00 -0.74505805969E-08  0.93827000000E+00  0.93827000000E+00 0.  1.
     999902    2    1    2    0    0 -0.21477231143E-02 -0.17077350101E-01  0.17279071308E-01  0.10195411725E+01  0.10192494236E+01 0.  0.
     999903    2    3    3    0    0 -0.96345773406E-01  0.82399970198E-01 -0.75893128680E-02  0.12859367324E+00  0.20161150378E-01 0.  0.
         14    1    1    2    0    0  0.21477231143E-02  0.17077350101E-01 -0.17279071308E-01  0.24388827489E-01  0.00000000000E+00 0.  1.
     999901    1    3    3    0    0  0.94198050292E-01 -0.99477320299E-01  0.24868384176E-01  0.89094749927E+00  0.88000000000E+00 0.  1.
        -11    1    4    4    0    0 -0.56623235263E-01  0.41831044847E-01 -0.12873395848E-01  0.71568236853E-01  0.51100000000E-03 0.  1.
         11    1    4    4    0    0 -0.39722538143E-01  0.40568925351E-01  0.52840829796E-02  0.57025436383E-01  0.51100000000E-03 0. -1.
</event>
<event>
 8    1  0.1135368E+005  0.1043930E+01  0.7957747E-01            NaN
         13   -1    0    0    0    0  0.00000000000E+00  0.00000000000E+00  0.74505805969E-08  0.10566000000E+00  0.10566000000E+00 0.  1.
     999900   -1    0    0    0    0 -0.00000000000E+00 -0.00000000000E+00 -0.74505805969E-08  0.93827000000E+00  0.93827000000E+00 0.  1.
     999902    2    1    2    0    0  0.10858900681E-01  0.21677730825E-01 -0.11153884433E-02  0.10196589508E+01  0.10193700467E+01 0.  0.
     999903    2    3    3    0    0 -0.76290056626E-01  0.31461181862E-01 -0.98351100005E-01  0.12997055576E+00  0.20234322030E-01 0.  0.
         14    1    1    2    0    0 -0.10858900681E-01 -0.21677730825E-01  0.11153884433E-02  0.24271049196E-01  0.00000000000E+00 0. -1.
     999901    1    3    3    0    0  0.87148957306E-01 -0.97834510365E-02  0.97235711562E-01  0.88968839504E+00  0.88000000000E+00 0. -1.
        -11    1    4    4    0    0 -0.48639386551E-01  0.19319677995E-01 -0.46736644343E-01  0.70168475310E-01  0.51100000000E-03 0.  1.
         11    1    4    4    0    0 -0.27650670075E-01  0.12141503867E-01 -0.51614455663E-01  0.59802080450E-01  0.51100000000E-03 0. -1.
</event>
<event>
 8    1  0.1135368E+005  0.1043930E+01  0.7957747E-01            NaN
         13   -1    0    0    0    0  0.00000000000E+00  0.00000000000E+00  0.74505805969E-08  0.10566000000E+00  0.10566000000E+00 0.  1.
     999900   -1    0    0    0    0 -0.00000000000E+00 -0.00000000000E+00 -0.74505805969E-08  0.93827000000E+00  0.93827000000E+00 0. -1.
     999902    2    1    2    0    0  0.26120869389E-01 -0.15982580184E-03  0.33935582645E-02  0.10175891268E+01  0.10172481455E+01 0.  0.
     999903    2    3    3    0    0 -0.14905219131E-01  0.47978960626E-01 -0.11631007453E+00  0.12723557772E+00  0.11692415507E-01 0.  0.
         14    1    1    2    0    0 -0.26120869389E-01  0.15982580184E-03 -0.33935582645E-02  0.26340873175E-01  0.00000000000E+00 0. -1.
     999901    1    3    3    0    0  0.41026088521E-01 -0.48138786428E-01  0.11970363280E+00  0.89035354910E+00  0.88000000000E+00 0.  1.
        -11    1    4    4    0    0 -0.23847083894E-02  0.11913298771E-01 -0.17542501331E-01  0.21345116436E-01  0.51100000000E-03 0.  1.
         11    1    4    4    0    0 -0.12520510742E-01  0.36065661855E-01 -0.98767573200E-01  0.10589046128E+00  0.51100000000E-03 0. -1.
</event>
<event>
 8    1  0.1220119E+005  0.1043930E+01  0.7957747E-01            NaN
         13   -1    0    0    0    0  0.00000000000E+00  0.00000000000E+00  0.74505805969E-08  0.10566000000E+00  0.10566000000E+00 0.  1.
     999900   -1    0    0    0    0 -0.00000000000E+00 -0.00000000000E+00 -0.74505805969E-08  0.93827000000E+00  0.93827000000E+00 0. -1.
     999902    2    1    2    0    0  0.13568176338E-01 -0.18507219430E-01  0.73822809465E-02  0.10198237632E+01  0.10195388160E+01 0.  0.
     999903    2    3    3    0    0 -0.38928687044E-02 -0.64177941568E-01 -0.11152772145E+00  0.13048114553E+00  0.21282247891E-01 0.  0.
         14    1    1    2    0    0 -0.13568176338E-01  0.18507219430E-01 -0.73822809465E-02  0.24106236789E-01  0.00000000000E+00 0. -1.
     999901    1    3    3    0    0  0.17461045042E-01  0.45670722137E-01  0.11891000240E+00  0.88934261768E+00  0.88000000000E+00 0.  1.
        -11    1    4    4    0    0 -0.11209052837E-01 -0.24277905948E-01 -0.37412023435E-01  0.45988913895E-01  0.51100000000E-03 0.  1.
         11    1    4    4    0    0  0.73161841331E-02 -0.39900035620E-01 -0.74115698018E-01  0.84492231634E-01  0.51100000000E-03 0. -1.
</event>
<event>
 8    1  0.1135368E+005  0.1043930E+01  0.7957747E-01            NaN
         13   -1    0    0    0    0  0.00000000000E+00  0.00000000000E+00  0.74505805969E-08  0.10566000000E+00  0.10566000000E+00 0.  1.
     999900   -1    0    0    0    0 -0.00000000000E+00 -0.00000000000E+00 -0.74505805969E-08  0.93827000000E+00  0.93827000000E+00 0. -1.
     999902    2    1    2    0    0 -0.98468919091E-02 -0.15060504201E-01 -0.17585827567E-01  0.10187696860E+01  0.10184589495E+01 0.  0.
     999903    2    3    3    0    0 -0.11319725628E+00 -0.49886942509E-01 -0.40614373137E-01  0.13173840558E+00  0.20078703573E-01 0.  0.
         14    1    1    2    0    0  0.98468919091E-02  0.15060504201E-01  0.17585827567E-01  0.25160313954E-01  0.00000000000E+00 0.  1.
     999901    1    3    3    0    0  0.10335036437E+00  0.34826438308E-01  0.23028545570E-01  0.88703128047E+00  0.88000000000E+00 0.  1.
        -11    1    4    4    0    0 -0.47528572372E-01 -0.28903417791E-01 -0.11005933165E-01  0.56707710565E-01  0.51100000000E-03 0.  1.
         11    1    4    4    0    0 -0.65668683905E-01 -0.20983524718E-01 -0.29608439972E-01  0.75030695012E-01  0.51100000000E-03 0. -1.
</event>
<event>
 8    1  0.1135368E+005  0.1043930E+01  0.7957747E-01            NaN
         13   -1    0    0    0    0  0.00000000000E+00  0.00000000000E+00  0.74505805969E-08  0.10566000000E+00  0.10566000000E+00 0.  1.
     999900   -1    0    0    0    0 -0.00000000000E+00 -0.00000000000E+00 -0.74505805969E-08  0.93827000000E+00  0.93827000000E+00 0.  1.
     999902    2    1    2    0    0 -0.15634390838E-01  0.80626366262E-02 -0.15301408458E-01  0.10206153397E+01  0.10203490080E+01 0.  0.
     999903    2    3    3    0    0  0.78932932241E-01 -0.54328587140E-01  0.82685253470E-01  0.12795805418E+00  0.18825761999E-01 0.  0.
         14    1    1    2    0    0  0.15634390838E-01 -0.80626366262E-02  0.15301408458E-01  0.23314660346E-01  0.00000000000E+00 0.  1.
     999901    1    3    3    0    0 -0.94567323079E-01  0.62391223766E-01 -0.97986661928E-01  0.89265728548E+00  0.88000000000E+00 0.  1.
        -11    1    4    4    0    0  0.44521667290E-01 -0.33964476111E-01  0.36398524643E-01  0.66789806206E-01  0.51100000000E-03 0. -1.
         11    1    4    4    0    0  0.34411264951E-01 -0.20364111029E-01  0.46286728827E-01  0.61168247973E-01  0.51100000000E-03 0.  1.
</event>
<event>
 8    1  0.1135368E+005  0.1043930E+01  0.7957747E-01            NaN
         13   -1    0    0    0    0  0.00000000000E+00  0.00000000000E+00  0.74505805969E-08  0.10566000000E+00  0.10566000000E+00 0.  1.
     999900   -1    0    0    0    0 -0.00000000000E+00 -0.00000000000E+00 -0.74505805969E-08  0.93827000000E+00  0.93827000000E+00 0. -1.
     999902    2    1    2    0    0  0.99953979214E-02  0.12194890464E-01 -0.17527421779E-01  0.10203538712E+01  0.10200814618E+01 0.  0.
     999903    2    3    3    0    0  0.67195857188E-01  0.12235013672E-01  0.10818684609E+00  0.12958118907E+00  0.20540499284E-01 0.  0.
         14    1    1    2    0    0 -0.99953979214E-02 -0.12194890464E-01  0.17527421779E-01  0.23576128759E-01  0.00000000000E+00 0.  1.
     999901    1    3    3    0    0 -0.57200459267E-01 -0.40123208707E-04 -0.12571426787E+00  0.89077268217E+00  0.88000000000E+00 0. -1.
        -11    1    4    4    0    0  0.55661453014E-01  0.90242920832E-02  0.71954998276E-01  0.91418915423E-01  0.51100000000E-03 0.  1.
         11    1    4    4    0    0  0.11534404174E-01  0.32107215891E-02  0.36231847819E-01  0.38162273650E-01  0.51100000000E-03 0. -1.
</event>
<event>
 8    1  0.1135368E+005  0.1043930E+01  0.7957747E-01            NaN
         13   -1    0    0    0    0  0.00000000000E+00  0.00000000000E+00  0.74505805969E-08  0.10566000000E+00  0.10566000000E+00 0. -1.
     999900   -1    0    0    0    0 -0.00000000000E+00 -0.00000000000E+00 -0.74505805969E-08  0.93827000000E+00  0.93827000000E+00 0. -1.
     999902    2    1    2    0    0 -0.12419120069E-01  0.19924371415E-01  0.31395764399E-02  0.10202430403E+01  0.10199680334E+01 0.  0.
     999903    2    3    3    0    0  0.41245742294E-01 -0.59387415882E-01  0.10522396649E+00  0.12918103362E+00  0.19687049092E-01 0.  0.
         14    1    1    2    0    0  0.12419120069E-01 -0.19924371415E-01 -0.31395764399E-02  0.23686959699E-01  0.00000000000E+00 0.  1.
     999901    1    3    3    0    0 -0.53664862363E-01  0.79311787297E-01 -0.10208439005E+00  0.89106200668E+00  0.88000000000E+00 0. -1.
        -11    1    4    4    0    0  0.35607335266E-01 -0.42773943333E-01  0.90624687756E-01  0.10635124684E+00  0.51100000000E-03 0.  1.
         11    1    4    4    0    0  0.56384070282E-02 -0.16613472549E-01  0.14599278730E-01  0.22829786779E-01  0.51100000000E-03 0. -1.
</event>
<event>
 7    1  0.1135368E+005  0.1043930E+01  0.7957747E-01            NaN
         13   -1    0    0    0    0  0.00000000000E+00  0.00000000000E+00  0.74505805969E-08  0.10566000000E+00  0.10566000000E+00 0.  1.
     999900   -1    0    0    0    0 -0.00000000000E+00 -0.00000000000E+00 -0.74505805969E-08  0.93827000000E+00  0.93827000000E+00 0. -1.
     999902    2    1    2    0    0  0.98468547374E-02 -0.15971444588E-01 -0.14265901465E-01  0.10203596047E+01  0.10200873293E+01 0.  0.
         14    1    1    2    0    0 -0.98468547374E-02  0.15971444588E-01  0.14265901465E-01  0.23570395310E-01  0.00000000000E+00 0.  1.
     999901    1    3    3    0    0 -0.90387369503E-01  0.95048951336E-02 -0.85786383046E-01  0.88883042427E+00  0.88000000000E+00 0. -1.
        -11    1    3    3    0    0  0.77776227897E-01 -0.15549355067E-01  0.71770884687E-01  0.10696843029E+00  0.51100000000E-03 0. -1.
         11    1    3    3    0    0  0.22457996343E-01 -0.99269846543E-02 -0.25040310664E-03  0.24560750127E-01  0.51100000000E-03 0.  1.
</event>
<event>
 7    1  0.1472303E+005  0.1043930E+01  0.7957747E-01            NaN
         13   -1    0    0    0    0  0.00000000000E+00  0.00000000000E+00  0.74505805969E-08  0.10566000000E+00  0.10566000000E+00 0. -1.
     999900   -1    0    0    0    0 -0.00000000000E+00 -0.00000000000E+00 -0.74505805969E-08  0.93827000000E+00  0.93827000000E+00 0. -1.
     999903    2    1    2    0    0  0.52724973375E-01 -0.68961006779E-01  0.18818473370E-01  0.90898042452E-01  0.19307405530E-01 0.  0.
         14    1    1    2    0    0  0.25913152700E-01  0.11482781922E-01  0.57772825433E-01  0.64350952767E-01  0.00000000000E+00 0. -1.
     999901    1    1    2    0    0 -0.78638126076E-01  0.57478224857E-01 -0.76591298803E-01  0.88868100478E+00  0.88000000000E+00 0. -1.
        -11    1    3    3    0    0  0.21795202830E-01 -0.44053654749E-01  0.12075998265E-01  0.50614683821E-01  0.51100000000E-03 0. -1.
         11    1    3    3    0    0  0.30929770545E-01 -0.24907352029E-01  0.67424751055E-02  0.40283358631E-01  0.51100000000E-03 0.  1.
</event>
<event>
 7    1  0.1135368E+005  0.1043930E+01  0.7957747E-01            NaN
         13   -1    0    0    0    0  0.00000000000E+00  0.00000000000E+00  0.74505805969E-08  0.10566000000E+00  0.10566000000E+00 0. -1.
     999900   -1    0    0    0    0 -0.00000000000E+00 -0.00000000000E+00 -0.74505805969E-08  0.93827000000E+00  0.93827000000E+00 0.  1.
     999903    2    1    2    0    0 -0.15593549024E-01  0.83086691000E-01 -0.67183472729E-02  0.88525864235E-01  0.25399516844E-01 0.  0.
         14    1    1    2    0    0  0.52252111101E-01 -0.52384538259E-01 -0.30432186055E-02  0.74051901681E-01  0.00000000000E+00 0.  1.
     999901    1    1    2    0    0 -0.36658562077E-01 -0.30702152741E-01  0.97615658784E-02  0.88135223408E+00  0.88000000000E+00 0.  1.
        -11    1    3    3    0    0 -0.14325316107E-02  0.43899079342E-01 -0.14251509371E-01  0.46179518774E-01  0.51100000000E-03 0.  1.
         11    1    3    3    0    0 -0.14161017414E-01  0.39187611658E-01  0.75331620979E-02  0.42346345460E-01  0.51100000000E-03 0. -1.
</event>
<event>
 8    1  0.1135368E+005  0.1043930E+01  0.7957747E-01            NaN
         13   -1    0    0    0    0  0.00000000000E+00  0.00000000000E+00  0.74505805969E-08  0.10566000000E+00  0.10566000000E+00 0.  1.
     999900   -1    0    0    0    0 -0.00000000000E+00 -0.00000000000E+00 -0.74505805969E-08  0.93827000000E+00  0.93827000000E+00 0.  1.
     999902    2    1    2    0    0 -0.53696606565E-03 -0.15592066174E-01  0.17846051570E-01  0.10202259409E+01  0.10199505322E+01 0.  0.
     999903    2    3    3    0    0 -0.82666745006E-01  0.36914557805E-01  0.93360232410E-01  0.13162893572E+00  0.20336381557E-01 0.  0.
         14    1    1    2    0    0  0.53696606565E-03  0.15592066174E-01 -0.17846051570E-01  0.23704059078E-01  0.00000000000E+00 0. -1.
     999901    1    3    3    0    0  0.82129778940E-01 -0.52506623979E-01 -0.75514180840E-01  0.88859700520E+00  0.88000000000E+00 0.  1.
        -11    1    4    4    0    0 -0.61872345432E-01  0.33752400532E-01  0.62033780662E-01  0.93892825792E-01  0.51100000000E-03 0.  1.
         11    1    4    4    0    0 -0.20794399574E-01  0.31621572726E-02  0.31326451747E-01  0.37736109926E-01  0.51100000000E-03 0. -1.
</event>
<event>
 8    1  0.1135368E+005  0.1043930E+01  0.7957747E-01            NaN
         13   -1    0    0    0    0  0.00000000000E+00  0.00000000000E+00  0.74505805969E-08  0.10566000000E+00  0.10566000000E+00 0.  1.
     999900   -1    0    0    0    0 -0.00000000000E+00 -0.00000000000E+00 -0.74505805969E-08  0.93827000000E+00  0.93827000000E+00 0. -1.
     999902    2    1    2    0    0 -0.16532635421E-02  0.96623819710E-02  0.18825545151E-01  0.10227051076E+01  0.10224848366E+01 0.  0.
     999903    2    3    3    0    0  0.74117215008E-01 -0.32890714915E-01 -0.99547452340E-01  0.13053690712E+00  0.23559035739E-01 0.  0.
         14    1    1    2    0    0  0.16532635421E-02 -0.96623819710E-02 -0.18825545151E-01  0.21224892365E-01  0.00000000000E+00 0. -1.
     999901    1    3    3    0    0 -0.75770478550E-01  0.42553096886E-01  0.11837299749E+00  0.89216820051E+00  0.88000000000E+00 0.  1.
        -11    1    4    4    0    0  0.65654297053E-01 -0.20770189428E-01 -0.88172620791E-01  0.11187743145E+00  0.51100000000E-03 0.  1.
         11    1    4    4    0    0  0.84629179546E-02 -0.12120525487E-01 -0.11374831548E-01  0.18659475667E-01  0.51100000000E-03 0. -1.
</event>
<event>
 8    1  0.1135368E+005  0.1043930E+01  0.7957747E-01            NaN
         13   -1    0    0    0    0  0.00000000000E+00  0.00000000000E+00  0.74505805969E-08  0.10566000000E+00  0.10566000000E+00 0.  1.
     999900   -1    0    0    0    0 -0.00000000000E+00 -0.00000000000E+00 -0.74505805969E-08  0.93827000000E+00  0.93827000000E+00 0.  1.
     999902    2    1    2    0    0  0.27557078613E-02  0.15987514727E-01 -0.16760235411E-01  0.10206040478E+01  0.10203374552E+01 0.  0.
     999903    2    3    3    0    0 -0.10045946062E+00 -0.40965269891E-01  0.65799552579E-01  0.12891289656E+00  0.22774925120E-01 0.  0.
         14    1    1    2    0    0 -0.27557078613E-02 -0.15987514727E-01  0.16760235411E-01  0.23325952156E-01  0.00000000000E+00 0.  1.
     999901    1    3    3    0    0  0.10321516849E+00  0.56952784619E-01 -0.82559787990E-01  0.89169115128E+00  0.88000000000E+00 0.  1.
        -11    1    4    4    0    0 -0.66126113705E-01 -0.37177351933E-01  0.39741199982E-01  0.85641359794E-01  0.51100000000E-03 0.  1.
         11    1    4    4    0    0 -0.34333346920E-01 -0.37879179586E-02  0.26058352597E-01  0.43271536768E-01  0.51100000000E-03 0. -1.
</event>
<event>
 8    1  0.1135368E+005  0.1043930E+01  0.7957747E-01            NaN
         13   -1    0    0    0    0  0.00000000000E+00  0.00000000000E+00  0.74505805969E-08  0.10566000000E+00  0.10566000000E+00 0.  1.
     999900   -1    0    0    0    0 -0.00000000000E+00 -0.00000000000E+00 -0.74505805969E-08  0.93827000000E+00  0.93827000000E+00 0.  1.
     999902    2    1    2    0    0  0.16629917550E-01  0.13158570879E-01 -0.19369196556E-01  0.10152094861E+01  0.10148031497E+01 0.  0.
     999903    2    3    3    0    0  0.53301000099E-01  0.11466095940E+00  0.10455145886E-01  0.12811479294E+00  0.17775203913E-01 0.  0.
         14    1    1    2    0    0 -0.16629917550E-01 -0.13158570879E-01  0.19369196556E-01  0.28720513932E-01  0.00000000000E+00 0. -1.
     999901    1    3    3    0    0 -0.36671082549E-01 -0.10150238852E+00 -0.29824342443E-01  0.88709469313E+00  0.88000000000E+00 0.  1.
        -11    1    4    4    0    0  0.18139961873E-01  0.22999388564E-01  0.55447587336E-02  0.29816699373E-01  0.51100000000E-03 0. -1.
         11    1    4    4    0    0  0.35161038226E-01  0.91661570831E-01  0.49103871526E-02  0.98298093569E-01  0.51100000000E-03 0.  1.
</event>
<event>
 8    1  0.1135368E+005  0.1043930E+01  0.7957747E-01            NaN
         13   -1    0    0    0    0  0.00000000000E+00  0.00000000000E+00  0.74505805969E-08  0.10566000000E+00  0.10566000000E+00 0. -1.
     999900   -1    0    0    0    0 -0.00000000000E+00 -0.00000000000E+00 -0.74505805969E-08  0.93827000000E+00  0.93827000000E+00 0.  1.
     999902    2    1    2    0    0  0.15356345219E-01  0.13166874783E-01 -0.13195486007E-01  0.10197782965E+01  0.10194922605E+01 0.  0.
     999903    2    3    3    0    0  0.22167795680E-01  0.99786547562E-01 -0.82432165138E-01  0.13279290695E+00  0.19751659369E-01 0.  0.
         14    1    1    2    0    0 -0.15356345219E-01 -0.13166874783E-01  0.13195486007E-01  0.24151703480E-01  0.00000000000E+00 0. -1.
     999901    1    3    3    0    0 -0.68114504606E-02 -0.86619672779E-01  0.69236679131E-01  0.88698538957E+00  0.88000000000E+00 0.  1.
        -11    1    4    4    0    0 -0.18814569781E-02  0.21071661954E-01 -0.23107029003E-01  0.31332901689E-01  0.51100000000E-03 0. -1.
         11    1    4    4    0    0  0.24049252658E-01  0.78714885608E-01 -0.59325136134E-01  0.10146000526E+00  0.51100000000E-03 0.  1.
</event>
<event>
 8    1  0.1135368E+005  0.1043930E+01  0.7957747E-01            NaN
         13   -1    0    0    0    0  0.00000000000E+00  0.00000000000E+00  0.74505805969E-08  0.10566000000E+00  0.10566000000E+00 0.  1.
     999900   -1    0    0    0    0 -0.00000000000E+00 -0.00000000000E+00 -0.74505805969E-08  0.93827000000E+00  0.93827000000E+00 0. -1.
     999902    2    1    2    0    0  0.18016999414E-01  0.87986680470E-02 -0.12743911430E-01  0.10201721359E+01  0.10198954607E+01 0.  0.
     999903    2    3    3    0    0  0.10407774695E+00  0.80270153210E-01 -0.66222618156E-02  0.13306892881E+00  0.19697983588E-01 0.  0.
         14    1    1    2    0    0 -0.18016999414E-01 -0.87986680470E-02  0.12743911430E-01  0.23757864084E-01  0.00000000000E+00 0.  1.
     999901    1    3    3    0    0 -0.86060747535E-01 -0.71471485163E-01 -0.61216496147E-02  0.88710320710E+00  0.88000000000E+00 0.  1.
        -11    1    4    4    0    0  0.61874791406E-01  0.57304079361E-01 -0.98598323036E-02  0.84910097968E-01  0.51100000000E-03 0. -1.
         11    1    4    4    0    0  0.42202955544E-01  0.22966073849E-01  0.32375704880E-02  0.48158830845E-01  0.51100000000E-03 0.  1.
</event>
<event>
 8    1  0.1135368E+005  0.1043930E+01  0.7957747E-01            NaN
         13   -1    0    0    0    0  0.00000000000E+00  0.00000000000E+00  0.74505805969E-08  0.10566000000E+00  0.10566000000E+00 0.  1.
     999900   -1    0    0    0    0 -0.00000000000E+00 -0.00000000000E+00 -0.74505805969E-08  0.93827000000E+00  0.93827000000E+00 0. -1.
     999902    2    1    2    0    0  0.36092365005E-02  0.38565706080E-02 -0.22681011635E-01  0.10206420629E+01  0.10203763485E+01 0.  0.
     999903    2    3    3    0    0 -0.12588203149E+00 -0.23163379239E-01 -0.11495406733E-01  0.13068521905E+00  0.23741400809E-01 0.  0.
         14    1    1    2    0    0 -0.36092365005E-02 -0.38565706080E-02  0.22681011635E-01  0.23287937087E-01  0.00000000000E+00 0.  1.
     999901    1    3    3    0    0  0.12949126799E+00  0.27019949847E-01 -0.11185604902E-01  0.88995684386E+00  0.88000000000E+00 0. -1.
        -11    1    4    4    0    0 -0.26719428620E-01 -0.30647017210E-02 -0.12118154557E-01  0.29503068540E-01  0.51100000000E-03 0. -1.
         11    1    4    4    0    0 -0.99162602873E-01 -0.20098677518E-01  0.62274782384E-03  0.10118215051E+00  0.51100000000E-03 0.  1.
</event>
<event>
 8    1  0.1135368E+005  0.1043930E+01  0.7957747E-01            NaN
         13   -1    0    0    0    0  0.00000000000E+00  0.00000000000E+00  0.74505805969E-08  0.10566000000E+00  0.10566000000E+00 0. -1.
     999900   -1    0    0    0    0 -0.00000000000E+00 -0.00000000000E+00 -0.74505805969E-08  0.93827000000E+00  0.93827000000E+00 0.  1.
     999902    2    1    2    0    0  0.19462890531E-01  0.52076202873E-02 -0.13243075913E-01  0.10198197848E+01  0.10195347424E+01 0.  0.
     999903    2    3    3    0    0  0.12361008968E+00  0.42906186051E-01  0.11250390527E-01  0.13253868457E+00  0.17875585253E-01 0.  0.
         14    1    1    2    0    0 -0.19462890531E-01 -0.52076202873E-02  0.13243075913E-01  0.24110215190E-01  0.00000000000E+00 0. -1.
     999901    1    3    3    0    0 -0.10414719915E+00 -0.37698565764E-01 -0.24493466440E-01  0.88728110024E+00  0.88000000000E+00 0.  1.
        -11    1    4    4    0    0  0.55801206275E-01  0.13189884608E-01 -0.17590967601E-02  0.57368137673E-01  0.51100000000E-03 0.  1.
         11    1    4    4    0    0  0.67808883403E-01  0.29716301444E-01  0.13009487287E-01  0.75170546894E-01  0.51100000000E-03 0. -1.
</event>
<event>
 8    1  0.1135368E+005  0.1043930E+01  0.7957747E-01            NaN
         13   -1    0    0    0    0  0.00000000000E+00  0.00000000000E+00  0.74505805969E-08  0.10566000000E+00  0.10566000000E+00 0.  1.
     999900   -1    0    0    0    0 -0.00000000000E+00 -0.00000000000E+00 -0.74505805969E-08  0.93827000000E+00  0.93827000000E+00 0.  1.
     999902    2    1    2    0    0 -0.65701296962E-03  0.14622039156E-01  0.18478233469E-01  0.10203571171E+01  0.10200847836E+01 0.  0.
     999903    2    3    3    0    0 -0.10953790022E+00  0.70134484470E-01  0.93283291323E-02  0.13186378572E+00  0.19586800759E-01 0.  0.
         14    1    1    2    0    0  0.65701296962E-03 -0.14622039156E-01 -0.18478233469E-01  0.23572882879E-01  0.00000000000E+00 0. -1.
     999901    1    3    3    0    0  0.10888088725E+00 -0.55512445314E-01  0.91499043365E-02  0.88849333140E+00  0.88000000000E+00 0. -1.
        -11    1    4    4    0    0 -0.27770110067E-01  0.25081836233E-01  0.90564993531E-02  0.38504010486E-01  0.51100000000E-03 0. -1.
         11    1    4    4    0    0 -0.81767790152E-01  0.45052648237E-01  0.27182977924E-03  0.93359775235E-01  0.51100000000E-03 0.  1.
</event>
<event>
 8    1  0.1135368E+005  0.1043930E+01  0.7957747E-01            NaN
         13   -1    0    0    0    0  0.00000000000E+00  0.00000000000E+00  0.74505805969E-08  0.10566000000E+00  0.10566000000E+00 0.  1.
     999900   -1    0    0    0    0 -0.00000000000E+00 -0.00000000000E+00 -0.74505805969E-08  0.93827000000E+00  0.93827000000E+00 0.  1.
     999902    2    1    2    0    0 -0.23389536675E-01  0.68667911870E-02 -0.28683774051E-02  0.10193851261E+01  0.10190895861E+01 0.  0.
     999903    2    3    3    0    0 -0.23207011134E-01 -0.88113719417E-01  0.89752469170E-01  0.12944133463E+00  0.19923866934E-01 0.  0.
         14    1    1    2    0    0  0.23389536675E-01 -0.68667911870E-02  0.28683774051E-02  0.24544873925E-01  0.00000000000E+00 0.  1.
     999901    1    3    3    0    0 -0.18252554109E-03  0.94980510604E-01 -0.92620846575E-01  0.88994379144E+00  0.88000000000E+00 0.  1.
        -11    1    4    4    0    0 -0.26508433225E-01 -0.78764683268E-01  0.77143293893E-01  0.11339277435E+00  0.51100000000E-03 0. -1.
         11    1    4    4    0    0  0.33014220915E-02 -0.93490361494E-02  0.12609175277E-01  0.16048560275E-01  0.51100000000E-03 0.  1.
</event>
<event>
 8    1  0.1135368E+005  0.1043930E+01  0.7957747E-01            NaN
         13   -1    0    0    0    0  0.00000000000E+00  0.00000000000E+00  0.74505805969E-08  0.10566000000E+00  0.10566000000E+00 0. -1.
     999900   -1    0    0    0    0 -0.00000000000E+00 -0.00000000000E+00 -0.74505805969E-08  0.93827000000E+00  0.93827000000E+00 0. -1.
     999902    2    1    2    0    0 -0.52457121417E-03 -0.13686466405E-01  0.18398783888E-01  0.10209929168E+01  0.10207352381E+01 0.  0.
     999903    2    3    3    0    0  0.48940010658E-01  0.10885261782E+00 -0.44397291020E-01  0.12891336930E+00  0.20087814345E-01 0.  0.
         14    1    1    2    0    0  0.52457121417E-03  0.13686466405E-01 -0.18398783888E-01  0.22937083210E-01  0.00000000000E+00 0.  1.
     999901    1    3    3    0    0 -0.49464581872E-01 -0.12253908423E+00  0.62796074907E-01  0.89207954749E+00  0.88000000000E+00 0.  1.
        -11    1    4    4    0    0  0.34250888398E-01  0.88102161943E-01 -0.27734933079E-01  0.98511938003E-01  0.51100000000E-03 0.  1.
         11    1    4    4    0    0  0.14689122259E-01  0.20750455878E-01 -0.16662357941E-01  0.30401431300E-01  0.51100000000E-03 0. -1.
</event>
<event>
 8    1  0.1135368E+005  0.1043930E+01  0.7957747E-01            NaN
         13   -1    0    0    0    0  0.00000000000E+00  0.00000000000E+00  0.74505805969E-08  0.10566000000E+00  0.10566000000E+00 0. -1.
     999900   -1    0    0    0    0 -0.00000000000E+00 -0.00000000000E+00 -0.74505805969E-08  0.93827000000E+00  0.93827000000E+00 0.  1.
     999902    2    1    2    0    0  0.10184049190E-01 -0.34510684278E-02  0.19969871377E-01  0.10212491602E+01  0.10209972707E+01 0.  0.
     999903    2    3    3    0    0  0.76112506101E-01  0.64485637623E-02 -0.10334899798E+00  0.13015314535E+00  0.20594375431E-01 0.  0.
         14    1    1    2    0    0 -0.10184049190E-01  0.34510684278E-02 -0.19969871377E-01  0.22680839800E-01  0.00000000000E+00 0.  1.
     999901    1    3    3    0    0 -0.65928456911E-01 -0.98996321900E-02  0.12331886936E+00  0.89109601485E+00  0.88000000000E+00 0.  1.
        -11    1    4    4    0    0  0.56788115439E-01  0.13773356928E-01 -0.76887500947E-01  0.96574035533E-01  0.51100000000E-03 0.  1.
         11    1    4    4    0    0  0.19324390662E-01 -0.73247931655E-02 -0.26461497038E-01  0.33579109813E-01  0.51100000000E-03 0. -1.
</event>
<event>
 8    1  0.1135368E+005  0.1043930E+01  0.7957747E-01            NaN
         13   -1    0    0    0    0  0.00000000000E+00  0.00000000000E+00  0.74505805969E-08  0.10566000000E+00  0.10566000000E+00 0.  1.
     999900   -1    0    0    0    0 -0.00000000000E+00 -0.00000000000E+00 -0.74505805969E-08  0.93827000000E+00  0.93827000000E+00 0.  1.
     999902    2    1    2    0    0  0.95836915241E-02 -0.20864332157E-01  0.77825211499E-02  0.10196867507E+01  0.10193985160E+01 0.  0.
     999903    2    3    3    0    0 -0.54951172020E-02  0.69205991869E-01  0.10731699540E+00  0.12937941879E+00  0.20060679994E-01 0.  0.
         14    1    1    2    0    0 -0.95836915241E-02  0.20864332157E-01 -0.77825211499E-02  0.24243249268E-01  0.00000000000E+00 0.  1.
     999901    1    3    3    0    0  0.15078808726E-01 -0.90070324026E-01 -0.99534474250E-01  0.89030733194E+00  0.88000000000E+00 0.  1.
        -11    1    4    4    0    0 -0.82969879035E-02  0.13821974092E-01  0.17314495842E-01  0.23663048479E-01  0.51100000000E-03 0. -1.
         11    1    4    4    0    0  0.28018707015E-02  0.55384017777E-01  0.90002499558E-01  0.10571637031E+00  0.51100000000E-03 0.  1.
</event>
<event>
 8    1  0.1135368E+005  0.1043930E+01  0.7957747E-01            NaN
         13   -1    0    0    0    0  0.00000000000E+00  0.00000000000E+00  0.74505805969E-08  0.10566000000E+00  0.10566000000E+00 0. -1.
     999900   -1    0    0    0    0 -0.00000000000E+00 -0.00000000000E+00 -0.74505805969E-08  0.93827000000E+00  0.93827000000E+00 0. -1.
     999902    2    1    2    0    0  0.18345936184E-01  0.14778819152E-01  0.53267433988E-02  0.10197771313E+01  0.10194910674E+01 0.  0.
     999903    2    3    3    0    0  0.27954465929E-01  0.39774349067E-01 -0.11909642330E+00  0.13062122555E+00  0.22682493538E-01 0.  0.
         14    1    1    2    0    0 -0.18345936184E-01 -0.14778819152E-01 -0.53267433988E-02  0.24152868675E-01  0.00000000000E+00 0. -1.
     999901    1    3    3    0    0 -0.96085297446E-02 -0.24995529916E-01  0.12442316670E+00  0.88915590577E+00  0.88000000000E+00 0.  1.
        -11    1    4    4    0    0  0.30714568808E-01  0.34546184101E-01 -0.92967914388E-01  0.10382734611E+00  0.51100000000E-03 0.  1.
         11    1    4    4    0    0 -0.27601028794E-02  0.52281649667E-02 -0.26128508910E-01  0.26793879445E-01  0.51100000000E-03 0. -1.
</event>
<event>
 8    1  0.1135368E+005  0.1043930E+01  0.7957747E-01            NaN
         13   -1    0    0    0    0  0.00000000000E+00  0.00000000000E+00  0.74505805969E-08  0.10566000000E+00  0.10566000000E+00 0.  1.
     999900   -1    0    0    0    0 -0.00000000000E+00 -0.00000000000E+00 -0.74505805969E-08  0.93827000000E+00  0.93827000000E+00 0. -1.
     999902    2    1    2    0    0 -0.90345737011E-03 -0.12852248813E-01  0.22213520657E-01  0.10182504939E+01  0.10179266335E+01 0.  0.
     999903    2    3    3    0    0  0.64149816949E-02  0.27001069626E-01 -0.12096596379E+00  0.12575835873E+00  0.20302478752E-01 0.  0.
         14    1    1    2    0    0  0.90345737011E-03  0.12852248813E-01 -0.22213520657E-01  0.25679506124E-01  0.00000000000E+00 0. -1.
     999901    1    3    3    0    0 -0.73184390650E-02 -0.39853318438E-01  0.14317948444E+00  0.89249213515E+00  0.88000000000E+00 0.  1.
        -11    1    4    4    0    0  0.10076189117E-01  0.13746474732E-01 -0.37884419663E-01  0.41544981994E-01  0.51100000000E-03 0.  1.
         11    1    4    4    0    0 -0.36612074224E-02  0.13254594894E-01 -0.83081544123E-01  0.84213376731E-01  0.51100000000E-03 0. -1.
</event>
<event>
 8    1  0.1135368E+005  0.1043930E+01  0.7957747E-01            NaN
         13   -1    0    0    0    0  0.00000000000E+00  0.00000000000E+00  0.74505805969E-08  0.10566000000E+00  0.10566000000E+00 0. -1.
     999900   -1    0    0    0    0 -0.00000000000E+00 -0.00000000000E+00 -0.74505805969E-08  0.93827000000E+00  0.93827000000E+00 0. -1.
     999902    2    1    2    0    0  0.14746094705E-01 -0.17558677466E-01  0.72443711730E-02  0.10198834747E+01  0.10195999542E+01 0.  0.
     999903    2    3    3    0    0 -0.52143384215E-01 -0.22209681618E-01  0.11595365276E+00  0.13066272479E+00  0.20378802390E-01 0.  0.
         14    1    1    2    0    0 -0.14746094705E-01  0.17558677466E-01 -0.72443711730E-02  0.24046525260E-01  0.00000000000E+00 0.  1.
     999901    1    3    3    0    0  0.66889478920E-01  0.46510041523E-02 -0.10870928159E+00  0.88922074995E+00  0.88000000000E+00 0. -1.
        -11    1    4    4    0    0 -0.40148919847E-01 -0.73349347883E-02  0.72719303604E-01  0.83391218188E-01  0.51100000000E-03 0. -1.
         11    1    4    4    0    0 -0.11994464368E-01 -0.14874746830E-01  0.43234349158E-01  0.47271506606E-01  0.51100000000E-03 0.  1.
</event>
<event>
 8    1  0.1135368E+005  0.1043930E+01  0.7957747E-01            NaN
         13   -1    0    0    0    0  0.00000000000E+00  0.00000000000E+00  0.74505805969E-08  0.10566000000E+00  0.10566000000E+00 0.  1.
     999900   -1    0    0    0    0 -0.00000000000E+00 -0.00000000000E+00 -0.74505805969E-08  0.93827000000E+00  0.93827000000E+00 0. -1.
     999902    2    1    2    0    0  0.52824546215E-02 -0.19511210315E-01  0.11649671972E-01  0.10205996226E+01  0.10203329276E+01 0.  0.
     999903    2    3    3    0    0  0.11372133176E+00 -0.64893235939E-01 -0.57286544530E-02  0.13261284081E+00  0.20240422358E-01 0.  0.
         14    1    1    2    0    0 -0.52824546215E-02  0.19511210315E-01 -0.11649671972E-01  0.23330377447E-01  0.00000000000E+00 0. -1.
     999901    1    3    3    0    0 -0.10843887714E+00  0.45382025624E-01  0.17378326425E-01  0.88798678175E+00  0.88000000000E+00 0. -1.
        -11    1    4    4    0    0  0.79501402747E-01 -0.51175812531E-01  0.34649221700E-02  0.94613443197E-01  0.51100000000E-03 0. -1.
         11    1    4    4    0    0  0.34219929014E-01 -0.13717423408E-01 -0.91935766230E-02  0.37999397611E-01  0.51100000000E-03 0.  1.
</event>
<event>
 8    1  0.1135368E+005  0.1043930E+01  0.7957747E-01            NaN
         13   -1    0    0    0    0  0.00000000000E+00  0.00000000000E+00  0.74505805969E-08  0.10566000000E+00  0.10566000000E+00 0.  1.
     999900   -1    0    0    0    0 -0.00000000000E+00 -0.00000000000E+00 -0.74505805969E-08  0.93827000000E+00  0.93827000000E+00 0. -1.
     999902    2    1    2    0    0 -0.57397599285E-02 -0.68037845820E-02  0.19372538668E-01  0.10226102537E+01  0.10223879887E+01 0.  0.
     999903    2    3    3    0    0 -0.11802405229E+00  0.19292296236E-01  0.57511361716E-01  0.13427285293E+00  0.20488355115E-01 0.  0.
         14    1    1    2    0    0  0.57397599285E-02  0.68037845820E-02 -0.19372538668E-01  0.21319746319E-01  0.00000000000E+00 0. -1.
     999901    1    3    3    0    0  0.11228429236E+00 -0.26096080818E-01 -0.38138823048E-01  0.88833740075E+00  0.88000000000E+00 0. -1.
        -11    1    4    4    0    0 -0.67435281850E-01  0.19271852379E-01  0.39970939657E-01  0.80727062813E-01  0.51100000000E-03 0. -1.
         11    1    4    4    0    0 -0.50588770440E-01  0.20443857274E-04  0.17540422059E-01  0.53545790120E-01  0.51100000000E-03 0.  1.
</event>
<event>
 8    1  0.1135368E+005  0.1043930E+01  0.7957747E-01            NaN
         13   -1    0    0    0    0  0.00000000000E+00  0.00000000000E+00  0.74505805969E-08  0.10566000000E+00  0.10566000000E+00 0.  1.
     999900   -1    0    0    0    0 -0.00000000000E+00 -0.00000000000E+00 -0.74505805969E-08  0.93827000000E+00  0.93827000000E+00 0. -1.
     999902    2    1    2    0    0 -0.92462037590E-02 -0.21183499244E-01  0.96501504146E-02  0.10188828779E+01  0.10185749656E+01 0.  0.
     999903    2    3    3    0    0 -0.65517051430E-01  0.58933101744E-01  0.92691014383E-01  0.12956804996E+00  0.20752371262E-01 0.  0.
         14    1    1    2    0    0  0.92462037590E-02  0.21183499244E-01 -0.96501504146E-02  0.25047122134E-01  0.00000000000E+00 0.  1.
     999901    1    3    3    0    0  0.56270847671E-01 -0.80116600988E-01 -0.83040863968E-01  0.88931482791E+00  0.88000000000E+00 0. -1.
        -11    1    4    4    0    0 -0.47254445690E-01  0.53179253149E-01  0.69061634536E-01  0.99150320669E-01  0.51100000000E-03 0. -1.
         11    1    4    4    0    0 -0.18262605740E-01  0.57538485944E-02  0.23629379846E-01  0.30417729287E-01  0.51100000000E-03 0.  1.
</event>
<event>
 8    1  0.1135368E+005  0.1043930E+01  0.7957747E-01            NaN
         13   -1    0    0    0    0  0.00000000000E+00  0.00000000000E+00  0.74505805969E-08  0.10566000000E+00  0.10566000000E+00 0.  1.
     999900   -1    0    0    0    0 -0.00000000000E+00 -0.00000000000E+00 -0.74505805969E-08  0.93827000000E+00  0.93827000000E+00 0.  1.
     999902    2    1    2    0    0 -0.30857383648E-02 -0.10241838127E-01  0.18302251682E-01  0.10227311923E+01  0.10225114681E+01 0.  0.
     999903    2    3    3    0    0  0.10665046039E+00  0.23495599043E-01  0.74225829065E-01  0.13351373047E+00  0.19750408800E-01 0.  0.
         14    1    1    2    0    0  0.30857383648E-02  0.10241838127E-01 -0.18302251682E-01  0.21198807658E-01  0.00000000000E+00 0. -1.
     999901    1    3    3    0    0 -0.10973619876E+00 -0.33737437170E-01 -0.55923577382E-01  0.88921746187E+00  0.88000000000E+00 0.  1.
        -11    1    4    4    0    0  0.22963577213E-01  0.12345104921E-01  0.22930372379E-01  0.34724495567E-01  0.51100000000E-03 0.  1.
         11    1    4    4    0    0  0.83686883182E-01  0.11150494122E-01  0.51295456686E-01  0.98789234907E-01  0.51100000000E-03 0. -1.
</event>
<event>
 8    1  0.1135368E+005  0.1043930E+01  0.7957747E-01            NaN
         13   -1    0    0    0    0  0.00000000000E+00  0.00000000000E+00  0.74505805969E-08  0.10566000000E+00  0.10566000000E+00 0.  1.
     999900   -1    0    0    0    0 -0.00000000000E+00 -0.00000000000E+00 -0.74505805969E-08  0.93827000000E+00  0.93827000000E+00 0.  1.
     999902    2    1    2    0    0 -0.21878465424E-01 -0.65743090285E-02  0.67264849721E-02  0.10201154165E+01  0.10198374030E+01 0.  0.
     999903    2    3    3    0    0 -0.15739022055E-01  0.12441622465E+00  0.28638966942E-01  0.13012869211E+00  0.19651267442E-01 0.  0.
         14    1    1    2    0    0  0.21878465424E-01  0.65743090285E-02 -0.67264849721E-02  0.23814583528E-01  0.00000000000E+00 0.  1.
     999901    1    3    3    0    0 -0.61394433686E-02 -0.13099053367E+00 -0.21912481970E-01  0.88998672436E+00  0.88000000000E+00 0. -1.
        -11    1    4    4    0    0 -0.62241100858E-02  0.73256679267E-01  0.26134247857E-01  0.78029101210E-01  0.51100000000E-03 0.  1.
         11    1    4    4    0    0 -0.95149119697E-02  0.51159545378E-01  0.25047190857E-02  0.52099590899E-01  0.51100000000E-03 0. -1.
</event>
<event>
 8    1  0.1135368E+005  0.1043930E+01  0.7957747E-01            NaN
         13   -1    0    0    0    0  0.00000000000E+00  0.00000000000E+00  0.74505805969E-08  0.10566000000E+00  0.10566000000E+00 0. -1.
     999900   -1    0    0    0    0 -0.00000000000E+00 -0.00000000000E+00 -0.74505805969E-08  0.93827000000E+00  0.93827000000E+00 0.  1.
     999902    2    1    2    0    0 -0.18129764968E-01 -0.40291674737E-02 -0.15556108513E-01  0.10197036697E+01  0.10194158420E+01 0.  0.
     999903    2    3    3    0    0  0.54298977091E-02 -0.25024221737E-01 -0.12789793467E+00  0.13200071492E+00  0.20263553076E-01 0.  0.
         14    1    1    2    0    0  0.18129764968E-01  0.40291674737E-02  0.15556108513E-01  0.24226330312E-01  0.00000000000E+00 0.  1.
     999901    1    3    3    0    0 -0.23559662677E-01  0.20995054263E-01  0.11234182615E+00  0.88770295477E+00  0.88000000000E+00 0. -1.
        -11    1    4    4    0    0 -0.16125071949E-02 -0.25443989900E-01 -0.96114787877E-01  0.99439983765E-01  0.51100000000E-03 0.  1.
         11    1    4    4    0    0  0.70424049040E-02  0.41976816363E-03 -0.31783146790E-01  0.32560731150E-01  0.51100000000E-03 0. -1.
</event>
<event>
 8    1  0.1135368E+005  0.1043930E+01  0.7957747E-01            NaN
         13   -1    0    0    0    0  0.00000000000E+00  0.00000000000E+00  0.74505805969E-08  0.10566000000E+00  0.10566000000E+00 0.  1.
     999900   -1    0    0    0    0 -0.00000000000E+00 -0.00000000000E+00 -0.74505805969E-08  0.93827000000E+00  0.93827000000E+00 0. -1.
     999902    2    1    2    0    0  0.11312711624E-01  0.21600737794E-01 -0.13783061688E-01  0.10159203212E+01  0.10155341239E+01 0.  0.
     999903    2    3    3    0    0 -0.12094211329E+00 -0.22714019990E-01  0.16496186620E-02  0.12480119105E+00  0.20729075580E-01 0.  0.
         14    1    1    2    0    0 -0.11312711624E-01 -0.21600737794E-01  0.13783061688E-01  0.28009678810E-01  0.00000000000E+00 0. -1.
     999901    1    3    3    0    0  0.13225482492E+00  0.44314757785E-01 -0.15432680350E-01  0.89111913014E+00  0.88000000000E+00 0.  1.
        -11    1    4    4    0    0 -0.58228854231E-01 -0.18876918146E-02  0.60321686702E-02  0.58573125453E-01  0.51100000000E-03 0. -1.
         11    1    4    4    0    0 -0.62713259064E-01 -0.20826328176E-01 -0.43825500081E-02  0.66228065601E-01  0.51100000000E-03 0.  1.
</event>
<event>
 8    1  0.1135368E+005  0.1043930E+01  0.7957747E-01            NaN
         13   -1    0    0    0    0  0.00000000000E+00  0.00000000000E+00  0.74505805969E-08  0.10566000000E+00  0.10566000000E+00 0.  1.
     999900   -1    0    0    0    0 -0.00000000000E+00 -0.00000000000E+00 -0.74505805969E-08  0.93827000000E+00  0.93827000000E+00 0.  1.
     999902    2    1    2    0    0 -0.11890262420E-01 -0.18403044988E-01 -0.88503397814E-02  0.10202999573E+01  0.10200262859E+01 0.  0.
     999903    2    3    3    0    0  0.20742254530E-01 -0.12945833693E+00  0.10774508912E-02  0.13266449152E+00  0.20223854398E-01 0.  0.
         14    1    1    2    0    0  0.11890262420E-01  0.18403044988E-01  0.88503397814E-02  0.23630042732E-01  0.00000000000E+00 0.  1.
     999901    1    3    3    0    0 -0.32632516951E-01  0.11105529194E+00 -0.99277906726E-02  0.88763546575E+00  0.88000000000E+00 0.  1.
        -11    1    4    4    0    0  0.23258784745E-01 -0.86974822126E-01 -0.12304547621E-02  0.90040912321E-01  0.51100000000E-03 0.  1.
         11    1    4    4    0    0 -0.25165302148E-02 -0.42483514799E-01  0.23079056532E-02  0.42623579197E-01  0.51100000000E-03 0. -1.
</event>
<event>
 8    1  0.1135368E+005  0.1043930E+01  0.7957747E-01            NaN
         13   -1    0    0    0    0  0.00000000000E+00  0.00000000000E+00  0.74505805969E-08  0.10566000000E+00  0.10566000000E+00 0. -1.
     999900   -1    0    0    0    0 -0.00000000000E+00 -0.00000000000E+00 -0.74505805969E-08  0.93827000000E+00  0.93827000000E+00 0.  1.
     999902    2    1    2    0    0  0.10232469696E-01  0.17218016165E-01  0.66522179246E-02  0.10228251304E+01  0.10226073694E+01 0.  0.
     999903    2    3    3    0    0 -0.12157265927E+00  0.46385006148E-01  0.57867925339E-02  0.13253076658E+00  0.24483399357E-01 0.  0.
         14    1    1    2    0    0 -0.10232469696E-01 -0.17218016165E-01 -0.66522179246E-02  0.21104869581E-01  0.00000000000E+00 0.  1.
     999901    1    3    3    0    0  0.13180512897E+00 -0.29166989984E-01  0.86542539069E-03  0.89029436384E+00  0.88000000000E+00 0. -1.
        -11    1    4    4    0    0 -0.63869545897E-01  0.16520004010E-01  0.12712721610E-01  0.67187080881E-01  0.51100000000E-03 0. -1.
         11    1    4    4    0    0 -0.57703113374E-01  0.29865002138E-01 -0.69259290764E-02  0.65343685696E-01  0.51100000000E-03 0.  1.
</event>
<event>
 8    1  0.1135368E+005  0.1043930E+01  0.7957747E-01            NaN
         13   -1    0    0    0    0  0.00000000000E+00  0.00000000000E+00  0.74505805969E-08  0.10566000000E+00  0.10566000000E+00 0. -1.
     999900   -1    0    0    0    0 -0.00000000000E+00 -0.00000000000E+00 -0.74505805969E-08  0.93827000000E+00  0.93827000000E+00 0. -1.
     999902    2    1    2    0    0 -0.12875556883E-01  0.20880473861E-01 -0.46359652208E-02  0.10189646975E+01  0.10186588185E+01 0.  0.
     999903    2    3    3    0    0 -0.11783395070E+00  0.44565445784E-01 -0.32501828615E-01  0.13197329472E+00  0.22128324828E-01 0.  0.
         14    1    1    2    0    0  0.12875556883E-01 -0.20880473861E-01  0.46359652208E-02  0.24965302467E-01  0.00000000000E+00 0.  1.
     999901    1    3    3    0    0  0.10495839382E+00 -0.23684971923E-01  0.27865863394E-01  0.88699140282E+00  0.88000000000E+00 0.  1.
        -11    1    4    4    0    0 -0.86787086386E-01  0.29081847728E-01 -0.32925373537E-01  0.97273293221E-01  0.51100000000E-03 0.  1.
         11    1    4    4    0    0 -0.31046864314E-01  0.15483598056E-01  0.42354492185E-03  0.34700001495E-01  0.51100000000E-03 0. -1.
</event>
<event>
 8    1  0.1135368E+005  0.1043930E+01  0.7957747E-01            NaN
         13   -1    0    0    0    0  0.00000000000E+00  0.00000000000E+00  0.74505805969E-08  0.10566000000E+00  0.10566000000E+00 0. -1.
     999900   -1    0    0    0    0 -0.00000000000E+00 -0.00000000000E+00 -0.74505805969E-08  0.93827000000E+00  0.93827000000E+00 0. -1.
     999902    2    1    2    0    0  0.12109632892E-01 -0.23355793837E-01  0.48326652840E-02  0.10171813371E+01  0.10168295735E+01 0.  0.
     999903    2    3    3    0    0  0.42528253943E-02 -0.45915445136E-02  0.12684903007E+00  0.12852965067E+00  0.19749072515E-01 0.  0.
         14    1    1    2    0    0 -0.12109632892E-01  0.23355793837E-01 -0.48326652840E-02  0.26748662925E-01  0.00000000000E+00 0. -1.
     999901    1    3    3    0    0  0.78568074975E-02 -0.18764249324E-01 -0.12201636479E+00  0.88865168641E+00  0.88000000000E+00 0. -1.
        -11    1    4    4    0    0 -0.51783417963E-02  0.48353951446E-02  0.54412225237E-01  0.54873925012E-01  0.51100000000E-03 0.  1.
         11    1    4    4    0    0  0.94311671907E-02 -0.94269396582E-02  0.72436804837E-01  0.73655725656E-01  0.51100000000E-03 0. -1.
</event>
<event>
 8    1  0.1135368E+005  0.1043930E+01  0.7957747E-01            NaN
         13   -1    0    0    0    0  0.00000000000E+00  0.00000000000E+00  0.74505805969E-08  0.10566000000E+00  0.10566000000E+00 0. -1.
     999900   -1    0    0    0    0 -0.00000000000E+00 -0.00000000000E+00 -0.74505805969E-08  0.93827000000E+00  0.93827000000E+00 0.  1.
     999902    2    1    2    0    0  0.73483978227E-02  0.19012682794E-01  0.12338068937E-01  0.10201033552E+01  0.10198250567E+01 0.  0.
     999903    2    3    3    0    0 -0.16506123068E-01 -0.10542562054E+00  0.67972113961E-01  0.12928963928E+00  0.26619334751E-01 0.  0.
         14    1    1    2    0    0 -0.73483978227E-02 -0.19012682794E-01 -0.12338068937E-01  0.23826644806E-01  0.00000000000E+00 0.  1.
     999901    1    3    3    0    0  0.23854520891E-01  0.12443830333E+00 -0.55634045024E-01  0.89081371592E+00  0.88000000000E+00 0. -1.
        -11    1    4    4    0    0  0.42047832397E-02 -0.14283878581E-01  0.23405562928E-02  0.15081402924E-01  0.51100000000E-03 0. -1.
         11    1    4    4    0    0 -0.20710906308E-01 -0.91141741959E-01  0.65631557668E-01  0.11420823635E+00  0.51100000000E-03 0.  1.
</event>
<event>
 8    1  0.1135368E+005  0.1043930E+01  0.7957747E-01            NaN
         13   -1    0    0    0    0  0.00000000000E+00  0.00000000000E+00  0.74505805969E-08  0.10566000000E+00  0.10566000000E+00 0.  1.
     999900   -1    0    0    0    0 -0.00000000000E+00 -0.00000000000E+00 -0.74505805969E-08  0.93827000000E+00  0.93827000000E+00 0.  1.
     999902    2    1    2    0    0  0.51979490959E-02 -0.17412165294E-01  0.16830584210E-01  0.10191616585E+01  0.10188606457E+01 0.  0.
     999903    2    3    3    0    0 -0.12474416848E+00  0.21030744021E-01 -0.93413308354E-02  0.12840480037E+00  0.19928184365E-01 0.  0.
         14    1    1    2    0    0 -0.51979490959E-02  0.17412165294E-01 -0.16830584210E-01  0.24768341484E-01  0.00000000000E+00 0.  1.
     999901    1    3    3    0    0  0.12994211758E+00 -0.38442909315E-01  0.26171915045E-01  0.89075685815E+00  0.88000000000E+00 0. -1.
        -11    1    4    4    0    0 -0.71349342096E-01  0.11351987878E-01  0.45370735346E-02  0.72390900005E-01  0.51100000000E-03 0.  1.
         11    1    4    4    0    0 -0.53394826386E-01  0.96787561432E-02 -0.13878404370E-01  0.56013900365E-01  0.51100000000E-03 0. -1.
</event>
<event>
 8    1  0.1562697E+005  0.1043930E+01  0.7957747E-01            NaN
         13   -1    0    0    0    0  0.00000000000E+00  0.00000000000E+00  0.74505805969E-08  0.10566000000E+00  0.10566000000E+00 0. -1.
     999900   -1    0    0    0    0 -0.00000000000E+00 -0.00000000000E+00 -0.74505805969E-08  0.93827000000E+00  0.93827000000E+00 0. -1.
     999902    2    1    2    0    0 -0.10620841333E-02 -0.18139392160E-01 -0.15378485255E-01  0.10201253076E+01  0.10198475278E+01 0.  0.
     999903    2    3    3    0    0  0.52011904197E-01 -0.57414875627E-01  0.10174262626E+00  0.12991366615E+00  0.22897435085E-01 0.  0.
         14    1    1    2    0    0  0.10620841333E-02  0.18139392160E-01  0.15378485255E-01  0.23804692382E-01  0.00000000000E+00 0. -1.
     999901    1    3    3    0    0 -0.53073988330E-01  0.39275483467E-01 -0.11712111152E+00  0.89021164147E+00  0.88000000000E+00 0. -1.
        -11    1    4    4    0    0  0.13293466772E-01 -0.27056133142E-01  0.50908827309E-01  0.59166886164E-01  0.51100000000E-03 0. -1.
         11    1    4    4    0    0  0.38718437425E-01 -0.30358742485E-01  0.50833798951E-01  0.70746779988E-01  0.51100000000E-03 0.  1.
</event>
<event>
 8    1  0.1135368E+005  0.1043930E+01  0.7957747E-01            NaN
         13   -1    0    0    0    0  0.00000000000E+00  0.00000000000E+00  0.74505805969E-08  0.10566000000E+00  0.10566000000E+00 0.  1.
     999900   -1    0    0    0    0 -0.00000000000E+00 -0.00000000000E+00 -0.74505805969E-08  0.93827000000E+00  0.93827000000E+00 0.  1.
     999902    2    1    2    0    0  0.45919656990E-03 -0.23193919766E-01 -0.46812863145E-02  0.10202639226E+01  0.10199894061E+01 0.  0.
     999903    2    3    3    0    0 -0.28862894253E-01  0.41687460779E-01  0.11701392861E+00  0.12904054779E+00  0.19705137313E-01 0.  0.
         14    1    1    2    0    0 -0.45919656990E-03  0.23193919766E-01  0.46812863145E-02  0.23666077351E-01  0.00000000000E+00 0.  1.
     999901    1    3    3    0    0  0.29322090823E-01 -0.64881380545E-01 -0.12169521492E+00  0.89122337485E+00  0.88000000000E+00 0.  1.
        -11    1    4    4    0    0 -0.15124816115E-01  0.36354376495E-01  0.79096176620E-01  0.88356477011E-01  0.51100000000E-03 0. -1.
         11    1    4    4    0    0 -0.13738078138E-01  0.53330842841E-02  0.37917751986E-01  0.40684070784E-01  0.51100000000E-03 0.  1.
</event>
<event>
 8    1  0.1135368E+005  0.1043930E+01  0.7957747E-01            NaN
         13   -1    0    0    0    0  0.00000000000E+00  0.00000000000E+00  0.74505805969E-08  0.10566000000E+00  0.10566000000E+00 0.  1.
     999900   -1    0    0    0    0 -0.00000000000E+00 -0.00000000000E+00 -0.74505805969E-08  0.93827000000E+00  0.93827000000E+00 0.  1.
     999902    2    1    2    0    0 -0.17227011378E-02  0.17468190349E-01  0.14806127255E-01  0.10209664032E+01  0.10207081217E+01 0.  0.
     999903    2    3    3    0    0 -0.70864967324E-01  0.11079577802E+00  0.10888357316E-01  0.13332568731E+00  0.18964033106E-01 0.  0.
         14    1    1    2    0    0  0.17227011378E-02 -0.17468190349E-01 -0.14806127255E-01  0.22963596791E-01  0.00000000000E+00 0. -1.
     999901    1    3    3    0    0  0.69142266186E-01 -0.93327587671E-01  0.39177699388E-02  0.88764071590E+00  0.88000000000E+00 0.  1.
        -11    1    4    4    0    0 -0.63722372995E-01  0.86528498781E-01  0.66088372043E-02  0.10766457064E+00  0.51100000000E-03 0.  1.
         11    1    4    4    0    0 -0.71425943291E-02  0.24267279240E-01  0.42795201114E-02  0.25661116671E-01  0.51100000000E-03 0. -1.
</event>
<event>
 8    1  0.1135368E+005  0.1043930E+01  0.7957747E-01            NaN
         13   -1    0    0    0    0  0.00000000000E+00  0.00000000000E+00  0.74505805969E-08  0.10566000000E+00  0.10566000000E+00 0. -1.
     999900   -1    0    0    0    0 -0.00000000000E+00 -0.00000000000E+00 -0.74505805969E-08  0.93827000000E+00  0.93827000000E+00 0.  1.
     999902    2    1    2    0    0  0.19891416451E-01  0.12037720254E-01 -0.68929059455E-02  0.10196794885E+01  0.10193910790E+01 0.  0.
     999903    2    3    3    0    0 -0.11192294090E+00 -0.33021114131E-02 -0.59257264764E-01  0.12819064315E+00  0.19590021094E-01 0.  0.
         14    1    1    2    0    0 -0.19891416451E-01 -0.12037720254E-01  0.68929059455E-02  0.24250511535E-01  0.00000000000E+00 0. -1.
     999901    1    3    3    0    0  0.13181435735E+00  0.15339831667E-01  0.52364358818E-01  0.89148884531E+00  0.88000000000E+00 0. -1.
        -11    1    4    4    0    0 -0.60466453573E-01  0.76238179590E-02 -0.34723936290E-01  0.70145046015E-01  0.51100000000E-03 0. -1.
         11    1    4    4    0    0 -0.51456487322E-01 -0.10925929372E-01 -0.24533328474E-01  0.58045597139E-01  0.51100000000E-03 0.  1.
</event>
<event>
 8    1  0.1135368E+005  0.1043930E+01  0.7957747E-01            NaN
         13   -1    0    0    0    0  0.00000000000E+00  0.00000000000E+00  0.74505805969E-08  0.10566000000E+00  0.10566000000E+00 0. -1.
     999900   -1    0    0    0    0 -0.00000000000E+00 -0.00000000000E+00 -0.74505805969E-08  0.93827000000E+00  0.93827000000E+00 0. -1.
     999902    2    1    2    0    0 -0.91346368063E-02  0.92951608544E-02 -0.19807207036E-01  0.10202199377E+01  0.10199443878E+01 0.  0.
     999903    2    3    3    0    0  0.23007692243E-01  0.10848672264E+00 -0.69332120910E-01  0.13268131184E+00  0.22330800047E-01 0.  0.
         14    1    1    2    0    0  0.91346368063E-02 -0.92951608544E-02  0.19807207036E-01  0.23710062325E-01  0.00000000000E+00 0. -1.
     999901    1    3    3    0    0 -0.32142329049E-01 -0.99191561789E-01  0.49524913874E-01  0.88753862583E+00  0.88000000000E+00 0.  1.
        -11    1    4    4    0    0  0.18287373210E-01  0.35680310835E-01 -0.22409876861E-01  0.45934478359E-01  0.51100000000E-03 0.  1.
         11    1    4    4    0    0  0.47203190329E-02  0.72806411809E-01 -0.46922244049E-01  0.86746833486E-01  0.51100000000E-03 0. -1.
</event>
<event>
 8    1  0.1135368E+005  0.1043930E+01  0.7957747E-01            NaN
         13   -1    0    0    0    0  0.00000000000E+00  0.00000000000E+00  0.74505805969E-08  0.10566000000E+00  0.10566000000E+00 0. -1.
     999900   -1    0    0    0    0 -0.00000000000E+00 -0.00000000000E+00 -0.74505805969E-08  0.93827000000E+00  0.93827000000E+00 0. -1.
     999902    2    1    2    0    0 -0.12883782009E-01  0.14727134237E-01  0.25858525997E-01  0.10115024856E+01  0.10109825591E+01 0.  0.
     999903    2    3    3    0    0  0.93684166152E-01  0.54697743425E-01 -0.49570368332E-01  0.12097236526E+00  0.20212016659E-01 0.  0.
         14    1    1    2    0    0  0.12883782009E-01 -0.14727134237E-01 -0.25858525997E-01  0.32427514373E-01  0.00000000000E+00 0.  1.
     999901    1    3    3    0    0 -0.10656794816E+00 -0.39970609188E-01  0.75428894329E-01  0.89053012036E+00  0.88000000000E+00 0. -1.
        -11    1    4    4    0    0  0.35051170730E-01  0.25969080565E-01 -0.10468095257E-01  0.44864460927E-01  0.51100000000E-03 0.  1.
         11    1    4    4    0    0  0.58632995422E-01  0.28728662860E-01 -0.39102273075E-01  0.76107904337E-01  0.51100000000E-03 0. -1.
</event>
<event>
 8    1  0.1135368E+005  0.1043930E+01  0.7957747E-01            NaN
         13   -1    0    0    0    0  0.00000000000E+00  0.00000000000E+00  0.74505805969E-08  0.10566000000E+00  0.10566000000E+00 0.  1.
     999900   -1    0    0    0    0 -0.00000000000E+00 -0.00000000000E+00 -0.74505805969E-08  0.93827000000E+00  0.93827000000E+00 0.  1.
     999902    2    1    2    0    0  0.35946131253E-02  0.23292537731E-01  0.54979841460E-03  0.10203553137E+01  0.10200829379E+01 0.  0.
     999903    2    3    3    0    0 -0.96755010570E-01 -0.51856020283E-01 -0.64588018432E-01  0.12908639357E+00  0.21002522932E-01 0.  0.
         14    1    1    2    0    0 -0.35946131253E-02 -0.23292537731E-01 -0.54979841460E-03  0.23574686335E-01  0.00000000000E+00 0.  1.
     999901    1    3    3    0    0  0.10034962370E+00  0.75148558014E-01  0.65137816847E-01  0.89126892010E+00  0.88000000000E+00 0. -1.
        -11    1    4    4    0    0 -0.87661377194E-01 -0.50543539937E-01 -0.64277277707E-01  0.11987908922E+00  0.51100000000E-03 0. -1.
         11    1    4    4    0    0 -0.90936333754E-02 -0.13124803459E-02 -0.31074072536E-03  0.92073043516E-02  0.51100000000E-03 0.  1.
</event>
<event>
 8    1  0.1135368E+005  0.1043930E+01  0.7957747E-01            NaN
         13   -1    0    0    0    0  0.00000000000E+00  0.00000000000E+00  0.74505805969E-08  0.10566000000E+00  0.10566000000E+00 0. -1.
     999900   -1    0    0    0    0 -0.00000000000E+00 -0.00000000000E+00 -0.74505805969E-08  0.93827000000E+00  0.93827000000E+00 0.  1.
     999902    2    1    2    0    0 -0.20347731307E-01  0.12198622203E-01 -0.23386513984E-02  0.10200908338E+01  0.10198122393E+01 0.  0.
     999903    2    3    3    0    0 -0.55744910988E-01  0.39199547737E-01 -0.11159332748E+00  0.13221776039E+00  0.19605248779E-01 0.  0.
         14    1    1    2    0    0  0.20347731307E-01 -0.12198622203E-01  0.23386513984E-02  0.23839166163E-01  0.00000000000E+00 0.  1.
     999901    1    3    3    0    0  0.35397179682E-01 -0.27000925535E-01  0.10925467608E+00  0.88787307345E+00  0.88000000000E+00 0. -1.
        -11    1    4    4    0    0 -0.49100017664E-01  0.37885400177E-01 -0.10798091392E+00  0.12452411081E+00  0.51100000000E-03 0.  1.
         11    1    4    4    0    0 -0.66448933243E-02  0.13141475605E-02 -0.36124135653E-02  0.76936495806E-02  0.51100000000E-03 0. -1.
</event>
<event>
 8    1  0.1135368E+005  0.1043930E+01  0.7957747E-01            NaN
         13   -1    0    0    0    0  0.00000000000E+00  0.00000000000E+00  0.74505805969E-08  0.10566000000E+00  0.10566000000E+00 0. -1.
     999900   -1    0    0    0    0 -0.00000000000E+00 -0.00000000000E+00 -0.74505805969E-08  0.93827000000E+00  0.93827000000E+00 0. -1.
     999902    2    1    2    0    0 -0.10422634180E-01  0.21314306720E-01  0.84890719618E-02  0.10187308866E+01  0.10184191789E+01 0.  0.
     999903    2    3    3    0    0 -0.95199363985E-01 -0.82839592250E-01  0.15075621427E-01  0.12851826523E+00  0.19088037837E-01 0.  0.
         14    1    1    2    0    0  0.10422634180E-01 -0.21314306720E-01 -0.84890719618E-02  0.25199113417E-01  0.00000000000E+00 0. -1.
     999901    1    3    3    0    0  0.84776729805E-01  0.10415389897E+00 -0.65865494653E-02  0.89021262136E+00  0.88000000000E+00 0.  1.
        -11    1    4    4    0    0 -0.37947931740E-01 -0.21073922297E-01  0.48573933849E-02  0.43680786575E-01  0.51100000000E-03 0.  1.
         11    1    4    4    0    0 -0.57251432245E-01 -0.61765669953E-01  0.10218228042E-01  0.84837478653E-01  0.51100000000E-03 0. -1.
</event>
<event>
 8    1  0.1135368E+005  0.1043930E+01  0.7957747E-01            NaN
         13   -1    0    0    0    0  0.00000000000E+00  0.00000000000E+00  0.74505805969E-08  0.10566000000E+00  0.10566000000E+00 0.  1.
     999900   -1    0    0    0    0 -0.00000000000E+00 -0.00000000000E+00 -0.74505805969E-08  0.93827000000E+00  0.93827000000E+00 0.  1.
     999902    2    1    2    0    0  0.74145845971E-02 -0.10967775378E-01  0.21114520377E-01  0.10190083000E+01  0.10187035017E+01 0.  0.
     999903    2    3    3    0    0  0.87693629661E-01  0.93109868239E-01 -0.20954418670E-02  0.12894336789E+00  0.16198178892E-01 0.  0.
         14    1    1    2    0    0 -0.74145845971E-02  0.10967775378E-01 -0.21114520377E-01  0.24921700027E-01  0.00000000000E+00 0. -1.
     999901    1    3    3    0    0 -0.80279045064E-01 -0.10407764362E+00  0.23209962244E-01  0.89006493208E+00  0.88000000000E+00 0. -1.
        -11    1    4    4    0    0  0.33142347301E-01  0.46731353528E-01  0.44399029013E-03  0.57294788904E-01  0.51100000000E-03 0. -1.
         11    1    4    4    0    0  0.54551282360E-01  0.46378514711E-01 -0.25394321571E-02  0.71648578986E-01  0.51100000000E-03 0.  1.
</event>
<event>
 8    1  0.1135368E+005  0.1043930E+01  0.7957747E-01            NaN
         13   -1    0    0    0    0  0.00000000000E+00  0.00000000000E+00  0.74505805969E-08  0.10566000000E+00  0.10566000000E+00 0.  1.
     999900   -1    0    0    0    0 -0.00000000000E+00 -0.00000000000E+00 -0.74505805969E-08  0.93827000000E+00  0.93827000000E+00 0. -1.
     999902    2    1    2    0    0  0.19513245391E-01 -0.69873438511E-02  0.10132232100E-01  0.10208594160E+01  0.10205986946E+01 0.  0.
     999903    2    3    3    0    0  0.11738790821E+00 -0.45712962735E-01  0.41175397827E-01  0.13404331254E+00  0.20064902050E-01 0.  0.
         14    1    1    2    0    0 -0.19513245391E-01  0.69873438511E-02 -0.10132232100E-01  0.23070584022E-01  0.00000000000E+00 0.  1.
     999901    1    3    3    0    0 -0.97874662819E-01  0.38725618884E-01 -0.31043165728E-01  0.88681610344E+00  0.88000000000E+00 0. -1.
        -11    1    4    4    0    0  0.72874848148E-01 -0.22571804080E-01  0.33358977296E-01  0.83266513793E-01  0.51100000000E-03 0. -1.
         11    1    4    4    0    0  0.44513060062E-01 -0.23141158654E-01  0.78164205315E-02  0.50776798746E-01  0.51100000000E-03 0.  1.
</event>
<event>
 8    1  0.1135368E+005  0.1043930E+01  0.7957747E-01            NaN
         13   -1    0    0    0    0  0.00000000000E+00  0.00000000000E+00  0.74505805969E-08  0.10566000000E+00  0.10566000000E+00 0. -1.
     999900   -1    0    0    0    0 -0.00000000000E+00 -0.00000000000E+00 -0.74505805969E-08  0.93827000000E+00  0.93827000000E+00 0.  1.
     999902    2    1    2    0    0  0.13785637086E-01  0.19431689151E-01 -0.59501552955E-02  0.10193731541E+01  0.10190773222E+01 0.  0.
     999903    2    3    3    0    0  0.12909118070E+00  0.47677663074E-02 -0.56929122288E-02  0.13172994581E+00  0.25161574745E-01 0.  0.
         14    1    1    2    0    0 -0.13785637086E-01 -0.19431689151E-01  0.59501552955E-02  0.24556845912E-01  0.00000000000E+00 0.  1.
     999901    1    3    3    0    0 -0.11530554362E+00  0.14663922843E-01 -0.25724306667E-03  0.88764320827E+00  0.88000000000E+00 0.  1.
        -11    1    4    4    0    0  0.66428780586E-01  0.10070107313E-01  0.70663914247E-02  0.67560232091E-01  0.51100000000E-03 0.  1.
         11    1    4    4    0    0  0.62662400117E-01 -0.53023410053E-02 -0.12759303654E-01  0.64169713723E-01  0.51100000000E-03 0. -1.
</event>
<event>
 8    1  0.1135368E+005  0.1043930E+01  0.7957747E-01            NaN
         13   -1    0    0    0    0  0.00000000000E+00  0.00000000000E+00  0.74505805969E-08  0.10566000000E+00  0.10566000000E+00 0. -1.
     999900   -1    0    0    0    0 -0.00000000000E+00 -0.00000000000E+00 -0.74505805969E-08  0.93827000000E+00  0.93827000000E+00 0.  1.
     999902    2    1    2    0    0  0.12036517445E-01 -0.78482606524E-02  0.20059916774E-01  0.10192546437E+01  0.10189559144E+01 0.  0.
     999903    2    3    3    0    0  0.11818225451E+00  0.48172616409E-01  0.22450795283E-01  0.13110433409E+00  0.19916374080E-01 0.  0.
         14    1    1    2    0    0 -0.12036517445E-01  0.78482606524E-02 -0.20059916774E-01  0.24675356298E-01  0.00000000000E+00 0.  1.
     999901    1    3    3    0    0 -0.10614573706E+00 -0.56020877061E-01 -0.23908785090E-02  0.88815030961E+00  0.88000000000E+00 0. -1.
        -11    1    4    4    0    0  0.31591498989E-01  0.15792664494E-01 -0.23083445109E-02  0.35398031522E-01  0.51100000000E-03 0.  1.
         11    1    4    4    0    0  0.86590755517E-01  0.32379951915E-01  0.24759139794E-01  0.95706302568E-01  0.51100000000E-03 0. -1.
</event>
<event>
 8    1  0.1135368E+005  0.1043930E+01  0.7957747E-01            NaN
         13   -1    0    0    0    0  0.00000000000E+00  0.00000000000E+00  0.74505805969E-08  0.10566000000E+00  0.10566000000E+00 0.  1.
     999900   -1    0    0    0    0 -0.00000000000E+00 -0.00000000000E+00 -0.74505805969E-08  0.93827000000E+00  0.93827000000E+00 0. -1.
     999902    2    1    2    0    0 -0.21935427348E-01  0.66917832598E-02  0.65411984027E-02  0.10200819348E+01  0.10198031298E+01 0.  0.
     999903    2    3    3    0    0 -0.89052491383E-02 -0.83075691164E-02  0.12902036432E+00  0.13137730886E+00  0.21573680931E-01 0.  0.
         14    1    1    2    0    0  0.21935427348E-01 -0.66917832598E-02 -0.65411984027E-02  0.23848065177E-01  0.00000000000E+00 0. -1.
     999901    1    3    3    0    0 -0.13030178210E-01  0.14999352376E-01 -0.12247916592E+00  0.88870462596E+00  0.88000000000E+00 0. -1.
        -11    1    4    4    0    0 -0.39849070185E-02  0.71818392510E-02  0.53228453381E-01  0.53860817570E-01  0.51100000000E-03 0.  1.
         11    1    4    4    0    0 -0.49203421198E-02 -0.15489408367E-01  0.75791910937E-01  0.77516491295E-01  0.51100000000E-03 0. -1.
</event>
<event>
 8    1  0.1135368E+005  0.1043930E+01  0.7957747E-01            NaN
         13   -1    0    0    0    0  0.00000000000E+00  0.00000000000E+00  0.74505805969E-08  0.10566000000E+00  0.10566000000E+00 0.  1.
     999900   -1    0    0    0    0 -0.00000000000E+00 -0.00000000000E+00 -0.74505805969E-08  0.93827000000E+00  0.93827000000E+00 0.  1.
     999902    2    1    2    0    0  0.56130915153E-02  0.17131662434E-01 -0.15351708681E-01  0.10202514102E+01  0.10199766000E+01 0.  0.
     999903    2    3    3    0    0 -0.72543392222E-02  0.10392379055E+00  0.76672064387E-01  0.13111316502E+00  0.21430746733E-01 0.  0.
         14    1    1    2    0    0 -0.56130915153E-02 -0.17131662434E-01  0.15351708681E-01  0.23678589771E-01  0.00000000000E+00 0.  1.
     999901    1    3    3    0    0  0.12867430738E-01 -0.86792128115E-01 -0.92023773067E-01  0.88913824520E+00  0.88000000000E+00 0.  1.
        -11    1    4    4    0    0  0.75546773310E-02  0.35680326785E-01  0.24417224865E-01  0.43893289466E-01  0.51100000000E-03 0. -1.
         11    1    4    4    0    0 -0.14809016553E-01  0.68243463765E-01  0.52254839521E-01  0.87219875558E-01  0.51100000000E-03 0.  1.
</event>
<event>
 8    1  0.1135368E+005  0.1043930E+01  0.7957747E-01            NaN
         13   -1    0    0    0    0  0.00000000000E+00  0.00000000000E+00  0.74505805969E-08  0.10566000000E+00  0.10566000000E+00 0.  1.
     999900   -1    0    0    0    0 -0.00000000000E+00 -0.00000000000E+00 -0.74505805969E-08  0.93827000000E+00  0.93827000000E+00 0. -1.
     999902    2    1    2    0    0 -0.77354547655E-02 -0.20294634511E-01 -0.91942894811E-02  0.10203451657E+01  0.10200725527E+01 0.  0.
     999903    2    3    3    0    0  0.12573427864E+00 -0.20909273182E-01 -0.17947116740E-01  0.13023777919E+00  0.19836168980E-01 0.  0.
         14    1    1    2    0    0  0.77354547655E-02  0.20294634511E-01  0.91942894811E-02  0.23584834310E-01  0.00000000000E+00 0.  1.
     999901    1    3    3    0    0 -0.13346973340E+00  0.61463867139E-03  0.87528272590E-02  0.89010738650E+00  0.88000000000E+00 0.  1.
        -11    1    4    4    0    0  0.58106572503E-01 -0.13048437038E-01  0.10049129623E-02  0.59564305152E-01  0.51100000000E-03 0.  1.
         11    1    4    4    0    0  0.67627706134E-01 -0.78608361443E-02 -0.18952029702E-01  0.70673474039E-01  0.51100000000E-03 0. -1.
</event>
<event>
 8    1  0.1135368E+005  0.1043930E+01  0.7957747E-01            NaN
         13   -1    0    0    0    0  0.00000000000E+00  0.00000000000E+00  0.74505805969E-08  0.10566000000E+00  0.10566000000E+00 0. -1.
     999900   -1    0    0    0    0 -0.00000000000E+00 -0.00000000000E+00 -0.74505805969E-08  0.93827000000E+00  0.93827000000E+00 0.  1.
     999902    2    1    2    0    0  0.61842298011E-02  0.26094638315E-02  0.22745625578E-01  0.10202146572E+01  0.10199389831E+01 0.  0.
     999903    2    3    3    0    0  0.12411100785E+00 -0.18984318669E-01  0.35509993013E-01  0.13199399461E+00  0.19937612367E-01 0.  0.
         14    1    1    2    0    0 -0.61842298011E-02 -0.26094638315E-02 -0.22745625578E-01  0.23715342769E-01  0.00000000000E+00 0.  1.
     999901    1    3    3    0    0 -0.11792677804E+00  0.21593782500E-01 -0.12764367435E-01  0.88822066262E+00  0.88000000000E+00 0. -1.
        -11    1    4    4    0    0  0.74794117753E-01 -0.66121737433E-02  0.12255866884E-01  0.76081195352E-01  0.51100000000E-03 0.  1.
         11    1    4    4    0    0  0.49316890092E-01 -0.12372144926E-01  0.23254126128E-01  0.55912799263E-01  0.51100000000E-03 0. -1.
</event>
<event>
 8    1  0.1135368E+005  0.1043930E+01  0.7957747E-01            NaN
         13   -1    0    0    0    0  0.00000000000E+00  0.00000000000E+00  0.74505805969E-08  0.10566000000E+00  0.10566000000E+00 0.  1.
     999900   -1    0    0    0    0 -0.00000000000E+00 -0.00000000000E+00 -0.74505805969E-08  0.93827000000E+00  0.93827000000E+00 0. -1.
     999902    2    1    2    0    0 -0.22166350608E-01  0.49102091262E-02 -0.87174776121E-02  0.10196102206E+01  0.10193201412E+01 0.  0.
     999903    2    3    3    0    0  0.84061115919E-02  0.54797071705E-01 -0.11696550168E+00  0.13104901890E+00  0.20482553351E-01 0.  0.
         14    1    1    2    0    0  0.22166350608E-01 -0.49102091262E-02  0.87174776121E-02  0.24319779375E-01  0.00000000000E+00 0. -1.
     999901    1    3    3    0    0 -0.30572462200E-01 -0.49886862579E-01  0.10824802406E+00  0.88856120173E+00  0.88000000000E+00 0.  1.
        -11    1    4    4    0    0  0.60860594092E-02  0.47342689444E-02 -0.26780927998E-01  0.27873511566E-01  0.51100000000E-03 0.  1.
         11    1    4    4    0    0  0.23200521827E-02  0.50062802761E-01 -0.90184573678E-01  0.10317550733E+00  0.51100000000E-03 0. -1.
</event>
<event>
 8    1  0.1135368E+005  0.1043930E+01  0.7957747E-01            NaN
         13   -1    0    0    0    0  0.00000000000E+00  0.00000000000E+00  0.74505805969E-08  0.10566000000E+00  0.10566000000E+00 0. -1.
     999900   -1    0    0    0    0 -0.00000000000E+00 -0.00000000000E+00 -0.74505805969E-08  0.93827000000E+00  0.93827000000E+00 0.  1.
     999902    2    1    2    0    0  0.13032023694E-02 -0.19338967135E-01 -0.18093094242E-03  0.10245463285E+01  0.10243629496E+01 0.  0.
     999903    2    3    3    0    0  0.78932600440E-01 -0.87894742410E-01 -0.64735484242E-01  0.13612440836E+00  0.19578827226E-01 0.  0.
         14    1    1    2    0    0 -0.13032023694E-02  0.19338967135E-01  0.18093094242E-03  0.19383671538E-01  0.00000000000E+00 0.  1.
     999901    1    3    3    0    0 -0.77629398071E-01  0.68555775274E-01  0.64554553300E-01  0.88842192010E+00  0.88000000000E+00 0. -1.
        -11    1    4    4    0    0  0.41590117450E-01 -0.32034975291E-01 -0.30395183195E-01  0.60663875527E-01  0.51100000000E-03 0.  1.
         11    1    4    4    0    0  0.37342482990E-01 -0.55859767118E-01 -0.34340301047E-01  0.75460532832E-01  0.51100000000E-03 0. -1.
</event>
<event>
 8    1  0.1135368E+005  0.1043930E+01  0.7957747E-01            NaN
         13   -1    0    0    0    0  0.00000000000E+00  0.00000000000E+00  0.74505805969E-08  0.10566000000E+00  0.10566000000E+00 0.  1.
     999900   -1    0    0    0    0 -0.00000000000E+00 -0.00000000000E+00 -0.74505805969E-08  0.93827000000E+00  0.93827000000E+00 0.  1.
     999902    2    1    2    0    0 -0.15363228679E-01 -0.57888379027E-02  0.17235656336E-01  0.10201264858E+01  0.10198487337E+01 0.  0.
     999903    2    3    3    0    0 -0.12302289520E+00  0.25522950242E-01  0.37464558659E-01  0.13278199780E+00  0.21009808470E-01 0.  0.
         14    1    1    2    0    0  0.15363228679E-01  0.57888379027E-02 -0.17235656336E-01  0.23803514216E-01  0.00000000000E+00 0. -1.
     999901    1    3    3    0    0  0.10765966652E+00 -0.31311788145E-01 -0.20228902323E-01  0.88734448799E+00  0.88000000000E+00 0. -1.
        -11    1    4    4    0    0 -0.54512555953E-01  0.14440084987E-02  0.12107996349E-01  0.55862049852E-01  0.51100000000E-03 0. -1.
         11    1    4    4    0    0 -0.68510339243E-01  0.24078941743E-01  0.25356562309E-01  0.76919947945E-01  0.51100000000E-03 0.  1.
</event>
<event>
 8    1  0.1135368E+005  0.1043930E+01  0.7957747E-01            NaN
         13   -1    0    0    0    0  0.00000000000E+00  0.00000000000E+00  0.74505805969E-08  0.10566000000E+00  0.10566000000E+00 0. -1.
     999900   -1    0    0    0    0 -0.00000000000E+00 -0.00000000000E+00 -0.74505805969E-08  0.93827000000E+00  0.93827000000E+00 0.  1.
     999902    2    1    2    0    0  0.13271738653E-01 -0.19133118419E-01 -0.37415354405E-02  0.10203458029E+01  0.10200732048E+01 0.  0.
     999903    2    3    3    0    0 -0.52815315369E-01 -0.52594922808E-02  0.11672384715E+00  0.12957541459E+00  0.18660433444E-01 0.  0.
         14    1    1    2    0    0 -0.13271738653E-01  0.19133118419E-01  0.37415354405E-02  0.23584197140E-01  0.00000000000E+00 0. -1.
     999901    1    3    3    0    0  0.66087054022E-01 -0.13873626138E-01 -0.12046538259E+00  0.89077038827E+00  0.88000000000E+00 0.  1.
        -11    1    4    4    0    0 -0.34618802826E-01 -0.14982872402E-02  0.94197416908E-01  0.10036992003E+00  0.51100000000E-03 0.  1.
         11    1    4    4    0    0 -0.18196512543E-01 -0.37612050406E-02  0.22526430244E-01  0.29205494562E-01  0.51100000000E-03 0. -1.
</event>
<event>
 8    1  0.1135368E+005  0.1043930E+01  0.7957747E-01            NaN
         13   -1    0    0    0    0  0.00000000000E+00  0.00000000000E+00  0.74505805969E-08  0.10566000000E+00  0.10566000000E+00 0. -1.
     999900   -1    0    0    0    0 -0.00000000000E+00 -0.00000000000E+00 -0.74505805969E-08  0.93827000000E+00  0.93827000000E+00 0.  1.
     999902    2    1    2    0    0 -0.15077546457E-01 -0.10028263786E-01  0.14967547992E-01  0.10204368952E+01  0.10201664232E+01 0.  0.
     999903    2    3    3    0    0 -0.12538405244E+00 -0.31428659392E-01  0.25651211671E-01  0.13322798918E+00  0.19565050591E-01 0.  0.
         14    1    1    2    0    0  0.15077546457E-01  0.10028263786E-01 -0.14967547992E-01  0.23493104831E-01  0.00000000000E+00 0.  1.
     999901    1    3    3    0    0  0.11030650598E+00  0.21400395606E-01 -0.10683663679E-01  0.88720890599E+00  0.88000000000E+00 0.  1.
        -11    1    4    4    0    0 -0.76679207205E-01 -0.22670691499E-01  0.24844646207E-01  0.83732781136E-01  0.51100000000E-03 0.  1.
         11    1    4    4    0    0 -0.48704845231E-01 -0.87579678932E-02  0.80656546400E-03  0.49495208046E-01  0.51100000000E-03 0. -1.
</event>
<event>
 8    1  0.1135368E+005  0.1043930E+01  0.7957747E-01            NaN
         13   -1    0    0    0    0  0.00000000000E+00  0.00000000000E+00  0.74505805969E-08  0.10566000000E+00  0.10566000000E+00 0.  1.
     999900   -1    0    0    0    0 -0.00000000000E+00 -0.00000000000E+00 -0.74505805969E-08  0.93827000000E+00  0.93827000000E+00 0.  1.
     999902    2    1    2    0    0  0.13870467524E-01 -0.18414345724E-01 -0.31631943478E-03  0.10208740234E+01  0.10206136358E+01 0.  0.
     999903    2    3    3    0    0  0.13431590205E-01  0.11712245226E+00  0.49970797540E-01  0.12907852537E+00  0.16312837502E-01 0.  0.
         14    1    1    2    0    0 -0.13870467524E-01  0.18414345724E-01  0.31631943478E-03  0.23055976573E-01  0.00000000000E+00 0.  1.
     999901    1    3    3    0    0  0.43887731877E-03 -0.13553679798E+00 -0.50287116975E-01  0.89179549806E+00  0.88000000000E+00 0.  1.
        -11    1    4    4    0    0 -0.17890776535E-02  0.70683156455E-02  0.64759918167E-02  0.97653200626E-02  0.51100000000E-03 0. -1.
         11    1    4    4    0    0  0.15220667858E-01  0.11005413661E+00  0.43494805723E-01  0.11931320531E+00  0.51100000000E-03 0.  1.
</event>
<event>
 8    1  0.1135368E+005  0.1043930E+01  0.7957747E-01            NaN
         13   -1    0    0    0    0  0.00000000000E+00  0.00000000000E+00  0.74505805969E-08  0.10566000000E+00  0.10566000000E+00 0. -1.
     999900   -1    0    0    0    0 -0.00000000000E+00 -0.00000000000E+00 -0.74505805969E-08  0.93827000000E+00  0.93827000000E+00 0.  1.
     999902    2    1    2    0    0  0.93370461628E-02 -0.11316628273E-01 -0.18984856216E-01  0.10199368495E+01  0.10196546012E+01 0.  0.
     999903    2    3    3    0    0  0.33317133895E-01 -0.11664766655E+00 -0.50554911263E-01  0.13276925505E+00  0.18845861893E-01 0.  0.
         14    1    1    2    0    0 -0.93370461628E-02  0.11316628273E-01  0.18984856216E-01  0.23993150524E-01  0.00000000000E+00 0. -1.
     999901    1    3    3    0    0 -0.23980087733E-01  0.10533103827E+00  0.31570055048E-01  0.88716759443E+00  0.88000000000E+00 0. -1.
        -11    1    4    4    0    0  0.10369888872E-01 -0.68137476095E-01 -0.31953015589E-01  0.75970432209E-01  0.51100000000E-03 0. -1.
         11    1    4    4    0    0  0.22947245024E-01 -0.48510190453E-01 -0.18601895674E-01  0.56798822837E-01  0.51100000000E-03 0.  1.
</event>
<event>
 8    1  0.1135368E+005  0.1043930E+01  0.7957747E-01            NaN
         13   -1    0    0    0    0  0.00000000000E+00  0.00000000000E+00  0.74505805969E-08  0.10566000000E+00  0.10566000000E+00 0.  1.
     999900   -1    0    0    0    0 -0.00000000000E+00 -0.00000000000E+00 -0.74505805969E-08  0.93827000000E+00  0.93827000000E+00 0.  1.
     999902    2    1    2    0    0 -0.14998304790E-01  0.84473877900E-02 -0.15355843350E-01  0.10208625027E+01  0.10206018518E+01 0.  0.
     999903    2    3    3    0    0  0.26818910055E-02 -0.12352202268E+00  0.32838044592E-01  0.12954260195E+00  0.20930024415E-01 0.  0.
         14    1    1    2    0    0  0.14998304790E-01 -0.84473877900E-02  0.15355843350E-01  0.23067497308E-01  0.00000000000E+00 0.  1.
     999901    1    3    3    0    0 -0.17680195796E-01  0.13196941047E+00 -0.48193887943E-01  0.89131990074E+00  0.88000000000E+00 0.  1.
        -11    1    4    4    0    0 -0.80637131994E-02 -0.36530507354E-01  0.61490946866E-02  0.37915352096E-01  0.51100000000E-03 0.  1.
         11    1    4    4    0    0  0.10745604205E-01 -0.86991515323E-01  0.26688949906E-01  0.91627249855E-01  0.51100000000E-03 0. -1.
</event>
<event>
 8    1  0.1135368E+005  0.1043930E+01  0.7957747E-01            NaN
         13   -1    0    0    0    0  0.00000000000E+00  0.00000000000E+00  0.74505805969E-08  0.10566000000E+00  0.10566000000E+00 0. -1.
     999900   -1    0    0    0    0 -0.00000000000E+00 -0.00000000000E+00 -0.74505805969E-08  0.93827000000E+00  0.93827000000E+00 0. -1.
     999902    2    1    2    0    0 -0.71260162318E-02  0.17483077793E-01  0.12673548893E-01  0.10211911135E+01  0.10209379185E+01 0.  0.
     999903    2    3    3    0    0  0.11626266186E+00  0.58203302115E-01 -0.31819172029E-02  0.13150898020E+00  0.19489903997E-01 0.  0.
         14    1    1    2    0    0  0.71260162318E-02 -0.17483077793E-01 -0.12673548893E-01  0.22738886472E-01  0.00000000000E+00 0. -1.
     999901    1    3    3    0    0 -0.12338867809E+00 -0.40720224323E-01  0.15855466096E-01  0.88968213332E+00  0.88000000000E+00 0.  1.
        -11    1    4    4    0    0  0.56892389745E-01  0.28931151076E-01  0.81618789984E-02  0.64347749792E-01  0.51100000000E-03 0.  1.
         11    1    4    4    0    0  0.59370272113E-01  0.29272151040E-01 -0.11343796201E-01  0.67161230412E-01  0.51100000000E-03 0. -1.
</event>
<event>
 7    1  0.1135368E+005  0.1043930E+01  0.7957747E-01            NaN
         13   -1    0    0    0    0  0.00000000000E+00  0.00000000000E+00  0.74505805969E-08  0.10566000000E+00  0.10566000000E+00 0. -1.
     999900   -1    0    0    0    0 -0.00000000000E+00 -0.00000000000E+00 -0.74505805969E-08  0.93827000000E+00  0.93827000000E+00 0. -1.
     999902    2    1    2    0    0  0.11153292654E-01 -0.17253912197E-01  0.13115840534E-01  0.10195554498E+01  0.10192640465E+01 0.  0.
         14    1    1    2    0    0 -0.11153292654E-01  0.17253912197E-01 -0.13115840534E-01  0.24374550171E-01  0.00000000000E+00 0.  1.
     999901    1    3    3    0    0 -0.10306233058E+00  0.27540583390E-01  0.38773790982E-01  0.88729010734E+00  0.88000000000E+00 0. -1.
        -11    1    3    3    0    0  0.76255067205E-01 -0.22886679135E-01 -0.35768345698E-01  0.87282707515E-01  0.51100000000E-03 0. -1.
         11    1    3    3    0    0  0.37960556032E-01 -0.21907816452E-01  0.10110395251E-01  0.44982634973E-01  0.51100000000E-03 0.  1.
</event>
<event>
 8    1  0.1135368E+005  0.1043930E+01  0.7957747E-01            NaN
         13   -1    0    0    0    0  0.00000000000E+00  0.00000000000E+00  0.74505805969E-08  0.10566000000E+00  0.10566000000E+00 0. -1.
     999900   -1    0    0    0    0 -0.00000000000E+00 -0.00000000000E+00 -0.74505805969E-08  0.93827000000E+00  0.93827000000E+00 0. -1.
     999902    2    1    2    0    0  0.12145590673E-01 -0.37730323440E-02 -0.18430482970E-01  0.10215372814E+01  0.10212918209E+01 0.  0.
     999903    2    3    3    0    0 -0.20344640601E-01  0.11818861477E+00  0.46288623482E-01  0.13017942884E+00  0.20532753488E-01 0.  0.
         14    1    1    2    0    0 -0.12145590673E-01  0.37730323440E-02  0.18430482970E-01  0.22392718646E-01  0.00000000000E+00 0. -1.
     999901    1    3    3    0    0  0.32490231275E-01 -0.12196164712E+00 -0.64719106452E-01  0.89135785251E+00  0.88000000000E+00 0. -1.
        -11    1    4    4    0    0 -0.21841299611E-01  0.77413160936E-01  0.35818538172E-01  0.88051511359E-01  0.51100000000E-03 0. -1.
         11    1    4    4    0    0  0.14966590094E-02  0.40775453839E-01  0.10470085310E-01  0.42127917482E-01  0.51100000000E-03 0.  1.
</event>
<event>
 8    1  0.1135368E+005  0.1043930E+01  0.7957747E-01            NaN
         13   -1    0    0    0    0  0.00000000000E+00  0.00000000000E+00  0.74505805969E-08  0.10566000000E+00  0.10566000000E+00 0. -1.
     999900   -1    0    0    0    0 -0.00000000000E+00 -0.00000000000E+00 -0.74505805969E-08  0.93827000000E+00  0.93827000000E+00 0. -1.
     999902    2    1    2    0    0 -0.49100825455E-02  0.21168985344E-01  0.10795108712E-01  0.10196654328E+01  0.10193766848E+01 0.  0.
     999903    2    3    3    0    0  0.63062141768E-02  0.10903653737E+00  0.73135675670E-01  0.13302409699E+00  0.20441343033E-01 0.  0.
         14    1    1    2    0    0  0.49100825455E-02 -0.21168985344E-01 -0.10795108712E-01  0.24264567237E-01  0.00000000000E+00 0.  1.
     999901    1    3    3    0    0 -0.11216296722E-01 -0.87867552029E-01 -0.62340566959E-01  0.88664133577E+00  0.88000000000E+00 0. -1.
        -11    1    4    4    0    0 -0.79009027472E-03  0.59218897447E-01  0.50547020404E-01  0.77863755690E-01  0.51100000000E-03 0. -1.
         11    1    4    4    0    0  0.70963044516E-02  0.49817639926E-01  0.22588655266E-01  0.55160341300E-01  0.51100000000E-03 0.  1.
</event>
<event>
 8    1  0.1135368E+005  0.1043930E+01  0.7957747E-01            NaN
         13   -1    0    0    0    0  0.00000000000E+00  0.00000000000E+00  0.74505805969E-08  0.10566000000E+00  0.10566000000E+00 0.  1.
     999900   -1    0    0    0    0 -0.00000000000E+00 -0.00000000000E+00 -0.74505805969E-08  0.93827000000E+00  0.93827000000E+00 0. -1.
     999902    2    1    2    0    0 -0.14300942888E-01  0.20117612004E-01 -0.49436473257E-02  0.10187570993E+01  0.10184460479E+01 0.  0.
     999903    2    3    3    0    0 -0.57257404416E-01  0.65062306251E-01  0.95940005550E-01  0.13081408619E+00  0.19907948816E-01 0.  0.
         14    1    1    2    0    0  0.14300942888E-01 -0.20117612004E-01  0.49436473257E-02  0.25172900689E-01  0.00000000000E+00 0.  1.
     999901    1    3    3    0    0  0.42956461528E-01 -0.44944694248E-01 -0.10088365288E+00  0.88794301312E+00  0.88000000000E+00 0. -1.
        -11    1    4    4    0    0 -0.15306366227E-01  0.15834896467E-01  0.38271425417E-01  0.44158712816E-01  0.51100000000E-03 0. -1.
         11    1    4    4    0    0 -0.41951038189E-01  0.49227409784E-01  0.57668580134E-01  0.86655373376E-01  0.51100000000E-03 0.  1.
</event>
<event>
 8    1  0.1135368E+005  0.1043930E+01  0.7957747E-01            NaN
         13   -1    0    0    0    0  0.00000000000E+00  0.00000000000E+00  0.74505805969E-08  0.10566000000E+00  0.10566000000E+00 0. -1.
     999900   -1    0    0    0    0 -0.00000000000E+00 -0.00000000000E+00 -0.74505805969E-08  0.93827000000E+00  0.93827000000E+00 0.  1.
     999902    2    1    2    0    0  0.20568903968E-03 -0.24223887975E-01 -0.78004103511E-03  0.10196926833E+01  0.10194045913E+01 0.  0.
     999903    2    3    3    0    0 -0.89903221030E-01 -0.43558841340E-01 -0.82473237313E-01  0.13111672458E+00  0.20243487407E-01 0.  0.
         14    1    1    2    0    0 -0.20568903968E-03  0.24223887975E-01  0.78004103511E-03  0.24237316696E-01  0.00000000000E+00 0.  1.
     999901    1    3    3    0    0  0.90108910070E-01  0.19334953365E-01  0.81693196278E-01  0.88857595872E+00  0.88000000000E+00 0. -1.
        -11    1    4    4    0    0 -0.29958240160E-01 -0.70078835508E-02 -0.33653000589E-01  0.45600352575E-01  0.51100000000E-03 0. -1.
         11    1    4    4    0    0 -0.59944980870E-01 -0.36550957789E-01 -0.48820236724E-01  0.85516372009E-01  0.51100000000E-03 0.  1.
</event>
<event>
 8    1  0.1135368E+005  0.1043930E+01  0.7957747E-01            NaN
         13   -1    0    0    0    0  0.00000000000E+00  0.00000000000E+00  0.74505805969E-08  0.10566000000E+00  0.10566000000E+00 0.  1.
     999900   -1    0    0    0    0 -0.00000000000E+00 -0.00000000000E+00 -0.74505805969E-08  0.93827000000E+00  0.93827000000E+00 0. -1.
     999902    2    1    2    0    0 -0.11386138942E-01  0.10747141965E-01  0.17854973072E-01  0.10201824678E+01  0.10199060361E+01 0.  0.
     999903    2    3    3    0    0 -0.10164755870E+00 -0.69888643636E-01 -0.37047884708E-01  0.13020293009E+00  0.19068522344E-01 0.  0.
         14    1    1    2    0    0  0.11386138942E-01 -0.10747141965E-01 -0.17854973072E-01  0.23747532163E-01  0.00000000000E+00 0. -1.
     999901    1    3    3    0    0  0.90261419755E-01  0.80635785600E-01  0.54902857780E-01  0.88997953775E+00  0.88000000000E+00 0.  1.
        -11    1    4    4    0    0 -0.69498963144E-01 -0.56572784759E-01 -0.31339769620E-01  0.94936969271E-01  0.51100000000E-03 0. -1.
         11    1    4    4    0    0 -0.32148595553E-01 -0.13315858877E-01 -0.57081150884E-02  0.35265960820E-01  0.51100000000E-03 0.  1.
</event>
<event>
 8    1  0.1135368E+005  0.1043930E+01  0.7957747E-01            NaN
         13   -1    0    0    0    0  0.00000000000E+00  0.00000000000E+00  0.74505805969E-08  0.10566000000E+00  0.10566000000E+00 0.  1.
     999900   -1    0    0    0    0 -0.00000000000E+00 -0.00000000000E+00 -0.74505805969E-08  0.93827000000E+00  0.93827000000E+00 0.  1.
     999902    2    1    2    0    0  0.18879769870E-01  0.66960476314E-02  0.13559471234E-01  0.10197402909E+01  0.10194533432E+01 0.  0.
     999903    2    3    3    0    0  0.45551813642E-01 -0.11084878068E+00 -0.44423204273E-01  0.12963345733E+00  0.21656229503E-01 0.  0.
         14    1    1    2    0    0 -0.18879769870E-01 -0.66960476314E-02 -0.13559471234E-01  0.24189709060E-01  0.00000000000E+00 0. -1.
     999901    1    3    3    0    0 -0.26672043771E-01  0.11754482831E+00  0.57982675507E-01  0.89010683361E+00  0.88000000000E+00 0. -1.
        -11    1    4    4    0    0  0.15576982519E-01 -0.22498109722E-01 -0.29339925045E-02  0.27525928840E-01  0.51100000000E-03 0.  1.
         11    1    4    4    0    0  0.29974831122E-01 -0.88350670961E-01 -0.41489211768E-01  0.10210752849E+00  0.51100000000E-03 0. -1.
</event>
<event>
 8    1  0.1135368E+005  0.1043930E+01  0.7957747E-01            NaN
         13   -1    0    0    0    0  0.00000000000E+00  0.00000000000E+00  0.74505805969E-08  0.10566000000E+00  0.10566000000E+00 0.  1.
     999900   -1    0    0    0    0 -0.00000000000E+00 -0.00000000000E+00 -0.74505805969E-08  0.93827000000E+00  0.93827000000E+00 0. -1.
     999902    2    1    2    0    0 -0.11566332376E-02 -0.23591945788E-01 -0.18155169856E-01  0.10141385935E+01  0.10137009219E+01 0.  0.
     999903    2    3    3    0    0 -0.89849651798E-01  0.19135498346E-01  0.79345520838E-01  0.12329715382E+00  0.21618261701E-01 0.  0.
         14    1    1    2    0    0  0.11566332376E-02  0.23591945788E-01  0.18155169856E-01  0.29791406463E-01  0.00000000000E+00 0.  1.
     999901    1    3    3    0    0  0.88693018561E-01 -0.42727444134E-01 -0.97500690694E-01  0.89084143971E+00  0.88000000000E+00 0. -1.
        -11    1    4    4    0    0 -0.71771660397E-01  0.61693667363E-02  0.58386836469E-01  0.92728184043E-01  0.51100000000E-03 0. -1.
         11    1    4    4    0    0 -0.18077991401E-01  0.12966131609E-01  0.20958684370E-01  0.30568969782E-01  0.51100000000E-03 0.  1.
</event>
<event>
 8    1  0.1135368E+005  0.1043930E+01  0.7957747E-01            NaN
         13   -1    0    0    0    0  0.00000000000E+00  0.00000000000E+00  0.74505805969E-08  0.10566000000E+00  0.10566000000E+00 0.  1.
     999900   -1    0    0    0    0 -0.00000000000E+00 -0.00000000000E+00 -0.74505805969E-08  0.93827000000E+00  0.93827000000E+00 0. -1.
     999902    2    1    2    0    0  0.13047373071E-01  0.12166967587E-01 -0.18857983330E-01  0.10179705590E+01  0.10176395071E+01 0.  0.
     999903    2    3    3    0    0  0.11806897644E+00 -0.47574754542E-01 -0.14869635416E-01  0.12970566746E+00  0.19970319125E-01 0.  0.
         14    1    1    2    0    0 -0.13047373071E-01 -0.12166967587E-01  0.18857983330E-01  0.25959441049E-01  0.00000000000E+00 0.  1.
     999901    1    3    3    0    0 -0.10502160337E+00  0.59741722129E-01 -0.39883479137E-02  0.88826489149E+00  0.88000000000E+00 0. -1.
        -11    1    4    4    0    0  0.91868583837E-01 -0.43473463770E-01 -0.63023656379E-02  0.10183201698E+00  0.51100000000E-03 0. -1.
         11    1    4    4    0    0  0.26200392605E-01 -0.41012907716E-02 -0.85672697785E-02  0.27873650480E-01  0.51100000000E-03 0.  1.
</event>
<event>
 8    1  0.1135368E+005  0.1043930E+01  0.7957747E-01            NaN
         13   -1    0    0    0    0  0.00000000000E+00  0.00000000000E+00  0.74505805969E-08  0.10566000000E+00  0.10566000000E+00 0. -1.
     999900   -1    0    0    0    0 -0.00000000000E+00 -0.00000000000E+00 -0.74505805969E-08  0.93827000000E+00  0.93827000000E+00 0.  1.
     999902    2    1    2    0    0  0.75720122824E-02 -0.22065001666E-01 -0.94805465539E-03  0.10205826559E+01  0.10203155684E+01 0.  0.
     999903    2    3    3    0    0  0.11496260089E+00  0.19600367608E-01  0.56481168733E-01  0.13121948081E+00  0.20684673317E-01 0.  0.
         14    1    1    2    0    0 -0.75720122824E-02  0.22065001666E-01  0.94805465539E-03  0.23347344092E-01  0.00000000000E+00 0.  1.
     999901    1    3    3    0    0 -0.10739058860E+00 -0.41665369274E-01 -0.57429223389E-01  0.88936317510E+00  0.88000000000E+00 0.  1.
        -11    1    4    4    0    0  0.73636617150E-01  0.17138774414E-01  0.46038035392E-01  0.88520341151E-01  0.51100000000E-03 0. -1.
         11    1    4    4    0    0  0.41325983736E-01  0.24615931937E-02  0.10443133341E-01  0.42699139661E-01  0.51100000000E-03 0.  1.
</event>
<event>
 8    1  0.1135368E+005  0.1043930E+01  0.7957747E-01            NaN
         13   -1    0    0    0    0  0.00000000000E+00  0.00000000000E+00  0.74505805969E-08  0.10566000000E+00  0.10566000000E+00 0. -1.
     999900   -1    0    0    0    0 -0.00000000000E+00 -0.00000000000E+00 -0.74505805969E-08  0.93827000000E+00  0.93827000000E+00 0.  1.
     999902    2    1    2    0    0 -0.19713865687E-01  0.82309672969E-02 -0.45163813220E-02  0.10220946382E+01  0.10218613734E+01 0.  0.
     999903    2    3    3    0    0  0.81231962455E-01 -0.40155263550E-01 -0.92042212600E-01  0.13069570471E+00  0.19963001142E-01 0.  0.
         14    1    1    2    0    0  0.19713865687E-01 -0.82309672969E-02  0.45163813220E-02  0.21835361761E-01  0.00000000000E+00 0.  1.
     999901    1    3    3    0    0 -0.10094582814E+00  0.48386230847E-01  0.87525831278E-01  0.89139893353E+00  0.88000000000E+00 0.  1.
        -11    1    4    4    0    0  0.21625325604E-01 -0.73858197128E-02 -0.12564111101E-01  0.26083003068E-01  0.51100000000E-03 0.  1.
         11    1    4    4    0    0  0.59606636850E-01 -0.32769443837E-01 -0.79478101499E-01  0.10461270164E+00  0.51100000000E-03 0. -1.
</event>
<event>
 8    1  0.1135368E+005  0.1043930E+01  0.7957747E-01            NaN
         13   -1    0    0    0    0  0.00000000000E+00  0.00000000000E+00  0.74505805969E-08  0.10566000000E+00  0.10566000000E+00 0. -1.
     999900   -1    0    0    0    0 -0.00000000000E+00 -0.00000000000E+00 -0.74505805969E-08  0.93827000000E+00  0.93827000000E+00 0. -1.
     999902    2    1    2    0    0 -0.11291160588E-01  0.14168179196E-01 -0.13832469822E-01  0.10211360352E+01  0.10208815982E+01 0.  0.
     999903    2    3    3    0    0  0.74238849604E-01 -0.62819866055E-01 -0.85234008508E-01  0.13077615209E+00  0.19489058152E-01 0.  0.
         14    1    1    2    0    0  0.11291160588E-01 -0.14168179196E-01  0.13832469822E-01  0.22793964783E-01  0.00000000000E+00 0. -1.
     999901    1    3    3    0    0 -0.85530010191E-01  0.76988045251E-01  0.71401538685E-01  0.89035988313E+00  0.88000000000E+00 0.  1.
        -11    1    4    4    0    0  0.43404828503E-01 -0.26104779221E-01 -0.50854585900E-01  0.71776658209E-01  0.51100000000E-03 0.  1.
         11    1    4    4    0    0  0.30834021101E-01 -0.36715086834E-01 -0.34379422608E-01  0.58999493882E-01  0.51100000000E-03 0. -1.
</event>
<event>
 8    1  0.1135368E+005  0.1043930E+01  0.7957747E-01            NaN
         13   -1    0    0    0    0  0.00000000000E+00  0.00000000000E+00  0.74505805969E-08  0.10566000000E+00  0.10566000000E+00 0.  1.
     999900   -1    0    0    0    0 -0.00000000000E+00 -0.00000000000E+00 -0.74505805969E-08  0.93827000000E+00  0.93827000000E+00 0. -1.
     999902    2    1    2    0    0 -0.14863553707E-01  0.17072757019E-01  0.57099591936E-02  0.10205845958E+01  0.10203175532E+01 0.  0.
     999903    2    3    3    0    0  0.11157797964E+00  0.30578445703E-01 -0.53963517186E-01  0.12944443360E+00  0.21426929808E-01 0.  0.
         14    1    1    2    0    0  0.14863553707E-01 -0.17072757019E-01 -0.57099591936E-02  0.23345404152E-01  0.00000000000E+00 0.  1.
     999901    1    3    3    0    0 -0.12644153335E+00 -0.13505688684E-01  0.59673476379E-01  0.89114016224E+00  0.88000000000E+00 0. -1.
        -11    1    4    4    0    0  0.21477975125E-01  0.79860302277E-02 -0.20375766744E-01  0.30667785797E-01  0.51100000000E-03 0. -1.
         11    1    4    4    0    0  0.90100004518E-01  0.22592415475E-01 -0.33587750441E-01  0.98776647806E-01  0.51100000000E-03 0.  1.
</event>
<event>
 8    1  0.1135368E+005  0.1043930E+01  0.7957747E-01            NaN
         13   -1    0    0    0    0  0.00000000000E+00  0.00000000000E+00  0.74505805969E-08  0.10566000000E+00  0.10566000000E+00 0.  1.
     999900   -1    0    0    0    0 -0.00000000000E+00 -0.00000000000E+00 -0.74505805969E-08  0.93827000000E+00  0.93827000000E+00 0.  1.
     999902    2    1    2    0    0  0.64134627710E-02  0.23040011444E-01  0.25046181991E-02  0.10198832176E+01  0.10195996909E+01 0.  0.
     999903    2    3    3    0    0  0.84426840871E-01 -0.63966536611E-01 -0.71481393718E-01  0.12908012120E+00  0.18234000566E-01 0.  0.
         14    1    1    2    0    0 -0.64134627710E-02 -0.23040011444E-01 -0.25046181991E-02  0.24046782412E-01  0.00000000000E+00 0.  1.
     999901    1    3    3    0    0 -0.78013378100E-01  0.87006548055E-01  0.73986011917E-01  0.89080309638E+00  0.88000000000E+00 0. -1.
        -11    1    4    4    0    0  0.72997836979E-01 -0.52713241754E-01 -0.52521836647E-01  0.10424094448E+00  0.51100000000E-03 0. -1.
         11    1    4    4    0    0  0.11429003892E-01 -0.11253294857E-01 -0.18959557071E-01  0.24839176726E-01  0.51100000000E-03 0.  1.
</event>
<event>
 8    1  0.1135368E+005  0.1043930E+01  0.7957747E-01            NaN
         13   -1    0    0    0    0  0.00000000000E+00  0.00000000000E+00  0.74505805969E-08  0.10566000000E+00  0.10566000000E+00 0. -1.
     999900   -1    0    0    0    0 -0.00000000000E+00 -0.00000000000E+00 -0.74505805969E-08  0.93827000000E+00  0.93827000000E+00 0. -1.
     999902    2    1    2    0    0  0.15522080370E-01 -0.67078670106E-02 -0.16300949685E-01  0.10204427392E+01  0.10201724034E+01 0.  0.
     999903    2    3    3    0    0 -0.49924597802E-02  0.23295206720E-01 -0.12888558997E+00  0.13252588949E+00  0.19596550014E-01 0.  0.
         14    1    1    2    0    0 -0.15522080370E-01  0.67078670106E-02  0.16300949685E-01  0.23487260792E-01  0.00000000000E+00 0. -1.
     999901    1    3    3    0    0  0.20514540151E-01 -0.30003073731E-01  0.11258464028E+00  0.88791684972E+00  0.88000000000E+00 0. -1.
        -11    1    4    4    0    0  0.71479245413E-02  0.13203433883E-01 -0.65755787457E-01  0.67450042229E-01  0.51100000000E-03 0. -1.
         11    1    4    4    0    0 -0.12140384321E-01  0.10091772838E-01 -0.63129802510E-01  0.65075847259E-01  0.51100000000E-03 0.  1.
</event>
<event>
 8    1  0.1135368E+005  0.1043930E+01  0.7957747E-01            NaN
         13   -1    0    0    0    0  0.00000000000E+00  0.00000000000E+00  0.74505805969E-08  0.10566000000E+00  0.10566000000E+00 0.  1.
     999900   -1    0    0    0    0 -0.00000000000E+00 -0.00000000000E+00 -0.74505805969E-08  0.93827000000E+00  0.93827000000E+00 0. -1.
     999902    2    1    2    0    0  0.13858210585E-01  0.11445285801E-01  0.15474064581E-01  0.10202131022E+01  0.10199373915E+01 0.  0.
     999903    2    3    3    0    0  0.10627578289E+00  0.35243655577E-03  0.77518384034E-01  0.13313161970E+00  0.20500294145E-01 0.  0.
         14    1    1    2    0    0 -0.13858210585E-01 -0.11445285801E-01 -0.15474064581E-01  0.23716897823E-01  0.00000000000E+00 0. -1.
     999901    1    3    3    0    0 -0.92417572307E-01  0.11092849245E-01 -0.62044319452E-01  0.88708148248E+00  0.88000000000E+00 0.  1.
        -11    1    4    4    0    0  0.71945852568E-01  0.92117355280E-02  0.56188263449E-01  0.91752078143E-01  0.51100000000E-03 0. -1.
         11    1    4    4    0    0  0.34329930325E-01 -0.88592989722E-02  0.21330120585E-01  0.41379541558E-01  0.51100000000E-03 0.  1.
</event>
<event>
 8    1  0.1135368E+005  0.1043930E+01  0.7957747E-01            NaN
         13   -1    0    0    0    0  0.00000000000E+00  0.00000000000E+00  0.74505805969E-08  0.10566000000E+00  0.10566000000E+00 0. -1.
     999900   -1    0    0    0    0 -0.00000000000E+00 -0.00000000000E+00 -0.74505805969E-08  0.93827000000E+00  0.93827000000E+00 0.  1.
     999902    2    1    2    0    0 -0.13330251501E-01  0.15861105115E-01  0.18595502931E-01  0.10160900469E+01  0.10157085804E+01 0.  0.
     999903    2    3    3    0    0  0.50579513147E-01 -0.93980665395E-01 -0.59192334445E-01  0.12356518996E+00  0.19338332280E-01 0.  0.
         14    1    1    2    0    0  0.13330251501E-01 -0.15861105115E-01 -0.18595502931E-01  0.27839953122E-01  0.00000000000E+00 0. -1.
     999901    1    3    3    0    0 -0.63909764648E-01  0.10984177051E+00  0.77787837376E-01  0.89252485691E+00  0.88000000000E+00 0. -1.
        -11    1    4    4    0    0  0.29564996954E-01 -0.50440066160E-01 -0.21635800206E-01  0.62343069308E-01  0.51100000000E-03 0.  1.
         11    1    4    4    0    0  0.21014516193E-01 -0.43540599235E-01 -0.37556534239E-01  0.61222120656E-01  0.51100000000E-03 0. -1.
</event>
<event>
 8    1  0.1135368E+005  0.1043930E+01  0.7957747E-01            NaN
         13   -1    0    0    0    0  0.00000000000E+00  0.00000000000E+00  0.74505805969E-08  0.10566000000E+00  0.10566000000E+00 0. -1.
     999900   -1    0    0    0    0 -0.00000000000E+00 -0.00000000000E+00 -0.74505805969E-08  0.93827000000E+00  0.93827000000E+00 0. -1.
     999902    2    1    2    0    0  0.29036539564E-03  0.17886260699E-01 -0.14987863740E-01  0.10205925046E+01  0.10203256449E+01 0.  0.
     999903    2    3    3    0    0 -0.12754069015E+00 -0.61724319523E-02 -0.19972364007E-01  0.13101707510E+00  0.21490744154E-01 0.  0.
         14    1    1    2    0    0 -0.29036539564E-03 -0.17886260699E-01  0.14987863740E-01  0.23337495438E-01  0.00000000000E+00 0.  1.
     999901    1    3    3    0    0  0.12783105555E+00  0.24058692651E-01  0.49845002668E-02  0.88957542946E+00  0.88000000000E+00 0.  1.
        -11    1    4    4    0    0 -0.78151502390E-01 -0.16166455979E-02 -0.17972849209E-02  0.78190550726E-01  0.51100000000E-03 0.  1.
         11    1    4    4    0    0 -0.49389187760E-01 -0.45557863544E-02 -0.18175079086E-01  0.52826524376E-01  0.51100000000E-03 0. -1.
</event>
<event>
 8    1  0.1135368E+005  0.1043930E+01  0.7957747E-01            NaN
         13   -1    0    0    0    0  0.00000000000E+00  0.00000000000E+00  0.74505805969E-08  0.10566000000E+00  0.10566000000E+00 0. -1.
     999900   -1    0    0    0    0 -0.00000000000E+00 -0.00000000000E+00 -0.74505805969E-08  0.93827000000E+00  0.93827000000E+00 0.  1.
     999902    2    1    2    0    0  0.37667057708E-02  0.23494731864E-01 -0.12102157345E-02  0.10201044859E+01  0.10198262142E+01 0.  0.
     999903    2    3    3    0    0  0.35734659287E-01 -0.67505779700E-02 -0.12383493734E+00  0.13051269689E+00  0.19389073369E-01 0.  0.
         14    1    1    2    0    0 -0.37667057708E-02 -0.23494731864E-01  0.12102157345E-02  0.23825514052E-01  0.00000000000E+00 0.  1.
     999901    1    3    3    0    0 -0.31967953516E-01  0.30245309834E-01  0.12262472160E+00  0.88959178906E+00  0.88000000000E+00 0. -1.
        -11    1    4    4    0    0  0.27196876379E-01 -0.69509008321E-02 -0.61649201169E-01  0.67741200410E-01  0.51100000000E-03 0.  1.
         11    1    4    4    0    0  0.85377829079E-02  0.20032286210E-03 -0.62185736166E-01  0.62771496476E-01  0.51100000000E-03 0. -1.
</event>
<event>
 8    1  0.1135368E+005  0.1043930E+01  0.7957747E-01            NaN
         13   -1    0    0    0    0  0.00000000000E+00  0.00000000000E+00  0.74505805969E-08  0.10566000000E+00  0.10566000000E+00 0. -1.
     999900   -1    0    0    0    0 -0.00000000000E+00 -0.00000000000E+00 -0.74505805969E-08  0.93827000000E+00  0.93827000000E+00 0.  1.
     999902    2    1    2    0    0 -0.22535682699E-02  0.20957932407E-01 -0.86930827000E-02  0.10211290529E+01  0.10208744583E+01 0.  0.
     999903    2    3    3    0    0  0.28467620030E-01  0.12270719375E+00  0.38960492656E-01  0.13345368048E+00  0.20603496291E-01 0.  0.
         14    1    1    2    0    0  0.22535682699E-02 -0.20957932407E-01  0.86930827000E-02  0.22800947076E-01  0.00000000000E+00 0. -1.
     999901    1    3    3    0    0 -0.30721188300E-01 -0.10174926134E+00 -0.47653575356E-01  0.88767537244E+00  0.88000000000E+00 0.  1.
        -11    1    4    4    0    0  0.28451158359E-01  0.91561521164E-01  0.34922210568E-01  0.10204314030E+00  0.51100000000E-03 0. -1.
         11    1    4    4    0    0  0.16461671609E-04  0.31145672582E-01  0.40382820887E-02  0.31410540186E-01  0.51100000000E-03 0.  1.
</event>
<event>
 7    1  0.1135368E+005  0.1043930E+01  0.7957747E-01            NaN
         13   -1    0    0    0    0  0.00000000000E+00  0.00000000000E+00  0.74505805969E-08  0.10566000000E+00  0.10566000000E+00 0.  1.
     999900   -1    0    0    0    0 -0.00000000000E+00 -0.00000000000E+00 -0.74505805969E-08  0.93827000000E+00  0.93827000000E+00 0.  1.
     999903    2    1    2    0    0  0.90433467611E-01  0.17363502925E-01 -0.51455439311E-01  0.10733107446E+00  0.19813985270E-01 0.  0.
         14    1    1    2    0    0  0.24717839618E-01 -0.21643062141E-01 -0.31120315862E-01  0.45253373284E-01  0.00000000000E+00 0. -1.
     999901    1    1    2    0    0 -0.11515130723E+00  0.42795592154E-02  0.82575755172E-01  0.89134555226E+00  0.88000000000E+00 0. -1.
        -11    1    3    3    0    0  0.61895457294E-01  0.76248054990E-02 -0.43820792441E-01  0.76221442283E-01  0.51100000000E-03 0.  1.
         11    1    3    3    0    0  0.28538010317E-01  0.97386974265E-02 -0.76346468694E-02  0.31109632178E-01  0.51100000000E-03 0. -1.
</event>
<event>
 8    1  0.1135368E+005  0.1043930E+01  0.7957747E-01            NaN
         13   -1    0    0    0    0  0.00000000000E+00  0.00000000000E+00  0.74505805969E-08  0.10566000000E+00  0.10566000000E+00 0. -1.
     999900   -1    0    0    0    0 -0.00000000000E+00 -0.00000000000E+00 -0.74505805969E-08  0.93827000000E+00  0.93827000000E+00 0. -1.
     999902    2    1    2    0    0  0.15692386805E-01 -0.11295847051E-01  0.80238924837E-02  0.10229960559E+01  0.10227818440E+01 0.  0.
     999903    2    3    3    0    0  0.59102290338E-01  0.78376185868E-01  0.88320251095E-01  0.13374187492E+00  0.21225341451E-01 0.  0.
         14    1    1    2    0    0 -0.15692386805E-01  0.11295847051E-01 -0.80238924837E-02  0.20933944082E-01  0.00000000000E+00 0. -1.
     999901    1    3    3    0    0 -0.43409903533E-01 -0.89672032919E-01 -0.80296358612E-01  0.88925418100E+00  0.88000000000E+00 0. -1.
        -11    1    4    4    0    0 -0.15376184064E-02  0.36993203406E-02  0.20628866123E-02  0.45349601456E-02  0.51100000000E-03 0. -1.
         11    1    4    4    0    0  0.60639908744E-01  0.74676865527E-01  0.86257364483E-01  0.12920691478E+00  0.51100000000E-03 0.  1.
</event>
<event>
 8    1  0.1135368E+005  0.1043930E+01  0.7957747E-01            NaN
         13   -1    0    0    0    0  0.00000000000E+00  0.00000000000E+00  0.74505805969E-08  0.10566000000E+00  0.10566000000E+00 0. -1.
     999900   -1    0    0    0    0 -0.00000000000E+00 -0.00000000000E+00 -0.74505805969E-08  0.93827000000E+00  0.93827000000E+00 0. -1.
     999902    2    1    2    0    0 -0.26775398815E-02 -0.13835778735E-01  0.18657820172E-01  0.10205481214E+01  0.10202802340E+01 0.  0.
     999903    2    3    3    0    0  0.76341673401E-01 -0.44132889418E-01  0.96899907210E-01  0.13303261440E+00  0.23072092494E-01 0.  0.
         14    1    1    2    0    0  0.26775398815E-02  0.13835778735E-01 -0.18657820172E-01  0.23381878594E-01  0.00000000000E+00 0.  1.
     999901    1    3    3    0    0 -0.79019213282E-01  0.30297110684E-01 -0.78242087037E-01  0.88751550700E+00  0.88000000000E+00 0. -1.
        -11    1    4    4    0    0  0.54642573376E-01 -0.37551661498E-01  0.83737701253E-01  0.10680918424E+00  0.51100000000E-03 0. -1.
         11    1    4    4    0    0  0.21699100025E-01 -0.65812279202E-02  0.13162205957E-01  0.26223430162E-01  0.51100000000E-03 0.  1.
</event>
<event>
 8    1  0.1135368E+005  0.1043930E+01  0.7957747E-01            NaN
         13   -1    0    0    0    0  0.00000000000E+00  0.00000000000E+00  0.74505805969E-08  0.10566000000E+00  0.10566000000E+00 0.  1.
     999900   -1    0    0    0    0 -0.00000000000E+00 -0.00000000000E+00 -0.74505805969E-08  0.93827000000E+00  0.93827000000E+00 0.  1.
     999902    2    1    2    0    0  0.15048158846E-01 -0.12676371109E-01  0.13227366310E-01  0.10202213373E+01  0.10199458203E+01 0.  0.
     999903    2    3    3    0    0  0.11416077405E+00  0.45809681643E-02 -0.62268085007E-01  0.13127775670E+00  0.17403085723E-01 0.  0.
         14    1    1    2    0    0 -0.15048158846E-01  0.12676371109E-01 -0.13227366310E-01  0.23708662735E-01  0.00000000000E+00 0. -1.
     999901    1    3    3    0    0 -0.99112615208E-01 -0.17257339273E-01  0.75495451318E-01  0.88894358056E+00  0.88000000000E+00 0. -1.
        -11    1    4    4    0    0  0.76433877308E-01 -0.50113360663E-02 -0.39642148961E-01  0.86249708316E-01  0.51100000000E-03 0. -1.
         11    1    4    4    0    0  0.37726896747E-01  0.95923042307E-02 -0.22625936046E-01  0.45028048387E-01  0.51100000000E-03 0.  1.
</event>
<event>
 8    1  0.1135368E+005  0.1043930E+01  0.7957747E-01            NaN
         13   -1    0    0    0    0  0.00000000000E+00  0.00000000000E+00  0.74505805969E-08  0.10566000000E+00  0.10566000000E+00 0.  1.
     999900   -1    0    0    0    0 -0.00000000000E+00 -0.00000000000E+00 -0.74505805969E-08  0.93827000000E+00  0.93827000000E+00 0. -1.
     999902    2    1    2    0    0 -0.42984312710E-02 -0.19803555596E-01 -0.12328002200E-01  0.10202100303E+01  0.10199342473E+01 0.  0.
     999903    2    3    3    0    0  0.54113613005E-01  0.10578970180E+00  0.41875797196E-01  0.12772827411E+00  0.21004416139E-01 0.  0.
         14    1    1    2    0    0  0.42984312710E-02  0.19803555596E-01  0.12328002200E-01  0.23719969727E-01  0.00000000000E+00 0. -1.
     999901    1    3    3    0    0 -0.58412044276E-01 -0.12559325739E+00 -0.54203799396E-01  0.89248175617E+00  0.88000000000E+00 0. -1.
        -11    1    4    4    0    0  0.39266369240E-01  0.70616431500E-01  0.18277312966E-01  0.82842316731E-01  0.51100000000E-03 0.  1.
         11    1    4    4    0    0  0.14847243765E-01  0.35173270295E-01  0.23598484230E-01  0.44885957377E-01  0.51100000000E-03 0. -1.
</event>
<event>
 8    1  0.1135368E+005  0.1043930E+01  0.7957747E-01            NaN
         13   -1    0    0    0    0  0.00000000000E+00  0.00000000000E+00  0.74505805969E-08  0.10566000000E+00  0.10566000000E+00 0.  1.
     999900   -1    0    0    0    0 -0.00000000000E+00 -0.00000000000E+00 -0.74505805969E-08  0.93827000000E+00  0.93827000000E+00 0. -1.
     999902    2    1    2    0    0  0.12242268364E-01 -0.12413268433E-01  0.14437107636E-01  0.10212939128E+01  0.10210430274E+01 0.  0.
     999903    2    3    3    0    0  0.10955157403E+00 -0.73117846499E-01  0.15569913151E-01  0.13385071459E+00  0.18050616365E-01 0.  0.
         14    1    1    2    0    0 -0.12242268364E-01  0.12413268433E-01 -0.14437107636E-01  0.22636087223E-01  0.00000000000E+00 0.  1.
     999901    1    3    3    0    0 -0.97309305663E-01  0.60704578066E-01 -0.11328055150E-02  0.88744319819E+00  0.88000000000E+00 0.  1.
        -11    1    4    4    0    0  0.90846824845E-01 -0.68038480913E-01  0.11978974194E-01  0.11413210509E+00  0.51100000000E-03 0.  1.
         11    1    4    4    0    0  0.18704749182E-01 -0.50793655865E-02  0.35909389571E-02  0.19718609492E-01  0.51100000000E-03 0. -1.
</event>
<event>
 8    1  0.1135368E+005  0.1043930E+01  0.7957747E-01            NaN
         13   -1    0    0    0    0  0.00000000000E+00  0.00000000000E+00  0.74505805969E-08  0.10566000000E+00  0.10566000000E+00 0.  1.
     999900   -1    0    0    0    0 -0.00000000000E+00 -0.00000000000E+00 -0.74505805969E-08  0.93827000000E+00  0.93827000000E+00 0. -1.
     999902    2    1    2    0    0 -0.81830070967E-02 -0.36160176212E-02  0.21508602549E-01  0.10206349968E+01  0.10203691193E+01 0.  0.
     999903    2    3    3    0    0  0.11815861067E+00 -0.43171483499E-01  0.29193252909E-01  0.13069910414E+00  0.20119034417E-01 0.  0.
         14    1    1    2    0    0  0.81830070967E-02  0.36160176212E-02 -0.21508602549E-01  0.23295003159E-01  0.00000000000E+00 0. -1.
     999901    1    3    3    0    0 -0.12634161777E+00  0.39555465878E-01 -0.76846503602E-02  0.88993589270E+00  0.88000000000E+00 0. -1.
        -11    1    4    4    0    0  0.10882116410E+00 -0.33331013246E-01  0.25587166460E-01  0.11665318859E+00  0.51100000000E-03 0.  1.
         11    1    4    4    0    0  0.93374465683E-02 -0.98404702526E-02  0.36060864492E-02  0.14045915552E-01  0.51100000000E-03 0. -1.
</event>
<event>
 8    1  0.1135368E+005  0.1043930E+01  0.7957747E-01            NaN
         13   -1    0    0    0    0  0.00000000000E+00  0.00000000000E+00  0.74505805969E-08  0.10566000000E+00  0.10566000000E+00 0. -1.
     999900   -1    0    0    0    0 -0.00000000000E+00 -0.00000000000E+00 -0.74505805969E-08  0.93827000000E+00  0.93827000000E+00 0. -1.
     999902    2    1    2    0    0  0.10966354055E-01  0.25027663392E-04 -0.20715695220E-01  0.10204906831E+01  0.10202214626E+01 0.  0.
     999903    2    3    3    0    0  0.53973150863E-01  0.65680637583E-01 -0.10101362626E+00  0.13335596876E+00  0.18788681318E-01 0.  0.
         14    1    1    2    0    0 -0.10966354055E-01 -0.25027663392E-04  0.20715695220E-01  0.23439316886E-01  0.00000000000E+00 0. -1.
     999901    1    3    3    0    0 -0.43006796808E-01 -0.65655609920E-01  0.80297931041E-01  0.88713471436E+00  0.88000000000E+00 0.  1.
        -11    1    4    4    0    0  0.24032991248E-01  0.23517136030E-01 -0.53121644734E-01  0.62871381531E-01  0.51100000000E-03 0.  1.
         11    1    4    4    0    0  0.29940159615E-01  0.42163501554E-01 -0.47891981527E-01  0.70484587227E-01  0.51100000000E-03 0. -1.
</event>
<event>
 8    1  0.1135368E+005  0.1043930E+01  0.7957747E-01            NaN
         13   -1    0    0    0    0  0.00000000000E+00  0.00000000000E+00  0.74505805969E-08  0.10566000000E+00  0.10566000000E+00 0. -1.
     999900   -1    0    0    0    0 -0.00000000000E+00 -0.00000000000E+00 -0.74505805969E-08  0.93827000000E+00  0.93827000000E+00 0. -1.
     999902    2    1    2    0    0  0.66140340695E-02 -0.17082147924E-02  0.22589002452E-01  0.10203307103E+01  0.10200577591E+01 0.  0.
     999903    2    3    3    0    0 -0.12190317634E+00  0.15265587350E-01 -0.33630500259E-01  0.12905891344E+00  0.20779076732E-01 0.  0.
         14    1    1    2    0    0 -0.66140340695E-02  0.17082147924E-02 -0.22589002452E-01  0.23599289739E-01  0.00000000000E+00 0.  1.
     999901    1    3    3    0    0  0.12851721041E+00 -0.16973802143E-01  0.56219502711E-01  0.89127179683E+00  0.88000000000E+00 0.  1.
        -11    1    4    4    0    0 -0.56183397748E-01 -0.21772975030E-02 -0.20213005722E-01  0.59750661320E-01  0.51100000000E-03 0. -1.
         11    1    4    4    0    0 -0.65719778595E-01  0.17442884853E-01 -0.13417494537E-01  0.69308252115E-01  0.51100000000E-03 0.  1.
</event>
<event>
 8    1  0.1135368E+005  0.1043930E+01  0.7957747E-01            NaN
         13   -1    0    0    0    0  0.00000000000E+00  0.00000000000E+00  0.74505805969E-08  0.10566000000E+00  0.10566000000E+00 0.  1.
     999900   -1    0    0    0    0 -0.00000000000E+00 -0.00000000000E+00 -0.74505805969E-08  0.93827000000E+00  0.93827000000E+00 0. -1.
     999902    2    1    2    0    0 -0.87683630482E-02  0.21065708664E-01  0.64927437322E-02  0.10202065097E+01  0.10199306439E+01 0.  0.
     999903    2    3    3    0    0  0.63725465934E-01 -0.10368637883E+00 -0.33497824440E-01  0.12756006000E+00  0.18375649659E-01 0.  0.
         14    1    1    2    0    0  0.87683630482E-02 -0.21065708664E-01 -0.64927437322E-02  0.23723490326E-01  0.00000000000E+00 0. -1.
     999901    1    3    3    0    0 -0.72493828983E-01  0.12475208750E+00  0.39990568173E-01  0.89264644968E+00  0.88000000000E+00 0. -1.
        -11    1    4    4    0    0  0.48707754678E-01 -0.84973635130E-01 -0.19797882633E-01  0.99925879084E-01  0.51100000000E-03 0. -1.
         11    1    4    4    0    0  0.15017711256E-01 -0.18712743705E-01 -0.13699941807E-01  0.27634180915E-01  0.51100000000E-03 0.  1.
</event>
<event>
 8    1  0.1135368E+005  0.1043930E+01  0.7957747E-01            NaN
         13   -1    0    0    0    0  0.00000000000E+00  0.00000000000E+00  0.74505805969E-08  0.10566000000E+00  0.10566000000E+00 0.  1.
     999900   -1    0    0    0    0 -0.00000000000E+00 -0.00000000000E+00 -0.74505805969E-08  0.93827000000E+00  0.93827000000E+00 0. -1.
     999902    2    1    2    0    0 -0.17416243147E-01 -0.35554778874E-02  0.13977529148E-01  0.10213172100E+01  0.10210668466E+01 0.  0.
     999903    2    3    3    0    0  0.41164001150E-01  0.10314571242E-01  0.12400371258E+00  0.13242476193E+00  0.18934927151E-01 0.  0.
         14    1    1    2    0    0  0.17416243147E-01  0.35554778874E-02 -0.13977529148E-01  0.22612789953E-01  0.00000000000E+00 0. -1.
     999901    1    3    3    0    0 -0.58580244297E-01 -0.13870049130E-01 -0.11002618343E+00  0.88889244812E+00  0.88000000000E+00 0. -1.
        -11    1    4    4    0    0  0.11835070306E-01 -0.55896312755E-02  0.34263740470E-01  0.36682119608E-01  0.51100000000E-03 0.  1.
         11    1    4    4    0    0  0.29328930844E-01  0.15904202518E-01  0.89739972114E-01  0.95742642318E-01  0.51100000000E-03 0. -1.
</event>
<event>
 8    1  0.1135368E+005  0.1043930E+01  0.7957747E-01            NaN
         13   -1    0    0    0    0  0.00000000000E+00  0.00000000000E+00  0.74505805969E-08  0.10566000000E+00  0.10566000000E+00 0. -1.
     999900   -1    0    0    0    0 -0.00000000000E+00 -0.00000000000E+00 -0.74505805969E-08  0.93827000000E+00  0.93827000000E+00 0.  1.
     999902    2    1    2    0    0  0.10548521666E-01  0.24769427322E-02 -0.21108551187E-01  0.10202028534E+01  0.10199269016E+01 0.  0.
     999903    2    3    3    0    0 -0.53976498118E-01  0.11140959924E+00  0.32455658389E-01  0.12952955389E+00  0.19974343958E-01 0.  0.
         14    1    1    2    0    0 -0.10548521666E-01 -0.24769427322E-02  0.21108551187E-01  0.23727146644E-01  0.00000000000E+00 0. -1.
     999901    1    3    3    0    0  0.64525019784E-01 -0.10893265651E+00 -0.53564209577E-01  0.89067329947E+00  0.88000000000E+00 0.  1.
        -11    1    4    4    0    0 -0.26479387629E-01  0.46513730260E-01  0.23583986422E-01  0.58490602736E-01  0.51100000000E-03 0. -1.
         11    1    4    4    0    0 -0.27497110489E-01  0.64895868985E-01  0.88716719675E-02  0.71038951154E-01  0.51100000000E-03 0.  1.
</event>
<event>
 8    1  0.1135368E+005  0.1043930E+01  0.7957747E-01            NaN
         13   -1    0    0    0    0  0.00000000000E+00  0.00000000000E+00  0.74505805969E-08  0.10566000000E+00  0.10566000000E+00 0.  1.
     999900   -1    0    0    0    0 -0.00000000000E+00 -0.00000000000E+00 -0.74505805969E-08  0.93827000000E+00  0.93827000000E+00 0.  1.
     999902    2    1    2    0    0 -0.90228693371E-02  0.17302048125E-01 -0.13729612871E-01  0.10200705090E+01  0.10197914336E+01 0.  0.
     999903    2    3    3    0    0 -0.76358139491E-01 -0.94848432768E-01  0.34634950306E-01  0.12908740034E+00  0.25242552952E-01 0.  0.
         14    1    1    2    0    0  0.90228693371E-02 -0.17302048125E-01  0.13729612871E-01  0.23859490983E-01  0.00000000000E+00 0.  1.
     999901    1    3    3    0    0  0.67335270154E-01  0.11215048089E+00 -0.48364563177E-01  0.89098310867E+00  0.88000000000E+00 0. -1.
        -11    1    4    4    0    0 -0.28124656545E-01 -0.17800674611E-01  0.63659721207E-02  0.33891695803E-01  0.51100000000E-03 0.  1.
         11    1    4    4    0    0 -0.48233482946E-01 -0.77047758158E-01  0.28268978185E-01  0.95195704540E-01  0.51100000000E-03 0. -1.
</event>
<event>
 8    1  0.1135368E+005  0.1043930E+01  0.7957747E-01            NaN
         13   -1    0    0    0    0  0.00000000000E+00  0.00000000000E+00  0.74505805969E-08  0.10566000000E+00  0.10566000000E+00 0. -1.
     999900   -1    0    0    0    0 -0.00000000000E+00 -0.00000000000E+00 -0.74505805969E-08  0.93827000000E+00  0.93827000000E+00 0. -1.
     999902    2    1    2    0    0 -0.19600563328E-01 -0.61190661949E-02 -0.12079696202E-01  0.10201068156E+01  0.10198285989E+01 0.  0.
     999903    2    3    3    0    0 -0.61921240925E-01 -0.95806293076E-01  0.62090416600E-01  0.13143587311E+00  0.20176298876E-01 0.  0.
         14    1    1    2    0    0  0.19600563328E-01  0.61190661949E-02  0.12079696202E-01  0.23823184385E-01  0.00000000000E+00 0. -1.
     999901    1    3    3    0    0  0.42320677597E-01  0.89687226881E-01 -0.74170112802E-01  0.88867094250E+00  0.88000000000E+00 0. -1.
        -11    1    4    4    0    0 -0.36922820746E-01 -0.68424580561E-01  0.33731508462E-01  0.84754313759E-01  0.51100000000E-03 0.  1.
         11    1    4    4    0    0 -0.24998420180E-01 -0.27381712515E-01  0.28358908138E-01  0.46681559352E-01  0.51100000000E-03 0. -1.
</event>
<event>
 8    1  0.1135368E+005  0.1043930E+01  0.7957747E-01            NaN
         13   -1    0    0    0    0  0.00000000000E+00  0.00000000000E+00  0.74505805969E-08  0.10566000000E+00  0.10566000000E+00 0.  1.
     999900   -1    0    0    0    0 -0.00000000000E+00 -0.00000000000E+00 -0.74505805969E-08  0.93827000000E+00  0.93827000000E+00 0. -1.
     999902    2    1    2    0    0 -0.13849229521E-01  0.18257981717E-01 -0.14283603592E-02  0.10209692668E+01  0.10207110505E+01 0.  0.
     999903    2    3    3    0    0  0.95747018392E-01 -0.69117901709E-01  0.46923432692E-01  0.12856589477E+00  0.19560288716E-01 0.  0.
         14    1    1    2    0    0  0.13849229521E-01 -0.18257981717E-01  0.14283603592E-02  0.22960733177E-01  0.00000000000E+00 0. -1.
     999901    1    3    3    0    0 -0.10959624791E+00  0.87375883426E-01 -0.48351793052E-01  0.89240337205E+00  0.88000000000E+00 0. -1.
        -11    1    4    4    0    0  0.45943112922E-01 -0.45144470308E-01  0.24508158227E-01  0.68918094613E-01  0.51100000000E-03 0.  1.
         11    1    4    4    0    0  0.49803905470E-01 -0.23973431401E-01  0.22415274465E-01  0.59647800157E-01  0.51100000000E-03 0. -1.
</event>
<event>
 8    1  0.1135368E+005  0.1043930E+01  0.7957747E-01            NaN
         13   -1    0    0    0    0  0.00000000000E+00  0.00000000000E+00  0.74505805969E-08  0.10566000000E+00  0.10566000000E+00 0. -1.
     999900   -1    0    0    0    0 -0.00000000000E+00 -0.00000000000E+00 -0.74505805969E-08  0.93827000000E+00  0.93827000000E+00 0. -1.
     999902    2    1    2    0    0  0.10182161549E-01  0.19616204241E-01 -0.93743893383E-02  0.10199226874E+01  0.10196401018E+01 0.  0.
     999903    2    3    3    0    0 -0.11741387349E+00  0.29542319099E-01  0.40787130556E-01  0.12925133725E+00  0.19584479941E-01 0.  0.
         14    1    1    2    0    0 -0.10182161549E-01 -0.19616204241E-01  0.93743893383E-02  0.24007312597E-01  0.00000000000E+00 0.  1.
     999901    1    3    3    0    0  0.12759603504E+00 -0.99261148583E-02 -0.50161519895E-01  0.89067135016E+00  0.88000000000E+00 0. -1.
        -11    1    4    4    0    0 -0.30135199112E-01  0.13622869490E-01  0.44297366431E-02  0.33370593138E-01  0.51100000000E-03 0. -1.
         11    1    4    4    0    0 -0.87278674380E-01  0.15919449609E-01  0.36357393913E-01  0.95880744107E-01  0.51100000000E-03 0.  1.
</event>
<event>
 8    1  0.1135368E+005  0.1043930E+01  0.7957747E-01            NaN
         13   -1    0    0    0    0  0.00000000000E+00  0.00000000000E+00  0.74505805969E-08  0.10566000000E+00  0.10566000000E+00 0. -1.
     999900   -1    0    0    0    0 -0.00000000000E+00 -0.00000000000E+00 -0.74505805969E-08  0.93827000000E+00  0.93827000000E+00 0. -1.
     999902    2    1    2    0    0  0.22555596605E-01  0.35348532553E-02  0.18559357472E-03  0.10210983428E+01  0.10208430541E+01 0.  0.
     999903    2    3    3    0    0 -0.94301375131E-02  0.11329866478E+00  0.63233801142E-01  0.13146568940E+00  0.18952544671E-01 0.  0.
         14    1    1    2    0    0 -0.22555596605E-01 -0.35348532553E-02 -0.18559357472E-03  0.22831657205E-01  0.00000000000E+00 0.  1.
     999901    1    3    3    0    0  0.31985734118E-01 -0.10976381152E+00 -0.63048207567E-01  0.88963265339E+00  0.88000000000E+00 0.  1.
        -11    1    4    4    0    0  0.32936069866E-02  0.40070364660E-01  0.15293320568E-01  0.43018934738E-01  0.51100000000E-03 0. -1.
         11    1    4    4    0    0 -0.12723744500E-01  0.73228300115E-01  0.47940480574E-01  0.88446754664E-01  0.51100000000E-03 0.  1.
</event>
<event>
 8    1  0.1135368E+005  0.1043930E+01  0.7957747E-01            NaN
         13   -1    0    0    0    0  0.00000000000E+00  0.00000000000E+00  0.74505805969E-08  0.10566000000E+00  0.10566000000E+00 0.  1.
     999900   -1    0    0    0    0 -0.00000000000E+00 -0.00000000000E+00 -0.74505805969E-08  0.93827000000E+00  0.93827000000E+00 0. -1.
     999902    2    1    2    0    0 -0.34353592801E-02 -0.11801994869E-01 -0.23214756924E-01  0.10176618879E+01  0.10173228122E+01 0.  0.
     999903    2    3    3    0    0 -0.96933169610E-01 -0.44610551222E-01  0.66644896924E-01  0.12755346789E+00  0.21028652716E-01 0.  0.
         14    1    1    2    0    0  0.34353592801E-02  0.11801994869E-01  0.23214756924E-01  0.26268112138E-01  0.00000000000E+00 0.  1.
     999901    1    3    3    0    0  0.93497810330E-01  0.32808556354E-01 -0.89859653848E-01  0.89010841997E+00  0.88000000000E+00 0.  1.
        -11    1    4    4    0    0 -0.66988840959E-01 -0.19778195278E-01  0.43336688052E-01  0.82201043021E-01  0.51100000000E-03 0. -1.
         11    1    4    4    0    0 -0.29944328651E-01 -0.24832355945E-01  0.23308208872E-01  0.45352424874E-01  0.51100000000E-03 0.  1.
</event>
<event>
 8    1  0.1135368E+005  0.1043930E+01  0.7957747E-01            NaN
         13   -1    0    0    0    0  0.00000000000E+00  0.00000000000E+00  0.74505805969E-08  0.10566000000E+00  0.10566000000E+00 0.  1.
     999900   -1    0    0    0    0 -0.00000000000E+00 -0.00000000000E+00 -0.74505805969E-08  0.93827000000E+00  0.93827000000E+00 0.  1.
     999902    2    1    2    0    0 -0.21072496340E-01  0.42334444747E-02 -0.62245313620E-02  0.10215532946E+01  0.10213081889E+01 0.  0.
     999903    2    3    3    0    0 -0.12934677000E+00  0.29890605562E-01  0.88023784355E-02  0.13441891003E+00  0.19155320365E-01 0.  0.
         14    1    1    2    0    0  0.21072496340E-01 -0.42334444747E-02  0.62245313620E-02  0.22376705405E-01  0.00000000000E+00 0.  1.
     999901    1    3    3    0    0  0.10827427366E+00 -0.25657161088E-01 -0.15026909797E-01  0.88713438456E+00  0.88000000000E+00 0.  1.
        -11    1    4    4    0    0 -0.69758398701E-01  0.24979729215E-01  0.87365658036E-03  0.74102938254E-01  0.51100000000E-03 0. -1.
         11    1    4    4    0    0 -0.59588371299E-01  0.49108763474E-02  0.79287218551E-02  0.60315971781E-01  0.51100000000E-03 0.  1.
</event>
<event>
 8    1  0.1135368E+005  0.1043930E+01  0.7957747E-01            NaN
         13   -1    0    0    0    0  0.00000000000E+00  0.00000000000E+00  0.74505805969E-08  0.10566000000E+00  0.10566000000E+00 0. -1.
     999900   -1    0    0    0    0 -0.00000000000E+00 -0.00000000000E+00 -0.74505805969E-08  0.93827000000E+00  0.93827000000E+00 0.  1.
     999902    2    1    2    0    0  0.17329009805E-01 -0.37024123941E-02  0.15354859530E-01  0.10204827368E+01  0.10202133316E+01 0.  0.
     999903    2    3    3    0    0 -0.62664482888E-01 -0.10626883391E+00 -0.33999142833E-01  0.12955364469E+00  0.20206500530E-01 0.  0.
         14    1    1    2    0    0 -0.17329009805E-01  0.37024123941E-02 -0.15354859530E-01  0.23447263157E-01  0.00000000000E+00 0.  1.
     999901    1    3    3    0    0  0.79993492693E-01  0.10256642151E+00  0.49354002364E-01  0.89092909215E+00  0.88000000000E+00 0. -1.
        -11    1    4    4    0    0 -0.28036218157E-01 -0.31446452079E-01 -0.16626247965E-01  0.45294614684E-01  0.51100000000E-03 0.  1.
         11    1    4    4    0    0 -0.34628264731E-01 -0.74822381828E-01 -0.17372894868E-01  0.84259030007E-01  0.51100000000E-03 0. -1.
</event>
<event>
 8    1  0.1135368E+005  0.1043930E+01  0.7957747E-01            NaN
         13   -1    0    0    0    0  0.00000000000E+00  0.00000000000E+00  0.74505805969E-08  0.10566000000E+00  0.10566000000E+00 0.  1.
     999900   -1    0    0    0    0 -0.00000000000E+00 -0.00000000000E+00 -0.74505805969E-08  0.93827000000E+00  0.93827000000E+00 0.  1.
     999902    2    1    2    0    0 -0.11025490912E-01 -0.20638017158E-01 -0.24551072901E-03  0.10205302248E+01  0.10202619224E+01 0.  0.
     999903    2    3    3    0    0  0.57518358525E-01 -0.55596078070E-01 -0.10218917948E+00  0.13130987143E+00  0.20009209609E-01 0.  0.
         14    1    1    2    0    0  0.11025490912E-01  0.20638017158E-01  0.24551072901E-03  0.23399775160E-01  0.00000000000E+00 0.  1.
     999901    1    3    3    0    0 -0.68543849437E-01  0.34958060913E-01  0.10194366875E+00  0.88922035341E+00  0.88000000000E+00 0. -1.
        -11    1    4    4    0    0  0.46252690665E-01 -0.33069196403E-01 -0.76638009560E-01  0.95428134085E-01  0.51100000000E-03 0.  1.
         11    1    4    4    0    0  0.11265667860E-01 -0.22526881667E-01 -0.25551169915E-01  0.35881737347E-01  0.51100000000E-03 0. -1.
</event>
<event>
 8    1  0.1135368E+005  0.1043930E+01  0.7957747E-01            NaN
         13   -1    0    0    0    0  0.00000000000E+00  0.00000000000E+00  0.74505805969E-08  0.10566000000E+00  0.10566000000E+00 0.  1.
     999900   -1    0    0    0    0 -0.00000000000E+00 -0.00000000000E+00 -0.74505805969E-08  0.93827000000E+00  0.93827000000E+00 0. -1.
     999902    2    1    2    0    0  0.19954039525E-01  0.53141963235E-02 -0.72576671710E-02  0.10220421470E+01  0.10218077472E+01 0.  0.
     999903    2    3    3    0    0  0.50993773917E-01 -0.10507940505E+00 -0.60457981149E-01  0.13300869109E+00  0.19851903573E-01 0.  0.
         14    1    1    2    0    0 -0.19954039525E-01 -0.53141963235E-02  0.72576671710E-02  0.21887852994E-01  0.00000000000E+00 0. -1.
     999901    1    3    3    0    0 -0.31039734392E-01  0.11039360138E+00  0.53200313978E-01  0.88903345592E+00  0.88000000000E+00 0.  1.
        -11    1    4    4    0    0  0.42494198015E-01 -0.72741455644E-01 -0.36186631790E-01  0.91688656199E-01  0.51100000000E-03 0. -1.
         11    1    4    4    0    0  0.84995759014E-02 -0.32337949408E-01 -0.24271349359E-01  0.41320034888E-01  0.51100000000E-03 0.  1.
</event>
<event>
 8    1  0.1135368E+005  0.1043930E+01  0.7957747E-01            NaN
         13   -1    0    0    0    0  0.00000000000E+00  0.00000000000E+00  0.74505805969E-08  0.10566000000E+00  0.10566000000E+00 0.  1.
     999900   -1    0    0    0    0 -0.00000000000E+00 -0.00000000000E+00 -0.74505805969E-08  0.93827000000E+00  0.93827000000E+00 0. -1.
     999902    2    1    2    0    0  0.13144788999E-01  0.70954000281E-02  0.19238658058E-01  0.10195731500E+01  0.10192821749E+01 0.  0.
     999903    2    3    3    0    0 -0.11842826957E+00 -0.35751877888E-01 -0.24226753797E-01  0.12770062489E+00  0.20422100601E-01 0.  0.
         14    1    1    2    0    0 -0.13144788999E-01 -0.70954000281E-02 -0.19238658058E-01  0.24356850027E-01  0.00000000000E+00 0. -1.
     999901    1    3    3    0    0  0.13157305857E+00  0.42847277916E-01  0.43465411854E-01  0.89187252508E+00  0.88000000000E+00 0.  1.
        -11    1    4    4    0    0 -0.68546580842E-01 -0.25839599512E-01 -0.53540272963E-02  0.73452334050E-01  0.51100000000E-03 0.  1.
         11    1    4    4    0    0 -0.49881688726E-01 -0.99122783752E-02 -0.18872726500E-01  0.54248290843E-01  0.51100000000E-03 0. -1.
</event>
<event>
 8    1  0.1135368E+005  0.1043930E+01  0.7957747E-01            NaN
         13   -1    0    0    0    0  0.00000000000E+00  0.00000000000E+00  0.74505805969E-08  0.10566000000E+00  0.10566000000E+00 0. -1.
     999900   -1    0    0    0    0 -0.00000000000E+00 -0.00000000000E+00 -0.74505805969E-08  0.93827000000E+00  0.93827000000E+00 0. -1.
     999902    2    1    2    0    0 -0.50142308415E-02  0.16651708440E-01  0.16148455142E-01  0.10201982805E+01  0.10199222211E+01 0.  0.
     999903    2    3    3    0    0 -0.97053068263E-01  0.81385983229E-01  0.34314829688E-01  0.13284734033E+00  0.20686516663E-01 0.  0.
         14    1    1    2    0    0  0.50142308415E-02 -0.16651708440E-01 -0.16148455142E-01  0.23731719457E-01  0.00000000000E+00 0.  1.
     999901    1    3    3    0    0  0.92038837422E-01 -0.64734274789E-01 -0.18166374545E-01  0.88735094021E+00  0.88000000000E+00 0. -1.
        -11    1    4    4    0    0 -0.27368559751E-01  0.19121721601E-01  0.18163429267E-01  0.38011177087E-01  0.51100000000E-03 0. -1.
         11    1    4    4    0    0 -0.69684508513E-01  0.62264261628E-01  0.16151400421E-01  0.94836163246E-01  0.51100000000E-03 0.  1.
</event>
<event>
 8    1  0.1135368E+005  0.1043930E+01  0.7957747E-01            NaN
         13   -1    0    0    0    0  0.00000000000E+00  0.00000000000E+00  0.74505805969E-08  0.10566000000E+00  0.10566000000E+00 0.  1.
     999900   -1    0    0    0    0 -0.00000000000E+00 -0.00000000000E+00 -0.74505805969E-08  0.93827000000E+00  0.93827000000E+00 0. -1.
     999902    2    1    2    0    0 -0.84618170346E-02  0.21755887161E-01 -0.16425331963E-02  0.10205287417E+01  0.10202604049E+01 0.  0.
     999903    2    3    3    0    0  0.88464096660E-01  0.88897672266E-01 -0.35990964527E-01  0.13200048287E+00  0.20002135307E-01 0.  0.
         14    1    1    2    0    0  0.84618170346E-02 -0.21755887161E-01  0.16425331963E-02  0.23401258278E-01  0.00000000000E+00 0. -1.
     999901    1    3    3    0    0 -0.96925913695E-01 -0.67141785105E-01  0.34348431331E-01  0.88852825886E+00  0.88000000000E+00 0. -1.
        -11    1    4    4    0    0  0.75712949901E-01  0.82018195398E-01 -0.36655870549E-01  0.11748765521E+00  0.51100000000E-03 0.  1.
         11    1    4    4    0    0  0.12751146760E-01  0.68794768676E-02  0.66490602159E-03  0.14512827660E-01  0.51100000000E-03 0. -1.
</event>
<event>
 7    1  0.1135368E+005  0.1043930E+01  0.7957747E-01            NaN
         13   -1    0    0    0    0  0.00000000000E+00  0.00000000000E+00  0.74505805969E-08  0.10566000000E+00  0.10566000000E+00 0. -1.
     999900   -1    0    0    0    0 -0.00000000000E+00 -0.00000000000E+00 -0.74505805969E-08  0.93827000000E+00  0.93827000000E+00 0. -1.
     999903    2    1    2    0    0 -0.58203240857E-01 -0.24623420626E-01  0.85415707935E-01  0.10804427311E+00  0.19590602327E-01 0.  0.
         14    1    1    2    0    0  0.50921301424E-01  0.96149989830E-02 -0.45181930514E-02  0.52017700954E-01  0.00000000000E+00 0. -1.
     999901    1    1    2    0    0  0.72819394338E-02  0.15008421643E-01 -0.80897514884E-01  0.88386802594E+00  0.88000000000E+00 0. -1.
        -11    1    3    3    0    0 -0.18317259217E-01 -0.89342597669E-02  0.13924944664E-01  0.24688219614E-01  0.51100000000E-03 0.  1.
         11    1    3    3    0    0 -0.39885981640E-01 -0.15689160859E-01  0.71490763271E-01  0.83356053493E-01  0.51100000000E-03 0. -1.
</event>
<event>
 8    1  0.1135368E+005  0.1043930E+01  0.7957747E-01            NaN
         13   -1    0    0    0    0  0.00000000000E+00  0.00000000000E+00  0.74505805969E-08  0.10566000000E+00  0.10566000000E+00 0. -1.
     999900   -1    0    0    0    0 -0.00000000000E+00 -0.00000000000E+00 -0.74505805969E-08  0.93827000000E+00  0.93827000000E+00 0.  1.
     999902    2    1    2    0    0 -0.16770794111E-01  0.22636251706E-02 -0.17428856413E-01  0.10196370263E+01  0.10193475938E+01 0.  0.
     999903    2    3    3    0    0 -0.94763626028E-01 -0.88506633280E-01  0.26196949809E-02  0.13131047260E+00  0.20542844472E-01 0.  0.
         14    1    1    2    0    0  0.16770794111E-01 -0.22636251706E-02  0.17428856413E-01  0.24292973674E-01  0.00000000000E+00 0. -1.
     999901    1    3    3    0    0  0.77992831917E-01  0.90770258450E-01 -0.20048551394E-01  0.88832655373E+00  0.88000000000E+00 0. -1.
        -11    1    4    4    0    0 -0.26598829085E-01 -0.28376867437E-01  0.98533039273E-02  0.40125964580E-01  0.51100000000E-03 0. -1.
         11    1    4    4    0    0 -0.68164796944E-01 -0.60129765843E-01 -0.72336089464E-02  0.91184508016E-01  0.51100000000E-03 0.  1.
</event>
<event>
 8    1  0.1135368E+005  0.1043930E+01  0.7957747E-01            NaN
         13   -1    0    0    0    0  0.00000000000E+00  0.00000000000E+00  0.74505805969E-08  0.10566000000E+00  0.10566000000E+00 0.  1.
     999900   -1    0    0    0    0 -0.00000000000E+00 -0.00000000000E+00 -0.74505805969E-08  0.93827000000E+00  0.93827000000E+00 0. -1.
     999902    2    1    2    0    0 -0.16651906337E-01 -0.75118684283E-02  0.14489809748E-01  0.10206132949E+01  0.10203469160E+01 0.  0.
     999903    2    3    3    0    0  0.95786329320E-01  0.83365923592E-01  0.15978711634E-02  0.12872354158E+00  0.21030902618E-01 0.  0.
         14    1    1    2    0    0  0.16651906337E-01  0.75118684283E-02 -0.14489809748E-01  0.23316705138E-01  0.00000000000E+00 0. -1.
     999901    1    3    3    0    0 -0.11243823566E+00 -0.90877792020E-01  0.12891938585E-01  0.89188975328E+00  0.88000000000E+00 0. -1.
        -11    1    4    4    0    0  0.84330058641E-01  0.63162064776E-01 -0.82724226123E-03  0.10536579458E+00  0.51100000000E-03 0.  1.
         11    1    4    4    0    0  0.11456270679E-01  0.20203858816E-01  0.24251134246E-02  0.23357747003E-01  0.51100000000E-03 0. -1.
</event>
<event>
 8    1  0.1135368E+005  0.1043930E+01  0.7957747E-01            NaN
         13   -1    0    0    0    0  0.00000000000E+00  0.00000000000E+00  0.74505805969E-08  0.10566000000E+00  0.10566000000E+00 0. -1.
     999900   -1    0    0    0    0 -0.00000000000E+00 -0.00000000000E+00 -0.74505805969E-08  0.93827000000E+00  0.93827000000E+00 0. -1.
     999902    2    1    2    0    0  0.61753880578E-02 -0.15270618617E-01  0.11453380379E-01  0.10238674196E+01  0.10236708386E+01 0.  0.
     999903    2    3    3    0    0 -0.28930636141E-01  0.35987669486E-01  0.12463351142E+00  0.13444649163E+00  0.20254700217E-01 0.  0.
         14    1    1    2    0    0 -0.61753880578E-02  0.15270618617E-01 -0.11453380379E-01  0.20062580410E-01  0.00000000000E+00 0.  1.
     999901    1    3    3    0    0  0.35106024199E-01 -0.51258288103E-01 -0.11318013104E+00  0.88942092796E+00  0.88000000000E+00 0. -1.
        -11    1    4    4    0    0 -0.17533398926E-01  0.67530675998E-02  0.53232700177E-01  0.56453569320E-01  0.51100000000E-03 0.  1.
         11    1    4    4    0    0 -0.11397237215E-01  0.29234601886E-01  0.71400811239E-01  0.77992922308E-01  0.51100000000E-03 0. -1.
</event>
<event>
 8    1  0.1135368E+005  0.1043930E+01  0.7957747E-01            NaN
         13   -1    0    0    0    0  0.00000000000E+00  0.00000000000E+00  0.74505805969E-08  0.10566000000E+00  0.10566000000E+00 0.  1.
     999900   -1    0    0    0    0 -0.00000000000E+00 -0.00000000000E+00 -0.74505805969E-08  0.93827000000E+00  0.93827000000E+00 0.  1.
     999902    2    1    2    0    0 -0.17557089033E-01 -0.13002942567E-01 -0.67348574533E-02  0.10210676686E+01  0.10208116857E+01 0.  0.
     999903    2    3    3    0    0  0.12346168964E+00  0.20171543632E-01 -0.24190170238E-01  0.12905223692E+00  0.20485007612E-01 0.  0.
         14    1    1    2    0    0  0.17557089033E-01  0.13002942567E-01  0.67348574533E-02  0.22862331369E-01  0.00000000000E+00 0.  1.
     999901    1    3    3    0    0 -0.14101877867E+00 -0.33174486199E-01  0.17455312785E-01  0.89201543171E+00  0.88000000000E+00 0.  1.
        -11    1    4    4    0    0  0.24275289350E-01  0.51524808692E-02 -0.13257211905E-01  0.28139874211E-01  0.51100000000E-03 0.  1.
         11    1    4    4    0    0  0.99186400286E-01  0.15019062763E-01 -0.10932958333E-01  0.10091236271E+00  0.51100000000E-03 0. -1.
</event>
<event>
 8    1  0.1135368E+005  0.1043930E+01  0.7957747E-01            NaN
         13   -1    0    0    0    0  0.00000000000E+00  0.00000000000E+00  0.74505805969E-08  0.10566000000E+00  0.10566000000E+00 0.  1.
     999900   -1    0    0    0    0 -0.00000000000E+00 -0.00000000000E+00 -0.74505805969E-08  0.93827000000E+00  0.93827000000E+00 0.  1.
     999902    2    1    2    0    0  0.19969324824E-01 -0.52128045960E-02 -0.10123541979E-01  0.10209423214E+01  0.10206834917E+01 0.  0.
     999903    2    3    3    0    0 -0.42297046388E-01 -0.72631860683E-01 -0.99758267806E-01  0.13164101464E+00  0.17697949626E-01 0.  0.
         14    1    1    2    0    0 -0.19969324824E-01  0.52128045960E-02  0.10123541979E-01  0.22987678610E-01  0.00000000000E+00 0.  1.
     999901    1    3    3    0    0  0.62266371212E-01  0.67419056087E-01  0.89634725828E-01  0.88930130675E+00  0.88000000000E+00 0. -1.
        -11    1    4    4    0    0 -0.85624900838E-02 -0.31185326174E-01 -0.34454465290E-01  0.47256873621E-01  0.51100000000E-03 0. -1.
         11    1    4    4    0    0 -0.33734556304E-01 -0.41446534510E-01 -0.65303802516E-01  0.84384141022E-01  0.51100000000E-03 0.  1.
</event>
<event>
 8    1  0.1135368E+005  0.1043930E+01  0.7957747E-01            NaN
         13   -1    0    0    0    0  0.00000000000E+00  0.00000000000E+00  0.74505805969E-08  0.10566000000E+00  0.10566000000E+00 0.  1.
     999900   -1    0    0    0    0 -0.00000000000E+00 -0.00000000000E+00 -0.74505805969E-08  0.93827000000E+00  0.93827000000E+00 0.  1.
     999902    2    1    2    0    0 -0.59261887196E-04 -0.20480256246E-01  0.97258235222E-02  0.10212576368E+01  0.10210059377E+01 0.  0.
     999903    2    3    3    0    0 -0.95389012751E-01  0.83414391470E-01 -0.17776302675E-01  0.12960847592E+00  0.20623666906E-01 0.  0.
         14    1    1    2    0    0  0.59261887196E-04  0.20480256246E-01 -0.97258235222E-02  0.22672363156E-01  0.00000000000E+00 0.  1.
     999901    1    3    3    0    0  0.95329750864E-01 -0.10389464772E+00  0.27502126197E-01  0.89164916092E+00  0.88000000000E+00 0. -1.
        -11    1    4    4    0    0 -0.33602583409E-01  0.19094473172E-01  0.60655702202E-04  0.38652261481E-01  0.51100000000E-03 0.  1.
         11    1    4    4    0    0 -0.61786429343E-01  0.64319918298E-01 -0.17836958377E-01  0.90956214444E-01  0.51100000000E-03 0. -1.
</event>
<event>
 8    1  0.1135368E+005  0.1043930E+01  0.7957747E-01            NaN
         13   -1    0    0    0    0  0.00000000000E+00  0.00000000000E+00  0.74505805969E-08  0.10566000000E+00  0.10566000000E+00 0. -1.
     999900   -1    0    0    0    0 -0.00000000000E+00 -0.00000000000E+00 -0.74505805969E-08  0.93827000000E+00  0.93827000000E+00 0.  1.
     999902    2    1    2    0    0 -0.18759198844E-01  0.11751860630E-01  0.77519882383E-02  0.10204756381E+01  0.10202060679E+01 0.  0.
     999903    2    3    3    0    0 -0.16354470499E-02 -0.11574113629E+00 -0.51531136828E-01  0.12914956083E+00  0.25009311943E-01 0.  0.
         14    1    1    2    0    0  0.18759198844E-01 -0.11751860630E-01 -0.77519882383E-02  0.23454361880E-01  0.00000000000E+00 0.  1.
     999901    1    3    3    0    0 -0.17123751794E-01  0.12749299692E+00  0.59283125066E-01  0.89132607729E+00  0.88000000000E+00 0. -1.
        -11    1    4    4    0    0 -0.11250280722E-01 -0.71364872455E-01 -0.24421487039E-01  0.76263910121E-01  0.51100000000E-03 0.  1.
         11    1    4    4    0    0  0.96148336723E-02 -0.44376263833E-01 -0.27109649789E-01  0.52885650710E-01  0.51100000000E-03 0. -1.
</event>
<event>
 8    1  0.1135368E+005  0.1043930E+01  0.7957747E-01            NaN
         13   -1    0    0    0    0  0.00000000000E+00  0.00000000000E+00  0.74505805969E-08  0.10566000000E+00  0.10566000000E+00 0. -1.
     999900   -1    0    0    0    0 -0.00000000000E+00 -0.00000000000E+00 -0.74505805969E-08  0.93827000000E+00  0.93827000000E+00 0. -1.
     999902    2    1    2    0    0 -0.37686192266E-02 -0.18289275823E-01  0.14230397424E-01  0.10204522592E+01  0.10201821450E+01 0.  0.
     999903    2    3    3    0    0  0.97256128572E-02 -0.23051221546E-01 -0.12529530106E+00  0.12934497558E+00  0.20131166890E-01 0.  0.
         14    1    1    2    0    0  0.37686192266E-02  0.18289275823E-01 -0.14230397424E-01  0.23477740774E-01  0.00000000000E+00 0.  1.
     999901    1    3    3    0    0 -0.13494232084E-01  0.47619457234E-02  0.13952569848E+00  0.89110728364E+00  0.88000000000E+00 0.  1.
        -11    1    4    4    0    0  0.61238030399E-02 -0.60904717904E-03 -0.57682926013E-01  0.58012524308E-01  0.51100000000E-03 0.  1.
         11    1    4    4    0    0  0.36018098173E-02 -0.22442174367E-01 -0.67612375047E-01  0.71332451274E-01  0.51100000000E-03 0. -1.
</event>
<event>
 8    1  0.1135368E+005  0.1043930E+01  0.7957747E-01            NaN
         13   -1    0    0    0    0  0.00000000000E+00  0.00000000000E+00  0.74505805969E-08  0.10566000000E+00  0.10566000000E+00 0.  1.
     999900   -1    0    0    0    0 -0.00000000000E+00 -0.00000000000E+00 -0.74505805969E-08  0.93827000000E+00  0.93827000000E+00 0. -1.
     999902    2    1    2    0    0  0.58734137827E-02  0.14690988971E-01  0.17514403672E-01  0.10203275323E+01  0.10200545067E+01 0.  0.
     999903    2    3    3    0    0 -0.11768577200E+00  0.41393742332E-01 -0.30555317495E-01  0.12999579213E+00  0.20047336664E-01 0.  0.
         14    1    1    2    0    0 -0.58734137827E-02 -0.14690988971E-01 -0.17514403672E-01  0.23602467719E-01  0.00000000000E+00 0. -1.
     999901    1    3    3    0    0  0.12355918579E+00 -0.26702753361E-01  0.48069721168E-01  0.89033174015E+00  0.88000000000E+00 0. -1.
        -11    1    4    4    0    0 -0.66533764738E-01  0.21532830612E-01 -0.27139450368E-01  0.75014768757E-01  0.51100000000E-03 0.  1.
         11    1    4    4    0    0 -0.51152007267E-01  0.19860911720E-01 -0.34158671274E-02  0.54981023372E-01  0.51100000000E-03 0. -1.
</event>
<event>
 7    1  0.1191906E+005  0.1043930E+01  0.7957747E-01            NaN
         13   -1    0    0    0    0  0.00000000000E+00  0.00000000000E+00  0.74505805969E-08  0.10566000000E+00  0.10566000000E+00 0.  1.
     999900   -1    0    0    0    0 -0.00000000000E+00 -0.00000000000E+00 -0.74505805969E-08  0.93827000000E+00  0.93827000000E+00 0. -1.
     999903    2    1    2    0    0  0.52456131441E-01 -0.56863385436E-01 -0.73138492290E-01  0.10894591409E+00  0.23127533676E-01 0.  0.
         14    1    1    2    0    0 -0.20863970677E-01 -0.10748540777E-01  0.45728876562E-01  0.51400063744E-01  0.00000000000E+00 0.  1.
     999901    1    1    2    0    0 -0.31592160764E-01  0.67611926214E-01  0.27409615728E-01  0.88358402216E+00  0.88000000000E+00 0.  1.
        -11    1    3    3    0    0  0.21923665948E-01 -0.12088528321E-01 -0.13837183993E-01  0.28609586286E-01  0.51100000000E-03 0.  1.
         11    1    3    3    0    0  0.30532465494E-01 -0.44774857115E-01 -0.59301308297E-01  0.80336327807E-01  0.51100000000E-03 0. -1.
</event>
<event>
 8    1  0.1135368E+005  0.1043930E+01  0.7957747E-01            NaN
         13   -1    0    0    0    0  0.00000000000E+00  0.00000000000E+00  0.74505805969E-08  0.10566000000E+00  0.10566000000E+00 0. -1.
     999900   -1    0    0    0    0 -0.00000000000E+00 -0.00000000000E+00 -0.74505805969E-08  0.93827000000E+00  0.93827000000E+00 0. -1.
     999902    2    1    2    0    0 -0.78733371922E-02  0.13968462798E-01  0.15216014792E-01  0.10218249215E+01  0.10215857945E+01 0.  0.
     999903    2    3    3    0    0 -0.88702434937E-01  0.92901263940E-01  0.32641131348E-01  0.13443134201E+00  0.22529435300E-01 0.  0.
         14    1    1    2    0    0  0.78733371922E-02 -0.13968462798E-01 -0.15216014792E-01  0.22105078548E-01  0.00000000000E+00 0.  1.
     999901    1    3    3    0    0  0.80829097745E-01 -0.78932801142E-01 -0.17425116556E-01  0.88739357944E+00  0.88000000000E+00 0.  1.
        -11    1    4    4    0    0 -0.23807679132E-01  0.40484608518E-01  0.10676668260E-01  0.48167016501E-01  0.51100000000E-03 0. -1.
         11    1    4    4    0    0 -0.64894755805E-01  0.52416655422E-01  0.21964463088E-01  0.86264325514E-01  0.51100000000E-03 0.  1.
</event>
<event>
 8    1  0.1135368E+005  0.1043930E+01  0.7957747E-01            NaN
         13   -1    0    0    0    0  0.00000000000E+00  0.00000000000E+00  0.74505805969E-08  0.10566000000E+00  0.10566000000E+00 0. -1.
     999900   -1    0    0    0    0 -0.00000000000E+00 -0.00000000000E+00 -0.74505805969E-08  0.93827000000E+00  0.93827000000E+00 0.  1.
     999902    2    1    2    0    0  0.14446930918E-01  0.17980193736E-01 -0.93361770969E-02  0.10190469660E+01  0.10187431244E+01 0.  0.
     999903    2    3    3    0    0 -0.11249657239E+00 -0.38366158286E-01  0.38929316341E-01  0.12684792861E+00  0.21153354781E-01 0.  0.
         14    1    1    2    0    0 -0.14446930918E-01 -0.17980193736E-01  0.93361770969E-02  0.24883034029E-01  0.00000000000E+00 0. -1.
     999901    1    3    3    0    0  0.12694350331E+00  0.56346352022E-01 -0.48265493438E-01  0.89219903737E+00  0.88000000000E+00 0. -1.
        -11    1    4    4    0    0 -0.43711077075E-01 -0.24365520416E-01  0.10641180484E-01  0.51164760209E-01  0.51100000000E-03 0. -1.
         11    1    4    4    0    0 -0.68785495320E-01 -0.14000637870E-01  0.28288135858E-01  0.75683168396E-01  0.51100000000E-03 0.  1.
</event>
<event>
 8    1  0.1135368E+005  0.1043930E+01  0.7957747E-01            NaN
         13   -1    0    0    0    0  0.00000000000E+00  0.00000000000E+00  0.74505805969E-08  0.10566000000E+00  0.10566000000E+00 0. -1.
     999900   -1    0    0    0    0 -0.00000000000E+00 -0.00000000000E+00 -0.74505805969E-08  0.93827000000E+00  0.93827000000E+00 0. -1.
     999902    2    1    2    0    0  0.21990463377E-01 -0.53541962781E-02  0.54667214590E-02  0.10206462516E+01  0.10203806338E+01 0.  0.
     999903    2    3    3    0    0 -0.87944309152E-01 -0.61068041022E-01  0.69543613351E-01  0.12975033465E+00  0.23137157097E-01 0.  0.
         14    1    1    2    0    0 -0.21990463377E-01  0.53541962781E-02 -0.54667214590E-02  0.23283748428E-01  0.00000000000E+00 0. -1.
     999901    1    3    3    0    0  0.10993477253E+00  0.55713844744E-01 -0.64076891892E-01  0.89089591692E+00  0.88000000000E+00 0.  1.
        -11    1    4    4    0    0 -0.60599235840E-01 -0.53921546315E-01  0.54531907687E-01  0.97743493995E-01  0.51100000000E-03 0.  1.
         11    1    4    4    0    0 -0.27345073312E-01 -0.71464947067E-02  0.15011705664E-01  0.32006840659E-01  0.51100000000E-03 0. -1.
</event>
<event>
 8    1  0.1135368E+005  0.1043930E+01  0.7957747E-01            NaN
         13   -1    0    0    0    0  0.00000000000E+00  0.00000000000E+00  0.74505805969E-08  0.10566000000E+00  0.10566000000E+00 0.  1.
     999900   -1    0    0    0    0 -0.00000000000E+00 -0.00000000000E+00 -0.74505805969E-08  0.93827000000E+00  0.93827000000E+00 0.  1.
     999902    2    1    2    0    0 -0.12265119928E-01 -0.10039721617E-01 -0.18861959428E-01  0.10192925754E+01  0.10189947751E+01 0.  0.
     999903    2    3    3    0    0 -0.29128195652E-01  0.33302579994E-03 -0.12780147774E+00  0.13235414696E+00  0.18325932916E-01 0.  0.
         14    1    1    2    0    0  0.12265119928E-01  0.10039721617E-01  0.18861959428E-01  0.24637424591E-01  0.00000000000E+00 0.  1.
     999901    1    3    3    0    0  0.16863075724E-01 -0.10372747417E-01  0.10893951831E+00  0.88693842845E+00  0.88000000000E+00 0. -1.
        -11    1    4    4    0    0 -0.13929743861E-01  0.92663824872E-02 -0.59038757075E-01  0.61365622024E-01  0.51100000000E-03 0.  1.
         11    1    4    4    0    0 -0.15198451790E-01 -0.89333566873E-02 -0.68762720662E-01  0.70988524935E-01  0.51100000000E-03 0. -1.
</event>
<event>
 8    1  0.1135368E+005  0.1043930E+01  0.7957747E-01            NaN
         13   -1    0    0    0    0  0.00000000000E+00  0.00000000000E+00  0.74505805969E-08  0.10566000000E+00  0.10566000000E+00 0.  1.
     999900   -1    0    0    0    0 -0.00000000000E+00 -0.00000000000E+00 -0.74505805969E-08  0.93827000000E+00  0.93827000000E+00 0.  1.
     999902    2    1    2    0    0  0.22553334913E-01 -0.32753573491E-02 -0.16259969009E-01  0.10159341526E+01  0.10155483420E+01 0.  0.
     999903    2    3    3    0    0 -0.76074349199E-01 -0.36478502271E-01 -0.92187635543E-01  0.12655522351E+00  0.19991916261E-01 0.  0.
         14    1    1    2    0    0 -0.22553334913E-01  0.32753573491E-02  0.16259969009E-01  0.27995847435E-01  0.00000000000E+00 0.  1.
     999901    1    3    3    0    0  0.98627684112E-01  0.33203144922E-01  0.75927666534E-01  0.88937892906E+00  0.88000000000E+00 0.  1.
        -11    1    4    4    0    0 -0.53370010727E-01 -0.16528066891E-01 -0.66747678511E-01  0.87046244880E-01  0.51100000000E-03 0.  1.
         11    1    4    4    0    0 -0.22704338472E-01 -0.19950435380E-01 -0.25439957033E-01  0.39508978627E-01  0.51100000000E-03 0. -1.
</event>
<event>
 8    1  0.1340843E+005  0.1043930E+01  0.7957747E-01            NaN
         13   -1    0    0    0    0  0.00000000000E+00  0.00000000000E+00  0.74505805969E-08  0.10566000000E+00  0.10566000000E+00 0.  1.
     999900   -1    0    0    0    0 -0.00000000000E+00 -0.00000000000E+00 -0.74505805969E-08  0.93827000000E+00  0.93827000000E+00 0.  1.
     999902    2    1    2    0    0  0.66769395434E-02  0.25801915847E-01  0.26841688902E-01  0.10061041273E+01  0.10053928179E+01 0.  0.
     999903    2    3    3    0    0 -0.58073970000E-01  0.98862023777E-01 -0.25559725917E-01  0.11915634533E+00  0.19966204091E-01 0.  0.
         14    1    1    2    0    0 -0.66769395434E-02 -0.25801915847E-01 -0.26841688902E-01  0.37825872708E-01  0.00000000000E+00 0. -1.
     999901    1    3    3    0    0  0.64750909544E-01 -0.73060107930E-01  0.52401414819E-01  0.88694778196E+00  0.88000000000E+00 0. -1.
        -11    1    4    4    0    0 -0.36271197806E-01  0.45616719513E-01 -0.70103987809E-02  0.58701718046E-01  0.51100000000E-03 0. -1.
         11    1    4    4    0    0 -0.21802772194E-01  0.53245304264E-01 -0.18549327137E-01  0.60454627281E-01  0.51100000000E-03 0.  1.
</event>
<event>
 8    1  0.1135368E+005  0.1043930E+01  0.7957747E-01            NaN
         13   -1    0    0    0    0  0.00000000000E+00  0.00000000000E+00  0.74505805969E-08  0.10566000000E+00  0.10566000000E+00 0.  1.
     999900   -1    0    0    0    0 -0.00000000000E+00 -0.00000000000E+00 -0.74505805969E-08  0.93827000000E+00  0.93827000000E+00 0. -1.
     999902    2    1    2    0    0 -0.20014585043E-01  0.59883937312E-02 -0.95090094444E-02  0.10209764440E+01  0.10207183908E+01 0.  0.
     999903    2    3    3    0    0 -0.99035045836E-01 -0.40500282227E-01  0.75093271041E-01  0.13217783006E+00  0.19589952533E-01 0.  0.
         14    1    1    2    0    0  0.20014585043E-01 -0.59883937312E-02  0.95090094444E-02  0.22953556032E-01  0.00000000000E+00 0.  1.
     999901    1    3    3    0    0  0.79020460793E-01  0.46488675958E-01 -0.84602280485E-01  0.88879861391E+00  0.88000000000E+00 0. -1.
        -11    1    4    4    0    0 -0.57902740354E-01 -0.33735569135E-01  0.48611875518E-01  0.82790044859E-01  0.51100000000E-03 0. -1.
         11    1    4    4    0    0 -0.41132305482E-01 -0.67647130919E-02  0.26481395523E-01  0.49387785204E-01  0.51100000000E-03 0.  1.
</event>
<event>
 8    1  0.1135368E+005  0.1043930E+01  0.7957747E-01            NaN
         13   -1    0    0    0    0  0.00000000000E+00  0.00000000000E+00  0.74505805969E-08  0.10566000000E+00  0.10566000000E+00 0. -1.
     999900   -1    0    0    0    0 -0.00000000000E+00 -0.00000000000E+00 -0.74505805969E-08  0.93827000000E+00  0.93827000000E+00 0. -1.
     999902    2    1    2    0    0 -0.13102679100E-02 -0.15564367388E-01  0.15652478381E-01  0.10218174150E+01  0.10215781239E+01 0.  0.
     999903    2    3    3    0    0 -0.73952043251E-01 -0.10480309722E+00 -0.29906724036E-01  0.13315773926E+00  0.19595343727E-01 0.  0.
         14    1    1    2    0    0  0.13102679100E-02  0.15564367388E-01 -0.15652478381E-01  0.22112584961E-01  0.00000000000E+00 0.  1.
     999901    1    3    3    0    0  0.72641775341E-01  0.89238729828E-01  0.45559202417E-01  0.88865967578E+00  0.88000000000E+00 0.  1.
        -11    1    4    4    0    0 -0.13481981698E-01 -0.33520064042E-01 -0.55360192930E-02  0.36554988093E-01  0.51100000000E-03 0.  1.
         11    1    4    4    0    0 -0.60470061554E-01 -0.71283033174E-01 -0.24370704743E-01  0.96602751169E-01  0.51100000000E-03 0. -1.
</event>
<event>
 8    1  0.1135368E+005  0.1043930E+01  0.7957747E-01            NaN
         13   -1    0    0    0    0  0.00000000000E+00  0.00000000000E+00  0.74505805969E-08  0.10566000000E+00  0.10566000000E+00 0.  1.
     999900   -1    0    0    0    0 -0.00000000000E+00 -0.00000000000E+00 -0.74505805969E-08  0.93827000000E+00  0.93827000000E+00 0. -1.
     999902    2    1    2    0    0  0.20778320998E-01  0.24420660755E-02 -0.10404023737E-01  0.10205645122E+01  0.10202970046E+01 0.  0.
     999903    2    3    3    0    0  0.95633280060E-01  0.79680028056E-01 -0.45953132390E-01  0.13330316018E+00  0.12783231625E-01 0.  0.
         14    1    1    2    0    0 -0.20778320998E-01 -0.24420660755E-02  0.10404023737E-01  0.23365487800E-01  0.00000000000E+00 0.  1.
     999901    1    3    3    0    0 -0.74854959061E-01 -0.77237961981E-01  0.35549108653E-01  0.88726135202E+00  0.88000000000E+00 0. -1.
        -11    1    4    4    0    0  0.11420750282E-01  0.13491551766E-01 -0.31831098947E-02  0.17967994202E-01  0.51100000000E-03 0.  1.
         11    1    4    4    0    0  0.84212529778E-01  0.66188476290E-01 -0.42770022496E-01  0.11533516598E+00  0.51100000000E-03 0. -1.
</event>
<event>
 8    1  0.1135368E+005  0.1043930E+01  0.7957747E-01            NaN
         13   -1    0    0    0    0  0.00000000000E+00  0.00000000000E+00  0.74505805969E-08  0.10566000000E+00  0.10566000000E+00 0.  1.
     999900   -1    0    0    0    0 -0.00000000000E+00 -0.00000000000E+00 -0.74505805969E-08  0.93827000000E+00  0.93827000000E+00 0. -1.
     999902    2    1    2    0    0  0.15869452645E-02 -0.24762647674E-01  0.16277204342E-01  0.10142541766E+01  0.10138199447E+01 0.  0.
     999903    2    3    3    0    0  0.78719842193E-01 -0.89032123260E-01  0.43266607539E-01  0.12813427658E+00  0.20563583793E-01 0.  0.
         14    1    1    2    0    0 -0.15869452645E-02  0.24762647674E-01 -0.16277204342E-01  0.29675823430E-01  0.00000000000E+00 0. -1.
     999901    1    3    3    0    0 -0.77132896929E-01  0.64269475587E-01 -0.26989403197E-01  0.88611989999E+00  0.88000000000E+00 0.  1.
        -11    1    4    4    0    0  0.17762502487E-01 -0.14828952838E-01  0.87271911958E-03  0.23160895849E-01  0.51100000000E-03 0. -1.
         11    1    4    4    0    0  0.60957339706E-01 -0.74203170423E-01  0.42393888419E-01  0.10497338073E+00  0.51100000000E-03 0.  1.
</event>
<event>
 8    1  0.1135368E+005  0.1043930E+01  0.7957747E-01            NaN
         13   -1    0    0    0    0  0.00000000000E+00  0.00000000000E+00  0.74505805969E-08  0.10566000000E+00  0.10566000000E+00 0.  1.
     999900   -1    0    0    0    0 -0.00000000000E+00 -0.00000000000E+00 -0.74505805969E-08  0.93827000000E+00  0.93827000000E+00 0.  1.
     999902    2    1    2    0    0  0.20237124777E-01 -0.89565526256E-02 -0.80162802948E-02  0.10203923322E+01  0.10201208212E+01 0.  0.
     999903    2    3    3    0    0 -0.49717916435E-01  0.93342713414E-03  0.11706993576E+00  0.12874325275E+00  0.19917649715E-01 0.  0.
         14    1    1    2    0    0 -0.20237124777E-01  0.89565526256E-02  0.80162802948E-02  0.23537667768E-01  0.00000000000E+00 0. -1.
     999901    1    3    3    0    0  0.69955041212E-01 -0.98899797597E-02 -0.12508621605E+00  0.89164907948E+00  0.88000000000E+00 0. -1.
        -11    1    4    4    0    0 -0.25979935232E-01 -0.84115043362E-02  0.49824375735E-01  0.56819362706E-01  0.51100000000E-03 0.  1.
         11    1    4    4    0    0 -0.23737981202E-01  0.93449314704E-02  0.67245560022E-01  0.71923890047E-01  0.51100000000E-03 0. -1.
</event>
<event>
 8    1  0.1135368E+005  0.1043930E+01  0.7957747E-01            NaN
         13   -1    0    0    0    0  0.00000000000E+00  0.00000000000E+00  0.74505805969E-08  0.10566000000E+00  0.10566000000E+00 0.  1.
     999900   -1    0    0    0    0 -0.00000000000E+00 -0.00000000000E+00 -0.74505805969E-08  0.93827000000E+00  0.93827000000E+00 0.  1.
     999902    2    1    2    0    0 -0.18147760144E-01 -0.10070552321E-01 -0.93907821814E-02  0.10211496573E+01  0.10208955278E+01 0.  0.
     999903    2    3    3    0    0 -0.11280820881E+00  0.54695751793E-02 -0.68923738289E-01  0.13393701711E+00  0.20809483970E-01 0.  0.
         14    1    1    2    0    0  0.18147760144E-01  0.10070552321E-01  0.93907821814E-02  0.22780342672E-01  0.00000000000E+00 0.  1.
     999901    1    3    3    0    0  0.94660448671E-01 -0.15540127500E-01  0.59532956108E-01  0.88721264022E+00  0.88000000000E+00 0. -1.
        -11    1    4    4    0    0 -0.41192386272E-01 -0.58624688695E-02 -0.18024307821E-01  0.45346642891E-01  0.51100000000E-03 0. -1.
         11    1    4    4    0    0 -0.71615822543E-01  0.11332044049E-01 -0.50899430468E-01  0.88590374216E-01  0.51100000000E-03 0.  1.
</event>
<event>
 8    1  0.1135368E+005  0.1043930E+01  0.7957747E-01            NaN
         13   -1    0    0    0    0  0.00000000000E+00  0.00000000000E+00  0.74505805969E-08  0.10566000000E+00  0.10566000000E+00 0. -1.
     999900   -1    0    0    0    0 -0.00000000000E+00 -0.00000000000E+00 -0.74505805969E-08  0.93827000000E+00  0.93827000000E+00 0. -1.
     999902    2    1    2    0    0  0.71524370421E-02 -0.50850242621E-02  0.20739531679E-01  0.10214101643E+01  0.10211618778E+01 0.  0.
     999903    2    3    3    0    0  0.66503471681E-02 -0.12684794092E+00  0.33948780441E-01  0.13292778165E+00  0.19561395820E-01 0.  0.
         14    1    1    2    0    0 -0.71524370421E-02  0.50850242621E-02 -0.20739531679E-01  0.22519835737E-01  0.00000000000E+00 0.  1.
     999901    1    3    3    0    0  0.50208987399E-03  0.12176291666E+00 -0.13209248762E-01  0.88848238262E+00  0.88000000000E+00 0.  1.
        -11    1    4    4    0    0 -0.40184635901E-02 -0.54164376417E-01  0.74185628391E-02  0.54819922636E-01  0.51100000000E-03 0. -1.
         11    1    4    4    0    0  0.10668810758E-01 -0.72683564505E-01  0.26530217602E-01  0.78107859010E-01  0.51100000000E-03 0.  1.
</event>
<event>
 8    1  0.1135368E+005  0.1043930E+01  0.7957747E-01            NaN
         13   -1    0    0    0    0  0.00000000000E+00  0.00000000000E+00  0.74505805969E-08  0.10566000000E+00  0.10566000000E+00 0.  1.
     999900   -1    0    0    0    0 -0.00000000000E+00 -0.00000000000E+00 -0.74505805969E-08  0.93827000000E+00  0.93827000000E+00 0. -1.
     999902    2    1    2    0    0 -0.21395260332E-01 -0.43915965421E-02 -0.89470758441E-02  0.10203271728E+01  0.10200541388E+01 0.  0.
     999903    2    3    3    0    0  0.11538536758E+00  0.38602578072E-01  0.33465400350E-01  0.12771513091E+00  0.19679419618E-01 0.  0.
         14    1    1    2    0    0  0.21395260332E-01  0.43915965421E-02  0.89470758441E-02  0.23602827183E-01  0.00000000000E+00 0.  1.
     999901    1    3    3    0    0 -0.13678062791E+00 -0.42994174614E-01 -0.42412476195E-01  0.89261204191E+00  0.88000000000E+00 0. -1.
        -11    1    4    4    0    0  0.20019975212E-01 -0.38815339130E-03  0.28427382771E-02  0.20230975075E-01  0.51100000000E-03 0. -1.
         11    1    4    4    0    0  0.95365392369E-01  0.38990731463E-01  0.30622662073E-01  0.10748415583E+00  0.51100000000E-03 0.  1.
</event>
<event>
 8    1  0.1135368E+005  0.1043930E+01  0.7957747E-01            NaN
         13   -1    0    0    0    0  0.00000000000E+00  0.00000000000E+00  0.74505805969E-08  0.10566000000E+00  0.10566000000E+00 0.  1.
     999900   -1    0    0    0    0 -0.00000000000E+00 -0.00000000000E+00 -0.74505805969E-08  0.93827000000E+00  0.93827000000E+00 0. -1.
     999902    2    1    2    0    0  0.13218013405E-02  0.37300539256E-02  0.23323936464E-01  0.10202727290E+01  0.10199984191E+01 0.  0.
     999903    2    3    3    0    0  0.42967533809E-02 -0.21448204791E-03  0.13201788918E+00  0.13357166035E+00  0.19853395046E-01 0.  0.
         14    1    1    2    0    0 -0.13218013405E-02 -0.37300539256E-02 -0.23323936464E-01  0.23657271044E-01  0.00000000000E+00 0. -1.
     999901    1    3    3    0    0 -0.29749520404E-02  0.39445359735E-02 -0.10869395271E+00  0.88670106860E+00  0.88000000000E+00 0. -1.
        -11    1    4    4    0    0  0.11339264543E-01 -0.18984792367E-03  0.10621881127E+00  0.10682374245E+00  0.51100000000E-03 0. -1.
         11    1    4    4    0    0 -0.70425111623E-02 -0.24634124239E-04  0.25799077911E-01  0.26747917907E-01  0.51100000000E-03 0.  1.
</event>
<event>
 8    1  0.1135368E+005  0.1043930E+01  0.7957747E-01            NaN
         13   -1    0    0    0    0  0.00000000000E+00  0.00000000000E+00  0.74505805969E-08  0.10566000000E+00  0.10566000000E+00 0.  1.
     999900   -1    0    0    0    0 -0.00000000000E+00 -0.00000000000E+00 -0.74505805969E-08  0.93827000000E+00  0.93827000000E+00 0. -1.
     999902    2    1    2    0    0  0.22565464228E-01 -0.96274679813E-02  0.16508596405E-02  0.10193411071E+01  0.10190444931E+01 0.  0.
     999903    2    3    3    0    0  0.39518090708E-01  0.51194584618E-01  0.11137464613E+00  0.13028204106E+00  0.19660453572E-01 0.  0.
         14    1    1    2    0    0 -0.22565464228E-01  0.96274679813E-02 -0.16508596405E-02  0.24588892881E-01  0.00000000000E+00 0. -1.
     999901    1    3    3    0    0 -0.16952626480E-01 -0.60822052599E-01 -0.10972378649E+00  0.88905906606E+00  0.88000000000E+00 0. -1.
        -11    1    4    4    0    0  0.17923468459E-02 -0.13783603669E-03  0.12648496559E-01  0.12785816055E-01  0.51100000000E-03 0.  1.
         11    1    4    4    0    0  0.37725743862E-01  0.51332420655E-01  0.98726149568E-01  0.11749622500E+00  0.51100000000E-03 0. -1.
</event>
<event>
 8    1  0.1135368E+005  0.1043930E+01  0.7957747E-01            NaN
         13   -1    0    0    0    0  0.00000000000E+00  0.00000000000E+00  0.74505805969E-08  0.10566000000E+00  0.10566000000E+00 0.  1.
     999900   -1    0    0    0    0 -0.00000000000E+00 -0.00000000000E+00 -0.74505805969E-08  0.93827000000E+00  0.93827000000E+00 0.  1.
     999902    2    1    2    0    0 -0.11163047484E-01 -0.14310664357E-01  0.15578300725E-01  0.10200115511E+01  0.10197310784E+01 0.  0.
     999903    2    3    3    0    0  0.87851150696E-01  0.90224137568E-01  0.12606312153E-01  0.12830522672E+00  0.21097213540E-01 0.  0.
         14    1    1    2    0    0  0.11163047484E-01  0.14310664357E-01 -0.15578300725E-01  0.23918448882E-01  0.00000000000E+00 0.  1.
     999901    1    3    3    0    0 -0.99014198180E-01 -0.10453480192E+00  0.29719885717E-02  0.89170632440E+00  0.88000000000E+00 0.  1.
        -11    1    4    4    0    0  0.53821374886E-01  0.53586793027E-01 -0.27315484655E-02  0.76000047761E-01  0.51100000000E-03 0. -1.
         11    1    4    4    0    0  0.34029775810E-01  0.36637344541E-01  0.15337860618E-01  0.52305178960E-01  0.51100000000E-03 0.  1.
</event>
<event>
 8    1  0.1135368E+005  0.1043930E+01  0.7957747E-01            NaN
         13   -1    0    0    0    0  0.00000000000E+00  0.00000000000E+00  0.74505805969E-08  0.10566000000E+00  0.10566000000E+00 0. -1.
     999900   -1    0    0    0    0 -0.00000000000E+00 -0.00000000000E+00 -0.74505805969E-08  0.93827000000E+00  0.93827000000E+00 0. -1.
     999902    2    1    2    0    0 -0.13709944866E-01 -0.44782453780E-02 -0.21147654360E-01  0.10183323330E+01  0.10180105598E+01 0.  0.
     999903    2    3    3    0    0  0.26762219144E-02 -0.10811993950E+00  0.65403331123E-01  0.12788234548E+00  0.19473445579E-01 0.  0.
         14    1    1    2    0    0  0.13709944866E-01  0.44782453780E-02  0.21147654360E-01  0.25597666981E-01  0.00000000000E+00 0. -1.
     999901    1    3    3    0    0 -0.16386166780E-01  0.10364169412E+00 -0.86550985483E-01  0.89044998754E+00  0.88000000000E+00 0. -1.
        -11    1    4    4    0    0 -0.51290350131E-03 -0.45056153442E-01  0.16404243706E-01  0.47954982698E-01  0.51100000000E-03 0.  1.
         11    1    4    4    0    0  0.31891254157E-02 -0.63063786056E-01  0.48999087416E-01  0.79927362781E-01  0.51100000000E-03 0. -1.
</event>
<event>
 8    1  0.1135368E+005  0.1043930E+01  0.7957747E-01            NaN
         13   -1    0    0    0    0  0.00000000000E+00  0.00000000000E+00  0.74505805969E-08  0.10566000000E+00  0.10566000000E+00 0. -1.
     999900   -1    0    0    0    0 -0.00000000000E+00 -0.00000000000E+00 -0.74505805969E-08  0.93827000000E+00  0.93827000000E+00 0. -1.
     999902    2    1    2    0    0  0.15051790010E-01  0.17691245130E-01 -0.26833617312E-02  0.10205475928E+01  0.10202796931E+01 0.  0.
     999903    2    3    3    0    0  0.93447234756E-01 -0.31117556784E-02  0.91020198508E-01  0.13186375261E+00  0.19007998539E-01 0.  0.
         14    1    1    2    0    0 -0.15051790010E-01 -0.17691245130E-01  0.26833617312E-02  0.23382407211E-01  0.00000000000E+00 0. -1.
     999901    1    3    3    0    0 -0.78395444745E-01  0.20803000809E-01 -0.93703560239E-01  0.88868384018E+00  0.88000000000E+00 0. -1.
        -11    1    4    4    0    0  0.27282871508E-01  0.32187700580E-02  0.37706423209E-01  0.46655664507E-01  0.51100000000E-03 0. -1.
         11    1    4    4    0    0  0.66164363248E-01 -0.63305257365E-02  0.53313775299E-01  0.85208088100E-01  0.51100000000E-03 0.  1.
</event>
<event>
 8    1  0.1135368E+005  0.1043930E+01  0.7957747E-01            NaN
         13   -1    0    0    0    0  0.00000000000E+00  0.00000000000E+00  0.74505805969E-08  0.10566000000E+00  0.10566000000E+00 0. -1.
     999900   -1    0    0    0    0 -0.00000000000E+00 -0.00000000000E+00 -0.74505805969E-08  0.93827000000E+00  0.93827000000E+00 0.  1.
     999902    2    1    2    0    0  0.13378605504E-02 -0.17453129359E-01 -0.10612921041E-01  0.10234596388E+01  0.10232549030E+01 0.  0.
     999903    2    3    3    0    0 -0.10036728046E+00  0.81001984011E-01 -0.18978234953E-01  0.13210823584E+00  0.21389253722E-01 0.  0.
         14    1    1    2    0    0 -0.13378605504E-02  0.17453129359E-01  0.10612921041E-01  0.20470361215E-01  0.00000000000E+00 0. -1.
     999901    1    3    3    0    0  0.10170514101E+00 -0.98455113370E-01  0.83653139114E-02  0.89135140295E+00  0.88000000000E+00 0. -1.
        -11    1    4    4    0    0 -0.62934309102E-01  0.54865468753E-01 -0.22022784938E-01  0.86349354954E-01  0.51100000000E-03 0.  1.
         11    1    4    4    0    0 -0.37432971355E-01  0.26136515258E-01  0.30445499849E-02  0.45758880885E-01  0.51100000000E-03 0. -1.
</event>
<event>
 8    1  0.1135368E+005  0.1043930E+01  0.7957747E-01            NaN
         13   -1    0    0    0    0  0.00000000000E+00  0.00000000000E+00  0.74505805969E-08  0.10566000000E+00  0.10566000000E+00 0.  1.
     999900   -1    0    0    0    0 -0.00000000000E+00 -0.00000000000E+00 -0.74505805969E-08  0.93827000000E+00  0.93827000000E+00 0. -1.
     999902    2    1    2    0    0  0.10205201043E-01  0.16291118865E-01 -0.11591380537E-01  0.10214821318E+01  0.10212354473E+01 0.  0.
     999903    2    3    3    0    0  0.11351561028E+00 -0.19675563912E-01  0.60708779672E-01  0.13176647159E+00  0.20097898246E-01 0.  0.
         14    1    1    2    0    0 -0.10205201043E-01 -0.16291118865E-01  0.11591380537E-01  0.22447868161E-01  0.00000000000E+00 0.  1.
     999901    1    3    3    0    0 -0.10331040924E+00  0.35966682778E-01 -0.72300160209E-01  0.88971566025E+00  0.88000000000E+00 0.  1.
        -11    1    4    4    0    0  0.89133640665E-01 -0.21204256296E-01  0.54301826803E-01  0.10650528578E+00  0.51100000000E-03 0.  1.
         11    1    4    4    0    0  0.24381969613E-01  0.15286923837E-02  0.64069528691E-02  0.25261185813E-01  0.51100000000E-03 0. -1.
</event>
<event>
 8    1  0.1135368E+005  0.1043930E+01  0.7957747E-01            NaN
         13   -1    0    0    0    0  0.00000000000E+00  0.00000000000E+00  0.74505805969E-08  0.10566000000E+00  0.10566000000E+00 0.  1.
     999900   -1    0    0    0    0 -0.00000000000E+00 -0.00000000000E+00 -0.74505805969E-08  0.93827000000E+00  0.93827000000E+00 0.  1.
     999902    2    1    2    0    0 -0.24203348029E-02  0.22878014304E-01  0.30793521519E-02  0.10207191411E+01  0.10204552029E+01 0.  0.
     999903    2    3    3    0    0 -0.28856346612E-01  0.11235355498E+00 -0.61886295487E-01  0.13340562808E+00  0.22608360797E-01 0.  0.
         14    1    1    2    0    0  0.24203348029E-02 -0.22878014304E-01 -0.30793521519E-02  0.23210858854E-01  0.00000000000E+00 0.  1.
     999901    1    3    3    0    0  0.26436011810E-01 -0.89475540675E-01  0.64965647639E-01  0.88731351307E+00  0.88000000000E+00 0.  1.
        -11    1    4    4    0    0 -0.23423919504E-01  0.92215382455E-01 -0.59937496521E-01  0.11245052857E+00  0.51100000000E-03 0.  1.
         11    1    4    4    0    0 -0.54324271082E-02  0.20138172523E-01 -0.19487989657E-02  0.20955099505E-01  0.51100000000E-03 0. -1.
</event>
<event>
 8    1  0.1135368E+005  0.1043930E+01  0.7957747E-01            NaN
         13   -1    0    0    0    0  0.00000000000E+00  0.00000000000E+00  0.74505805969E-08  0.10566000000E+00  0.10566000000E+00 0. -1.
     999900   -1    0    0    0    0 -0.00000000000E+00 -0.00000000000E+00 -0.74505805969E-08  0.93827000000E+00  0.93827000000E+00 0.  1.
     999902    2    1    2    0    0 -0.17241351452E-01  0.28675242741E-02 -0.16662995627E-01  0.10197816601E+01  0.10194957048E+01 0.  0.
     999903    2    3    3    0    0 -0.10503153394E+00  0.22039921984E-01 -0.76438325620E-01  0.13318829953E+00  0.19465976081E-01 0.  0.
         14    1    1    2    0    0  0.17241351452E-01 -0.28675242741E-02  0.16662995627E-01  0.24148339873E-01  0.00000000000E+00 0.  1.
     999901    1    3    3    0    0  0.87790182493E-01 -0.19172397710E-01  0.59775329993E-01  0.88659336060E+00  0.88000000000E+00 0. -1.
        -11    1    4    4    0    0 -0.24423645675E-01  0.70107233731E-02 -0.88083002289E-02  0.26898178083E-01  0.51100000000E-03 0. -1.
         11    1    4    4    0    0 -0.80607888269E-01  0.15029198611E-01 -0.67630025391E-01  0.10629012145E+00  0.51100000000E-03 0.  1.
</event>
<event>
 8    1  0.1135368E+005  0.1043930E+01  0.7957747E-01            NaN
         13   -1    0    0    0    0  0.00000000000E+00  0.00000000000E+00  0.74505805969E-08  0.10566000000E+00  0.10566000000E+00 0.  1.
     999900   -1    0    0    0    0 -0.00000000000E+00 -0.00000000000E+00 -0.74505805969E-08  0.93827000000E+00  0.93827000000E+00 0.  1.
     999902    2    1    2    0    0  0.35906401270E-02 -0.20560274710E-01  0.11400558128E-01  0.10201478572E+01  0.10198706095E+01 0.  0.
     999903    2    3    3    0    0 -0.10806209045E+00 -0.36029277021E-01 -0.59316848668E-01  0.13014416396E+00  0.21059218455E-01 0.  0.
         14    1    1    2    0    0 -0.35906401270E-02  0.20560274710E-01 -0.11400558128E-01  0.23782142845E-01  0.00000000000E+00 0.  1.
     999901    1    3    3    0    0  0.11165273058E+00  0.15469002311E-01  0.70717406796E-01  0.89000369320E+00  0.88000000000E+00 0.  1.
        -11    1    4    4    0    0 -0.97692462439E-01 -0.25688066493E-01 -0.54099893403E-01  0.11458950024E+00  0.51100000000E-03 0.  1.
         11    1    4    4    0    0 -0.10369628009E-01 -0.10341210528E-01 -0.52169552649E-02  0.15554663721E-01  0.51100000000E-03 0. -1.
</event>
<event>
 8    1  0.1135368E+005  0.1043930E+01  0.7957747E-01            NaN
         13   -1    0    0    0    0  0.00000000000E+00  0.00000000000E+00  0.74505805969E-08  0.10566000000E+00  0.10566000000E+00 0. -1.
     999900   -1    0    0    0    0 -0.00000000000E+00 -0.00000000000E+00 -0.74505805969E-08  0.93827000000E+00  0.93827000000E+00 0. -1.
     999902    2    1    2    0    0  0.25539270457E-01  0.40239615801E-02 -0.14793894408E-02  0.10180333748E+01  0.10177039437E+01 0.  0.
     999903    2    3    3    0    0  0.68610439538E-01  0.79039775581E-01  0.74723404488E-01  0.13051471938E+00  0.22267156532E-01 0.  0.
         14    1    1    2    0    0 -0.25539270457E-01 -0.40239615801E-02  0.14793894408E-02  0.25896625174E-01  0.00000000000E+00 0. -1.
     999901    1    3    3    0    0 -0.43071169081E-01 -0.75015814001E-01 -0.76202793929E-01  0.88751865544E+00  0.88000000000E+00 0. -1.
        -11    1    4    4    0    0  0.52999518344E-01  0.52457915176E-01  0.62676861485E-01  0.97413715132E-01  0.51100000000E-03 0.  1.
         11    1    4    4    0    0  0.15610921194E-01  0.26581860405E-01  0.12046543003E-01  0.33101004251E-01  0.51100000000E-03 0. -1.
</event>
<event>
 8    1  0.1135368E+005  0.1043930E+01  0.7957747E-01            NaN
         13   -1    0    0    0    0  0.00000000000E+00  0.00000000000E+00  0.74505805969E-08  0.10566000000E+00  0.10566000000E+00 0. -1.
     999900   -1    0    0    0    0 -0.00000000000E+00 -0.00000000000E+00 -0.74505805969E-08  0.93827000000E+00  0.93827000000E+00 0. -1.
     999902    2    1    2    0    0  0.10580055815E-01 -0.20803249520E-01  0.30844597044E-02  0.10203879809E+01  0.10201163683E+01 0.  0.
     999903    2    3    3    0    0  0.47865248074E-01 -0.12324409048E+00  0.89746950238E-03  0.13365854393E+00  0.19586043615E-01 0.  0.
         14    1    1    2    0    0 -0.10580055815E-01  0.20803249520E-01 -0.30844597044E-02  0.23542019100E-01  0.00000000000E+00 0. -1.
     999901    1    3    3    0    0 -0.37285192259E-01  0.10244084096E+00  0.21869902020E-02  0.88672943697E+00  0.88000000000E+00 0. -1.
        -11    1    4    4    0    0  0.69450368026E-02 -0.42887178523E-01  0.16025142786E-02  0.43478417529E-01  0.51100000000E-03 0.  1.
         11    1    4    4    0    0  0.40920211271E-01 -0.80356911953E-01 -0.70504477623E-03  0.90180126404E-01  0.51100000000E-03 0. -1.
</event>
<event>
 8    1  0.1135368E+005  0.1043930E+01  0.7957747E-01            NaN
         13   -1    0    0    0    0  0.00000000000E+00  0.00000000000E+00  0.74505805969E-08  0.10566000000E+00  0.10566000000E+00 0. -1.
     999900   -1    0    0    0    0 -0.00000000000E+00 -0.00000000000E+00 -0.74505805969E-08  0.93827000000E+00  0.93827000000E+00 0. -1.
     999902    2    1    2    0    0 -0.77756879473E-02  0.19603715999E-01 -0.20712792084E-01  0.10143701157E+01  0.10139393201E+01 0.  0.
     999903    2    3    3    0    0 -0.12475288218E+00  0.70386509033E-03 -0.69318234576E-02  0.12632125250E+00  0.18580409541E-01 0.  0.
         14    1    1    2    0    0  0.77756879473E-02 -0.19603715999E-01  0.20712792084E-01  0.29559884302E-01  0.00000000000E+00 0. -1.
     999901    1    3    3    0    0  0.11697719423E+00  0.18899850909E-01 -0.13780968626E-01  0.88804886320E+00  0.88000000000E+00 0.  1.
        -11    1    4    4    0    0 -0.77733403720E-01  0.44248187140E-02  0.37740128324E-02  0.77952327537E-01  0.51100000000E-03 0.  1.
         11    1    4    4    0    0 -0.47019478457E-01 -0.37209536237E-02 -0.10705836290E-01  0.48368924961E-01  0.51100000000E-03 0. -1.
</event>
<event>
 8    1  0.1135368E+005  0.1043930E+01  0.7957747E-01            NaN
         13   -1    0    0    0    0  0.00000000000E+00  0.00000000000E+00  0.74505805969E-08  0.10566000000E+00  0.10566000000E+00 0.  1.
     999900   -1    0    0    0    0 -0.00000000000E+00 -0.00000000000E+00 -0.74505805969E-08  0.93827000000E+00  0.93827000000E+00 0.  1.
     999902    2    1    2    0    0  0.15618081447E-01  0.11935780805E-01  0.14979749567E-01  0.10192160317E+01  0.10189163553E+01 0.  0.
     999903    2    3    3    0    0  0.12664713546E-01  0.59743220795E-01 -0.11155933044E+00  0.12887541573E+00  0.20826453615E-01 0.  0.
         14    1    1    2    0    0 -0.15618081447E-01 -0.11935780805E-01 -0.14979749567E-01  0.24713968289E-01  0.00000000000E+00 0.  1.
     999901    1    3    3    0    0  0.29533679017E-02 -0.47807439990E-01  0.12653908001E+00  0.89034061598E+00  0.88000000000E+00 0. -1.
        -11    1    4    4    0    0  0.37282151298E-02  0.83822868580E-02 -0.35454095966E-01  0.36625351368E-01  0.51100000000E-03 0.  1.
         11    1    4    4    0    0  0.89364984160E-02  0.51360933937E-01 -0.76105234476E-01  0.92250064360E-01  0.51100000000E-03 0. -1.
</event>
<event>
 8    1  0.1135368E+005  0.1043930E+01  0.7957747E-01            NaN
         13   -1    0    0    0    0  0.00000000000E+00  0.00000000000E+00  0.74505805969E-08  0.10566000000E+00  0.10566000000E+00 0. -1.
     999900   -1    0    0    0    0 -0.00000000000E+00 -0.00000000000E+00 -0.74505805969E-08  0.93827000000E+00  0.93827000000E+00 0. -1.
     999902    2    1    2    0    0  0.21184398661E-01 -0.99771622774E-02 -0.31110087115E-02  0.10203079576E+01  0.10200344736E+01 0.  0.
     999903    2    3    3    0    0  0.77996131015E-02  0.73723776999E-01  0.10447861008E+00  0.12971235585E+00  0.20334356048E-01 0.  0.
         14    1    1    2    0    0 -0.21184398661E-01  0.99771622774E-02  0.31110087115E-02  0.23622042438E-01  0.00000000000E+00 0.  1.
     999901    1    3    3    0    0  0.13384785560E-01 -0.83700939277E-01 -0.10758961879E+00  0.89059560171E+00  0.88000000000E+00 0.  1.
        -11    1    4    4    0    0  0.11414539291E-01  0.53605556315E-01  0.86935632240E-01  0.10277116643E+00  0.51100000000E-03 0.  1.
         11    1    4    4    0    0 -0.36149261897E-02  0.20118220685E-01  0.17542977839E-01  0.26941189419E-01  0.51100000000E-03 0. -1.
</event>
<event>
 8    1  0.1135368E+005  0.1043930E+01  0.7957747E-01            NaN
         13   -1    0    0    0    0  0.00000000000E+00  0.00000000000E+00  0.74505805969E-08  0.10566000000E+00  0.10566000000E+00 0. -1.
     999900   -1    0    0    0    0 -0.00000000000E+00 -0.00000000000E+00 -0.74505805969E-08  0.93827000000E+00  0.93827000000E+00 0.  1.
     999902    2    1    2    0    0  0.10721605325E-01 -0.58842784038E-02 -0.29927495976E-01  0.10115999433E+01  0.10110831878E+01 0.  0.
     999903    2    3    3    0    0  0.10401767169E+00 -0.49040086916E-01  0.38702858920E-01  0.12296238755E+00  0.19930662706E-01 0.  0.
         14    1    1    2    0    0 -0.10721605325E-01  0.58842784038E-02  0.29927495976E-01  0.32330056735E-01  0.00000000000E+00 0. -1.
     999901    1    3    3    0    0 -0.93296066365E-01  0.43155808512E-01 -0.68630354896E-01  0.88863755571E+00  0.88000000000E+00 0. -1.
        -11    1    4    4    0    0  0.68855307580E-01 -0.30308261395E-01  0.15360397382E-01  0.76784419119E-01  0.51100000000E-03 0.  1.
         11    1    4    4    0    0  0.35162364110E-01 -0.18731825520E-01  0.23342461537E-01  0.46177968435E-01  0.51100000000E-03 0. -1.
</event>
<event>
 8    1  0.1135368E+005  0.1043930E+01  0.7957747E-01            NaN
         13   -1    0    0    0    0  0.00000000000E+00  0.00000000000E+00  0.74505805969E-08  0.10566000000E+00  0.10566000000E+00 0.  1.
     999900   -1    0    0    0    0 -0.00000000000E+00 -0.00000000000E+00 -0.74505805969E-08  0.93827000000E+00  0.93827000000E+00 0. -1.
     999902    2    1    2    0    0 -0.18074133742E-02 -0.11237653824E-01  0.18028383148E-01  0.10226092541E+01  0.10223869680E+01 0.  0.
     999903    2    3    3    0    0 -0.14984727673E-01 -0.12592383019E+00 -0.32510653360E-01  0.13363188945E+00  0.26817647566E-01 0.  0.
         14    1    1    2    0    0  0.18074133742E-02  0.11237653824E-01 -0.18028383148E-01  0.21320745895E-01  0.00000000000E+00 0. -1.
     999901    1    3    3    0    0  0.13177314299E-01  0.11468617637E+00  0.50539036508E-01  0.88897736466E+00  0.88000000000E+00 0.  1.
        -11    1    4    4    0    0  0.60327555377E-02 -0.33334115149E-01 -0.15144111185E-01  0.37110141427E-01  0.51100000000E-03 0.  1.
         11    1    4    4    0    0 -0.21017483211E-01 -0.92589715046E-01 -0.17366542175E-01  0.96521748021E-01  0.51100000000E-03 0. -1.
</event>
<event>
 8    1  0.1135368E+005  0.1043930E+01  0.7957747E-01            NaN
         13   -1    0    0    0    0  0.00000000000E+00  0.00000000000E+00  0.74505805969E-08  0.10566000000E+00  0.10566000000E+00 0. -1.
     999900   -1    0    0    0    0 -0.00000000000E+00 -0.00000000000E+00 -0.74505805969E-08  0.93827000000E+00  0.93827000000E+00 0. -1.
     999902    2    1    2    0    0  0.51273637270E-02  0.19570149111E-01  0.14455430991E-01  0.10190655660E+01  0.10187621840E+01 0.  0.
     999903    2    3    3    0    0  0.59372042849E-01 -0.11093639895E+00  0.10395991552E-01  0.12777945962E+00  0.19687294787E-01 0.  0.
         14    1    1    2    0    0 -0.51273637270E-02 -0.19570149111E-01 -0.14455430991E-01  0.24864434041E-01  0.00000000000E+00 0. -1.
     999901    1    3    3    0    0 -0.54244679122E-01  0.13050654807E+00  0.40594394392E-02  0.89128610634E+00  0.88000000000E+00 0. -1.
        -11    1    4    4    0    0  0.35033730480E-01 -0.70018071889E-01  0.15761042758E-01  0.79865914208E-01  0.51100000000E-03 0. -1.
         11    1    4    4    0    0  0.24338312368E-01 -0.40918327065E-01 -0.53650512055E-02  0.47913545414E-01  0.51100000000E-03 0.  1.
</event>
<event>
 8    1  0.1135368E+005  0.1043930E+01  0.7957747E-01            NaN
         13   -1    0    0    0    0  0.00000000000E+00  0.00000000000E+00  0.74505805969E-08  0.10566000000E+00  0.10566000000E+00 0. -1.
     999900   -1    0    0    0    0 -0.00000000000E+00 -0.00000000000E+00 -0.74505805969E-08  0.93827000000E+00  0.93827000000E+00 0. -1.
     999902    2    1    2    0    0  0.21857829101E-01  0.45097816084E-02  0.54583432801E-02  0.10209540053E+01  0.10206954416E+01 0.  0.
     999903    2    3    3    0    0 -0.31530057601E-02 -0.92269441427E-01  0.90713348075E-01  0.13120113186E+00  0.21476364122E-01 0.  0.
         14    1    1    2    0    0 -0.21857829101E-01 -0.45097816084E-02 -0.54583432801E-02  0.22975994745E-01  0.00000000000E+00 0. -1.
     999901    1    3    3    0    0  0.25010834861E-01  0.96779223036E-01 -0.85255004795E-01  0.88975287339E+00  0.88000000000E+00 0.  1.
        -11    1    4    4    0    0 -0.11381506358E-01 -0.33841210837E-01  0.36724868277E-01  0.51222488312E-01  0.51100000000E-03 0. -1.
         11    1    4    4    0    0  0.82285005978E-02 -0.58428230590E-01  0.53988479798E-01  0.79978643549E-01  0.51100000000E-03 0.  1.
</event>
<event>
 8    1  0.1135368E+005  0.1043930E+01  0.7957747E-01            NaN
         13   -1    0    0    0    0  0.00000000000E+00  0.00000000000E+00  0.74505805969E-08  0.10566000000E+00  0.10566000000E+00 0. -1.
     999900   -1    0    0    0    0 -0.00000000000E+00 -0.00000000000E+00 -0.74505805969E-08  0.93827000000E+00  0.93827000000E+00 0. -1.
     999902    2    1    2    0    0 -0.12325859612E-01  0.23493455235E-01 -0.44048344263E-02  0.10170362866E+01  0.10166806462E+01 0.  0.
     999903    2    3    3    0    0  0.79616821817E-01  0.91885984641E-01 -0.38087986504E-01  0.12896784922E+00  0.20003472845E-01 0.  0.
         14    1    1    2    0    0  0.12325859612E-01 -0.23493455235E-01  0.44048344263E-02  0.26893713399E-01  0.00000000000E+00 0. -1.
     999901    1    3    3    0    0 -0.91942681429E-01 -0.68392529406E-01  0.33683152078E-01  0.88806843739E+00  0.88000000000E+00 0.  1.
        -11    1    4    4    0    0  0.35634621741E-01  0.28033576600E-01 -0.18679231032E-01  0.49039601105E-01  0.51100000000E-03 0. -1.
         11    1    4    4    0    0  0.43982200076E-01  0.63852408040E-01 -0.19408755472E-01  0.79928248111E-01  0.51100000000E-03 0.  1.
</event>
<event>
 8    1  0.1135368E+005  0.1043930E+01  0.7957747E-01            NaN
         13   -1    0    0    0    0  0.00000000000E+00  0.00000000000E+00  0.74505805969E-08  0.10566000000E+00  0.10566000000E+00 0. -1.
     999900   -1    0    0    0    0 -0.00000000000E+00 -0.00000000000E+00 -0.74505805969E-08  0.93827000000E+00  0.93827000000E+00 0.  1.
     999902    2    1    2    0    0  0.14895087635E-01 -0.10793248699E-01  0.14962389210E-01  0.10202185904E+01  0.10199430089E+01 0.  0.
     999903    2    3    3    0    0  0.41892950083E-01 -0.73965823828E-01 -0.96854565708E-01  0.13048678239E+00  0.20494660730E-01 0.  0.
         14    1    1    2    0    0 -0.14895087635E-01  0.10793248699E-01 -0.14962389210E-01  0.23711409574E-01  0.00000000000E+00 0. -1.
     999901    1    3    3    0    0 -0.26997862448E-01  0.63172575129E-01  0.11181695492E+00  0.88973180804E+00  0.88000000000E+00 0.  1.
        -11    1    4    4    0    0  0.10200758521E-01 -0.37652664116E-01 -0.38676077273E-01  0.54935222432E-01  0.51100000000E-03 0. -1.
         11    1    4    4    0    0  0.31692191562E-01 -0.36313159712E-01 -0.58178488435E-01  0.75551559957E-01  0.51100000000E-03 0.  1.
</event>
<event>
 8    1  0.1135368E+005  0.1043930E+01  0.7957747E-01            NaN
         13   -1    0    0    0    0  0.00000000000E+00  0.00000000000E+00  0.74505805969E-08  0.10566000000E+00  0.10566000000E+00 0.  1.
     999900   -1    0    0    0    0 -0.00000000000E+00 -0.00000000000E+00 -0.74505805969E-08  0.93827000000E+00  0.93827000000E+00 0.  1.
     999902    2    1    2    0    0 -0.19659375165E-01 -0.12541810682E-01  0.23653047598E-03  0.10206095370E+01  0.10203430713E+01 0.  0.
     999903    2    3    3    0    0  0.25377601433E-01 -0.11500496014E+00  0.55870986589E-01  0.13177759623E+00  0.19328844070E-01 0.  0.
         14    1    1    2    0    0  0.19659375165E-01  0.12541810682E-01 -0.23653047598E-03  0.23320462983E-01  0.00000000000E+00 0.  1.
     999901    1    3    3    0    0 -0.45036976599E-01  0.10246314946E+00 -0.55634456113E-01  0.88883194079E+00  0.88000000000E+00 0.  1.
        -11    1    4    4    0    0  0.13476168494E-01 -0.84058753759E-01  0.47858042050E-01  0.97663373435E-01  0.51100000000E-03 0. -1.
         11    1    4    4    0    0  0.11901432940E-01 -0.30946206385E-01  0.80129445395E-02  0.34114222794E-01  0.51100000000E-03 0.  1.
</event>
<event>
 8    1  0.1135368E+005  0.1043930E+01  0.7957747E-01            NaN
         13   -1    0    0    0    0  0.00000000000E+00  0.00000000000E+00  0.74505805969E-08  0.10566000000E+00  0.10566000000E+00 0. -1.
     999900   -1    0    0    0    0 -0.00000000000E+00 -0.00000000000E+00 -0.74505805969E-08  0.93827000000E+00  0.93827000000E+00 0.  1.
     999902    2    1    2    0    0  0.15248180946E-01 -0.13618549377E-02 -0.17280134278E-01  0.10208439715E+01  0.10205828969E+01 0.  0.
     999903    2    3    3    0    0  0.99787936954E-01  0.83401192195E-01 -0.17215902172E-01  0.13273826348E+00  0.20240258945E-01 0.  0.
         14    1    1    2    0    0 -0.15248180946E-01  0.13618549377E-02  0.17280134278E-01  0.23086028496E-01  0.00000000000E+00 0. -1.
     999901    1    3    3    0    0 -0.84539756008E-01 -0.84763047133E-01 -0.64232105927E-04  0.88810570803E+00  0.88000000000E+00 0.  1.
        -11    1    4    4    0    0  0.49775232645E-01  0.47597080622E-01 -0.18143027653E-01  0.71221390340E-01  0.51100000000E-03 0.  1.
         11    1    4    4    0    0  0.50012704309E-01  0.35804111573E-01  0.92712548071E-03  0.61516873137E-01  0.51100000000E-03 0. -1.
</event>
<event>
 8    1  0.1135368E+005  0.1043930E+01  0.7957747E-01            NaN
         13   -1    0    0    0    0  0.00000000000E+00  0.00000000000E+00  0.74505805969E-08  0.10566000000E+00  0.10566000000E+00 0. -1.
     999900   -1    0    0    0    0 -0.00000000000E+00 -0.00000000000E+00 -0.74505805969E-08  0.93827000000E+00  0.93827000000E+00 0.  1.
     999902    2    1    2    0    0 -0.22123781770E-01 -0.44201543598E-02  0.85193614288E-02  0.10198140508E+01  0.10195288712E+01 0.  0.
     999903    2    3    3    0    0 -0.51194138832E-01  0.11024111306E+00 -0.42923750356E-01  0.13041049472E+00  0.19761222864E-01 0.  0.
         14    1    1    2    0    0  0.22123781770E-01  0.44201543598E-02 -0.85193614288E-02  0.24115949153E-01  0.00000000000E+00 0.  1.
     999901    1    3    3    0    0  0.29070357062E-01 -0.11466126742E+00  0.51443111785E-01  0.88940355613E+00  0.88000000000E+00 0.  1.
        -11    1    4    4    0    0 -0.18775116566E-01  0.55605640249E-01 -0.28574988503E-01  0.65278505793E-01  0.51100000000E-03 0. -1.
         11    1    4    4    0    0 -0.32419022265E-01  0.54635472808E-01 -0.14348761853E-01  0.65131988925E-01  0.51100000000E-03 0.  1.
</event>
<event>
 8    1  0.1135368E+005  0.1043930E+01  0.7957747E-01            NaN
         13   -1    0    0    0    0  0.00000000000E+00  0.00000000000E+00  0.74505805969E-08  0.10566000000E+00  0.10566000000E+00 0. -1.
     999900   -1    0    0    0    0 -0.00000000000E+00 -0.00000000000E+00 -0.74505805969E-08  0.93827000000E+00  0.93827000000E+00 0. -1.
     999902    2    1    2    0    0 -0.23795214510E-01 -0.12208092829E-02  0.90297848307E-02  0.10184498190E+01  0.10181310300E+01 0.  0.
     999903    2    3    3    0    0  0.10771483796E+00 -0.62872133047E-01 -0.25863608745E-02  0.12646847702E+00  0.20789299839E-01 0.  0.
         14    1    1    2    0    0  0.23795214510E-01  0.12208092829E-02 -0.90297848307E-02  0.25480180984E-01  0.00000000000E+00 0.  1.
     999901    1    3    3    0    0 -0.13151005247E+00  0.61651323764E-01  0.11616145705E-01  0.89198134199E+00  0.88000000000E+00 0.  1.
        -11    1    4    4    0    0  0.69684855603E-02 -0.87735798108E-02 -0.45356138900E-02  0.12098281203E-01  0.51100000000E-03 0. -1.
         11    1    4    4    0    0  0.10074635240E+00 -0.54098553236E-01  0.19492530155E-02  0.11437019582E+00  0.51100000000E-03 0.  1.
</event>
<event>
 8    1  0.1135368E+005  0.1043930E+01  0.7957747E-01            NaN
         13   -1    0    0    0    0  0.00000000000E+00  0.00000000000E+00  0.74505805969E-08  0.10566000000E+00  0.10566000000E+00 0.  1.
     999900   -1    0    0    0    0 -0.00000000000E+00 -0.00000000000E+00 -0.74505805969E-08  0.93827000000E+00  0.93827000000E+00 0. -1.
     999902    2    1    2    0    0  0.76871770285E-02  0.18974385289E-01 -0.95322765133E-02  0.10213471684E+01  0.10210974753E+01 0.  0.
     999903    2    3    3    0    0 -0.50400045922E-01 -0.97320347261E-01  0.64501993732E-01  0.12872201557E+00  0.19935783828E-01 0.  0.
         14    1    1    2    0    0 -0.76871770285E-02 -0.18974385289E-01  0.95322765133E-02  0.22582831604E-01  0.00000000000E+00 0. -1.
     999901    1    3    3    0    0  0.58087222950E-01  0.11629473255E+00 -0.74034270245E-01  0.89262515283E+00  0.88000000000E+00 0. -1.
        -11    1    4    4    0    0 -0.27003342583E-01 -0.64072848741E-01  0.31403416413E-01  0.76295125269E-01  0.51100000000E-03 0. -1.
         11    1    4    4    0    0 -0.23396703338E-01 -0.33247498520E-01  0.33098577319E-01  0.52426890299E-01  0.51100000000E-03 0.  1.
</event>
<event>
 7    1  0.1135368E+005  0.1043930E+01  0.7957747E-01            NaN
         13   -1    0    0    0    0  0.00000000000E+00  0.00000000000E+00  0.74505805969E-08  0.10566000000E+00  0.10566000000E+00 0. -1.
     999900   -1    0    0    0    0 -0.00000000000E+00 -0.00000000000E+00 -0.74505805969E-08  0.93827000000E+00  0.93827000000E+00 0.  1.
     999903    2    1    2    0    0 -0.67514968617E-01  0.38225419207E-01  0.27121484478E-01  0.85145027073E-01  0.22240662176E-01 0.  0.
         14    1    1    2    0    0 -0.20654415268E-01 -0.58282606905E-01  0.36609333939E-01  0.71858962344E-01  0.00000000000E+00 0. -1.
     999901    1    1    2    0    0  0.88169383885E-01  0.20057187698E-01 -0.63730818416E-01  0.88692601058E+00  0.88000000000E+00 0.  1.
        -11    1    3    3    0    0 -0.16831652941E-01  0.19828220970E-01  0.33954570924E-02  0.26234579041E-01  0.51100000000E-03 0.  1.
         11    1    3    3    0    0 -0.50683315676E-01  0.18397198237E-01  0.23726027385E-01  0.58910448032E-01  0.51100000000E-03 0. -1.
</event>
<event>
 8    1  0.1135368E+005  0.1043930E+01  0.7957747E-01            NaN
         13   -1    0    0    0    0  0.00000000000E+00  0.00000000000E+00  0.74505805969E-08  0.10566000000E+00  0.10566000000E+00 0.  1.
     999900   -1    0    0    0    0 -0.00000000000E+00 -0.00000000000E+00 -0.74505805969E-08  0.93827000000E+00  0.93827000000E+00 0.  1.
     999902    2    1    2    0    0  0.15997828004E-01  0.11025513694E-01 -0.13514770501E-01  0.10202626919E+01  0.10199881465E+01 0.  0.
     999903    2    3    3    0    0 -0.57103240086E-01 -0.37061027270E-01  0.10633948228E+00  0.12783839620E+00  0.20006755863E-01 0.  0.
         14    1    1    2    0    0 -0.15997828004E-01 -0.11025513694E-01  0.13514770501E-01  0.23667308143E-01  0.00000000000E+00 0.  1.
     999901    1    3    3    0    0  0.73101068090E-01  0.48086540964E-01 -0.11985425278E+00  0.89242429566E+00  0.88000000000E+00 0.  1.
        -11    1    4    4    0    0 -0.43199402279E-01 -0.37241223046E-01  0.85873648166E-01  0.10309045359E+00  0.51100000000E-03 0. -1.
         11    1    4    4    0    0 -0.13903837807E-01  0.18019577624E-03  0.20465834111E-01  0.24747942604E-01  0.51100000000E-03 0.  1.
</event>
<event>
 8    1  0.1155428E+005  0.1043930E+01  0.7957747E-01            NaN
         13   -1    0    0    0    0  0.00000000000E+00  0.00000000000E+00  0.74505805969E-08  0.10566000000E+00  0.10566000000E+00 0.  1.
     999900   -1    0    0    0    0 -0.00000000000E+00 -0.00000000000E+00 -0.74505805969E-08  0.93827000000E+00  0.93827000000E+00 0. -1.
     999902    2    1    2    0    0  0.21824241051E-01  0.16438773286E-02  0.92938091247E-02  0.10201523904E+01  0.10198752497E+01 0.  0.
     999903    2    3    3    0    0  0.11443108274E+00 -0.64493626921E-01  0.33327029530E-02  0.13280480835E+00  0.19290142569E-01 0.  0.
         14    1    1    2    0    0 -0.21824241051E-01 -0.16438773286E-02 -0.92938091247E-02  0.23777609598E-01  0.00000000000E+00 0.  1.
     999901    1    3    3    0    0 -0.92606841688E-01  0.66137504249E-01  0.59611061717E-02  0.88734758206E+00  0.88000000000E+00 0.  1.
        -11    1    4    4    0    0  0.48497574714E-01 -0.20255710446E-01  0.84690039664E-02  0.53238085127E-01  0.51100000000E-03 0.  1.
         11    1    4    4    0    0  0.65933508025E-01 -0.44237916475E-01 -0.51363010135E-02  0.79566723218E-01  0.51100000000E-03 0. -1.
</event>
<event>
 8    1  0.1135368E+005  0.1043930E+01  0.7957747E-01            NaN
         13   -1    0    0    0    0  0.00000000000E+00  0.00000000000E+00  0.74505805969E-08  0.10566000000E+00  0.10566000000E+00 0. -1.
     999900   -1    0    0    0    0 -0.00000000000E+00 -0.00000000000E+00 -0.74505805969E-08  0.93827000000E+00  0.93827000000E+00 0. -1.
     999902    2    1    2    0    0 -0.29144584779E-01  0.14833943295E-01  0.97737272587E-02  0.10097982195E+01  0.10092212174E+01 0.  0.
     999903    2    3    3    0    0  0.25093707951E-01 -0.61824936332E-01  0.98175518525E-01  0.12039771752E+00  0.20128611849E-01 0.  0.
         14    1    1    2    0    0  0.29144584779E-01 -0.14833943295E-01 -0.97737272587E-02  0.34131780501E-01  0.00000000000E+00 0.  1.
     999901    1    3    3    0    0 -0.54238292730E-01  0.76658879627E-01 -0.88401791266E-01  0.88940050198E+00  0.88000000000E+00 0. -1.
        -11    1    4    4    0    0  0.17484967210E-01 -0.33346100698E-01  0.70674562422E-01  0.80080218561E-01  0.51100000000E-03 0. -1.
         11    1    4    4    0    0  0.76087407408E-02 -0.28478835633E-01  0.27500956102E-01  0.40317498958E-01  0.51100000000E-03 0.  1.
</event>
<event>
 7    1  0.1135368E+005  0.1043930E+01  0.7957747E-01            NaN
         13   -1    0    0    0    0  0.00000000000E+00  0.00000000000E+00  0.74505805969E-08  0.10566000000E+00  0.10566000000E+00 0.  1.
     999900   -1    0    0    0    0 -0.00000000000E+00 -0.00000000000E+00 -0.74505805969E-08  0.93827000000E+00  0.93827000000E+00 0.  1.
     999903    2    1    2    0    0 -0.48979568773E-02 -0.40061592052E-01 -0.10851152273E+00  0.11678944763E+00  0.15365655630E-01 0.  0.
         14    1    1    2    0    0 -0.38273850935E-01  0.29745338053E-02 -0.17868259223E-02  0.38430824394E-01  0.00000000000E+00 0.  1.
     999901    1    1    2    0    0  0.43171807812E-01  0.37087058247E-01  0.11029834866E+00  0.88870972797E+00  0.88000000000E+00 0. -1.
        -11    1    3    3    0    0 -0.10007682389E-02 -0.15623949926E-01 -0.63687054173E-01  0.65585145716E-01  0.51100000000E-03 0.  1.
         11    1    3    3    0    0 -0.38971886384E-02 -0.24437642127E-01 -0.44824468560E-01  0.51204301916E-01  0.51100000000E-03 0. -1.
</event>
<event>
 8    1  0.1135368E+005  0.1043930E+01  0.7957747E-01            NaN
         13   -1    0    0    0    0  0.00000000000E+00  0.00000000000E+00  0.74505805969E-08  0.10566000000E+00  0.10566000000E+00 0. -1.
     999900   -1    0    0    0    0 -0.00000000000E+00 -0.00000000000E+00 -0.74505805969E-08  0.93827000000E+00  0.93827000000E+00 0.  1.
     999902    2    1    2    0    0  0.15232943191E-01 -0.31574284255E-02 -0.18283016899E-01  0.10199241545E+01  0.10196416038E+01 0.  0.
     999903    2    3    3    0    0 -0.83000641594E-02  0.22615553455E-01 -0.12861647878E+00  0.13234794826E+00  0.19834981029E-01 0.  0.
         14    1    1    2    0    0 -0.15232943191E-01  0.31574284255E-02  0.18283016899E-01  0.24005845526E-01  0.00000000000E+00 0. -1.
     999901    1    3    3    0    0  0.23533007350E-01 -0.25772981880E-01  0.11033346188E+00  0.88757620622E+00  0.88000000000E+00 0. -1.
        -11    1    4    4    0    0 -0.11224602843E-01  0.20218279114E-01 -0.12489128800E+00  0.12701521743E+00  0.51100000000E-03 0.  1.
         11    1    4    4    0    0  0.29245386837E-02  0.23972743410E-02 -0.37251907749E-02  0.53327308283E-02  0.51100000000E-03 0. -1.
</event>
<event>
 8    1  0.1135368E+005  0.1043930E+01  0.7957747E-01            NaN
         13   -1    0    0    0    0  0.00000000000E+00  0.00000000000E+00  0.74505805969E-08  0.10566000000E+00  0.10566000000E+00 0. -1.
     999900   -1    0    0    0    0 -0.00000000000E+00 -0.00000000000E+00 -0.74505805969E-08  0.93827000000E+00  0.93827000000E+00 0.  1.
     999902    2    1    2    0    0 -0.11395665641E-01  0.22829540941E-01  0.28184903708E-02  0.10182591406E+01  0.10179355011E+01 0.  0.
     999903    2    3    3    0    0 -0.12807369999E-02 -0.99056110163E-01  0.77278396018E-01  0.12668597967E+00  0.16236800952E-01 0.  0.
         14    1    1    2    0    0  0.11395665641E-01 -0.22829540941E-01 -0.28184903708E-02  0.25670859412E-01  0.00000000000E+00 0.  1.
     999901    1    3    3    0    0 -0.10114928641E-01  0.12188565110E+00 -0.74459905647E-01  0.89157316092E+00  0.88000000000E+00 0.  1.
        -11    1    4    4    0    0 -0.12078299623E-03 -0.39138895915E-01  0.20751772319E-01  0.44303103022E-01  0.51100000000E-03 0. -1.
         11    1    4    4    0    0 -0.11599540037E-02 -0.59917214248E-01  0.56526623698E-01  0.82382876645E-01  0.51100000000E-03 0.  1.
</event>
<event>
 8    1  0.1135368E+005  0.1043930E+01  0.7957747E-01            NaN
         13   -1    0    0    0    0  0.00000000000E+00  0.00000000000E+00  0.74505805969E-08  0.10566000000E+00  0.10566000000E+00 0. -1.
     999900   -1    0    0    0    0 -0.00000000000E+00 -0.00000000000E+00 -0.74505805969E-08  0.93827000000E+00  0.93827000000E+00 0. -1.
     999902    2    1    2    0    0 -0.21760002703E-01  0.99101451450E-02 -0.21367557078E-02  0.10199242836E+01  0.10196417360E+01 0.  0.
     999903    2    3    3    0    0 -0.56172131700E-01  0.28403051039E-01  0.11377466520E+00  0.13146402018E+00  0.19392588122E-01 0.  0.
         14    1    1    2    0    0  0.21760002703E-01 -0.99101451450E-02  0.21367557078E-02  0.24005716390E-01  0.00000000000E+00 0.  1.
     999901    1    3    3    0    0  0.34412128997E-01 -0.18492905894E-01 -0.11591142091E+00  0.88846026343E+00  0.88000000000E+00 0. -1.
        -11    1    4    4    0    0 -0.10148674353E-01 -0.19665567619E-02  0.13307003431E-01  0.16858244213E-01  0.51100000000E-03 0.  1.
         11    1    4    4    0    0 -0.46023457347E-01  0.30369607801E-01  0.10046766177E+00  0.11460577597E+00  0.51100000000E-03 0. -1.
</event>
<event>
 8    1  0.1135368E+005  0.1043930E+01  0.7957747E-01            NaN
         13   -1    0    0    0    0  0.00000000000E+00  0.00000000000E+00  0.74505805969E-08  0.10566000000E+00  0.10566000000E+00 0.  1.
     999900   -1    0    0    0    0 -0.00000000000E+00 -0.00000000000E+00 -0.74505805969E-08  0.93827000000E+00  0.93827000000E+00 0.  1.
     999902    2    1    2    0    0  0.17468930144E-01 -0.87976866804E-02 -0.13758469726E-01  0.10200164411E+01  0.10197360844E+01 0.  0.
     999903    2    3    3    0    0  0.11462590330E+00  0.50473349564E-01  0.34346014369E-01  0.13138458560E+00  0.19889794064E-01 0.  0.
         14    1    1    2    0    0 -0.17468930144E-01  0.87976866804E-02  0.13758469726E-01  0.23913558926E-01  0.00000000000E+00 0.  1.
     999901    1    3    3    0    0 -0.97156973153E-01 -0.59271036244E-01 -0.48104484095E-01  0.88863185547E+00  0.88000000000E+00 0.  1.
        -11    1    4    4    0    0  0.76466550929E-01  0.35737077085E-01  0.13531497919E-01  0.85484704167E-01  0.51100000000E-03 0.  1.
         11    1    4    4    0    0  0.38159352368E-01  0.14736272479E-01  0.20814516450E-01  0.45899881435E-01  0.51100000000E-03 0. -1.
</event>
<event>
 8    1  0.1135368E+005  0.1043930E+01  0.7957747E-01            NaN
         13   -1    0    0    0    0  0.00000000000E+00  0.00000000000E+00  0.74505805969E-08  0.10566000000E+00  0.10566000000E+00 0. -1.
     999900   -1    0    0    0    0 -0.00000000000E+00 -0.00000000000E+00 -0.74505805969E-08  0.93827000000E+00  0.93827000000E+00 0. -1.
     999902    2    1    2    0    0 -0.41500373750E-02 -0.22099799951E-01  0.83256901120E-02  0.10199520709E+01  0.10196701848E+01 0.  0.
     999903    2    3    3    0    0 -0.72953940086E-01  0.10116414855E+00 -0.21440782570E-01  0.12820433700E+00  0.20498354623E-01 0.  0.
         14    1    1    2    0    0  0.41500373750E-02  0.22099799951E-01 -0.83256901120E-02  0.23977929100E-01  0.00000000000E+00 0. -1.
     999901    1    3    3    0    0  0.68803902711E-01 -0.12326394850E+00  0.29766472682E-01  0.89174773390E+00  0.88000000000E+00 0.  1.
        -11    1    4    4    0    0 -0.50474227045E-01  0.70149368549E-01 -0.24345777500E-01  0.89786187728E-01  0.51100000000E-03 0.  1.
         11    1    4    4    0    0 -0.22479713041E-01  0.31014779997E-01  0.29049949293E-02  0.38418149268E-01  0.51100000000E-03 0. -1.
</event>
<event>
 8    1  0.1135368E+005  0.1043930E+01  0.7957747E-01            NaN
         13   -1    0    0    0    0  0.00000000000E+00  0.00000000000E+00  0.74505805969E-08  0.10566000000E+00  0.10566000000E+00 0.  1.
     999900   -1    0    0    0    0 -0.00000000000E+00 -0.00000000000E+00 -0.74505805969E-08  0.93827000000E+00  0.93827000000E+00 0.  1.
     999902    2    1    2    0    0  0.19386755626E-01  0.10163271024E-02  0.13115944853E-01  0.10205012309E+01  0.10202322554E+01 0.  0.
     999903    2    3    3    0    0 -0.60847127196E-01  0.10205275457E+00 -0.46721788404E-01  0.12908304058E+00  0.19035972535E-01 0.  0.
         14    1    1    2    0    0 -0.19386755626E-01 -0.10163271024E-02 -0.13115944853E-01  0.23428769150E-01  0.00000000000E+00 0. -1.
     999901    1    3    3    0    0  0.80233882821E-01 -0.10103642747E+00  0.59837733258E-01  0.89141819027E+00  0.88000000000E+00 0. -1.
        -11    1    4    4    0    0 -0.18764350158E-01  0.25562065341E-01 -0.21117517645E-01  0.38101583875E-01  0.51100000000E-03 0.  1.
         11    1    4    4    0    0 -0.42082777038E-01  0.76490689226E-01 -0.25604270759E-01  0.90981456702E-01  0.51100000000E-03 0. -1.
</event>
<event>
 8    1  0.1135368E+005  0.1043930E+01  0.7957747E-01            NaN
         13   -1    0    0    0    0  0.00000000000E+00  0.00000000000E+00  0.74505805969E-08  0.10566000000E+00  0.10566000000E+00 0.  1.
     999900   -1    0    0    0    0 -0.00000000000E+00 -0.00000000000E+00 -0.74505805969E-08  0.93827000000E+00  0.93827000000E+00 0. -1.
     999902    2    1    2    0    0  0.55273720677E-02  0.17533910770E-01  0.14619308027E-01  0.10204414063E+01  0.10201710394E+01 0.  0.
     999903    2    3    3    0    0  0.10399293167E+00  0.55618123241E-01  0.58475586649E-01  0.13304676640E+00  0.19342759524E-01 0.  0.
         14    1    1    2    0    0 -0.55273720677E-02 -0.17533910770E-01 -0.14619308027E-01  0.23488593744E-01  0.00000000000E+00 0. -1.
     999901    1    3    3    0    0 -0.98465559602E-01 -0.38084212471E-01 -0.43856278622E-01  0.88739463985E+00  0.88000000000E+00 0. -1.
        -11    1    4    4    0    0  0.52278196673E-01  0.35159749445E-01  0.39106117344E-01  0.74153673969E-01  0.51100000000E-03 0. -1.
         11    1    4    4    0    0  0.51714734997E-01  0.20458373796E-01  0.19369469305E-01  0.58893092433E-01  0.51100000000E-03 0.  1.
</event>
<event>
 8    1  0.1135368E+005  0.1043930E+01  0.7957747E-01            NaN
         13   -1    0    0    0    0  0.00000000000E+00  0.00000000000E+00  0.74505805969E-08  0.10566000000E+00  0.10566000000E+00 0.  1.
     999900   -1    0    0    0    0 -0.00000000000E+00 -0.00000000000E+00 -0.74505805969E-08  0.93827000000E+00  0.93827000000E+00 0. -1.
     999902    2    1    2    0    0  0.10476394342E-01 -0.26855428535E-02 -0.20666337286E-01  0.10206048103E+01  0.10203382352E+01 0.  0.
     999903    2    3    3    0    0  0.13613588396E-01  0.11235477158E-02  0.12616026060E+00  0.12842635223E+00  0.19756630359E-01 0.  0.
         14    1    1    2    0    0 -0.10476394342E-01  0.26855428535E-02  0.20666337286E-01  0.23325189723E-01  0.00000000000E+00 0.  1.
     999901    1    3    3    0    0 -0.31371940544E-02 -0.38090905693E-02 -0.14682659789E+00  0.89217845805E+00  0.88000000000E+00 0. -1.
        -11    1    4    4    0    0  0.50594821274E-02 -0.54523796330E-02  0.97718336776E-01  0.98002353371E-01  0.51100000000E-03 0. -1.
         11    1    4    4    0    0  0.85541062687E-02  0.65759273488E-02  0.28441923826E-01  0.30423998858E-01  0.51100000000E-03 0.  1.
</event>
<event>
 8    1  0.1135368E+005  0.1043930E+01  0.7957747E-01            NaN
         13   -1    0    0    0    0  0.00000000000E+00  0.00000000000E+00  0.74505805969E-08  0.10566000000E+00  0.10566000000E+00 0.  1.
     999900   -1    0    0    0    0 -0.00000000000E+00 -0.00000000000E+00 -0.74505805969E-08  0.93827000000E+00  0.93827000000E+00 0. -1.
     999902    2    1    2    0    0  0.19448812630E-01 -0.23599913760E-02  0.13969917856E-01  0.10198679037E+01  0.10195840115E+01 0.  0.
     999903    2    3    3    0    0 -0.11888150120E+00 -0.10400756839E-01 -0.39412657678E-01  0.12742763738E+00  0.21058445165E-01 0.  0.
         14    1    1    2    0    0 -0.19448812630E-01  0.23599913760E-02 -0.13969917856E-01  0.24062096271E-01  0.00000000000E+00 0.  1.
     999901    1    3    3    0    0  0.13833031383E+00  0.80407654632E-02  0.53382575535E-01  0.89244026635E+00  0.88000000000E+00 0.  1.
        -11    1    4    4    0    0 -0.44063505706E-01 -0.13563175655E-01 -0.11602674705E-01  0.47544036958E-01  0.51100000000E-03 0. -1.
         11    1    4    4    0    0 -0.74817995492E-01  0.31624188159E-02 -0.27809982973E-01  0.79883600421E-01  0.51100000000E-03 0.  1.
</event>
<event>
 8    1  0.1135368E+005  0.1043930E+01  0.7957747E-01            NaN
         13   -1    0    0    0    0  0.00000000000E+00  0.00000000000E+00  0.74505805969E-08  0.10566000000E+00  0.10566000000E+00 0.  1.
     999900   -1    0    0    0    0 -0.00000000000E+00 -0.00000000000E+00 -0.74505805969E-08  0.93827000000E+00  0.93827000000E+00 0. -1.
     999902    2    1    2    0    0 -0.70167312797E-02 -0.21778027023E-01 -0.35128703521E-02  0.10207814096E+01  0.10205189018E+01 0.  0.
     999903    2    3    3    0    0  0.10521830672E-01  0.10869170148E+00  0.64538694165E-01  0.12839081876E+00  0.19858610388E-01 0.  0.
         14    1    1    2    0    0  0.70167312797E-02  0.21778027023E-01  0.35128703521E-02  0.23148590389E-01  0.00000000000E+00 0. -1.
     999901    1    3    3    0    0 -0.17538561952E-01 -0.13046972850E+00 -0.68051564517E-01  0.89239059085E+00  0.88000000000E+00 0. -1.
        -11    1    4    4    0    0  0.87933338622E-03  0.82879054486E-01  0.42762738181E-01  0.93266413019E-01  0.51100000000E-03 0.  1.
         11    1    4    4    0    0  0.96424972856E-02  0.25812646990E-01  0.21775955984E-01  0.35124405739E-01  0.51100000000E-03 0. -1.
</event>
<event>
 8    1  0.1135368E+005  0.1043930E+01  0.7957747E-01            NaN
         13   -1    0    0    0    0  0.00000000000E+00  0.00000000000E+00  0.74505805969E-08  0.10566000000E+00  0.10566000000E+00 0. -1.
     999900   -1    0    0    0    0 -0.00000000000E+00 -0.00000000000E+00 -0.74505805969E-08  0.93827000000E+00  0.93827000000E+00 0. -1.
     999902    2    1    2    0    0 -0.19536602669E-01 -0.88137428513E-02 -0.80682956211E-02  0.10210289454E+01  0.10207720848E+01 0.  0.
     999903    2    3    3    0    0  0.12234627441E-01  0.63947623219E-02  0.12753711136E+00  0.12994559572E+00  0.20725925317E-01 0.  0.
         14    1    1    2    0    0  0.19536602669E-01  0.88137428513E-02  0.80682956211E-02  0.22901054586E-01  0.00000000000E+00 0. -1.
     999901    1    3    3    0    0 -0.31771230111E-01 -0.15208505173E-01 -0.13560540698E+00  0.89108334969E+00  0.88000000000E+00 0. -1.
        -11    1    4    4    0    0  0.91187254435E-02 -0.57391399205E-02  0.36862784418E-01  0.38408526095E-01  0.51100000000E-03 0. -1.
         11    1    4    4    0    0  0.31159019978E-02  0.12133902242E-01  0.90674326942E-01  0.91537069629E-01  0.51100000000E-03 0.  1.
</event>
<event>
 8    1  0.1135368E+005  0.1043930E+01  0.7957747E-01            NaN
         13   -1    0    0    0    0  0.00000000000E+00  0.00000000000E+00  0.74505805969E-08  0.10566000000E+00  0.10566000000E+00 0. -1.
     999900   -1    0    0    0    0 -0.00000000000E+00 -0.00000000000E+00 -0.74505805969E-08  0.93827000000E+00  0.93827000000E+00 0. -1.
     999902    2    1    2    0    0  0.17458880335E-01  0.19803866090E-01 -0.10512293450E-01  0.10155132105E+01  0.10151155435E+01 0.  0.
     999903    2    3    3    0    0 -0.11868842257E+00 -0.22900901576E-01 -0.19199333140E-01  0.12397787748E+00  0.19761244056E-01 0.  0.
         14    1    1    2    0    0 -0.17458880335E-01 -0.19803866090E-01  0.10512293450E-01  0.28416789549E-01  0.00000000000E+00 0. -1.
     999901    1    3    3    0    0  0.13614730291E+00  0.42704767666E-01  0.86870396897E-02  0.89153533297E+00  0.88000000000E+00 0. -1.
        -11    1    4    4    0    0 -0.61035792096E-01 -0.20801850499E-01 -0.14488087520E-01  0.66092743187E-01  0.51100000000E-03 0.  1.
         11    1    4    4    0    0 -0.57652630477E-01 -0.20990510767E-02 -0.47112456197E-02  0.57885134297E-01  0.51100000000E-03 0. -1.
</event>
<event>
 8    1  0.1135368E+005  0.1043930E+01  0.7957747E-01            NaN
         13   -1    0    0    0    0  0.00000000000E+00  0.00000000000E+00  0.74505805969E-08  0.10566000000E+00  0.10566000000E+00 0.  1.
     999900   -1    0    0    0    0 -0.00000000000E+00 -0.00000000000E+00 -0.74505805969E-08  0.93827000000E+00  0.93827000000E+00 0. -1.
     999902    2    1    2    0    0  0.98346578992E-03  0.43060763447E-02  0.23991146644E-01  0.10195356438E+01  0.10192437610E+01 0.  0.
     999903    2    3    3    0    0  0.10845319496E+00 -0.62814769619E-01 -0.24690624408E-01  0.12912850910E+00  0.18887936565E-01 0.  0.
         14    1    1    2    0    0 -0.98346578992E-03 -0.43060763447E-02 -0.23991146644E-01  0.24394356227E-01  0.00000000000E+00 0. -1.
     999901    1    3    3    0    0 -0.10746972917E+00  0.67120845963E-01  0.48681771052E-01  0.89040713468E+00  0.88000000000E+00 0.  1.
        -11    1    4    4    0    0  0.68787706264E-01 -0.48617167876E-01 -0.21130232035E-01  0.86845410772E-01  0.51100000000E-03 0. -1.
         11    1    4    4    0    0  0.39665488699E-01 -0.14197601743E-01 -0.35603923730E-02  0.42283098324E-01  0.51100000000E-03 0.  1.
</event>
<event>
 8    1  0.1135368E+005  0.1043930E+01  0.7957747E-01            NaN
         13   -1    0    0    0    0  0.00000000000E+00  0.00000000000E+00  0.74505805969E-08  0.10566000000E+00  0.10566000000E+00 0.  1.
     999900   -1    0    0    0    0 -0.00000000000E+00 -0.00000000000E+00 -0.74505805969E-08  0.93827000000E+00  0.93827000000E+00 0.  1.
     999902    2    1    2    0    0 -0.13801767716E-01  0.18661336937E-01 -0.55977741548E-02  0.10200538746E+01  0.10197744053E+01 0.  0.
     999903    2    3    3    0    0  0.91360526552E-01  0.87847842061E-01  0.24688320140E-01  0.13058036284E+00  0.19435247391E-01 0.  0.
         14    1    1    2    0    0  0.13801767716E-01 -0.18661336937E-01  0.55977741548E-02  0.23876125395E-01  0.00000000000E+00 0. -1.
     999901    1    3    3    0    0 -0.10516229427E+00 -0.69186505123E-01 -0.30286094295E-01  0.88947351177E+00  0.88000000000E+00 0.  1.
        -11    1    4    4    0    0  0.49322880067E-01  0.39443584523E-01  0.42956621520E-02  0.63302896399E-01  0.51100000000E-03 0.  1.
         11    1    4    4    0    0  0.42037646485E-01  0.48404257537E-01  0.20392657988E-01  0.67277466439E-01  0.51100000000E-03 0. -1.
</event>
<event>
 8    1  0.1135368E+005  0.1043930E+01  0.7957747E-01            NaN
         13   -1    0    0    0    0  0.00000000000E+00  0.00000000000E+00  0.74505805969E-08  0.10566000000E+00  0.10566000000E+00 0. -1.
     999900   -1    0    0    0    0 -0.00000000000E+00 -0.00000000000E+00 -0.74505805969E-08  0.93827000000E+00  0.93827000000E+00 0.  1.
     999902    2    1    2    0    0 -0.13017881875E-01 -0.18769578147E-01  0.53317023961E-02  0.10204738843E+01  0.10202042733E+01 0.  0.
     999903    2    3    3    0    0 -0.98830766942E-01 -0.32568270594E-01 -0.79310160428E-01  0.13215046343E+00  0.18585765912E-01 0.  0.
         14    1    1    2    0    0  0.13017881875E-01  0.18769578147E-01 -0.53317023961E-02  0.23456115679E-01  0.00000000000E+00 0.  1.
     999901    1    3    3    0    0  0.85812885066E-01  0.13798692448E-01  0.84641862824E-01  0.88832342089E+00  0.88000000000E+00 0. -1.
        -11    1    4    4    0    0 -0.38708603857E-01 -0.37849635764E-02 -0.32649561993E-01  0.50783235237E-01  0.51100000000E-03 0.  1.
         11    1    4    4    0    0 -0.60122163085E-01 -0.28783307018E-01 -0.46660598435E-01  0.81367228195E-01  0.51100000000E-03 0. -1.
</event>
<event>
 8    1  0.1135368E+005  0.1043930E+01  0.7957747E-01            NaN
         13   -1    0    0    0    0  0.00000000000E+00  0.00000000000E+00  0.74505805969E-08  0.10566000000E+00  0.10566000000E+00 0.  1.
     999900   -1    0    0    0    0 -0.00000000000E+00 -0.00000000000E+00 -0.74505805969E-08  0.93827000000E+00  0.93827000000E+00 0.  1.
     999902    2    1    2    0    0  0.10338676302E-01  0.15549143398E-01  0.12991225155E-01  0.10211827800E+01  0.10209293972E+01 0.  0.
     999903    2    3    3    0    0  0.98234614369E-01 -0.17189474725E-01  0.85908899372E-01  0.13319939034E+00  0.20401497343E-01 0.  0.
         14    1    1    2    0    0 -0.10338676302E-01 -0.15549143398E-01 -0.12991225155E-01  0.22747220031E-01  0.00000000000E+00 0. -1.
     999901    1    3    3    0    0 -0.87895938067E-01  0.32738618122E-01 -0.72917674217E-01  0.88798338963E+00  0.88000000000E+00 0. -1.
        -11    1    4    4    0    0  0.10627738922E-01  0.21974000882E-02  0.36206319360E-02  0.11451964826E-01  0.51100000000E-03 0. -1.
         11    1    4    4    0    0  0.87606875447E-01 -0.19386874813E-01  0.82288267436E-01  0.12174742551E+00  0.51100000000E-03 0.  1.
</event>
<event>
 8    1  0.1135368E+005  0.1043930E+01  0.7957747E-01            NaN
         13   -1    0    0    0    0  0.00000000000E+00  0.00000000000E+00  0.74505805969E-08  0.10566000000E+00  0.10566000000E+00 0.  1.
     999900   -1    0    0    0    0 -0.00000000000E+00 -0.00000000000E+00 -0.74505805969E-08  0.93827000000E+00  0.93827000000E+00 0.  1.
     999902    2    1    2    0    0 -0.21606739364E-01  0.85700425933E-02 -0.19780974480E-02  0.10206016978E+01  0.10203350507E+01 0.  0.
     999903    2    3    3    0    0  0.15579010928E-01  0.12742537295E+00  0.20816561059E-01  0.13154097653E+00  0.19742543836E-01 0.  0.
         14    1    1    2    0    0  0.21606739364E-01 -0.85700425933E-02  0.19780974480E-02  0.23328302242E-01  0.00000000000E+00 0. -1.
     999901    1    3    3    0    0 -0.37185750292E-01 -0.11885533036E+00 -0.22794658507E-01  0.88906072123E+00  0.88000000000E+00 0.  1.
        -11    1    4    4    0    0 -0.45325969435E-02  0.34776283514E-01  0.53832475752E-02  0.35484853185E-01  0.51100000000E-03 0. -1.
         11    1    4    4    0    0  0.20111607871E-01  0.92649089440E-01  0.15433313484E-01  0.96056123341E-01  0.51100000000E-03 0.  1.
</event>
<event>
 8    1  0.1135368E+005  0.1043930E+01  0.7957747E-01            NaN
         13   -1    0    0    0    0  0.00000000000E+00  0.00000000000E+00  0.74505805969E-08  0.10566000000E+00  0.10566000000E+00 0. -1.
     999900   -1    0    0    0    0 -0.00000000000E+00 -0.00000000000E+00 -0.74505805969E-08  0.93827000000E+00  0.93827000000E+00 0.  1.
     999902    2    1    2    0    0  0.21575094506E-01  0.45398062481E-02 -0.74008267918E-02  0.10206734572E+01  0.10204084670E+01 0.  0.
     999903    2    3    3    0    0 -0.41477633433E-01 -0.11189240147E+00  0.45347485223E-01  0.12920585272E+00  0.19936257883E-01 0.  0.
         14    1    1    2    0    0 -0.21575094506E-01 -0.45398062481E-02  0.74008267918E-02  0.23256542755E-01  0.00000000000E+00 0. -1.
     999901    1    3    3    0    0  0.63052727940E-01  0.11643220772E+00 -0.52748312015E-01  0.89146760452E+00  0.88000000000E+00 0.  1.
        -11    1    4    4    0    0 -0.76786935088E-02 -0.22852037460E-01  0.96723792191E-03  0.24132439169E-01  0.51100000000E-03 0. -1.
         11    1    4    4    0    0 -0.33798939925E-01 -0.89040364014E-01  0.44380247301E-01  0.10507341355E+00  0.51100000000E-03 0.  1.
</event>
<event>
 8    1  0.1135368E+005  0.1043930E+01  0.7957747E-01            NaN
         13   -1    0    0    0    0  0.00000000000E+00  0.00000000000E+00  0.74505805969E-08  0.10566000000E+00  0.10566000000E+00 0. -1.
     999900   -1    0    0    0    0 -0.00000000000E+00 -0.00000000000E+00 -0.74505805969E-08  0.93827000000E+00  0.93827000000E+00 0.  1.
     999902    2    1    2    0    0 -0.10170875279E-01  0.18671945131E-01  0.96212942267E-02  0.10205921007E+01  0.10203252318E+01 0.  0.
     999903    2    3    3    0    0  0.76495234532E-01 -0.96735895829E-01  0.29685267045E-01  0.12860973133E+00  0.21210692245E-01 0.  0.
         14    1    1    2    0    0  0.10170875279E-01 -0.18671945131E-01 -0.96212942267E-02  0.23337899253E-01  0.00000000000E+00 0. -1.
     999901    1    3    3    0    0 -0.86666109811E-01  0.11540784096E+00 -0.20063972818E-01  0.89198236942E+00  0.88000000000E+00 0.  1.
        -11    1    4    4    0    0  0.76111501729E-01 -0.89207895776E-01  0.30019499399E-01  0.12104726692E+00  0.51100000000E-03 0. -1.
         11    1    4    4    0    0  0.38373280297E-03 -0.75280000526E-02 -0.33423235418E-03  0.75624644080E-02  0.51100000000E-03 0.  1.
</event>
<event>
 8    1  0.1135368E+005  0.1043930E+01  0.7957747E-01            NaN
         13   -1    0    0    0    0  0.00000000000E+00  0.00000000000E+00  0.74505805969E-08  0.10566000000E+00  0.10566000000E+00 0. -1.
     999900   -1    0    0    0    0 -0.00000000000E+00 -0.00000000000E+00 -0.74505805969E-08  0.93827000000E+00  0.93827000000E+00 0.  1.
     999902    2    1    2    0    0  0.21010502615E-01 -0.20739235646E-02  0.55614555910E-02  0.10220971768E+01  0.10218639668E+01 0.  0.
     999903    2    3    3    0    0  0.26361644701E-01 -0.77594181010E-01 -0.10198775846E+00  0.13232261131E+00  0.19798417894E-01 0.  0.
         14    1    1    2    0    0 -0.21010502615E-01  0.20739235646E-02 -0.55614555910E-02  0.21832823165E-01  0.00000000000E+00 0. -1.
     999901    1    3    3    0    0 -0.53511420864E-02  0.75520257446E-01  0.10754921405E+00  0.88977456552E+00  0.88000000000E+00 0. -1.
        -11    1    4    4    0    0  0.14709187665E-01 -0.28620728908E-01 -0.27031925140E-01  0.42029661226E-01  0.51100000000E-03 0. -1.
         11    1    4    4    0    0  0.11652457036E-01 -0.48973452102E-01 -0.74955833320E-01  0.90292950088E-01  0.51100000000E-03 0.  1.
</event>
<event>
 8    1  0.1135368E+005  0.1043930E+01  0.7957747E-01            NaN
         13   -1    0    0    0    0  0.00000000000E+00  0.00000000000E+00  0.74505805969E-08  0.10566000000E+00  0.10566000000E+00 0. -1.
     999900   -1    0    0    0    0 -0.00000000000E+00 -0.00000000000E+00 -0.74505805969E-08  0.93827000000E+00  0.93827000000E+00 0.  1.
     999902    2    1    2    0    0  0.19376330477E-02  0.17829474346E-01  0.13937686490E-01  0.10212164868E+01  0.10209638628E+01 0.  0.
     999903    2    3    3    0    0  0.31469908636E-01 -0.12210502145E+00 -0.17359548681E-01  0.12912157293E+00  0.21703346628E-01 0.  0.
         14    1    1    2    0    0 -0.19376330477E-02 -0.17829474346E-01 -0.13937686490E-01  0.22713513202E-01  0.00000000000E+00 0. -1.
     999901    1    3    3    0    0 -0.29532275588E-01  0.13993449579E+00  0.31297235171E-01  0.89209491386E+00  0.88000000000E+00 0. -1.
        -11    1    4    4    0    0  0.26111989793E-01 -0.64352577547E-01 -0.15111216960E-01  0.71075313906E-01  0.51100000000E-03 0.  1.
         11    1    4    4    0    0  0.53579188423E-02 -0.57752443898E-01 -0.22483317215E-02  0.58046259028E-01  0.51100000000E-03 0. -1.
</event>
<event>
 8    1  0.1135368E+005  0.1043930E+01  0.7957747E-01            NaN
         13   -1    0    0    0    0  0.00000000000E+00  0.00000000000E+00  0.74505805969E-08  0.10566000000E+00  0.10566000000E+00 0. -1.
     999900   -1    0    0    0    0 -0.00000000000E+00 -0.00000000000E+00 -0.74505805969E-08  0.93827000000E+00  0.93827000000E+00 0.  1.
     999902    2    1    2    0    0 -0.83219088218E-02  0.24629304956E-01 -0.30190403860E-02  0.10177580411E+01  0.10174214755E+01 0.  0.
     999903    2    3    3    0    0 -0.94449851607E-01  0.76268875049E-01  0.44289804681E-01  0.13078408737E+00  0.20128957778E-01 0.  0.
         14    1    1    2    0    0  0.83219088218E-02 -0.24629304956E-01  0.30190403860E-02  0.26171958924E-01  0.00000000000E+00 0. -1.
     999901    1    3    3    0    0  0.86127942786E-01 -0.51639570093E-01 -0.47308845067E-01  0.88697395370E+00  0.88000000000E+00 0. -1.
        -11    1    4    4    0    0 -0.76779221015E-01  0.51435890877E-01  0.30427195043E-01  0.97297353351E-01  0.51100000000E-03 0. -1.
         11    1    4    4    0    0 -0.17670630593E-01  0.24832984172E-01  0.13862609638E-01  0.33486734021E-01  0.51100000000E-03 0.  1.
</event>
<event>
 8    1  0.1135368E+005  0.1043930E+01  0.7957747E-01            NaN
         13   -1    0    0    0    0  0.00000000000E+00  0.00000000000E+00  0.74505805969E-08  0.10566000000E+00  0.10566000000E+00 0.  1.
     999900   -1    0    0    0    0 -0.00000000000E+00 -0.00000000000E+00 -0.74505805969E-08  0.93827000000E+00  0.93827000000E+00 0. -1.
     999902    2    1    2    0    0  0.12230965146E-01  0.11195531567E-01 -0.17554128686E-01  0.10197828704E+01  0.10194969440E+01 0.  0.
     999903    2    3    3    0    0 -0.51525942930E-01 -0.70600231370E-01 -0.94722324881E-01  0.13033898756E+00  0.19406632456E-01 0.  0.
         14    1    1    2    0    0 -0.12230965146E-01 -0.11195531567E-01  0.17554128686E-01  0.24147129630E-01  0.00000000000E+00 0.  1.
     999901    1    3    3    0    0  0.63756908076E-01  0.81795762937E-01  0.77168196195E-01  0.88944388281E+00  0.88000000000E+00 0.  1.
        -11    1    4    4    0    0 -0.32318795405E-01 -0.52678219685E-01 -0.76582248153E-01  0.98410371500E-01  0.51100000000E-03 0.  1.
         11    1    4    4    0    0 -0.19207147525E-01 -0.17922011684E-01 -0.18140076728E-01  0.31928616061E-01  0.51100000000E-03 0. -1.
</event>
<event>
 8    1  0.1135368E+005  0.1043930E+01  0.7957747E-01            NaN
         13   -1    0    0    0    0  0.00000000000E+00  0.00000000000E+00  0.74505805969E-08  0.10566000000E+00  0.10566000000E+00 0. -1.
     999900   -1    0    0    0    0 -0.00000000000E+00 -0.00000000000E+00 -0.74505805969E-08  0.93827000000E+00  0.93827000000E+00 0.  1.
     999902    2    1    2    0    0  0.18306433529E-01  0.10065450430E-01 -0.11188400821E-01  0.10202314955E+01  0.10199562174E+01 0.  0.
     999903    2    3    3    0    0 -0.69129949809E-01  0.49729882122E-01  0.94403719243E-01  0.12873383200E+00  0.20207081869E-01 0.  0.
         14    1    1    2    0    0 -0.18306433529E-01 -0.10065450430E-01  0.11188400821E-01  0.23698504464E-01  0.00000000000E+00 0.  1.
     999901    1    3    3    0    0  0.87436383338E-01 -0.39664431692E-01 -0.10559212006E+00  0.89149766354E+00  0.88000000000E+00 0.  1.
        -11    1    4    4    0    0 -0.34217132604E-01  0.36893580239E-01  0.53974625671E-01  0.73793426291E-01  0.51100000000E-03 0.  1.
         11    1    4    4    0    0 -0.34912817205E-01  0.12836301883E-01  0.40429093572E-01  0.54940405708E-01  0.51100000000E-03 0. -1.
</event>
<event>
 8    1  0.1135368E+005  0.1043930E+01  0.7957747E-01            NaN
         13   -1    0    0    0    0  0.00000000000E+00  0.00000000000E+00  0.74505805969E-08  0.10566000000E+00  0.10566000000E+00 0.  1.
     999900   -1    0    0    0    0 -0.00000000000E+00 -0.00000000000E+00 -0.74505805969E-08  0.93827000000E+00  0.93827000000E+00 0. -1.
     999902    2    1    2    0    0  0.56606166304E-02  0.19886357820E-01 -0.12816192659E-01  0.10196037878E+01  0.10193135530E+01 0.  0.
     999903    2    3    3    0    0 -0.66162354988E-01  0.57722439168E-02 -0.11115308247E+00  0.13110624056E+00  0.20568484532E-01 0.  0.
         14    1    1    2    0    0 -0.56606166304E-02 -0.19886357820E-01  0.12816192659E-01  0.24326212247E-01  0.00000000000E+00 0.  1.
     999901    1    3    3    0    0  0.71822971618E-01  0.14114113903E-01  0.98336889807E-01  0.88849754719E+00  0.88000000000E+00 0. -1.
        -11    1    4    4    0    0 -0.90107749991E-02 -0.58070208550E-03 -0.32100914035E-01  0.33350578464E-01  0.51100000000E-03 0. -1.
         11    1    4    4    0    0 -0.57151579989E-01  0.63529460023E-02 -0.79052168432E-01  0.97755662101E-01  0.51100000000E-03 0.  1.
</event>
<event>
 8    1  0.1135368E+005  0.1043930E+01  0.7957747E-01            NaN
         13   -1    0    0    0    0  0.00000000000E+00  0.00000000000E+00  0.74505805969E-08  0.10566000000E+00  0.10566000000E+00 0.  1.
     999900   -1    0    0    0    0 -0.00000000000E+00 -0.00000000000E+00 -0.74505805969E-08  0.93827000000E+00  0.93827000000E+00 0.  1.
     999902    2    1    2    0    0  0.44890542834E-02 -0.79167347049E-02 -0.21918780210E-01  0.10201969171E+01  0.10199208256E+01 0.  0.
     999903    2    3    3    0    0 -0.28204614806E-01 -0.11665237475E+00  0.46309797471E-01  0.13028262113E+00  0.20632188293E-01 0.  0.
         14    1    1    2    0    0 -0.44890542834E-02  0.79167347049E-02  0.21918780210E-01  0.23733082873E-01  0.00000000000E+00 0.  1.
     999901    1    3    3    0    0  0.32693669090E-01  0.10873564005E+00 -0.68228577681E-01  0.88991429600E+00  0.88000000000E+00 0.  1.
        -11    1    4    4    0    0 -0.24829104988E-01 -0.59780822937E-01  0.22484865548E-01  0.68527815851E-01  0.51100000000E-03 0.  1.
         11    1    4    4    0    0 -0.33755098187E-02 -0.56871551816E-01  0.23824931922E-01  0.61754805275E-01  0.51100000000E-03 0. -1.
</event>
<event>
 8    1  0.1135368E+005  0.1043930E+01  0.7957747E-01            NaN
         13   -1    0    0    0    0  0.00000000000E+00  0.00000000000E+00  0.74505805969E-08  0.10566000000E+00  0.10566000000E+00 0. -1.
     999900   -1    0    0    0    0 -0.00000000000E+00 -0.00000000000E+00 -0.74505805969E-08  0.93827000000E+00  0.93827000000E+00 0.  1.
     999902    2    1    2    0    0  0.18515541438E-01  0.11066342258E-01 -0.93377509586E-02  0.10204250474E+01  0.10201542993E+01 0.  0.
     999903    2    3    3    0    0  0.12855933690E-01 -0.99720631137E-01 -0.80963103196E-01  0.13057338797E+00  0.19619028046E-01 0.  0.
         14    1    1    2    0    0 -0.18515541438E-01 -0.11066342258E-01  0.93377509586E-02  0.23504952641E-01  0.00000000000E+00 0. -1.
     999901    1    3    3    0    0  0.56596077479E-02  0.11078697339E+00  0.71625352237E-01  0.88985165939E+00  0.88000000000E+00 0.  1.
        -11    1    4    4    0    0  0.60628518295E-03 -0.72781288272E-01 -0.55538049142E-01  0.91554462085E-01  0.51100000000E-03 0. -1.
         11    1    4    4    0    0  0.12249648507E-01 -0.26939342865E-01 -0.25425054054E-01  0.39018925884E-01  0.51100000000E-03 0.  1.
</event>
<event>
 8    1  0.1135368E+005  0.1043930E+01  0.7957747E-01            NaN
         13   -1    0    0    0    0  0.00000000000E+00  0.00000000000E+00  0.74505805969E-08  0.10566000000E+00  0.10566000000E+00 0.  1.
     999900   -1    0    0    0    0 -0.00000000000E+00 -0.00000000000E+00 -0.74505805969E-08  0.93827000000E+00  0.93827000000E+00 0. -1.
     999902    2    1    2    0    0  0.18054669400E-01 -0.89429154054E-03 -0.15981026810E-01  0.10198019238E+01  0.10195164538E+01 0.  0.
     999903    2    3    3    0    0 -0.61623795793E-01 -0.12533594030E-02  0.10993613462E+00  0.12727521925E+00  0.17719046887E-01 0.  0.
         14    1    1    2    0    0 -0.18054669400E-01  0.89429154054E-03  0.15981026810E-01  0.24128076226E-01  0.00000000000E+00 0.  1.
     999901    1    3    3    0    0  0.79678465193E-01  0.35906786250E-03 -0.12591716143E+00  0.89252670452E+00  0.88000000000E+00 0. -1.
        -11    1    4    4    0    0 -0.11673505042E-01  0.66570400923E-03  0.94543487433E-02  0.15045255497E-01  0.51100000000E-03 0. -1.
         11    1    4    4    0    0 -0.49950290751E-01 -0.19190634123E-02  0.10048178588E+00  0.11222996375E+00  0.51100000000E-03 0.  1.
</event>
<event>
 8    1  0.1135368E+005  0.1043930E+01  0.7957747E-01            NaN
         13   -1    0    0    0    0  0.00000000000E+00  0.00000000000E+00  0.74505805969E-08  0.10566000000E+00  0.10566000000E+00 0.  1.
     999900   -1    0    0    0    0 -0.00000000000E+00 -0.00000000000E+00 -0.74505805969E-08  0.93827000000E+00  0.93827000000E+00 0. -1.
     999902    2    1    2    0    0  0.16346151432E-01 -0.17628731154E-01 -0.32645318984E-02  0.10196683843E+01  0.10193797074E+01 0.  0.
     999903    2    3    3    0    0  0.11161092191E+00 -0.58151652145E-01  0.36956625745E-01  0.13268742330E+00  0.20038652154E-01 0.  0.
         14    1    1    2    0    0 -0.16346151432E-01  0.17628731154E-01  0.32645318984E-02  0.24261615718E-01  0.00000000000E+00 0. -1.
     999901    1    3    3    0    0 -0.95264770474E-01  0.40522920991E-01 -0.40221157644E-01  0.88698096098E+00  0.88000000000E+00 0. -1.
        -11    1    4    4    0    0  0.80456908945E-01 -0.48816552607E-01  0.20851166296E-01  0.96391920110E-01  0.51100000000E-03 0. -1.
         11    1    4    4    0    0  0.31154012960E-01 -0.93350995382E-02  0.16105459449E-01  0.36295503192E-01  0.51100000000E-03 0.  1.
</event>
<event>
 8    1  0.1135368E+005  0.1043930E+01  0.7957747E-01            NaN
         13   -1    0    0    0    0  0.00000000000E+00  0.00000000000E+00  0.74505805969E-08  0.10566000000E+00  0.10566000000E+00 0. -1.
     999900   -1    0    0    0    0 -0.00000000000E+00 -0.00000000000E+00 -0.74505805969E-08  0.93827000000E+00  0.93827000000E+00 0.  1.
     999902    2    1    2    0    0 -0.15425452699E-01 -0.77791653572E-02  0.16362470451E-01  0.10201352434E+01  0.10198576981E+01 0.  0.
     999903    2    3    3    0    0 -0.10778674919E+00 -0.27244342306E-01  0.71049203959E-01  0.13339957754E+00  0.19677916952E-01 0.  0.
         14    1    1    2    0    0  0.15425452699E-01  0.77791653572E-02 -0.16362470451E-01  0.23794756646E-01  0.00000000000E+00 0. -1.
     999901    1    3    3    0    0  0.92361296494E-01  0.19465176949E-01 -0.54686733508E-01  0.88673566581E+00  0.88000000000E+00 0.  1.
        -11    1    4    4    0    0 -0.58990370382E-01 -0.63252564067E-02  0.43613677417E-01  0.73636177558E-01  0.51100000000E-03 0. -1.
         11    1    4    4    0    0 -0.48796378810E-01 -0.20919085900E-01  0.27435526541E-01  0.59763399982E-01  0.51100000000E-03 0.  1.
</event>
<event>
 8    1  0.1135368E+005  0.1043930E+01  0.7957747E-01            NaN
         13   -1    0    0    0    0  0.00000000000E+00  0.00000000000E+00  0.74505805969E-08  0.10566000000E+00  0.10566000000E+00 0. -1.
     999900   -1    0    0    0    0 -0.00000000000E+00 -0.00000000000E+00 -0.74505805969E-08  0.93827000000E+00  0.93827000000E+00 0.  1.
     999902    2    1    2    0    0  0.20241875114E-01  0.11362307688E-01  0.56989823724E-02  0.10200278255E+01  0.10197477389E+01 0.  0.
     999903    2    3    3    0    0  0.10678707087E+00  0.14245826169E-01  0.75349403469E-01  0.13303878009E+00  0.20380440028E-01 0.  0.
         14    1    1    2    0    0 -0.20241875114E-01 -0.11362307688E-01 -0.56989823724E-02  0.23902174466E-01  0.00000000000E+00 0. -1.
     999901    1    3    3    0    0 -0.86545195755E-01 -0.28835184811E-02 -0.69650421096E-01  0.88698904545E+00  0.88000000000E+00 0.  1.
        -11    1    4    4    0    0  0.38445260725E-01  0.13990776998E-01  0.33672886152E-01  0.52989662161E-01  0.51100000000E-03 0. -1.
         11    1    4    4    0    0  0.68341810144E-01  0.25504917084E-03  0.41676517317E-01  0.80049117924E-01  0.51100000000E-03 0.  1.
</event>
<event>
 8    1  0.1135368E+005  0.1043930E+01  0.7957747E-01            NaN
         13   -1    0    0    0    0  0.00000000000E+00  0.00000000000E+00  0.74505805969E-08  0.10566000000E+00  0.10566000000E+00 0. -1.
     999900   -1    0    0    0    0 -0.00000000000E+00 -0.00000000000E+00 -0.74505805969E-08  0.93827000000E+00  0.93827000000E+00 0.  1.
     999902    2    1    2    0    0  0.11652882232E-01 -0.13468681088E-01 -0.15685764148E-01  0.10201973594E+01  0.10199212782E+01 0.  0.
     999903    2    3    3    0    0 -0.11246375506E+00 -0.46837984758E-02 -0.62419455262E-01  0.13021637547E+00  0.19750490487E-01 0.  0.
         14    1    1    2    0    0 -0.11652882232E-01  0.13468681088E-01  0.15685764148E-01  0.23732640634E-01  0.00000000000E+00 0. -1.
     999901    1    3    3    0    0  0.12411663729E+00 -0.87848826119E-02  0.46733691114E-01  0.88998098390E+00  0.88000000000E+00 0.  1.
        -11    1    4    4    0    0 -0.82739752754E-01  0.40925570139E-02 -0.50409659279E-01  0.96974277921E-01  0.51100000000E-03 0.  1.
         11    1    4    4    0    0 -0.29724002306E-01 -0.87763554897E-02 -0.12009795983E-01  0.33242097547E-01  0.51100000000E-03 0. -1.
</event>
<event>
 8    1  0.1135368E+005  0.1043930E+01  0.7957747E-01            NaN
         13   -1    0    0    0    0  0.00000000000E+00  0.00000000000E+00  0.74505805969E-08  0.10566000000E+00  0.10566000000E+00 0.  1.
     999900   -1    0    0    0    0 -0.00000000000E+00 -0.00000000000E+00 -0.74505805969E-08  0.93827000000E+00  0.93827000000E+00 0. -1.
     999902    2    1    2    0    0  0.72515715886E-02 -0.91917225228E-02  0.19830882732E-01  0.10209009539E+01  0.10206411812E+01 0.  0.
     999903    2    3    3    0    0 -0.88590646642E-01 -0.34491239635E-01  0.90280422121E-01  0.13253788965E+00  0.19436802464E-01 0.  0.
         14    1    1    2    0    0 -0.72515715886E-02  0.91917225228E-02 -0.19830882732E-01  0.23029046081E-01  0.00000000000E+00 0. -1.
     999901    1    3    3    0    0  0.95842218230E-01  0.25299517112E-01 -0.70449539389E-01  0.88836306427E+00  0.88000000000E+00 0. -1.
        -11    1    4    4    0    0 -0.82538208152E-01 -0.25902877367E-01  0.80002673669E-01  0.11783125127E+00  0.51100000000E-03 0.  1.
         11    1    4    4    0    0 -0.60524384901E-02 -0.85883622680E-02  0.10277748452E-01  0.14706638377E-01  0.51100000000E-03 0. -1.
</event>
<event>
 8    1  0.1135368E+005  0.1043930E+01  0.7957747E-01            NaN
         13   -1    0    0    0    0  0.00000000000E+00  0.00000000000E+00  0.74505805969E-08  0.10566000000E+00  0.10566000000E+00 0. -1.
     999900   -1    0    0    0    0 -0.00000000000E+00 -0.00000000000E+00 -0.74505805969E-08  0.93827000000E+00  0.93827000000E+00 0.  1.
     999902    2    1    2    0    0  0.21116531027E-01 -0.79566505207E-02 -0.41453161749E-02  0.10209865954E+01  0.10207287730E+01 0.  0.
     999903    2    3    3    0    0 -0.23353277347E-01 -0.10070770266E+00 -0.79271484588E-01  0.13181604777E+00  0.20101871599E-01 0.  0.
         14    1    1    2    0    0 -0.21116531027E-01  0.79566505207E-02  0.41453161749E-02  0.22943404637E-01  0.00000000000E+00 0.  1.
     999901    1    3    3    0    0  0.44469808374E-01  0.92751052143E-01  0.75126168413E-01  0.88917054760E+00  0.88000000000E+00 0.  1.
        -11    1    4    4    0    0 -0.13000983802E-02 -0.49978455963E-01 -0.37818391634E-01  0.62689936856E-01  0.51100000000E-03 0. -1.
         11    1    4    4    0    0 -0.22053178967E-01 -0.50729246701E-01 -0.41453092953E-01  0.69126110912E-01  0.51100000000E-03 0.  1.
</event>
<event>
 8    1  0.1135368E+005  0.1043930E+01  0.7957747E-01            NaN
         13   -1    0    0    0    0  0.00000000000E+00  0.00000000000E+00  0.74505805969E-08  0.10566000000E+00  0.10566000000E+00 0.  1.
     999900   -1    0    0    0    0 -0.00000000000E+00 -0.00000000000E+00 -0.74505805969E-08  0.93827000000E+00  0.93827000000E+00 0. -1.
     999902    2    1    2    0    0 -0.20412752480E-01 -0.41579521708E-03  0.12086109650E-01  0.10202039090E+01  0.10199279820E+01 0.  0.
     999903    2    3    3    0    0 -0.12762711786E+00 -0.22591770047E-01  0.23810559927E-01  0.13334193732E+00  0.20348469191E-01 0.  0.
         14    1    1    2    0    0  0.20412752480E-01  0.41579521708E-03 -0.12086109650E-01  0.23726091038E-01  0.00000000000E+00 0. -1.
     999901    1    3    3    0    0  0.10721436538E+00  0.22175974830E-01 -0.11724450277E-01  0.88686197164E+00  0.88000000000E+00 0. -1.
        -11    1    4    4    0    0 -0.73109927258E-01 -0.22087538688E-01  0.94285788282E-02  0.76955052132E-01  0.51100000000E-03 0.  1.
         11    1    4    4    0    0 -0.54517190601E-01 -0.50423135920E-03  0.14381981099E-01  0.56386885192E-01  0.51100000000E-03 0. -1.
</event>
<event>
 8    1  0.1186974E+005  0.1043930E+01  0.7957747E-01            NaN
         13   -1    0    0    0    0  0.00000000000E+00  0.00000000000E+00  0.74505805969E-08  0.10566000000E+00  0.10566000000E+00 0. -1.
     999900   -1    0    0    0    0 -0.00000000000E+00 -0.00000000000E+00 -0.74505805969E-08  0.93827000000E+00  0.93827000000E+00 0. -1.
     999902    2    1    2    0    0  0.80246479807E-02  0.59118049827E-02  0.22629951533E-01  0.10192023006E+01  0.10189022869E+01 0.  0.
     999903    2    3    3    0    0  0.85233308222E-02  0.98710979915E-01 -0.79319149988E-01  0.12846914475E+00  0.19907005653E-01 0.  0.
         14    1    1    2    0    0 -0.80246479807E-02 -0.59118049827E-02 -0.22629951533E-01  0.24727699443E-01  0.00000000000E+00 0.  1.
     999901    1    3    3    0    0 -0.49868284152E-03 -0.92799174932E-01  0.10194910152E+00  0.89073315581E+00  0.88000000000E+00 0. -1.
        -11    1    4    4    0    0 -0.53026940317E-02  0.52612849434E-01 -0.43478480858E-01  0.68460717994E-01  0.51100000000E-03 0.  1.
         11    1    4    4    0    0  0.13826024854E-01  0.46098130481E-01 -0.35840669130E-01  0.60008426756E-01  0.51100000000E-03 0. -1.
</event>
<event>
 8    1  0.1135368E+005  0.1043930E+01  0.7957747E-01            NaN
         13   -1    0    0    0    0  0.00000000000E+00  0.00000000000E+00  0.74505805969E-08  0.10566000000E+00  0.10566000000E+00 0. -1.
     999900   -1    0    0    0    0 -0.00000000000E+00 -0.00000000000E+00 -0.74505805969E-08  0.93827000000E+00  0.93827000000E+00 0.  1.
     999902    2    1    2    0    0  0.37268127067E-02  0.32147760531E-01  0.11738145761E-02  0.10115456599E+01  0.10110271394E+01 0.  0.
     999903    2    3    3    0    0  0.12401961532E-01  0.29340190718E-01  0.11796696936E+00  0.12378230090E+00  0.19778693469E-01 0.  0.
         14    1    1    2    0    0 -0.37268127067E-02 -0.32147760531E-01 -0.11738145761E-02  0.32384340054E-01  0.00000000000E+00 0. -1.
     999901    1    3    3    0    0 -0.86751488252E-02  0.28075698126E-02 -0.11679315478E+00  0.88776335904E+00  0.88000000000E+00 0.  1.
        -11    1    4    4    0    0  0.99804922817E-02  0.52161487336E-02  0.21062477053E-01  0.23889485018E-01  0.51100000000E-03 0. -1.
         11    1    4    4    0    0  0.24214692502E-02  0.24124041985E-01  0.96904492307E-01  0.99892815884E-01  0.51100000000E-03 0.  1.
</event>
<event>
 8    1  0.1135368E+005  0.1043930E+01  0.7957747E-01            NaN
         13   -1    0    0    0    0  0.00000000000E+00  0.00000000000E+00  0.74505805969E-08  0.10566000000E+00  0.10566000000E+00 0. -1.
     999900   -1    0    0    0    0 -0.00000000000E+00 -0.00000000000E+00 -0.74505805969E-08  0.93827000000E+00  0.93827000000E+00 0. -1.
     999902    2    1    2    0    0 -0.12148997153E-01 -0.11682792026E-01  0.16570658077E-01  0.10202937467E+01  0.10200199297E+01 0.  0.
     999903    2    3    3    0    0 -0.10484753472E+00 -0.60042020214E-01  0.52977475585E-01  0.13335683226E+00  0.19477732499E-01 0.  0.
         14    1    1    2    0    0  0.12148997153E-01  0.11682792026E-01 -0.16570658077E-01  0.23636253308E-01  0.00000000000E+00 0. -1.
     999901    1    3    3    0    0  0.92698537567E-01  0.48359228187E-01 -0.36406817508E-01  0.88693691443E+00  0.88000000000E+00 0. -1.
        -11    1    4    4    0    0 -0.83436196322E-02 -0.81306528498E-02  0.10938096103E-01  0.15988326106E-01  0.51100000000E-03 0. -1.
         11    1    4    4    0    0 -0.96503915088E-01 -0.51911367364E-01  0.42039379482E-01  0.11736850616E+00  0.51100000000E-03 0.  1.
</event>
<event>
 8    1  0.1135368E+005  0.1043930E+01  0.7957747E-01            NaN
         13   -1    0    0    0    0  0.00000000000E+00  0.00000000000E+00  0.74505805969E-08  0.10566000000E+00  0.10566000000E+00 0.  1.
     999900   -1    0    0    0    0 -0.00000000000E+00 -0.00000000000E+00 -0.74505805969E-08  0.93827000000E+00  0.93827000000E+00 0. -1.
     999902    2    1    2    0    0 -0.16054658639E-01 -0.11411789258E-02  0.14901453682E-01  0.10219958332E+01  0.10217604295E+01 0.  0.
     999903    2    3    3    0    0  0.93747758674E-01 -0.66754651009E-01 -0.56669666967E-01  0.12987245386E+00  0.20262710347E-01 0.  0.
         14    1    1    2    0    0  0.16054658639E-01  0.11411789258E-02 -0.14901453682E-01  0.21934166845E-01  0.00000000000E+00 0. -1.
     999901    1    3    3    0    0 -0.10980241731E+00  0.65613472084E-01  0.71571120650E-01  0.89212337929E+00  0.88000000000E+00 0.  1.
        -11    1    4    4    0    0  0.14028716671E-01 -0.19825312147E-01 -0.10168977282E-01  0.26334713083E-01  0.51100000000E-03 0.  1.
         11    1    4    4    0    0  0.79719042003E-01 -0.46929338862E-01 -0.46500689685E-01  0.10353774078E+00  0.51100000000E-03 0. -1.
</event>
<event>
 8    1  0.1135368E+005  0.1043930E+01  0.7957747E-01            NaN
         13   -1    0    0    0    0  0.00000000000E+00  0.00000000000E+00  0.74505805969E-08  0.10566000000E+00  0.10566000000E+00 0. -1.
     999900   -1    0    0    0    0 -0.00000000000E+00 -0.00000000000E+00 -0.74505805969E-08  0.93827000000E+00  0.93827000000E+00 0.  1.
     999902    2    1    2    0    0 -0.34373239702E-02  0.12302559500E-01 -0.20286387357E-01  0.10199569802E+01  0.10196752109E+01 0.  0.
     999903    2    3    3    0    0 -0.80273382018E-02 -0.12103644199E+00 -0.41452903141E-01  0.12964895545E+00  0.19397165266E-01 0.  0.
         14    1    1    2    0    0  0.34373239702E-02 -0.12302559500E-01  0.20286387357E-01  0.23973019800E-01  0.00000000000E+00 0. -1.
     999901    1    3    3    0    0  0.45900142315E-02  0.13333900149E+00  0.21166515783E-01  0.89030802475E+00  0.88000000000E+00 0. -1.
        -11    1    4    4    0    0 -0.95821702841E-02 -0.40251977067E-01 -0.20478516201E-01  0.46170016157E-01  0.51100000000E-03 0.  1.
         11    1    4    4    0    0  0.15548320824E-02 -0.80784464927E-01 -0.20974386940E-01  0.83478939289E-01  0.51100000000E-03 0. -1.
</event>
<event>
 8    1  0.1135368E+005  0.1043930E+01  0.7957747E-01            NaN
         13   -1    0    0    0    0  0.00000000000E+00  0.00000000000E+00  0.74505805969E-08  0.10566000000E+00  0.10566000000E+00 0. -1.
     999900   -1    0    0    0    0 -0.00000000000E+00 -0.00000000000E+00 -0.74505805969E-08  0.93827000000E+00  0.93827000000E+00 0.  1.
     999902    2    1    2    0    0 -0.15633891458E-03 -0.22320470065E-01  0.87398352914E-02  0.10199589227E+01  0.10196771996E+01 0.  0.
     999903    2    3    3    0    0 -0.10382606866E+00 -0.73338521769E-01  0.29626090212E-01  0.13216024614E+00  0.20742085951E-01 0.  0.
         14    1    1    2    0    0  0.15633891458E-03  0.22320470065E-01 -0.87398352914E-02  0.23971077295E-01  0.00000000000E+00 0. -1.
     999901    1    3    3    0    0  0.10366972975E+00  0.51018051705E-01 -0.20886254921E-01  0.88779867656E+00  0.88000000000E+00 0.  1.
        -11    1    4    4    0    0 -0.58958768839E-01 -0.51098441253E-01  0.24702728316E-01  0.81839312245E-01  0.51100000000E-03 0. -1.
         11    1    4    4    0    0 -0.44867299822E-01 -0.22240080517E-01  0.49233618961E-02  0.50320933895E-01  0.51100000000E-03 0.  1.
</event>
<event>
 8    1  0.1135368E+005  0.1043930E+01  0.7957747E-01            NaN
         13   -1    0    0    0    0  0.00000000000E+00  0.00000000000E+00  0.74505805969E-08  0.10566000000E+00  0.10566000000E+00 0.  1.
     999900   -1    0    0    0    0 -0.00000000000E+00 -0.00000000000E+00 -0.74505805969E-08  0.93827000000E+00  0.93827000000E+00 0.  1.
     999902    2    1    2    0    0  0.14190929960E-01 -0.18576954316E-01  0.54265595290E-03  0.10205466683E+01  0.10202787472E+01 0.  0.
     999903    2    3    3    0    0 -0.51013735535E-01  0.41598617516E-02 -0.11767894974E+00  0.12995980605E+00  0.20530716326E-01 0.  0.
         14    1    1    2    0    0 -0.14190929960E-01  0.18576954316E-01 -0.54265595290E-03  0.23383331676E-01  0.00000000000E+00 0. -1.
     999901    1    3    3    0    0  0.65204665495E-01 -0.22736816068E-01  0.11822160569E+00  0.89058686228E+00  0.88000000000E+00 0. -1.
        -11    1    4    4    0    0 -0.30365419171E-01 -0.68266000384E-02 -0.76654606037E-01  0.82733614071E-01  0.51100000000E-03 0.  1.
         11    1    4    4    0    0 -0.20648316364E-01  0.10986461790E-01 -0.41024343703E-01  0.47226191976E-01  0.51100000000E-03 0. -1.
</event>
<event>
 8    1  0.1135368E+005  0.1043930E+01  0.7957747E-01            NaN
         13   -1    0    0    0    0  0.00000000000E+00  0.00000000000E+00  0.74505805969E-08  0.10566000000E+00  0.10566000000E+00 0. -1.
     999900   -1    0    0    0    0 -0.00000000000E+00 -0.00000000000E+00 -0.74505805969E-08  0.93827000000E+00  0.93827000000E+00 0. -1.
     999902    2    1    2    0    0 -0.11976146125E-01 -0.57784622468E-02  0.19681679023E-01  0.10201773751E+01  0.10199008233E+01 0.  0.
     999903    2    3    3    0    0  0.25715928477E-01 -0.12630479378E+00 -0.93208923780E-02  0.13068963585E+00  0.19460009587E-01 0.  0.
         14    1    1    2    0    0  0.11976146125E-01  0.57784622468E-02 -0.19681679023E-01  0.23752624931E-01  0.00000000000E+00 0.  1.
     999901    1    3    3    0    0 -0.37692074602E-01  0.12052633153E+00  0.29002571401E-01  0.88948773922E+00  0.88000000000E+00 0.  1.
        -11    1    4    4    0    0  0.22501045897E-01 -0.78019893274E-01 -0.12649799351E-01  0.82180772433E-01  0.51100000000E-03 0.  1.
         11    1    4    4    0    0  0.32148825801E-02 -0.48284900507E-01  0.33289069733E-02  0.48508863413E-01  0.51100000000E-03 0. -1.
</event>
<event>
 8    1  0.1135368E+005  0.1043930E+01  0.7957747E-01            NaN
         13   -1    0    0    0    0  0.00000000000E+00  0.00000000000E+00  0.74505805969E-08  0.10566000000E+00  0.10566000000E+00 0. -1.
     999900   -1    0    0    0    0 -0.00000000000E+00 -0.00000000000E+00 -0.74505805969E-08  0.93827000000E+00  0.93827000000E+00 0. -1.
     999902    2    1    2    0    0 -0.17159439061E-01  0.12420403620E-01 -0.73435862470E-02  0.10215103427E+01  0.10212642847E+01 0.  0.
     999903    2    3    3    0    0  0.76952943195E-01  0.10391383740E+00 -0.13130481522E-01  0.13175662560E+00  0.21623084284E-01 0.  0.
         14    1    1    2    0    0  0.17159439061E-01 -0.12420403620E-01  0.73435862470E-02  0.22419657310E-01  0.00000000000E+00 0. -1.
     999901    1    3    3    0    0 -0.94112382255E-01 -0.91493433784E-01  0.57868952746E-02  0.88975371709E+00  0.88000000000E+00 0. -1.
        -11    1    4    4    0    0  0.58298709619E-01  0.81031240189E-01 -0.19089818044E-01  0.10163406763E+00  0.51100000000E-03 0.  1.
         11    1    4    4    0    0  0.18654233576E-01  0.22882597215E-01  0.59593365225E-02  0.30122557965E-01  0.51100000000E-03 0. -1.
</event>
<event>
 8    1  0.1135368E+005  0.1043930E+01  0.7957747E-01            NaN
         13   -1    0    0    0    0  0.00000000000E+00  0.00000000000E+00  0.74505805969E-08  0.10566000000E+00  0.10566000000E+00 0.  1.
     999900   -1    0    0    0    0 -0.00000000000E+00 -0.00000000000E+00 -0.74505805969E-08  0.93827000000E+00  0.93827000000E+00 0.  1.
     999902    2    1    2    0    0  0.11930722098E-01 -0.10881850308E-01 -0.17221981379E-01  0.10203216659E+01  0.10200485030E+01 0.  0.
     999903    2    3    3    0    0  0.59264106271E-01  0.95089062947E-01  0.61196363004E-01  0.12924382394E+00  0.20119816035E-01 0.  0.
         14    1    1    2    0    0 -0.11930722098E-01  0.10881850308E-01  0.17221981379E-01  0.23608334091E-01  0.00000000000E+00 0.  1.
     999901    1    3    3    0    0 -0.47333384173E-01 -0.10597091326E+00 -0.78418344383E-01  0.89107784197E+00  0.88000000000E+00 0.  1.
        -11    1    4    4    0    0  0.49136849529E-01  0.79384840108E-01  0.58949144109E-01  0.11041578480E+00  0.51100000000E-03 0. -1.
         11    1    4    4    0    0  0.10127256742E-01  0.15704222839E-01  0.22472188944E-02  0.18828039140E-01  0.51100000000E-03 0.  1.
</event>
<event>
 8    1  0.1135368E+005  0.1043930E+01  0.7957747E-01            NaN
         13   -1    0    0    0    0  0.00000000000E+00  0.00000000000E+00  0.74505805969E-08  0.10566000000E+00  0.10566000000E+00 0. -1.
     999900   -1    0    0    0    0 -0.00000000000E+00 -0.00000000000E+00 -0.74505805969E-08  0.93827000000E+00  0.93827000000E+00 0.  1.
     999902    2    1    2    0    0 -0.20497566374E-01  0.25938639342E-02 -0.11857888771E-01  0.10201079958E+01  0.10198298070E+01 0.  0.
     999903    2    3    3    0    0  0.25863552134E-01  0.10531514310E+00 -0.70160574734E-01  0.13100720417E+00  0.21912977969E-01 0.  0.
         14    1    1    2    0    0  0.20497566374E-01 -0.25938639342E-02  0.11857888771E-01  0.23822004187E-01  0.00000000000E+00 0.  1.
     999901    1    3    3    0    0 -0.46361118508E-01 -0.10272127917E+00  0.58302685964E-01  0.88910079164E+00  0.88000000000E+00 0. -1.
        -11    1    4    4    0    0  0.12708365603E-01  0.49331908831E-01 -0.20120771343E-01  0.54774504522E-01  0.51100000000E-03 0. -1.
         11    1    4    4    0    0  0.13155186531E-01  0.55983234268E-01 -0.50039803391E-01  0.76232699652E-01  0.51100000000E-03 0.  1.
</event>
<event>
 8    1  0.1135368E+005  0.1043930E+01  0.7957747E-01            NaN
         13   -1    0    0    0    0  0.00000000000E+00  0.00000000000E+00  0.74505805969E-08  0.10566000000E+00  0.10566000000E+00 0.  1.
     999900   -1    0    0    0    0 -0.00000000000E+00 -0.00000000000E+00 -0.74505805969E-08  0.93827000000E+00  0.93827000000E+00 0.  1.
     999902    2    1    2    0    0 -0.79731853703E-02 -0.41819020169E-02  0.22235989968E-01  0.10199404348E+01  0.10196582718E+01 0.  0.
     999903    2    3    3    0    0  0.51882551598E-01  0.51474708098E-01  0.10807722733E+00  0.13199387922E+00  0.20006307815E-01 0.  0.
         14    1    1    2    0    0  0.79731853703E-02  0.41819020169E-02 -0.22235989968E-01  0.23989565217E-01  0.00000000000E+00 0. -1.
     999901    1    3    3    0    0 -0.59855736969E-01 -0.55656610115E-01 -0.85841237357E-01  0.88794655556E+00  0.88000000000E+00 0.  1.
        -11    1    4    4    0    0  0.43101124347E-01  0.35044113694E-01  0.68088937684E-01  0.87875829331E-01  0.51100000000E-03 0.  1.
         11    1    4    4    0    0  0.87814272510E-02  0.16430594403E-01  0.39988289641E-01  0.44118049894E-01  0.51100000000E-03 0. -1.
</event>
<event>
 8    1  0.1135368E+005  0.1043930E+01  0.7957747E-01            NaN
         13   -1    0    0    0    0  0.00000000000E+00  0.00000000000E+00  0.74505805969E-08  0.10566000000E+00  0.10566000000E+00 0. -1.
     999900   -1    0    0    0    0 -0.00000000000E+00 -0.00000000000E+00 -0.74505805969E-08  0.93827000000E+00  0.93827000000E+00 0.  1.
     999902    2    1    2    0    0 -0.20191724861E-01 -0.22274245643E-02 -0.11451210281E-01  0.10206105362E+01  0.10203440936E+01 0.  0.
     999903    2    3    3    0    0  0.13516077923E-02  0.11610322921E+00  0.54855020254E-01  0.12995753141E+00  0.19952444626E-01 0.  0.
         14    1    1    2    0    0  0.20191724861E-01  0.22274245643E-02  0.11451210281E-01  0.23319463758E-01  0.00000000000E+00 0.  1.
     999901    1    3    3    0    0 -0.21543332653E-01 -0.11833065378E+00 -0.66306230535E-01  0.89065300483E+00  0.88000000000E+00 0.  1.
        -11    1    4    4    0    0  0.26686706208E-02  0.59077898992E-01  0.17140080231E-01  0.61574048295E-01  0.51100000000E-03 0. -1.
         11    1    4    4    0    0 -0.13170628285E-02  0.57025330220E-01  0.37714940023E-01  0.68383483117E-01  0.51100000000E-03 0.  1.
</event>
<event>
 8    1  0.1135368E+005  0.1043930E+01  0.7957747E-01            NaN
         13   -1    0    0    0    0  0.00000000000E+00  0.00000000000E+00  0.74505805969E-08  0.10566000000E+00  0.10566000000E+00 0. -1.
     999900   -1    0    0    0    0 -0.00000000000E+00 -0.00000000000E+00 -0.74505805969E-08  0.93827000000E+00  0.93827000000E+00 0.  1.
     999902    2    1    2    0    0 -0.26135630006E-02  0.22216131943E-01  0.23926717010E-02  0.10214330645E+01  0.10211852883E+01 0.  0.
     999903    2    3    3    0    0 -0.71587963888E-01 -0.43532033179E-02  0.10906630600E+00  0.13191484555E+00  0.19033665391E-01 0.  0.
         14    1    1    2    0    0  0.26135630006E-02 -0.22216131943E-01 -0.23926717010E-02  0.22496935523E-01  0.00000000000E+00 0. -1.
     999901    1    3    3    0    0  0.68974400887E-01  0.26569335260E-01 -0.10667363430E+00  0.88951821893E+00  0.88000000000E+00 0.  1.
        -11    1    4    4    0    0 -0.42947914007E-01 -0.10826148570E-01  0.57631240983E-01  0.72686655368E-01  0.51100000000E-03 0. -1.
         11    1    4    4    0    0 -0.28640049881E-01  0.64729452522E-02  0.51435065018E-01  0.59228190179E-01  0.51100000000E-03 0.  1.
</event>
<event>
 8    1  0.1135368E+005  0.1043930E+01  0.7957747E-01            NaN
         13   -1    0    0    0    0  0.00000000000E+00  0.00000000000E+00  0.74505805969E-08  0.10566000000E+00  0.10566000000E+00 0.  1.
     999900   -1    0    0    0    0 -0.00000000000E+00 -0.00000000000E+00 -0.74505805969E-08  0.93827000000E+00  0.93827000000E+00 0. -1.
     999902    2    1    2    0    0  0.21432135314E-01 -0.88012394108E-02 -0.35006149854E-02  0.10204981297E+01  0.10202290822E+01 0.  0.
     999903    2    3    3    0    0  0.64504299811E-01  0.27163275119E-01 -0.11046112574E+00  0.13224748463E+00  0.19725330972E-01 0.  0.
         14    1    1    2    0    0 -0.21432135314E-01  0.88012394108E-02  0.35006149854E-02  0.23431870274E-01  0.00000000000E+00 0.  1.
     999901    1    3    3    0    0 -0.43072164497E-01 -0.35964514530E-01  0.10696051075E+00  0.88825064510E+00  0.88000000000E+00 0.  1.
        -11    1    4    4    0    0  0.25076336665E-01  0.14128660328E-01 -0.62458148504E-01  0.68772982622E-01  0.51100000000E-03 0. -1.
         11    1    4    4    0    0  0.39427963146E-01  0.13034614791E-01 -0.48002977231E-01  0.63474502004E-01  0.51100000000E-03 0.  1.
</event>
<event>
 8    1  0.1135368E+005  0.1043930E+01  0.7957747E-01            NaN
         13   -1    0    0    0    0  0.00000000000E+00  0.00000000000E+00  0.74505805969E-08  0.10566000000E+00  0.10566000000E+00 0. -1.
     999900   -1    0    0    0    0 -0.00000000000E+00 -0.00000000000E+00 -0.74505805969E-08  0.93827000000E+00  0.93827000000E+00 0.  1.
     999902    2    1    2    0    0  0.20317454246E-01  0.76944769269E-02 -0.97480662662E-02  0.10201176352E+01  0.10198396741E+01 0.  0.
     999903    2    3    3    0    0  0.73400347016E-01  0.13317358495E-01 -0.10821040039E+00  0.13301885740E+00  0.20483229544E-01 0.  0.
         14    1    1    2    0    0 -0.20317454246E-01 -0.76944769269E-02  0.97480662662E-02  0.23812364816E-01  0.00000000000E+00 0. -1.
     999901    1    3    3    0    0 -0.53082892771E-01 -0.56228815679E-02  0.98462334123E-01  0.88709877778E+00  0.88000000000E+00 0. -1.
        -11    1    4    4    0    0  0.53586578316E-01  0.19420732097E-02 -0.84573877106E-01  0.10014137423E+00  0.51100000000E-03 0.  1.
         11    1    4    4    0    0  0.19813768701E-01  0.11375285285E-01 -0.23636523284E-01  0.32877483167E-01  0.51100000000E-03 0. -1.
</event>
<event>
 8    1  0.1135368E+005  0.1043930E+01  0.7957747E-01            NaN
         13   -1    0    0    0    0  0.00000000000E+00  0.00000000000E+00  0.74505805969E-08  0.10566000000E+00  0.10566000000E+00 0.  1.
     999900   -1    0    0    0    0 -0.00000000000E+00 -0.00000000000E+00 -0.74505805969E-08  0.93827000000E+00  0.93827000000E+00 0. -1.
     999902    2    1    2    0    0 -0.13196832368E-01 -0.17990550949E-01  0.81866932058E-02  0.10201636740E+01  0.10198867993E+01 0.  0.
     999903    2    3    3    0    0 -0.77968571664E-01 -0.11519633622E-01  0.10452747035E+00  0.13251577286E+00  0.20558158290E-01 0.  0.
         14    1    1    2    0    0  0.13196832368E-01  0.17990550949E-01 -0.81866932058E-02  0.23766326044E-01  0.00000000000E+00 0. -1.
     999901    1    3    3    0    0  0.64771739296E-01 -0.64709173273E-02 -0.96340777144E-01  0.88764790110E+00  0.88000000000E+00 0. -1.
        -11    1    4    4    0    0 -0.30784139869E-01 -0.78997535054E-02  0.27099181495E-01  0.41769559869E-01  0.51100000000E-03 0.  1.
         11    1    4    4    0    0 -0.47184431794E-01 -0.36198801163E-02  0.77428288855E-01  0.90746212989E-01  0.51100000000E-03 0. -1.
</event>
<event>
 8    1  0.1135368E+005  0.1043930E+01  0.7957747E-01            NaN
         13   -1    0    0    0    0  0.00000000000E+00  0.00000000000E+00  0.74505805969E-08  0.10566000000E+00  0.10566000000E+00 0. -1.
     999900   -1    0    0    0    0 -0.00000000000E+00 -0.00000000000E+00 -0.74505805969E-08  0.93827000000E+00  0.93827000000E+00 0. -1.
     999902    2    1    2    0    0 -0.85344395678E-02 -0.28135161200E-02  0.21423894011E-01  0.10206977860E+01  0.10204333563E+01 0.  0.
     999903    2    3    3    0    0 -0.12924963857E+00  0.18556443223E-01  0.44136376282E-02  0.13203689274E+00  0.19090578584E-01 0.  0.
         14    1    1    2    0    0  0.85344395678E-02  0.28135161200E-02 -0.21423894011E-01  0.23232213978E-01  0.00000000000E+00 0. -1.
     999901    1    3    3    0    0  0.12071519900E+00 -0.21369959343E-01  0.17010256383E-01  0.88866089329E+00  0.88000000000E+00 0.  1.
        -11    1    4    4    0    0 -0.11193640501E+00  0.15415887007E-01 -0.27607640961E-02  0.11302783409E+00  0.51100000000E-03 0. -1.
         11    1    4    4    0    0 -0.17313233559E-01  0.31405562159E-02  0.71744017243E-02  0.19009058649E-01  0.51100000000E-03 0.  1.
</event>
<event>
 8    1  0.1135368E+005  0.1043930E+01  0.7957747E-01            NaN
         13   -1    0    0    0    0  0.00000000000E+00  0.00000000000E+00  0.74505805969E-08  0.10566000000E+00  0.10566000000E+00 0.  1.
     999900   -1    0    0    0    0 -0.00000000000E+00 -0.00000000000E+00 -0.74505805969E-08  0.93827000000E+00  0.93827000000E+00 0.  1.
     999902    2    1    2    0    0 -0.99734289211E-02  0.11216866248E-01  0.19237204788E-01  0.10195300528E+01  0.10192380346E+01 0.  0.
     999903    2    3    3    0    0  0.32761136635E-01  0.88737224431E-01 -0.85344294558E-01  0.12892748210E+00  0.19775235851E-01 0.  0.
         14    1    1    2    0    0  0.99734289211E-02 -0.11216866248E-01 -0.19237204788E-01  0.24399947150E-01  0.00000000000E+00 0. -1.
     999901    1    3    3    0    0 -0.42734565556E-01 -0.77520358182E-01  0.10458149935E+00  0.89060257075E+00  0.88000000000E+00 0. -1.
        -11    1    4    4    0    0  0.32684286590E-01  0.85828612509E-01 -0.76263900922E-01  0.11937862882E+00  0.51100000000E-03 0. -1.
         11    1    4    4    0    0  0.76850045051E-04  0.29086119217E-02 -0.90803936357E-02  0.95488532725E-02  0.51100000000E-03 0.  1.
</event>
<event>
 8    1  0.1135368E+005  0.1043930E+01  0.7957747E-01            NaN
         13   -1    0    0    0    0  0.00000000000E+00  0.00000000000E+00  0.74505805969E-08  0.10566000000E+00  0.10566000000E+00 0.  1.
     999900   -1    0    0    0    0 -0.00000000000E+00 -0.00000000000E+00 -0.74505805969E-08  0.93827000000E+00  0.93827000000E+00 0. -1.
     999902    2    1    2    0    0  0.28360763578E-03 -0.21630750312E-01 -0.97041559616E-02  0.10202204991E+01  0.10199449624E+01 0.  0.
     999903    2    3    3    0    0  0.67164098780E-01  0.37805198026E-01  0.10086942779E+00  0.12879907824E+00  0.21778703634E-01 0.  0.
         14    1    1    2    0    0 -0.28360763578E-03  0.21630750312E-01  0.97041559616E-02  0.23709500949E-01  0.00000000000E+00 0.  1.
     999901    1    3    3    0    0 -0.66880491144E-01 -0.59435948338E-01 -0.11057358375E+00  0.89142142081E+00  0.88000000000E+00 0. -1.
        -11    1    4    4    0    0  0.52294421420E-01  0.31049159697E-01  0.63063540651E-01  0.87612944877E-01  0.51100000000E-03 0.  1.
         11    1    4    4    0    0  0.14869677360E-01  0.67560383292E-02  0.37805887135E-01  0.41186133367E-01  0.51100000000E-03 0. -1.
</event>
<event>
 8    1  0.1135368E+005  0.1043930E+01  0.7957747E-01            NaN
         13   -1    0    0    0    0  0.00000000000E+00  0.00000000000E+00  0.74505805969E-08  0.10566000000E+00  0.10566000000E+00 0.  1.
     999900   -1    0    0    0    0 -0.00000000000E+00 -0.00000000000E+00 -0.74505805969E-08  0.93827000000E+00  0.93827000000E+00 0.  1.
     999902    2    1    2    0    0 -0.24224250961E-01 -0.36240311879E-02  0.24961424957E-02  0.10193093042E+01  0.10190119130E+01 0.  0.
     999903    2    3    3    0    0 -0.36673399580E-01 -0.12039240509E+00 -0.30070013224E-01  0.13091165167E+00  0.19859139141E-01 0.  0.
         14    1    1    2    0    0  0.24224250961E-01  0.36240311879E-02 -0.24961424957E-02  0.24620695848E-01  0.00000000000E+00 0.  1.
     999901    1    3    3    0    0  0.12449148619E-01  0.11676837390E+00  0.32566155719E-01  0.88839765249E+00  0.88000000000E+00 0.  1.
        -11    1    4    4    0    0 -0.32354506302E-01 -0.10352561507E+00 -0.32720252524E-01  0.11329273190E+00  0.51100000000E-03 0.  1.
         11    1    4    4    0    0 -0.43188932776E-02 -0.16866790013E-01  0.26502393005E-02  0.17618919769E-01  0.51100000000E-03 0. -1.
</event>
<event>
 8    1  0.1344838E+005  0.1043930E+01  0.7957747E-01            NaN
         13   -1    0    0    0    0  0.00000000000E+00  0.00000000000E+00  0.74505805969E-08  0.10566000000E+00  0.10566000000E+00 0. -1.
     999900   -1    0    0    0    0 -0.00000000000E+00 -0.00000000000E+00 -0.74505805969E-08  0.93827000000E+00  0.93827000000E+00 0.  1.
     999902    2    1    2    0    0  0.14843987073E-01  0.40402767568E-03  0.18343518978E-01  0.10203293246E+01  0.10200563410E+01 0.  0.
     999903    2    3    3    0    0 -0.22543173385E-01 -0.99039930784E-01 -0.76741262764E-01  0.12885413350E+00  0.19926458611E-01 0.  0.
         14    1    1    2    0    0 -0.14843987073E-01 -0.40402767568E-03 -0.18343518978E-01  0.23600675395E-01  0.00000000000E+00 0.  1.
     999901    1    3    3    0    0  0.37387160458E-01  0.99443958460E-01  0.95084781742E-01  0.89147519111E+00  0.88000000000E+00 0. -1.
        -11    1    4    4    0    0 -0.17424912113E-01 -0.61039030131E-01 -0.36313459122E-01  0.73132203549E-01  0.51100000000E-03 0. -1.
         11    1    4    4    0    0 -0.51182612720E-02 -0.38000900653E-01 -0.40427803642E-01  0.55721929949E-01  0.51100000000E-03 0.  1.
</event>
<event>
 8    1  0.1135368E+005  0.1043930E+01  0.7957747E-01            NaN
         13   -1    0    0    0    0  0.00000000000E+00  0.00000000000E+00  0.74505805969E-08  0.10566000000E+00  0.10566000000E+00 0. -1.
     999900   -1    0    0    0    0 -0.00000000000E+00 -0.00000000000E+00 -0.74505805969E-08  0.93827000000E+00  0.93827000000E+00 0. -1.
     999902    2    1    2    0    0  0.58280503518E-02 -0.21057035707E-01  0.13298890989E-01  0.10183521693E+01  0.10180309009E+01 0.  0.
     999903    2    3    3    0    0 -0.75351969359E-01 -0.96274133304E-01  0.41123150363E-01  0.13098415272E+00  0.22783914037E-01 0.  0.
         14    1    1    2    0    0 -0.58280503518E-02  0.21057035707E-01 -0.13298890989E-01  0.25577830737E-01  0.00000000000E+00 0. -1.
     999901    1    3    3    0    0  0.81180019711E-01  0.75217097597E-01 -0.27824259374E-01  0.88736801654E+00  0.88000000000E+00 0. -1.
        -11    1    4    4    0    0 -0.22217319561E-01 -0.15451840989E-01  0.39140123449E-02  0.27348661614E-01  0.51100000000E-03 0. -1.
         11    1    4    4    0    0 -0.53134649797E-01 -0.80822292315E-01  0.37209138018E-01  0.10363549111E+00  0.51100000000E-03 0.  1.
</event>
<event>
 8    1  0.1135368E+005  0.1043930E+01  0.7957747E-01            NaN
         13   -1    0    0    0    0  0.00000000000E+00  0.00000000000E+00  0.74505805969E-08  0.10566000000E+00  0.10566000000E+00 0.  1.
     999900   -1    0    0    0    0 -0.00000000000E+00 -0.00000000000E+00 -0.74505805969E-08  0.93827000000E+00  0.93827000000E+00 0. -1.
     999902    2    1    2    0    0 -0.18145282061E-01 -0.12995336360E-02  0.88097600625E-02  0.10237173327E+01  0.10235177699E+01 0.  0.
     999903    2    3    3    0    0 -0.11979910398E+00  0.55932314608E-01  0.24900967407E-01  0.13587280183E+00  0.19002919986E-01 0.  0.
         14    1    1    2    0    0  0.18145282061E-01  0.12995336360E-02 -0.88097600625E-02  0.20212667342E-01  0.00000000000E+00 0. -1.
     999901    1    3    3    0    0  0.10165382192E+00 -0.57231848244E-01 -0.16091207345E-01  0.88784453083E+00  0.88000000000E+00 0. -1.
        -11    1    4    4    0    0 -0.41723017381E-01  0.24483275741E-01  0.17209974684E-01  0.51348664247E-01  0.51100000000E-03 0.  1.
         11    1    4    4    0    0 -0.78076086599E-01  0.31449038867E-01  0.76909927229E-02  0.84524137584E-01  0.51100000000E-03 0. -1.
</event>
<event>
 8    1  0.1135368E+005  0.1043930E+01  0.7957747E-01            NaN
         13   -1    0    0    0    0  0.00000000000E+00  0.00000000000E+00  0.74505805969E-08  0.10566000000E+00  0.10566000000E+00 0.  1.
     999900   -1    0    0    0    0 -0.00000000000E+00 -0.00000000000E+00 -0.74505805969E-08  0.93827000000E+00  0.93827000000E+00 0. -1.
     999902    2    1    2    0    0 -0.12239780816E-02  0.23249725276E-01 -0.62318494907E-02  0.10198284690E+01  0.10195436344E+01 0.  0.
     999903    2    3    3    0    0  0.44233194527E-01  0.74148970221E-01 -0.98473428404E-01  0.13237954285E+00  0.19304972924E-01 0.  0.
         14    1    1    2    0    0  0.12239780816E-02 -0.23249725276E-01  0.62318494907E-02  0.24101530985E-01  0.00000000000E+00 0. -1.
     999901    1    3    3    0    0 -0.45457172609E-01 -0.50899244945E-01  0.92241578913E-01  0.88744892617E+00  0.88000000000E+00 0.  1.
        -11    1    4    4    0    0  0.30504399186E-01  0.35306450807E-01 -0.44511596120E-01  0.64487263459E-01  0.51100000000E-03 0.  1.
         11    1    4    4    0    0  0.13728795342E-01  0.38842519414E-01 -0.53961832284E-01  0.67892279388E-01  0.51100000000E-03 0. -1.
</event>
<event>
 8    1  0.1135368E+005  0.1043930E+01  0.7957747E-01            NaN
         13   -1    0    0    0    0  0.00000000000E+00  0.00000000000E+00  0.74505805969E-08  0.10566000000E+00  0.10566000000E+00 0. -1.
     999900   -1    0    0    0    0 -0.00000000000E+00 -0.00000000000E+00 -0.74505805969E-08  0.93827000000E+00  0.93827000000E+00 0.  1.
     999902    2    1    2    0    0  0.28979205530E-02 -0.21097858317E-01  0.75724762203E-02  0.10213277885E+01  0.10210776619E+01 0.  0.
     999903    2    3    3    0    0 -0.79887172130E-02 -0.11970986286E-01 -0.12845334148E+00  0.13076344957E+00  0.19791278142E-01 0.  0.
         14    1    1    2    0    0 -0.28979205530E-02  0.21097858317E-01 -0.75724762203E-02  0.22602211511E-01  0.00000000000E+00 0.  1.
     999901    1    3    3    0    0  0.10886637766E-01 -0.91268720306E-02  0.13602581770E+00  0.89056433892E+00  0.88000000000E+00 0. -1.
        -11    1    4    4    0    0 -0.76060526729E-03 -0.14790862032E-01 -0.57252739841E-01  0.59139542273E-01  0.51100000000E-03 0.  1.
         11    1    4    4    0    0 -0.72281119457E-02  0.28198757464E-02 -0.71200601639E-01  0.71623907296E-01  0.51100000000E-03 0. -1.
</event>
<event>
 8    1  0.1135368E+005  0.1043930E+01  0.7957747E-01            NaN
         13   -1    0    0    0    0  0.00000000000E+00  0.00000000000E+00  0.74505805969E-08  0.10566000000E+00  0.10566000000E+00 0. -1.
     999900   -1    0    0    0    0 -0.00000000000E+00 -0.00000000000E+00 -0.74505805969E-08  0.93827000000E+00  0.93827000000E+00 0.  1.
     999902    2    1    2    0    0  0.18723460962E-01  0.14838706112E-01  0.88741071108E-02  0.10184446127E+01  0.10181256917E+01 0.  0.
     999903    2    3    3    0    0  0.33667517535E-01  0.83614801071E-01 -0.91366904165E-01  0.12996178426E+00  0.20425902597E-01 0.  0.
         14    1    1    2    0    0 -0.18723460962E-01 -0.14838706112E-01 -0.88741071108E-02  0.25485387313E-01  0.00000000000E+00 0. -1.
     999901    1    3    3    0    0 -0.14944056573E-01 -0.68776094959E-01  0.10024101128E+00  0.88848282843E+00  0.88000000000E+00 0. -1.
        -11    1    4    4    0    0  0.29403236115E-01  0.66651342528E-01 -0.61465307093E-01  0.95316298983E-01  0.51100000000E-03 0.  1.
         11    1    4    4    0    0  0.42642814199E-02  0.16963458542E-01 -0.29901597072E-01  0.34645485279E-01  0.51100000000E-03 0. -1.
</event>
<event>
 8    1  0.1135368E+005  0.1043930E+01  0.7957747E-01            NaN
         13   -1    0    0    0    0  0.00000000000E+00  0.00000000000E+00  0.74505805969E-08  0.10566000000E+00  0.10566000000E+00 0. -1.
     999900   -1    0    0    0    0 -0.00000000000E+00 -0.00000000000E+00 -0.74505805969E-08  0.93827000000E+00  0.93827000000E+00 0.  1.
     999902    2    1    2    0    0  0.10065392743E-01 -0.22737931639E-01 -0.94021245509E-02  0.10173456886E+01  0.10169982913E+01 0.  0.
     999903    2    3    3    0    0  0.67663662342E-01 -0.10261224245E+00 -0.41319420728E-01  0.13127786954E+00  0.20468048267E-01 0.  0.
         14    1    1    2    0    0 -0.10065392743E-01  0.22737931639E-01  0.94021245509E-02  0.26584311395E-01  0.00000000000E+00 0. -1.
     999901    1    3    3    0    0 -0.57598269599E-01  0.79874310809E-01  0.31917296177E-01  0.88606781907E+00  0.88000000000E+00 0. -1.
        -11    1    4    4    0    0  0.56305951902E-02 -0.53217069421E-02 -0.80669926722E-02  0.11196502076E-01  0.51100000000E-03 0.  1.
         11    1    4    4    0    0  0.62033067152E-01 -0.97290535505E-01 -0.33252428056E-01  0.12008136746E+00  0.51100000000E-03 0. -1.
</event>
<event>
 8    1  0.1135368E+005  0.1043930E+01  0.7957747E-01            NaN
         13   -1    0    0    0    0  0.00000000000E+00  0.00000000000E+00  0.74505805969E-08  0.10566000000E+00  0.10566000000E+00 0. -1.
     999900   -1    0    0    0    0 -0.00000000000E+00 -0.00000000000E+00 -0.74505805969E-08  0.93827000000E+00  0.93827000000E+00 0.  1.
     999902    2    1    2    0    0  0.71316097644E-02 -0.18147450649E-01 -0.11325127101E-01  0.10213812012E+01  0.10211322685E+01 0.  0.
     999903    2    3    3    0    0  0.71086980018E-01 -0.20876329088E-01 -0.10787257104E+00  0.13378943407E+00  0.27819799471E-01 0.  0.
         14    1    1    2    0    0 -0.71316097644E-02  0.18147450649E-01  0.11325127101E-01  0.22548798787E-01  0.00000000000E+00 0. -1.
     999901    1    3    3    0    0 -0.63955370254E-01  0.27288784393E-02  0.96547443939E-01  0.88759176714E+00  0.88000000000E+00 0. -1.
        -11    1    4    4    0    0  0.66169930401E-01 -0.15815034946E-01 -0.79929305562E-01  0.10496442268E+00  0.51100000000E-03 0. -1.
         11    1    4    4    0    0  0.49170496168E-02 -0.50612941419E-02 -0.27943265479E-01  0.28825011395E-01  0.51100000000E-03 0.  1.
</event>
<event>
 8    1  0.1135368E+005  0.1043930E+01  0.7957747E-01            NaN
         13   -1    0    0    0    0  0.00000000000E+00  0.00000000000E+00  0.74505805969E-08  0.10566000000E+00  0.10566000000E+00 0. -1.
     999900   -1    0    0    0    0 -0.00000000000E+00 -0.00000000000E+00 -0.74505805969E-08  0.93827000000E+00  0.93827000000E+00 0. -1.
     999902    2    1    2    0    0  0.18299571166E-01  0.91164386783E-02  0.22254316145E-01  0.10137101663E+01  0.10132596227E+01 0.  0.
     999903    2    3    3    0    0 -0.10833425884E+00  0.55202646088E-01  0.14019614021E-02  0.12320756325E+00  0.19861882438E-01 0.  0.
         14    1    1    2    0    0 -0.18299571166E-01 -0.91164386783E-02 -0.22254316145E-01  0.30219833654E-01  0.00000000000E+00 0.  1.
     999901    1    3    3    0    0  0.12663383000E+00 -0.46086207410E-01  0.20852354743E-01  0.89050260309E+00  0.88000000000E+00 0. -1.
        -11    1    4    4    0    0 -0.25310277869E-01  0.16376259573E-01 -0.76508128278E-02  0.31106078206E-01  0.51100000000E-03 0.  1.
         11    1    4    4    0    0 -0.83023980970E-01  0.38826386515E-01  0.90527742299E-02  0.92101485048E-01  0.51100000000E-03 0. -1.
</event>
<event>
 8    1  0.1135368E+005  0.1043930E+01  0.7957747E-01            NaN
         13   -1    0    0    0    0  0.00000000000E+00  0.00000000000E+00  0.74505805969E-08  0.10566000000E+00  0.10566000000E+00 0. -1.
     999900   -1    0    0    0    0 -0.00000000000E+00 -0.00000000000E+00 -0.74505805969E-08  0.93827000000E+00  0.93827000000E+00 0. -1.
     999902    2    1    2    0    0  0.92305022380E-02  0.56813683331E-02 -0.21052687297E-01  0.10202509848E+01  0.10199761646E+01 0.  0.
     999903    2    3    3    0    0 -0.61400516992E-01 -0.11140505180E+00  0.10024756156E-01  0.12914842161E+00  0.19942668188E-01 0.  0.
         14    1    1    2    0    0 -0.92305022380E-02 -0.56813683331E-02  0.21052687297E-01  0.23679015185E-01  0.00000000000E+00 0. -1.
     999901    1    3    3    0    0  0.70631019230E-01  0.11708642014E+00 -0.31077443453E-01  0.89110256320E+00  0.88000000000E+00 0. -1.
        -11    1    4    4    0    0 -0.23571632609E-01 -0.46888304708E-01 -0.54784253926E-02  0.52767501818E-01  0.51100000000E-03 0. -1.
         11    1    4    4    0    0 -0.37828884383E-01 -0.64516747095E-01  0.15503181549E-01  0.76380919793E-01  0.51100000000E-03 0.  1.
</event>
<event>
 8    1  0.1135368E+005  0.1043930E+01  0.7957747E-01            NaN
         13   -1    0    0    0    0  0.00000000000E+00  0.00000000000E+00  0.74505805969E-08  0.10566000000E+00  0.10566000000E+00 0.  1.
     999900   -1    0    0    0    0 -0.00000000000E+00 -0.00000000000E+00 -0.74505805969E-08  0.93827000000E+00  0.93827000000E+00 0.  1.
     999902    2    1    2    0    0  0.12808617651E-01  0.17460727492E-01  0.56466056798E-02  0.10215509507E+01  0.10213057931E+01 0.  0.
     999903    2    3    3    0    0  0.11223090147E+00 -0.19288085003E-01  0.66025064129E-01  0.13313616923E+00  0.19953069832E-01 0.  0.
         14    1    1    2    0    0 -0.12808617651E-01 -0.17460727492E-01 -0.56466056798E-02  0.22379049273E-01  0.00000000000E+00 0. -1.
     999901    1    3    3    0    0 -0.99422283820E-01  0.36748812495E-01 -0.60378458449E-01  0.88841478150E+00  0.88000000000E+00 0.  1.
        -11    1    4    4    0    0  0.55923532640E-01 -0.19652580463E-01  0.32565464450E-01  0.67634577086E-01  0.51100000000E-03 0.  1.
         11    1    4    4    0    0  0.56307368830E-01  0.36449545962E-03  0.33459599679E-01  0.65501592143E-01  0.51100000000E-03 0. -1.
</event>
<event>
 8    1  0.1135368E+005  0.1043930E+01  0.7957747E-01            NaN
         13   -1    0    0    0    0  0.00000000000E+00  0.00000000000E+00  0.74505805969E-08  0.10566000000E+00  0.10566000000E+00 0.  1.
     999900   -1    0    0    0    0 -0.00000000000E+00 -0.00000000000E+00 -0.74505805969E-08  0.93827000000E+00  0.93827000000E+00 0.  1.
     999902    2    1    2    0    0 -0.63794411206E-02 -0.18794212001E-01 -0.12935804570E-01  0.10202391850E+01  0.10199640876E+01 0.  0.
     999903    2    3    3    0    0  0.81103731848E-01  0.95475759116E-01 -0.20666470416E-01  0.12851574414E+00  0.19893657126E-01 0.  0.
         14    1    1    2    0    0  0.63794411206E-02  0.18794212001E-01  0.12935804570E-01  0.23690814963E-01  0.00000000000E+00 0.  1.
     999901    1    3    3    0    0 -0.87483172969E-01 -0.11426997112E+00  0.77306658463E-02  0.89172344090E+00  0.88000000000E+00 0. -1.
        -11    1    4    4    0    0  0.51116065050E-01  0.47214151644E-01 -0.16659347565E-01  0.71552939869E-01  0.51100000000E-03 0.  1.
         11    1    4    4    0    0  0.29987666798E-01  0.48261607473E-01 -0.40071228509E-02  0.56962804271E-01  0.51100000000E-03 0. -1.
</event>
<event>
 8    1  0.1135368E+005  0.1043930E+01  0.7957747E-01            NaN
         13   -1    0    0    0    0  0.00000000000E+00  0.00000000000E+00  0.74505805969E-08  0.10566000000E+00  0.10566000000E+00 0.  1.
     999900   -1    0    0    0    0 -0.00000000000E+00 -0.00000000000E+00 -0.74505805969E-08  0.93827000000E+00  0.93827000000E+00 0.  1.
     999902    2    1    2    0    0 -0.59287960282E-02  0.89900545622E-02 -0.21195785037E-01  0.10201553705E+01  0.10198783001E+01 0.  0.
     999903    2    3    3    0    0  0.13708448044E-01  0.12678981480E+00 -0.27967124074E-01  0.13206288891E+00  0.19871283615E-01 0.  0.
         14    1    1    2    0    0  0.59287960282E-02 -0.89900545622E-02  0.21195785037E-01  0.23774629476E-01  0.00000000000E+00 0.  1.
     999901    1    3    3    0    0 -0.19637244072E-01 -0.11779976024E+00  0.67713390371E-02  0.88809248161E+00  0.88000000000E+00 0. -1.
        -11    1    4    4    0    0  0.52837222560E-02  0.50793925004E-01 -0.21216690619E-01  0.55302347328E-01  0.51100000000E-03 0.  1.
         11    1    4    4    0    0  0.84247257879E-02  0.75995889800E-01 -0.67504334547E-02  0.76760541582E-01  0.51100000000E-03 0. -1.
</event>
<event>
 8    1  0.1135368E+005  0.1043930E+01  0.7957747E-01            NaN
         13   -1    0    0    0    0  0.00000000000E+00  0.00000000000E+00  0.74505805969E-08  0.10566000000E+00  0.10566000000E+00 0. -1.
     999900   -1    0    0    0    0 -0.00000000000E+00 -0.00000000000E+00 -0.74505805969E-08  0.93827000000E+00  0.93827000000E+00 0. -1.
     999902    2    1    2    0    0 -0.68357389136E-03 -0.47148009866E-02 -0.23383389605E-01  0.10200662297E+01  0.10197870530E+01 0.  0.
     999903    2    3    3    0    0  0.91498063182E-01  0.59450512909E-01 -0.70828539428E-01  0.13165996909E+00  0.20283155868E-01 0.  0.
         14    1    1    2    0    0  0.68357389136E-03  0.47148009866E-02  0.23383389605E-01  0.23863770260E-01  0.00000000000E+00 0. -1.
     999901    1    3    3    0    0 -0.92181637073E-01 -0.64165313896E-01  0.47445149823E-01  0.88840626065E+00  0.88000000000E+00 0.  1.
        -11    1    4    4    0    0  0.10090799762E-01  0.11504250216E-01 -0.17176539988E-01  0.23010142542E-01  0.51100000000E-03 0.  1.
         11    1    4    4    0    0  0.81407263421E-01  0.47946262693E-01 -0.53651999440E-01  0.10864982655E+00  0.51100000000E-03 0. -1.
</event>
<event>
 8    1  0.1135368E+005  0.1043930E+01  0.7957747E-01            NaN
         13   -1    0    0    0    0  0.00000000000E+00  0.00000000000E+00  0.74505805969E-08  0.10566000000E+00  0.10566000000E+00 0.  1.
     999900   -1    0    0    0    0 -0.00000000000E+00 -0.00000000000E+00 -0.74505805969E-08  0.93827000000E+00  0.93827000000E+00 0.  1.
     999902    2    1    2    0    0 -0.13279542095E-01  0.16229678834E-01 -0.10540060103E-01  0.10204599855E+01  0.10201900511E+01 0.  0.
     999903    2    3    3    0    0 -0.52349963456E-01  0.12070419456E+00  0.68975674766E-02  0.13324778253E+00  0.19934238199E-01 0.  0.
         14    1    1    2    0    0  0.13279542095E-01 -0.16229678834E-01  0.10540060103E-01  0.23470014493E-01  0.00000000000E+00 0. -1.
     999901    1    3    3    0    0  0.39070421361E-01 -0.10447451573E+00 -0.17437627579E-01  0.88721220298E+00  0.88000000000E+00 0. -1.
        -11    1    4    4    0    0 -0.40210468367E-01  0.68950811579E-01  0.17681042599E-02  0.79840362583E-01  0.51100000000E-03 0.  1.
         11    1    4    4    0    0 -0.12139495089E-01  0.51753382983E-01  0.51294632167E-02  0.53407419944E-01  0.51100000000E-03 0. -1.
</event>
<event>
 8    1  0.1135368E+005  0.1043930E+01  0.7957747E-01            NaN
         13   -1    0    0    0    0  0.00000000000E+00  0.00000000000E+00  0.74505805969E-08  0.10566000000E+00  0.10566000000E+00 0. -1.
     999900   -1    0    0    0    0 -0.00000000000E+00 -0.00000000000E+00 -0.74505805969E-08  0.93827000000E+00  0.93827000000E+00 0. -1.
     999902    2    1    2    0    0 -0.18410160521E-01  0.12575417791E-01  0.75738186217E-02  0.10203834956E+01  0.10201117783E+01 0.  0.
     999903    2    3    3    0    0  0.21758162296E-01 -0.12031272022E+00 -0.34335437840E-01  0.12851515485E+00  0.19714321178E-01 0.  0.
         14    1    1    2    0    0  0.18410160521E-01 -0.12575417791E-01 -0.75738186217E-02  0.23546504445E-01  0.00000000000E+00 0.  1.
     999901    1    3    3    0    0 -0.40168322817E-01  0.13288813801E+00  0.41909256462E-01  0.89186834071E+00  0.88000000000E+00 0.  1.
        -11    1    4    4    0    0  0.13520524823E-01 -0.34555511768E-01 -0.16105373282E-01  0.40454074636E-01  0.51100000000E-03 0. -1.
         11    1    4    4    0    0  0.82376374732E-02 -0.85757208454E-01 -0.18230064558E-01  0.88061080210E-01  0.51100000000E-03 0.  1.
</event>
<event>
 8    1  0.1135368E+005  0.1043930E+01  0.7957747E-01            NaN
         13   -1    0    0    0    0  0.00000000000E+00  0.00000000000E+00  0.74505805969E-08  0.10566000000E+00  0.10566000000E+00 0. -1.
     999900   -1    0    0    0    0 -0.00000000000E+00 -0.00000000000E+00 -0.74505805969E-08  0.93827000000E+00  0.93827000000E+00 0.  1.
     999902    2    1    2    0    0  0.24957180750E-01  0.32569002384E-02 -0.43962800829E-02  0.10183801360E+01  0.10180595788E+01 0.  0.
     999903    2    3    3    0    0  0.35002382503E-01  0.94637872975E-01 -0.79972802303E-01  0.13036932587E+00  0.20469934965E-01 0.  0.
         14    1    1    2    0    0 -0.24957180750E-01 -0.32569002384E-02  0.43962800829E-02  0.25549863967E-01  0.00000000000E+00 0. -1.
     999901    1    3    3    0    0 -0.10045201752E-01 -0.91380972737E-01  0.75576522220E-01  0.88801081016E+00  0.88000000000E+00 0. -1.
        -11    1    4    4    0    0  0.16181029209E-01  0.65440620813E-01 -0.60285047325E-01  0.90436986961E-01  0.51100000000E-03 0. -1.
         11    1    4    4    0    0  0.18821353294E-01  0.29197252162E-01 -0.19687754977E-01  0.39932338908E-01  0.51100000000E-03 0.  1.
</event>
<event>
 8    1  0.1135368E+005  0.1043930E+01  0.7957747E-01            NaN
         13   -1    0    0    0    0  0.00000000000E+00  0.00000000000E+00  0.74505805969E-08  0.10566000000E+00  0.10566000000E+00 0. -1.
     999900   -1    0    0    0    0 -0.00000000000E+00 -0.00000000000E+00 -0.74505805969E-08  0.93827000000E+00  0.93827000000E+00 0.  1.
     999902    2    1    2    0    0 -0.15817211089E-01 -0.16086492384E-01  0.60135820513E-02  0.10205821399E+01  0.10203150404E+01 0.  0.
     999903    2    3    3    0    0 -0.63528653166E-01 -0.29461540212E-01  0.11118695438E+00  0.13293541292E+00  0.20134871718E-01 0.  0.
         14    1    1    2    0    0  0.15817211089E-01  0.16086492384E-01 -0.60135820513E-02  0.23347860137E-01  0.00000000000E+00 0.  1.
     999901    1    3    3    0    0  0.47711442076E-01  0.13375047828E-01 -0.10517337233E+00  0.88764672694E+00  0.88000000000E+00 0.  1.
        -11    1    4    4    0    0 -0.37542445809E-01 -0.27932200025E-01  0.73321062008E-01  0.86982080285E-01  0.51100000000E-03 0.  1.
         11    1    4    4    0    0 -0.25986207356E-01 -0.15293401872E-02  0.37865892370E-01  0.45953332634E-01  0.51100000000E-03 0. -1.
</event>
<event>
 8    1  0.1135368E+005  0.1043930E+01  0.7957747E-01            NaN
         13   -1    0    0    0    0  0.00000000000E+00  0.00000000000E+00  0.74505805969E-08  0.10566000000E+00  0.10566000000E+00 0. -1.
     999900   -1    0    0    0    0 -0.00000000000E+00 -0.00000000000E+00 -0.74505805969E-08  0.93827000000E+00  0.93827000000E+00 0.  1.
     999902    2    1    2    0    0  0.93284086551E-02  0.25321654715E-01  0.79124698991E-02  0.10158086098E+01  0.10154192825E+01 0.  0.
     999903    2    3    3    0    0 -0.66983387989E-01 -0.38324984452E-01  0.97203414753E-01  0.12572588456E+00  0.20072755376E-01 0.  0.
         14    1    1    2    0    0 -0.93284086551E-02 -0.25321654715E-01 -0.79124698991E-02  0.28121390176E-01  0.00000000000E+00 0.  1.
     999901    1    3    3    0    0  0.76311796644E-01  0.63646639168E-01 -0.89290944854E-01  0.89008272527E+00  0.88000000000E+00 0.  1.
        -11    1    4    4    0    0 -0.11848378912E-01 -0.16266490466E-01  0.20649454291E-01  0.28838236396E-01  0.51100000000E-03 0. -1.
         11    1    4    4    0    0 -0.55135009077E-01 -0.22058493986E-01  0.76553960462E-01  0.96887648161E-01  0.51100000000E-03 0.  1.
</event>
<event>
 8    1  0.1135368E+005  0.1043930E+01  0.7957747E-01            NaN
         13   -1    0    0    0    0  0.00000000000E+00  0.00000000000E+00  0.74505805969E-08  0.10566000000E+00  0.10566000000E+00 0.  1.
     999900   -1    0    0    0    0 -0.00000000000E+00 -0.00000000000E+00 -0.74505805969E-08  0.93827000000E+00  0.93827000000E+00 0.  1.
     999902    2    1    2    0    0  0.20429344842E-01 -0.84817940732E-02  0.51994097712E-02  0.10212070419E+01  0.10209542055E+01 0.  0.
     999903    2    3    3    0    0  0.41879370212E-01  0.34363938624E-01 -0.11810356809E+00  0.13131969808E+00  0.19017055002E-01 0.  0.
         14    1    1    2    0    0 -0.20429344842E-01  0.84817940732E-02 -0.51994097712E-02  0.22722958067E-01  0.00000000000E+00 0. -1.
     999901    1    3    3    0    0 -0.21450025370E-01 -0.42845732698E-01  0.12330297786E+00  0.88988734385E+00  0.88000000000E+00 0. -1.
        -11    1    4    4    0    0  0.36480197198E-01  0.35296559054E-01 -0.11271091436E+00  0.12361497970E+00  0.51100000000E-03 0.  1.
         11    1    4    4    0    0  0.53991730141E-02 -0.93262042973E-03 -0.53926537315E-02  0.77047183836E-02  0.51100000000E-03 0. -1.
</event>
<event>
 8    1  0.1135368E+005  0.1043930E+01  0.7957747E-01            NaN
         13   -1    0    0    0    0  0.00000000000E+00  0.00000000000E+00  0.74505805969E-08  0.10566000000E+00  0.10566000000E+00 0. -1.
     999900   -1    0    0    0    0 -0.00000000000E+00 -0.00000000000E+00 -0.74505805969E-08  0.93827000000E+00  0.93827000000E+00 0. -1.
     999902    2    1    2    0    0  0.83112371411E-02 -0.81453647237E-02  0.18468760861E-01  0.10221006904E+01  0.10218675563E+01 0.  0.
     999903    2    3    3    0    0  0.32257975707E-01  0.51287965067E-01 -0.11328602179E+00  0.12998797908E+00  0.19802010324E-01 0.  0.
         14    1    1    2    0    0 -0.83112371411E-02  0.81453647237E-02 -0.18468760861E-01  0.21829309587E-01  0.00000000000E+00 0.  1.
     999901    1    3    3    0    0 -0.23946738566E-01 -0.59433329790E-01  0.13175478265E+00  0.89211271134E+00  0.88000000000E+00 0.  1.
        -11    1    4    4    0    0  0.33059871858E-02  0.20203558202E-01 -0.27803416133E-01  0.34531208855E-01  0.51100000000E-03 0.  1.
         11    1    4    4    0    0  0.28951988522E-01  0.31084406865E-01 -0.85482605660E-01  0.95456770221E-01  0.51100000000E-03 0. -1.
</event>
<event>
 8    1  0.1135368E+005  0.1043930E+01  0.7957747E-01            NaN
         13   -1    0    0    0    0  0.00000000000E+00  0.00000000000E+00  0.74505805969E-08  0.10566000000E+00  0.10566000000E+00 0. -1.
     999900   -1    0    0    0    0 -0.00000000000E+00 -0.00000000000E+00 -0.74505805969E-08  0.93827000000E+00  0.93827000000E+00 0. -1.
     999902    2    1    2    0    0 -0.82854708973E-03  0.67863354381E-02 -0.22710254795E-01  0.10202129911E+01  0.10199372778E+01 0.  0.
     999903    2    3    3    0    0  0.12176436867E+00  0.36403893081E-01  0.20615903294E-01  0.13016615036E+00  0.19141742880E-01 0.  0.
         14    1    1    2    0    0  0.82854708973E-03 -0.67863354381E-02  0.22710254795E-01  0.23717008914E-01  0.00000000000E+00 0. -1.
     999901    1    3    3    0    0 -0.12259291576E+00 -0.29617557643E-01 -0.43326158089E-01  0.89004684073E+00  0.88000000000E+00 0. -1.
        -11    1    4    4    0    0  0.17286471154E-01 -0.84678369175E-03  0.57974148622E-02  0.18259525396E-01  0.51100000000E-03 0. -1.
         11    1    4    4    0    0  0.10447789752E+00  0.37250676773E-01  0.14818488432E-01  0.11190662496E+00  0.51100000000E-03 0.  1.
</event>
<event>
 8    1  0.1135368E+005  0.1043930E+01  0.7957747E-01            NaN
         13   -1    0    0    0    0  0.00000000000E+00  0.00000000000E+00  0.74505805969E-08  0.10566000000E+00  0.10566000000E+00 0.  1.
     999900   -1    0    0    0    0 -0.00000000000E+00 -0.00000000000E+00 -0.74505805969E-08  0.93827000000E+00  0.93827000000E+00 0.  1.
     999902    2    1    2    0    0  0.13195340683E-01  0.19354856861E-01 -0.59876838594E-02  0.10197519137E+01  0.10194652449E+01 0.  0.
     999903    2    3    3    0    0 -0.23346818336E-01  0.64738303437E-02  0.12532563407E+00  0.12916534423E+00  0.19753156412E-01 0.  0.
         14    1    1    2    0    0 -0.13195340683E-01 -0.19354856861E-01  0.59876838594E-02  0.24178086315E-01  0.00000000000E+00 0. -1.
     999901    1    3    3    0    0  0.36542159019E-01  0.12881026517E-01 -0.13131331793E+00  0.89058656946E+00  0.88000000000E+00 0.  1.
        -11    1    4    4    0    0 -0.19686306841E-01  0.89435425176E-02  0.12115329081E+00  0.12306875568E+00  0.51100000000E-03 0. -1.
         11    1    4    4    0    0 -0.36605114956E-02 -0.24697121739E-02  0.41723432669E-02  0.60965885516E-02  0.51100000000E-03 0.  1.
</event>
<event>
 8    1  0.1135368E+005  0.1043930E+01  0.7957747E-01            NaN
         13   -1    0    0    0    0  0.00000000000E+00  0.00000000000E+00  0.74505805969E-08  0.10566000000E+00  0.10566000000E+00 0.  1.
     999900   -1    0    0    0    0 -0.00000000000E+00 -0.00000000000E+00 -0.74505805969E-08  0.93827000000E+00  0.93827000000E+00 0.  1.
     999902    2    1    2    0    0 -0.11844140485E-01 -0.14289991844E-01 -0.18553732050E-01  0.10176863626E+01  0.10173479268E+01 0.  0.
     999903    2    3    3    0    0 -0.10088163388E+00 -0.32585909011E-01 -0.74333931645E-01  0.13124750601E+00  0.21480896647E-01 0.  0.
         14    1    1    2    0    0  0.11844140485E-01  0.14289991844E-01  0.18553732050E-01  0.26243637395E-01  0.00000000000E+00 0.  1.
     999901    1    3    3    0    0  0.89037493390E-01  0.18295917167E-01  0.55780199595E-01  0.88643885659E+00  0.88000000000E+00 0. -1.
        -11    1    4    4    0    0 -0.89661545724E-01 -0.24204863335E-01 -0.57048098423E-01  0.10899456338E+00  0.51100000000E-03 0.  1.
         11    1    4    4    0    0 -0.11220088151E-01 -0.83810456758E-02 -0.17285833222E-01  0.22252942635E-01  0.51100000000E-03 0. -1.
</event>
<event>
 8    1  0.1135368E+005  0.1043930E+01  0.7957747E-01            NaN
         13   -1    0    0    0    0  0.00000000000E+00  0.00000000000E+00  0.74505805969E-08  0.10566000000E+00  0.10566000000E+00 0. -1.
     999900   -1    0    0    0    0 -0.00000000000E+00 -0.00000000000E+00 -0.74505805969E-08  0.93827000000E+00  0.93827000000E+00 0.  1.
     999902    2    1    2    0    0  0.75487352388E-03 -0.12404033532E-01  0.20845119675E-01  0.10196617307E+01  0.10193728935E+01 0.  0.
     999903    2    3    3    0    0  0.78806566992E-01  0.53429703472E-01 -0.82239282798E-01  0.12778026892E+00  0.22344781864E-01 0.  0.
         14    1    1    2    0    0 -0.75487352388E-03  0.12404033532E-01 -0.20845119675E-01  0.24268269327E-01  0.00000000000E+00 0. -1.
     999901    1    3    3    0    0 -0.78051693469E-01 -0.65833737003E-01  0.10308440247E+00  0.89188146175E+00  0.88000000000E+00 0. -1.
        -11    1    4    4    0    0  0.75565131630E-01  0.43542448746E-01 -0.75662076459E-01  0.11546014419E+00  0.51100000000E-03 0. -1.
         11    1    4    4    0    0  0.32414353627E-02  0.98872547258E-02 -0.65772063387E-02  0.12320124733E-01  0.51100000000E-03 0.  1.
</event>
<event>
 8    1  0.1135368E+005  0.1043930E+01  0.7957747E-01            NaN
         13   -1    0    0    0    0  0.00000000000E+00  0.00000000000E+00  0.74505805969E-08  0.10566000000E+00  0.10566000000E+00 0.  1.
     999900   -1    0    0    0    0 -0.00000000000E+00 -0.00000000000E+00 -0.74505805969E-08  0.93827000000E+00  0.93827000000E+00 0.  1.
     999902    2    1    2    0    0  0.12162401978E-01 -0.19347233321E-01  0.76393210991E-02  0.10198343845E+01  0.10195496914E+01 0.  0.
     999903    2    3    3    0    0 -0.10162276603E+00  0.51617516703E-01  0.55464863195E-01  0.12839154132E+00  0.20407896182E-01 0.  0.
         14    1    1    2    0    0 -0.12162401978E-01  0.19347233321E-01 -0.76393210991E-02  0.24095615491E-01  0.00000000000E+00 0.  1.
     999901    1    3    3    0    0  0.11378516801E+00 -0.70964750024E-01 -0.47825542096E-01  0.89144284319E+00  0.88000000000E+00 0.  1.
        -11    1    4    4    0    0 -0.59013008585E-01  0.39868700653E-01  0.39169589328E-01  0.81280786925E-01  0.51100000000E-03 0.  1.
         11    1    4    4    0    0 -0.42609757442E-01  0.11748816050E-01  0.16295273867E-01  0.47110754390E-01  0.51100000000E-03 0. -1.
</event>
<event>
 8    1  0.1135368E+005  0.1043930E+01  0.7957747E-01            NaN
         13   -1    0    0    0    0  0.00000000000E+00  0.00000000000E+00  0.74505805969E-08  0.10566000000E+00  0.10566000000E+00 0. -1.
     999900   -1    0    0    0    0 -0.00000000000E+00 -0.00000000000E+00 -0.74505805969E-08  0.93827000000E+00  0.93827000000E+00 0.  1.
     999902    2    1    2    0    0 -0.17459020691E-01 -0.16052266735E-01  0.22620294525E-03  0.10202119934E+01  0.10199362566E+01 0.  0.
     999903    2    3    3    0    0 -0.65516865454E-01  0.95512649916E-01 -0.56402855925E-01  0.13006417566E+00  0.17896415267E-01 0.  0.
         14    1    1    2    0    0  0.17459020691E-01  0.16052266735E-01 -0.22620294525E-03  0.23718006632E-01  0.00000000000E+00 0.  1.
     999901    1    3    3    0    0  0.48057844763E-01 -0.11156491665E+00  0.56629058870E-01  0.89014781771E+00  0.88000000000E+00 0.  1.
        -11    1    4    4    0    0 -0.34410562775E-01  0.46542075430E-01 -0.37819634685E-01  0.69143600604E-01  0.51100000000E-03 0.  1.
         11    1    4    4    0    0 -0.31106302679E-01  0.48970574486E-01 -0.18583221240E-01  0.60920575051E-01  0.51100000000E-03 0. -1.
</event>
<event>
 8    1  0.1135368E+005  0.1043930E+01  0.7957747E-01            NaN
         13   -1    0    0    0    0  0.00000000000E+00  0.00000000000E+00  0.74505805969E-08  0.10566000000E+00  0.10566000000E+00 0. -1.
     999900   -1    0    0    0    0 -0.00000000000E+00 -0.00000000000E+00 -0.74505805969E-08  0.93827000000E+00  0.93827000000E+00 0.  1.
     999902    2    1    2    0    0  0.13822661199E-01  0.21404603964E-01 -0.12970537820E-01  0.10153387796E+01  0.10149361455E+01 0.  0.
     999903    2    3    3    0    0 -0.11899680994E+00  0.14232301977E-01 -0.29246371836E-01  0.12519420897E+00  0.21341051947E-01 0.  0.
         14    1    1    2    0    0 -0.13822661199E-01 -0.21404603964E-01  0.12970537820E-01  0.28591220414E-01  0.00000000000E+00 0.  1.
     999901    1    3    3    0    0  0.13281947114E+00  0.71723019864E-02  0.16275834017E-01  0.89014457062E+00  0.88000000000E+00 0.  1.
        -11    1    4    4    0    0 -0.10396147688E+00  0.14767297526E-01 -0.18317920692E-01  0.10659206861E+00  0.51100000000E-03 0. -1.
         11    1    4    4    0    0 -0.15035333061E-01 -0.53499554934E-03 -0.10928451145E-01  0.18602140358E-01  0.51100000000E-03 0.  1.
</event>
<event>
 8    1  0.1135368E+005  0.1043930E+01  0.7957747E-01            NaN
         13   -1    0    0    0    0  0.00000000000E+00  0.00000000000E+00  0.74505805969E-08  0.10566000000E+00  0.10566000000E+00 0.  1.
     999900   -1    0    0    0    0 -0.00000000000E+00 -0.00000000000E+00 -0.74505805969E-08  0.93827000000E+00  0.93827000000E+00 0.  1.
     999902    2    1    2    0    0 -0.58249573112E-02 -0.13262401215E-02  0.22177600391E-01  0.10209618699E+01  0.10207034853E+01 0.  0.
     999903    2    3    3    0    0  0.40630056459E-01 -0.11369199987E+00 -0.43760792744E-01  0.13015773658E+00  0.21198044448E-01 0.  0.
         14    1    1    2    0    0  0.58249573112E-02  0.13262401215E-02 -0.22177600391E-01  0.22968130086E-01  0.00000000000E+00 0. -1.
     999901    1    3    3    0    0 -0.46455013770E-01  0.11236575975E+00  0.65938393136E-01  0.89080413333E+00  0.88000000000E+00 0.  1.
        -11    1    4    4    0    0  0.18741579936E-01 -0.42766671480E-01 -0.66402557188E-02  0.47165550193E-01  0.51100000000E-03 0. -1.
         11    1    4    4    0    0  0.21888476523E-01 -0.70925328391E-01 -0.37120537026E-01  0.82992186391E-01  0.51100000000E-03 0.  1.
</event>
<event>
 8    1  0.1135368E+005  0.1043930E+01  0.7957747E-01            NaN
         13   -1    0    0    0    0  0.00000000000E+00  0.00000000000E+00  0.74505805969E-08  0.10566000000E+00  0.10566000000E+00 0. -1.
     999900   -1    0    0    0    0 -0.00000000000E+00 -0.00000000000E+00 -0.74505805969E-08  0.93827000000E+00  0.93827000000E+00 0. -1.
     999902    2    1    2    0    0  0.63289281038E-03 -0.18291334544E-01  0.16299788607E-01  0.10194217038E+01  0.10191270547E+01 0.  0.
     999903    2    3    3    0    0  0.10491498533E+00  0.57393777700E-01  0.45738066574E-01  0.12955114962E+00  0.19756765126E-01 0.  0.
         14    1    1    2    0    0 -0.63289281038E-03  0.18291334544E-01 -0.16299788607E-01  0.24508296174E-01  0.00000000000E+00 0.  1.
     999901    1    3    3    0    0 -0.10428209252E+00 -0.75685112244E-01 -0.29438277967E-01  0.88987055421E+00  0.88000000000E+00 0.  1.
        -11    1    4    4    0    0  0.20664191626E-01  0.10714305340E-01  0.17661120796E-01  0.29222961233E-01  0.51100000000E-03 0.  1.
         11    1    4    4    0    0  0.84250793704E-01  0.46679472360E-01  0.28076945778E-01  0.10032818839E+00  0.51100000000E-03 0. -1.
</event>
<event>
 8    1  0.1135368E+005  0.1043930E+01  0.7957747E-01            NaN
         13   -1    0    0    0    0  0.00000000000E+00  0.00000000000E+00  0.74505805969E-08  0.10566000000E+00  0.10566000000E+00 0.  1.
     999900   -1    0    0    0    0 -0.00000000000E+00 -0.00000000000E+00 -0.74505805969E-08  0.93827000000E+00  0.93827000000E+00 0.  1.
     999902    2    1    2    0    0  0.23891059989E-02 -0.22763324216E-01  0.67321380158E-02  0.10200721200E+01  0.10197930827E+01 0.  0.
     999903    2    3    3    0    0 -0.32542159848E-01  0.98909427763E-01  0.72729562455E-01  0.12856771060E+00  0.19949934497E-01 0.  0.
         14    1    1    2    0    0 -0.23891059989E-02  0.22763324216E-01 -0.67321380158E-02  0.23857880021E-01  0.00000000000E+00 0. -1.
     999901    1    3    3    0    0  0.34931265847E-01 -0.12167275198E+00 -0.65997424439E-01  0.89150440938E+00  0.88000000000E+00 0.  1.
        -11    1    4    4    0    0 -0.26687533967E-01  0.67340205989E-01  0.40138519371E-01  0.82814791373E-01  0.51100000000E-03 0. -1.
         11    1    4    4    0    0 -0.58546258815E-02  0.31569221773E-01  0.32591043084E-01  0.45752919228E-01  0.51100000000E-03 0.  1.
</event>
<event>
 8    1  0.1135368E+005  0.1043930E+01  0.7957747E-01            NaN
         13   -1    0    0    0    0  0.00000000000E+00  0.00000000000E+00  0.74505805969E-08  0.10566000000E+00  0.10566000000E+00 0.  1.
     999900   -1    0    0    0    0 -0.00000000000E+00 -0.00000000000E+00 -0.74505805969E-08  0.93827000000E+00  0.93827000000E+00 0. -1.
     999902    2    1    2    0    0 -0.35702948544E-02  0.14620586724E-01  0.16445505753E-01  0.10216373281E+01  0.10213940801E+01 0.  0.
     999903    2    3    3    0    0 -0.26668716514E-01  0.10502272146E+00 -0.73041881427E-01  0.13219139071E+00  0.19961334463E-01 0.  0.
         14    1    1    2    0    0  0.35702948544E-02 -0.14620586724E-01 -0.16445505753E-01  0.22292671912E-01  0.00000000000E+00 0. -1.
     999901    1    3    3    0    0  0.23098421660E-01 -0.90402134734E-01  0.89487387180E-01  0.88944593737E+00  0.88000000000E+00 0. -1.
        -11    1    4    4    0    0 -0.14776194812E-01  0.77319822327E-01 -0.43320039641E-01  0.89853090172E-01  0.51100000000E-03 0.  1.
         11    1    4    4    0    0 -0.11892521702E-01  0.27702899130E-01 -0.29721841786E-01  0.42338300542E-01  0.51100000000E-03 0. -1.
</event>
<event>
 8    1  0.1135368E+005  0.1043930E+01  0.7957747E-01            NaN
         13   -1    0    0    0    0  0.00000000000E+00  0.00000000000E+00  0.74505805969E-08  0.10566000000E+00  0.10566000000E+00 0. -1.
     999900   -1    0    0    0    0 -0.00000000000E+00 -0.00000000000E+00 -0.74505805969E-08  0.93827000000E+00  0.93827000000E+00 0.  1.
     999902    2    1    2    0    0 -0.40323095048E-02 -0.23021399100E-01 -0.39892836328E-02  0.10202201134E+01  0.10199445677E+01 0.  0.
     999903    2    3    3    0    0  0.64762503773E-01 -0.11381632874E+00  0.55433310082E-02  0.13282656134E+00  0.21536673252E-01 0.  0.
         14    1    1    2    0    0  0.40323095048E-02  0.23021399100E-01  0.39892836328E-02  0.23709886553E-01  0.00000000000E+00 0. -1.
     999901    1    3    3    0    0 -0.68794813278E-01  0.90794929643E-01 -0.95326146410E-02  0.88739355211E+00  0.88000000000E+00 0.  1.
        -11    1    4    4    0    0  0.51869598033E-01 -0.70593274204E-01  0.38868694002E-02  0.87688279934E-01  0.51100000000E-03 0. -1.
         11    1    4    4    0    0  0.12892905740E-01 -0.43223054538E-01  0.16564616080E-02  0.45138281404E-01  0.51100000000E-03 0.  1.
</event>
<event>
 8    1  0.1135368E+005  0.1043930E+01  0.7957747E-01            NaN
         13   -1    0    0    0    0  0.00000000000E+00  0.00000000000E+00  0.74505805969E-08  0.10566000000E+00  0.10566000000E+00 0.  1.
     999900   -1    0    0    0    0 -0.00000000000E+00 -0.00000000000E+00 -0.74505805969E-08  0.93827000000E+00  0.93827000000E+00 0. -1.
     999902    2    1    2    0    0  0.18370880520E-01 -0.13331366097E-01  0.10682948064E-01  0.10188433511E+01  0.10185344541E+01 0.  0.
     999903    2    3    3    0    0  0.11042055052E-01 -0.60509288070E-02 -0.12578176260E+00  0.12826526150E+00  0.21734414772E-01 0.  0.
         14    1    1    2    0    0 -0.18370880520E-01  0.13331366097E-01 -0.10682948064E-01  0.25086648888E-01  0.00000000000E+00 0.  1.
     999901    1    3    3    0    0  0.73288254674E-02 -0.72804372896E-02  0.13646471066E+00  0.89057808962E+00  0.88000000000E+00 0.  1.
        -11    1    4    4    0    0 -0.55018437601E-02 -0.52051773706E-02 -0.57602009987E-01  0.58100058793E-01  0.51100000000E-03 0.  1.
         11    1    4    4    0    0  0.16543898812E-01 -0.84575143639E-03 -0.68179752610E-01  0.70165202703E-01  0.51100000000E-03 0. -1.
</event>
<event>
 8    1  0.1135368E+005  0.1043930E+01  0.7957747E-01            NaN
         13   -1    0    0    0    0  0.00000000000E+00  0.00000000000E+00  0.74505805969E-08  0.10566000000E+00  0.10566000000E+00 0.  1.
     999900   -1    0    0    0    0 -0.00000000000E+00 -0.00000000000E+00 -0.74505805969E-08  0.93827000000E+00  0.93827000000E+00 0. -1.
     999902    2    1    2    0    0 -0.17847809973E-01 -0.14280093226E-01  0.39605176547E-02  0.10207319164E+01  0.10204682719E+01 0.  0.
     999903    2    3    3    0    0 -0.11619463154E+00  0.47095608631E-01 -0.36954868691E-01  0.13218639536E+00  0.19707664667E-01 0.  0.
         14    1    1    2    0    0  0.17847809973E-01  0.14280093226E-01 -0.39605176547E-02  0.23198083616E-01  0.00000000000E+00 0. -1.
     999901    1    3    3    0    0  0.98346821570E-01 -0.61375701857E-01  0.40915386346E-01  0.88854552102E+00  0.88000000000E+00 0.  1.
        -11    1    4    4    0    0 -0.45677483872E-01  0.16785142148E-01 -0.24289733985E-01  0.54391413181E-01  0.51100000000E-03 0.  1.
         11    1    4    4    0    0 -0.70517147671E-01  0.30310466484E-01 -0.12665134706E-01  0.77794982179E-01  0.51100000000E-03 0. -1.
</event>
<event>
 8    1  0.1135368E+005  0.1043930E+01  0.7957747E-01            NaN
         13   -1    0    0    0    0  0.00000000000E+00  0.00000000000E+00  0.74505805969E-08  0.10566000000E+00  0.10566000000E+00 0. -1.
     999900   -1    0    0    0    0 -0.00000000000E+00 -0.00000000000E+00 -0.74505805969E-08  0.93827000000E+00  0.93827000000E+00 0.  1.
     999902    2    1    2    0    0 -0.14869734253E-01 -0.45939930821E-02 -0.17379673422E-01  0.10206004733E+01  0.10203337979E+01 0.  0.
     999903    2    3    3    0    0  0.32444724089E-01 -0.80335964785E-01  0.93624880154E-01  0.12914238948E+00  0.20139791872E-01 0.  0.
         14    1    1    2    0    0  0.14869734253E-01  0.45939930821E-02  0.17379673422E-01  0.23329526730E-01  0.00000000000E+00 0. -1.
     999901    1    3    3    0    0 -0.47314458342E-01  0.75741971703E-01 -0.11100455358E+00  0.89145808379E+00  0.88000000000E+00 0. -1.
        -11    1    4    4    0    0  0.35032364752E-01 -0.76697584586E-01  0.90329980283E-01  0.12357003083E+00  0.51100000000E-03 0.  1.
         11    1    4    4    0    0 -0.25876406634E-02 -0.36383801988E-02  0.32948998718E-02  0.55723586423E-02  0.51100000000E-03 0. -1.
</event>
<event>
 8    1  0.1135368E+005  0.1043930E+01  0.7957747E-01            NaN
         13   -1    0    0    0    0  0.00000000000E+00  0.00000000000E+00  0.74505805969E-08  0.10566000000E+00  0.10566000000E+00 0. -1.
     999900   -1    0    0    0    0 -0.00000000000E+00 -0.00000000000E+00 -0.74505805969E-08  0.93827000000E+00  0.93827000000E+00 0.  1.
     999902    2    1    2    0    0  0.28475634395E-02  0.18577378773E-01 -0.13513525192E-01  0.10207817175E+01  0.10205192168E+01 0.  0.
     999903    2    3    3    0    0 -0.48071624539E-01 -0.54560116681E-01  0.10347416265E+00  0.12857771838E+00  0.23187063401E-01 0.  0.
         14    1    1    2    0    0 -0.28475634395E-02 -0.18577378773E-01  0.13513525192E-01  0.23148282501E-01  0.00000000000E+00 0. -1.
     999901    1    3    3    0    0  0.50919187978E-01  0.73137495453E-01 -0.11698768784E+00  0.89220399912E+00  0.88000000000E+00 0.  1.
        -11    1    4    4    0    0 -0.50367992444E-01 -0.53442707272E-01  0.97527671718E-01  0.12208589392E+00  0.51100000000E-03 0. -1.
         11    1    4    4    0    0  0.22963679056E-02 -0.11174094085E-02  0.59464909292E-02  0.64918244520E-02  0.51100000000E-03 0.  1.
</event>
<event>
 8    1  0.1135368E+005  0.1043930E+01  0.7957747E-01            NaN
         13   -1    0    0    0    0  0.00000000000E+00  0.00000000000E+00  0.74505805969E-08  0.10566000000E+00  0.10566000000E+00 0. -1.
     999900   -1    0    0    0    0 -0.00000000000E+00 -0.00000000000E+00 -0.74505805969E-08  0.93827000000E+00  0.93827000000E+00 0.  1.
     999902    2    1    2    0    0  0.12849602544E-02 -0.92962493353E-02 -0.18039374337E-01  0.10235955366E+01  0.10233935373E+01 0.  0.
     999903    2    3    3    0    0 -0.98651345314E-01 -0.88847057510E-01  0.48280386814E-02  0.13407964872E+00  0.18115040210E-01 0.  0.
         14    1    1    2    0    0 -0.12849602544E-02  0.92962493353E-02  0.18039374337E-01  0.20334463382E-01  0.00000000000E+00 0. -1.
     999901    1    3    3    0    0  0.99936305569E-01  0.79550808174E-01 -0.22867413019E-01  0.88951588790E+00  0.88000000000E+00 0. -1.
        -11    1    4    4    0    0 -0.73808468886E-01 -0.60235053418E-01  0.10165683416E-01  0.95809988936E-01  0.51100000000E-03 0. -1.
         11    1    4    4    0    0 -0.24842876428E-01 -0.28612004091E-01 -0.53376447342E-02  0.38269659780E-01  0.51100000000E-03 0.  1.
</event>
<event>
 8    1  0.1135368E+005  0.1043930E+01  0.7957747E-01            NaN
         13   -1    0    0    0    0  0.00000000000E+00  0.00000000000E+00  0.74505805969E-08  0.10566000000E+00  0.10566000000E+00 0. -1.
     999900   -1    0    0    0    0 -0.00000000000E+00 -0.00000000000E+00 -0.74505805969E-08  0.93827000000E+00  0.93827000000E+00 0. -1.
     999902    2    1    2    0    0 -0.13913748556E-01 -0.66593738714E-03 -0.18543104625E-01  0.10207377039E+01  0.10204741925E+01 0.  0.
     999903    2    3    3    0    0  0.11767188159E+00 -0.36711456531E-01 -0.36465991819E-01  0.13004399253E+00  0.19679143132E-01 0.  0.
         14    1    1    2    0    0  0.13913748556E-01  0.66593738714E-03  0.18543104625E-01  0.23192296148E-01  0.00000000000E+00 0. -1.
     999901    1    3    3    0    0 -0.13158563015E+00  0.36045519144E-01  0.17922887194E-01  0.89069371133E+00  0.88000000000E+00 0. -1.
        -11    1    4    4    0    0  0.82587185959E-01 -0.20934821119E-01 -0.16816717466E-01  0.86844534239E-01  0.51100000000E-03 0. -1.
         11    1    4    4    0    0  0.35084695634E-01 -0.15776635412E-01 -0.19649274352E-01  0.43199458286E-01  0.51100000000E-03 0.  1.
</event>
<event>
 8    1  0.1135368E+005  0.1043930E+01  0.7957747E-01            NaN
         13   -1    0    0    0    0  0.00000000000E+00  0.00000000000E+00  0.74505805969E-08  0.10566000000E+00  0.10566000000E+00 0.  1.
     999900   -1    0    0    0    0 -0.00000000000E+00 -0.00000000000E+00 -0.74505805969E-08  0.93827000000E+00  0.93827000000E+00 0.  1.
     999902    2    1    2    0    0  0.14190373983E-02  0.61684373896E-02  0.23269937906E-01  0.10198145838E+01  0.10195294170E+01 0.  0.
     999903    2    3    3    0    0 -0.34240267464E-01  0.40540132593E-01  0.12034761767E+00  0.13309192405E+00  0.20347307014E-01 0.  0.
         14    1    1    2    0    0 -0.14190373983E-02 -0.61684373896E-02 -0.23269937906E-01  0.24115416171E-01  0.00000000000E+00 0. -1.
     999901    1    3    3    0    0  0.35659304862E-01 -0.34371695203E-01 -0.97077679762E-01  0.88672265978E+00  0.88000000000E+00 0.  1.
        -11    1    4    4    0    0 -0.15355789897E-01  0.32873760482E-01  0.72206127393E-01  0.80811325726E-01  0.51100000000E-03 0.  1.
         11    1    4    4    0    0 -0.18884477567E-01  0.76663721112E-02  0.48141490275E-01  0.52280598325E-01  0.51100000000E-03 0. -1.
</event>
<event>
 8    1  0.1135368E+005  0.1043930E+01  0.7957747E-01            NaN
         13   -1    0    0    0    0  0.00000000000E+00  0.00000000000E+00  0.74505805969E-08  0.10566000000E+00  0.10566000000E+00 0. -1.
     999900   -1    0    0    0    0 -0.00000000000E+00 -0.00000000000E+00 -0.74505805969E-08  0.93827000000E+00  0.93827000000E+00 0.  1.
     999902    2    1    2    0    0  0.87150851749E-02 -0.16671831842E-01 -0.14176319869E-01  0.10203743058E+01  0.10201023738E+01 0.  0.
     999903    2    3    3    0    0  0.47438300139E-01  0.28679872206E-01 -0.11822412840E+00  0.13224018812E+00  0.20918781728E-01 0.  0.
         14    1    1    2    0    0 -0.87150851749E-02  0.16671831842E-01  0.14176319869E-01  0.23555694250E-01  0.00000000000E+00 0. -1.
     999901    1    3    3    0    0 -0.38723214964E-01 -0.45351704048E-01  0.10404780853E+00  0.88813411763E+00  0.88000000000E+00 0. -1.
        -11    1    4    4    0    0  0.34548220664E-01  0.93666988118E-02 -0.77238141411E-01  0.85131111865E-01  0.51100000000E-03 0.  1.
         11    1    4    4    0    0  0.12890079475E-01  0.19313173395E-01 -0.40985986987E-01  0.47109076256E-01  0.51100000000E-03 0. -1.
</event>
<event>
 8    1  0.1135368E+005  0.1043930E+01  0.7957747E-01            NaN
         13   -1    0    0    0    0  0.00000000000E+00  0.00000000000E+00  0.74505805969E-08  0.10566000000E+00  0.10566000000E+00 0. -1.
     999900   -1    0    0    0    0 -0.00000000000E+00 -0.00000000000E+00 -0.74505805969E-08  0.93827000000E+00  0.93827000000E+00 0.  1.
     999902    2    1    2    0    0  0.14273636906E-01 -0.11611516811E-01  0.12785772429E-01  0.10215237507E+01  0.10212779901E+01 0.  0.
     999903    2    3    3    0    0  0.82886956032E-01 -0.47576973482E-01 -0.89249670333E-01  0.13224734075E+00  0.19749420100E-01 0.  0.
         14    1    1    2    0    0 -0.14273636906E-01  0.11611516811E-01 -0.12785772429E-01  0.22406249347E-01  0.00000000000E+00 0.  1.
     999901    1    3    3    0    0 -0.68613319126E-01  0.35965456671E-01  0.10203544276E+00  0.88927640991E+00  0.88000000000E+00 0.  1.
        -11    1    4    4    0    0  0.50702731235E-01 -0.39841372019E-01 -0.58878153097E-01  0.87321245480E-01  0.51100000000E-03 0. -1.
         11    1    4    4    0    0  0.32184224797E-01 -0.77356014626E-02 -0.30371517236E-01  0.44926095267E-01  0.51100000000E-03 0.  1.
</event>
<event>
 8    1  0.1135368E+005  0.1043930E+01  0.7957747E-01            NaN
         13   -1    0    0    0    0  0.00000000000E+00  0.00000000000E+00  0.74505805969E-08  0.10566000000E+00  0.10566000000E+00 0. -1.
     999900   -1    0    0    0    0 -0.00000000000E+00 -0.00000000000E+00 -0.74505805969E-08  0.93827000000E+00  0.93827000000E+00 0.  1.
     999902    2    1    2    0    0 -0.18044719785E-01  0.17957602600E-02  0.13694590415E-01  0.10212060375E+01  0.10209531784E+01 0.  0.
     999903    2    3    3    0    0  0.11866553386E-01 -0.11798873111E+00  0.54198527655E-01  0.13166481999E+00  0.18329993578E-01 0.  0.
         14    1    1    2    0    0  0.18044719785E-01 -0.17957602600E-02 -0.13694590415E-01  0.22723962543E-01  0.00000000000E+00 0.  1.
     999901    1    3    3    0    0 -0.29911273172E-01  0.11978449137E+00 -0.40503937240E-01  0.88954121746E+00  0.88000000000E+00 0. -1.
        -11    1    4    4    0    0  0.10725444998E-01 -0.94585099359E-01  0.35191418683E-01  0.10148927658E+00  0.51100000000E-03 0. -1.
         11    1    4    4    0    0  0.11411083884E-02 -0.23403631754E-01  0.19007108971E-01  0.30175543410E-01  0.51100000000E-03 0.  1.
</event>
<event>
 8    1  0.1135368E+005  0.1043930E+01  0.7957747E-01            NaN
         13   -1    0    0    0    0  0.00000000000E+00  0.00000000000E+00  0.74505805969E-08  0.10566000000E+00  0.10566000000E+00 0. -1.
     999900   -1    0    0    0    0 -0.00000000000E+00 -0.00000000000E+00 -0.74505805969E-08  0.93827000000E+00  0.93827000000E+00 0.  1.
     999902    2    1    2    0    0 -0.50420691052E-02 -0.13023100248E-01 -0.18611410972E-01  0.10206618196E+01  0.10203965610E+01 0.  0.
     999903    2    3    3    0    0  0.99943354338E-01  0.75925498372E-01 -0.27133819501E-01  0.12992817603E+00  0.19792205198E-01 0.  0.
         14    1    1    2    0    0  0.50420691052E-02  0.13023100248E-01  0.18611410972E-01  0.23268180404E-01  0.00000000000E+00 0. -1.
     999901    1    3    3    0    0 -0.10498542344E+00 -0.88948598620E-01  0.85224085294E-02  0.89073364357E+00  0.88000000000E+00 0. -1.
        -11    1    4    4    0    0  0.77879873440E-01  0.61305150436E-01 -0.13135096056E-01  0.99981938501E-01  0.51100000000E-03 0.  1.
         11    1    4    4    0    0  0.22063480899E-01  0.14620347936E-01 -0.13998723445E-01  0.29946237530E-01  0.51100000000E-03 0. -1.
</event>
<event>
 8    1  0.1135368E+005  0.1043930E+01  0.7957747E-01            NaN
         13   -1    0    0    0    0  0.00000000000E+00  0.00000000000E+00  0.74505805969E-08  0.10566000000E+00  0.10566000000E+00 0. -1.
     999900   -1    0    0    0    0 -0.00000000000E+00 -0.00000000000E+00 -0.74505805969E-08  0.93827000000E+00  0.93827000000E+00 0. -1.
     999902    2    1    2    0    0  0.11679180964E-01  0.16627652799E-01  0.10099558626E-01  0.10212389623E+01  0.10209868437E+01 0.  0.
     999903    2    3    3    0    0 -0.11924835258E+00 -0.45692442616E-01  0.96661396326E-02  0.12937237973E+00  0.18325105059E-01 0.  0.
         14    1    1    2    0    0 -0.11679180964E-01 -0.16627652799E-01 -0.10099558626E-01  0.22691037659E-01  0.00000000000E+00 0.  1.
     999901    1    3    3    0    0  0.13092753354E+00  0.62320095415E-01  0.43341899313E-03  0.89186658261E+00  0.88000000000E+00 0.  1.
        -11    1    4    4    0    0 -0.46347687885E-01 -0.27399480365E-01  0.45947375388E-02  0.54038989911E-01  0.51100000000E-03 0. -1.
         11    1    4    4    0    0 -0.72900664695E-01 -0.18292962251E-01  0.50714020938E-02  0.75333389816E-01  0.51100000000E-03 0.  1.
</event>
<event>
 8    1  0.1135368E+005  0.1043930E+01  0.7957747E-01            NaN
         13   -1    0    0    0    0  0.00000000000E+00  0.00000000000E+00  0.74505805969E-08  0.10566000000E+00  0.10566000000E+00 0. -1.
     999900   -1    0    0    0    0 -0.00000000000E+00 -0.00000000000E+00 -0.74505805969E-08  0.93827000000E+00  0.93827000000E+00 0.  1.
     999902    2    1    2    0    0 -0.91103293874E-03  0.24876766008E-01  0.11128496823E-01  0.10166623102E+01  0.10162965738E+01 0.  0.
     999903    2    3    3    0    0 -0.59975291070E-01  0.62415042799E-01 -0.91872411128E-01  0.12789524514E+00  0.20590791545E-01 0.  0.
         14    1    1    2    0    0  0.91103293874E-03 -0.24876766008E-01 -0.11128496823E-01  0.27267689847E-01  0.00000000000E+00 0. -1.
     999901    1    3    3    0    0  0.59064258131E-01 -0.37538276791E-01  0.10300090795E+00  0.88876706501E+00  0.88000000000E+00 0. -1.
        -11    1    4    4    0    0 -0.38519524872E-01  0.33694375888E-01 -0.40585020769E-01  0.65318219469E-01  0.51100000000E-03 0. -1.
         11    1    4    4    0    0 -0.21455766198E-01  0.28720666911E-01 -0.51287390358E-01  0.62577025671E-01  0.51100000000E-03 0.  1.
</event>
<event>
 8    1  0.1135368E+005  0.1043930E+01  0.7957747E-01            NaN
         13   -1    0    0    0    0  0.00000000000E+00  0.00000000000E+00  0.74505805969E-08  0.10566000000E+00  0.10566000000E+00 0. -1.
     999900   -1    0    0    0    0 -0.00000000000E+00 -0.00000000000E+00 -0.74505805969E-08  0.93827000000E+00  0.93827000000E+00 0.  1.
     999902    2    1    2    0    0  0.18579839224E-01  0.33019106614E-03 -0.13263267865E-01  0.10210994563E+01  0.10208441928E+01 0.  0.
     999903    2    3    3    0    0  0.12350428585E+00 -0.17323574706E-02 -0.48717239594E-01  0.13415505120E+00  0.19180684134E-01 0.  0.
         14    1    1    2    0    0 -0.18579839224E-01 -0.33019106614E-03  0.13263267865E-01  0.22830543712E-01  0.00000000000E+00 0. -1.
     999901    1    3    3    0    0 -0.10492444662E+00  0.20625485367E-02  0.35453971729E-01  0.88694440509E+00  0.88000000000E+00 0.  1.
        -11    1    4    4    0    0  0.62391735058E-01  0.70992196199E-02 -0.30254154265E-01  0.69704393650E-01  0.51100000000E-03 0.  1.
         11    1    4    4    0    0  0.61112550788E-01 -0.88315770905E-02 -0.18463085329E-01  0.64450657550E-01  0.51100000000E-03 0. -1.
</event>
<event>
 8    1  0.1135368E+005  0.1043930E+01  0.7957747E-01            NaN
         13   -1    0    0    0    0  0.00000000000E+00  0.00000000000E+00  0.74505805969E-08  0.10566000000E+00  0.10566000000E+00 0. -1.
     999900   -1    0    0    0    0 -0.00000000000E+00 -0.00000000000E+00 -0.74505805969E-08  0.93827000000E+00  0.93827000000E+00 0.  1.
     999902    2    1    2    0    0 -0.16849578409E-01 -0.46801936270E-02 -0.15807682483E-01  0.10203568091E+01  0.10200844683E+01 0.  0.
     999903    2    3    3    0    0 -0.86628983185E-01  0.13579133467E-01  0.94587765502E-01  0.13053113890E+00  0.20063879179E-01 0.  0.
         14    1    1    2    0    0  0.16849578409E-01  0.46801936270E-02  0.15807682483E-01  0.23573190926E-01  0.00000000000E+00 0. -1.
     999901    1    3    3    0    0  0.69779404776E-01 -0.18259327094E-01 -0.11039544798E+00  0.88982567017E+00  0.88000000000E+00 0.  1.
        -11    1    4    4    0    0 -0.38342650886E-01  0.14992197098E-01  0.50207406171E-01  0.64930498274E-01  0.51100000000E-03 0. -1.
         11    1    4    4    0    0 -0.48286332299E-01 -0.14130636309E-02  0.44380359331E-01  0.65600640630E-01  0.51100000000E-03 0.  1.
</event>
<event>
 8    1  0.1135368E+005  0.1043930E+01  0.7957747E-01            NaN
         13   -1    0    0    0    0  0.00000000000E+00  0.00000000000E+00  0.74505805969E-08  0.10566000000E+00  0.10566000000E+00 0.  1.
     999900   -1    0    0    0    0 -0.00000000000E+00 -0.00000000000E+00 -0.74505805969E-08  0.93827000000E+00  0.93827000000E+00 0.  1.
     999902    2    1    2    0    0  0.18739935753E-01 -0.66430694395E-02  0.12079198800E-01  0.10206658085E+01  0.10204006419E+01 0.  0.
     999903    2    3    3    0    0 -0.27366284370E-01 -0.12537089501E+00  0.20268513267E-01  0.13145877692E+00  0.20095336846E-01 0.  0.
         14    1    1    2    0    0 -0.18739935753E-01  0.66430694395E-02 -0.12079198800E-01  0.23264191524E-01  0.00000000000E+00 0. -1.
     999901    1    3    3    0    0  0.46106220123E-01  0.11872782557E+00 -0.81893144678E-02  0.88920703156E+00  0.88000000000E+00 0. -1.
        -11    1    4    4    0    0 -0.28379795576E-01 -0.91973249871E-01  0.11709946215E-01  0.96963268562E-01  0.51100000000E-03 0. -1.
         11    1    4    4    0    0  0.10135112065E-02 -0.33397645140E-01  0.85585670520E-02  0.34495508357E-01  0.51100000000E-03 0.  1.
</event>
<event>
 8    1  0.1135368E+005  0.1043930E+01  0.7957747E-01            NaN
         13   -1    0    0    0    0  0.00000000000E+00  0.00000000000E+00  0.74505805969E-08  0.10566000000E+00  0.10566000000E+00 0. -1.
     999900   -1    0    0    0    0 -0.00000000000E+00 -0.00000000000E+00 -0.74505805969E-08  0.93827000000E+00  0.93827000000E+00 0. -1.
     999902    2    1    2    0    0  0.65940574450E-02  0.42380459278E-02  0.26273139289E-01  0.10165124787E+01  0.10161426567E+01 0.  0.
     999903    2    3    3    0    0 -0.65420283150E-01  0.77720720526E-02  0.10996254129E+00  0.12960635592E+00  0.19126642569E-01 0.  0.
         14    1    1    2    0    0 -0.65940574450E-02 -0.42380459278E-02 -0.26273139289E-01  0.27417521314E-01  0.00000000000E+00 0.  1.
     999901    1    3    3    0    0  0.72014340595E-01 -0.35340261247E-02 -0.83689402004E-01  0.88690612277E+00  0.88000000000E+00 0.  1.
        -11    1    4    4    0    0 -0.29664372699E-01 -0.24884201313E-02  0.35228117671E-01  0.46124273848E-01  0.51100000000E-03 0. -1.
         11    1    4    4    0    0 -0.35755910452E-01  0.10260492184E-01  0.74734423622E-01  0.83482082073E-01  0.51100000000E-03 0.  1.
</event>
<event>
 8    1  0.1135368E+005  0.1043930E+01  0.7957747E-01            NaN
         13   -1    0    0    0    0  0.00000000000E+00  0.00000000000E+00  0.74505805969E-08  0.10566000000E+00  0.10566000000E+00 0.  1.
     999900   -1    0    0    0    0 -0.00000000000E+00 -0.00000000000E+00 -0.74505805969E-08  0.93827000000E+00  0.93827000000E+00 0. -1.
     999902    2    1    2    0    0 -0.49069403070E-02 -0.23188488394E-01  0.15187691683E-02  0.10201794060E+01  0.10199029021E+01 0.  0.
     999903    2    3    3    0    0  0.33849851417E-01 -0.18193901546E-01 -0.12342944544E+00  0.13049457911E+00  0.17809454789E-01 0.  0.
         14    1    1    2    0    0  0.49069403070E-02  0.23188488394E-01 -0.15187691683E-02  0.23750594034E-01  0.00000000000E+00 0.  1.
     999901    1    3    3    0    0 -0.38756791724E-01 -0.49945868476E-02  0.12494821461E+00  0.88968482686E+00  0.88000000000E+00 0.  1.
        -11    1    4    4    0    0  0.31907953344E-01 -0.12228777717E-01 -0.86032198926E-01  0.92571382533E-01  0.51100000000E-03 0.  1.
         11    1    4    4    0    0  0.19418980730E-02 -0.59651238294E-02 -0.37397246519E-01  0.37923196577E-01  0.51100000000E-03 0. -1.
</event>
<event>
 8    1  0.1135368E+005  0.1043930E+01  0.7957747E-01            NaN
         13   -1    0    0    0    0  0.00000000000E+00  0.00000000000E+00  0.74505805969E-08  0.10566000000E+00  0.10566000000E+00 0. -1.
     999900   -1    0    0    0    0 -0.00000000000E+00 -0.00000000000E+00 -0.74505805969E-08  0.93827000000E+00  0.93827000000E+00 0.  1.
     999902    2    1    2    0    0  0.67763555031E-02  0.15616501458E-01 -0.16083833720E-01  0.10205102686E+01  0.10202415030E+01 0.  0.
     999903    2    3    3    0    0  0.20224537960E-02 -0.42558760402E-01  0.11892204699E+00  0.12830314663E+00  0.22447845511E-01 0.  0.
         14    1    1    2    0    0 -0.67763555031E-02 -0.15616501458E-01  0.16083833720E-01  0.23419731400E-01  0.00000000000E+00 0. -1.
     999901    1    3    3    0    0  0.47539017070E-02  0.58175261860E-01 -0.13500588071E+00  0.89220712197E+00  0.88000000000E+00 0.  1.
        -11    1    4    4    0    0 -0.49877777313E-02 -0.28216949791E-01  0.50728265674E-01  0.58263987518E-01  0.51100000000E-03 0. -1.
         11    1    4    4    0    0  0.70102315273E-02 -0.14341810611E-01  0.68193781315E-01  0.70039159109E-01  0.51100000000E-03 0.  1.
</event>
<event>
 8    1  0.1135368E+005  0.1043930E+01  0.7957747E-01            NaN
         13   -1    0    0    0    0  0.00000000000E+00  0.00000000000E+00  0.74505805969E-08  0.10566000000E+00  0.10566000000E+00 0.  1.
     999900   -1    0    0    0    0 -0.00000000000E+00 -0.00000000000E+00 -0.74505805969E-08  0.93827000000E+00  0.93827000000E+00 0.  1.
     999902    2    1    2    0    0 -0.18718143460E-01  0.14481481393E-01  0.57105801222E-02  0.10195847146E+01  0.10192940190E+01 0.  0.
     999903    2    3    3    0    0 -0.18469522610E-01  0.12714626019E+00  0.23480708308E-01  0.13222391328E+00  0.20604000455E-01 0.  0.
         14    1    1    2    0    0  0.18718143460E-01 -0.14481481393E-01 -0.57105801222E-02  0.24345285442E-01  0.00000000000E+00 0. -1.
     999901    1    3    3    0    0 -0.24862084966E-03 -0.11266477879E+00 -0.17770128185E-01  0.88736080128E+00  0.88000000000E+00 0.  1.
        -11    1    4    4    0    0 -0.12695578511E-01  0.28298294674E-01  0.76424169847E-02  0.31947438920E-01  0.51100000000E-03 0.  1.
         11    1    4    4    0    0 -0.57739440998E-02  0.98847965513E-01  0.15838291323E-01  0.10027647436E+00  0.51100000000E-03 0. -1.
</event>
<event>
 8    1  0.1135368E+005  0.1043930E+01  0.7957747E-01            NaN
         13   -1    0    0    0    0  0.00000000000E+00  0.00000000000E+00  0.74505805969E-08  0.10566000000E+00  0.10566000000E+00 0. -1.
     999900   -1    0    0    0    0 -0.00000000000E+00 -0.00000000000E+00 -0.74505805969E-08  0.93827000000E+00  0.93827000000E+00 0.  1.
     999902    2    1    2    0    0 -0.16248450906E-01  0.12678265627E-01  0.10177616066E-01  0.10209444731E+01  0.10206856925E+01 0.  0.
     999903    2    3    3    0    0  0.55247981895E-01 -0.64262572296E-01 -0.94516993751E-01  0.12853616201E+00  0.20151057943E-01 0.  0.
         14    1    1    2    0    0  0.16248450906E-01 -0.12678265627E-01 -0.10177616066E-01  0.22985526858E-01  0.00000000000E+00 0.  1.
     999901    1    3    3    0    0 -0.71496432801E-01  0.76940837923E-01  0.10469460982E+00  0.89240831113E+00  0.88000000000E+00 0.  1.
        -11    1    4    4    0    0  0.13742812932E-01 -0.30727556093E-01 -0.39308403276E-01  0.51753833673E-01  0.51100000000E-03 0. -1.
         11    1    4    4    0    0  0.41505168963E-01 -0.33535016203E-01 -0.55208590475E-01  0.76782328342E-01  0.51100000000E-03 0.  1.
</event>
<event>
 8    1  0.1135368E+005  0.1043930E+01  0.7957747E-01            NaN
         13   -1    0    0    0    0  0.00000000000E+00  0.00000000000E+00  0.74505805969E-08  0.10566000000E+00  0.10566000000E+00 0. -1.
     999900   -1    0    0    0    0 -0.00000000000E+00 -0.00000000000E+00 -0.74505805969E-08  0.93827000000E+00  0.93827000000E+00 0. -1.
     999902    2    1    2    0    0  0.84591718010E-02 -0.17229630040E-01  0.12849789559E-01  0.10208316271E+01  0.10205702700E+01 0.  0.
     999903    2    3    3    0    0  0.84457137360E-01  0.21721678877E-01  0.97952744255E-01  0.13261126698E+00  0.19651173976E-01 0.  0.
         14    1    1    2    0    0 -0.84591718010E-02  0.17229630040E-01 -0.12849789559E-01  0.23098372899E-01  0.00000000000E+00 0.  1.
     999901    1    3    3    0    0 -0.75997965559E-01 -0.38951308917E-01 -0.85102954697E-01  0.88822036012E+00  0.88000000000E+00 0. -1.
        -11    1    4    4    0    0  0.39849813439E-01  0.18969701442E-01  0.56082109266E-01  0.71367508746E-01  0.51100000000E-03 0.  1.
         11    1    4    4    0    0  0.44607323921E-01  0.27519774348E-02  0.41870634989E-01  0.61243758233E-01  0.51100000000E-03 0. -1.
</event>
<event>
 8    1  0.1135368E+005  0.1043930E+01  0.7957747E-01            NaN
         13   -1    0    0    0    0  0.00000000000E+00  0.00000000000E+00  0.74505805969E-08  0.10566000000E+00  0.10566000000E+00 0. -1.
     999900   -1    0    0    0    0 -0.00000000000E+00 -0.00000000000E+00 -0.74505805969E-08  0.93827000000E+00  0.93827000000E+00 0. -1.
     999902    2    1    2    0    0  0.89236380508E-02  0.14169351224E-01 -0.16694430719E-01  0.10202845808E+01  0.10200105490E+01 0.  0.
     999903    2    3    3    0    0  0.11113122071E+00  0.75338596951E-02 -0.69673258253E-01  0.13276152431E+00  0.19088010974E-01 0.  0.
         14    1    1    2    0    0 -0.89236380508E-02 -0.14169351224E-01  0.16694430719E-01  0.23645419159E-01  0.00000000000E+00 0. -1.
     999901    1    3    3    0    0 -0.10220758266E+00  0.66354915287E-02  0.52978827533E-01  0.88752305653E+00  0.88000000000E+00 0.  1.
        -11    1    4    4    0    0  0.75399934107E-01  0.60312237427E-02 -0.57372501154E-01  0.94938878932E-01  0.51100000000E-03 0.  1.
         11    1    4    4    0    0  0.35731286607E-01  0.15026359523E-02 -0.12300757099E-01  0.37822645381E-01  0.51100000000E-03 0. -1.
</event>
<event>
 8    1  0.1135368E+005  0.1043930E+01  0.7957747E-01            NaN
         13   -1    0    0    0    0  0.00000000000E+00  0.00000000000E+00  0.74505805969E-08  0.10566000000E+00  0.10566000000E+00 0.  1.
     999900   -1    0    0    0    0 -0.00000000000E+00 -0.00000000000E+00 -0.74505805969E-08  0.93827000000E+00  0.93827000000E+00 0.  1.
     999902    2    1    2    0    0  0.19203431366E-01 -0.13567970483E-01 -0.23621864426E-02  0.10202986326E+01  0.10200249302E+01 0.  0.
     999903    2    3    3    0    0  0.23099074575E-01  0.10501171493E+00  0.69079007994E-01  0.12946746900E+00  0.20709627298E-01 0.  0.
         14    1    1    2    0    0 -0.19203431366E-01  0.13567970483E-01  0.23621864426E-02  0.23631367376E-01  0.00000000000E+00 0. -1.
     999901    1    3    3    0    0 -0.38956432084E-02 -0.11857968542E+00 -0.71441194437E-01  0.89083116363E+00  0.88000000000E+00 0.  1.
        -11    1    4    4    0    0  0.13030400882E-01  0.92476117835E-01  0.59812573230E-01  0.11090278966E+00  0.51100000000E-03 0. -1.
         11    1    4    4    0    0  0.10068673693E-01  0.12535597100E-01  0.92664347637E-02  0.18564679335E-01  0.51100000000E-03 0.  1.
</event>
<event>
 8    1  0.1135368E+005  0.1043930E+01  0.7957747E-01            NaN
         13   -1    0    0    0    0  0.00000000000E+00  0.00000000000E+00  0.74505805969E-08  0.10566000000E+00  0.10566000000E+00 0. -1.
     999900   -1    0    0    0    0 -0.00000000000E+00 -0.00000000000E+00 -0.74505805969E-08  0.93827000000E+00  0.93827000000E+00 0.  1.
     999902    2    1    2    0    0 -0.84304909056E-03  0.21870823953E-01  0.92991057659E-02  0.10201493978E+01  0.10198721865E+01 0.  0.
     999903    2    3    3    0    0  0.60722011735E-01 -0.41084861031E-01  0.10577169234E+00  0.13050866418E+00  0.21673301780E-01 0.  0.
         14    1    1    2    0    0  0.84304909056E-03 -0.21870823953E-01 -0.92991057659E-02  0.23780602183E-01  0.00000000000E+00 0. -1.
     999901    1    3    3    0    0 -0.61565060825E-01  0.62955684984E-01 -0.96472586576E-01  0.88964073364E+00  0.88000000000E+00 0.  1.
        -11    1    4    4    0    0  0.45594016256E-01 -0.40545464654E-01  0.89031591116E-01  0.10793347192E+00  0.51100000000E-03 0.  1.
         11    1    4    4    0    0  0.15127995479E-01 -0.53939637733E-03  0.16740101226E-01  0.22575192263E-01  0.51100000000E-03 0. -1.
</event>
<event>
 8    1  0.1135368E+005  0.1043930E+01  0.7957747E-01            NaN
         13   -1    0    0    0    0  0.00000000000E+00  0.00000000000E+00  0.74505805969E-08  0.10566000000E+00  0.10566000000E+00 0. -1.
     999900   -1    0    0    0    0 -0.00000000000E+00 -0.00000000000E+00 -0.74505805969E-08  0.93827000000E+00  0.93827000000E+00 0.  1.
     999902    2    1    2    0    0 -0.22875578105E-01 -0.10843257163E-03 -0.60167276306E-02  0.10202761453E+01  0.10200019156E+01 0.  0.
     999903    2    3    3    0    0 -0.93083827862E-01 -0.50153168897E-01 -0.78386851247E-01  0.13310586357E+00  0.19817495040E-01 0.  0.
         14    1    1    2    0    0  0.22875578105E-01  0.10843257163E-03  0.60167276306E-02  0.23653854710E-01  0.00000000000E+00 0. -1.
     999901    1    3    3    0    0  0.70208249758E-01  0.50044736325E-01  0.72370123616E-01  0.88717028172E+00  0.88000000000E+00 0. -1.
        -11    1    4    4    0    0 -0.60975994337E-01 -0.31104454906E-01 -0.61904455099E-01  0.92292912417E-01  0.51100000000E-03 0.  1.
         11    1    4    4    0    0 -0.32107833525E-01 -0.19048713990E-01 -0.16482396148E-01  0.40812951157E-01  0.51100000000E-03 0. -1.
</event>
<event>
 8    1  0.1135368E+005  0.1043930E+01  0.7957747E-01            NaN
         13   -1    0    0    0    0  0.00000000000E+00  0.00000000000E+00  0.74505805969E-08  0.10566000000E+00  0.10566000000E+00 0. -1.
     999900   -1    0    0    0    0 -0.00000000000E+00 -0.00000000000E+00 -0.74505805969E-08  0.93827000000E+00  0.93827000000E+00 0. -1.
     999902    2    1    2    0    0 -0.13091553242E-01 -0.12903852894E-01  0.17618309668E-01  0.10184682047E+01  0.10181498814E+01 0.  0.
     999903    2    3    3    0    0 -0.65217298046E-01  0.44730961823E-01  0.10216733989E+00  0.13100699220E+00  0.21691282907E-01 0.  0.
         14    1    1    2    0    0  0.13091553242E-01  0.12903852894E-01 -0.17618309668E-01  0.25461795328E-01  0.00000000000E+00 0.  1.
     999901    1    3    3    0    0  0.52125744804E-01 -0.57634814717E-01 -0.84549030221E-01  0.88746121248E+00  0.88000000000E+00 0. -1.
        -11    1    4    4    0    0 -0.43604539494E-01  0.24939994775E-01  0.48335597096E-01  0.69713343569E-01  0.51100000000E-03 0. -1.
         11    1    4    4    0    0 -0.21612758552E-01  0.19790967048E-01  0.53831742792E-01  0.61293648627E-01  0.51100000000E-03 0.  1.
</event>
<event>
 8    1  0.1135368E+005  0.1043930E+01  0.7957747E-01            NaN
         13   -1    0    0    0    0  0.00000000000E+00  0.00000000000E+00  0.74505805969E-08  0.10566000000E+00  0.10566000000E+00 0. -1.
     999900   -1    0    0    0    0 -0.00000000000E+00 -0.00000000000E+00 -0.74505805969E-08  0.93827000000E+00  0.93827000000E+00 0.  1.
     999902    2    1    2    0    0  0.20870396001E-01  0.76414968486E-02 -0.24879111592E-02  0.10215658411E+01  0.10213210132E+01 0.  0.
     999903    2    3    3    0    0 -0.32328433577E-01 -0.32003489715E-01 -0.12131522639E+00  0.13110429148E+00  0.20039963051E-01 0.  0.
         14    1    1    2    0    0 -0.20870396001E-01 -0.76414968486E-02  0.24879111592E-02  0.22364158944E-01  0.00000000000E+00 0. -1.
     999901    1    3    3    0    0  0.53198829578E-01  0.39644986564E-01  0.11882731523E+00  0.89046154958E+00  0.88000000000E+00 0. -1.
        -11    1    4    4    0    0 -0.24072457266E-01 -0.97772019767E-02 -0.62430158844E-01  0.67622945305E-01  0.51100000000E-03 0.  1.
         11    1    4    4    0    0 -0.82559763109E-02 -0.22226287738E-01 -0.58885067546E-01  0.63481346176E-01  0.51100000000E-03 0. -1.
</event>
<event>
 8    1  0.1135368E+005  0.1043930E+01  0.7957747E-01            NaN
         13   -1    0    0    0    0  0.00000000000E+00  0.00000000000E+00  0.74505805969E-08  0.10566000000E+00  0.10566000000E+00 0. -1.
     999900   -1    0    0    0    0 -0.00000000000E+00 -0.00000000000E+00 -0.74505805969E-08  0.93827000000E+00  0.93827000000E+00 0. -1.
     999902    2    1    2    0    0  0.22887867828E-01 -0.43816474066E-02  0.64461689733E-02  0.10197513643E+01  0.10194646824E+01 0.  0.
     999903    2    3    3    0    0  0.39719583458E-01 -0.12382539033E+00 -0.33507387634E-02  0.13146869887E+00  0.19037298452E-01 0.  0.
         14    1    1    2    0    0 -0.22887867828E-01  0.43816474066E-02 -0.64461689733E-02  0.24178635655E-01  0.00000000000E+00 0. -1.
     999901    1    3    3    0    0 -0.16831715630E-01  0.11944374293E+00  0.97969077367E-02  0.88828266547E+00  0.88000000000E+00 0. -1.
        -11    1    4    4    0    0  0.11172480197E-01 -0.57921399672E-01  0.47921981257E-02  0.59185632865E-01  0.51100000000E-03 0.  1.
         11    1    4    4    0    0  0.28547103261E-01 -0.65903990660E-01 -0.81429368891E-02  0.72283066009E-01  0.51100000000E-03 0. -1.
</event>
<event>
 8    1  0.1135368E+005  0.1043930E+01  0.7957747E-01            NaN
         13   -1    0    0    0    0  0.00000000000E+00  0.00000000000E+00  0.74505805969E-08  0.10566000000E+00  0.10566000000E+00 0.  1.
     999900   -1    0    0    0    0 -0.00000000000E+00 -0.00000000000E+00 -0.74505805969E-08  0.93827000000E+00  0.93827000000E+00 0. -1.
     999902    2    1    2    0    0  0.77751852236E-02  0.15841186774E-01  0.14617106810E-01  0.10210158883E+01  0.10207587314E+01 0.  0.
     999903    2    3    3    0    0  0.42834378872E-01  0.11035410644E+00 -0.56393597256E-01  0.13241903981E+00  0.18486521389E-01 0.  0.
         14    1    1    2    0    0 -0.77751852236E-02 -0.15841186774E-01 -0.14617106810E-01  0.22914111704E-01  0.00000000000E+00 0. -1.
     999901    1    3    3    0    0 -0.35059193648E-01 -0.94512919661E-01  0.71010704066E-01  0.88859684848E+00  0.88000000000E+00 0.  1.
        -11    1    4    4    0    0  0.41268327522E-01  0.99101575284E-01 -0.45256626523E-01  0.11650158988E+00  0.51100000000E-03 0.  1.
         11    1    4    4    0    0  0.15660513494E-02  0.11252531152E-01 -0.11136970733E-01  0.15917449929E-01  0.51100000000E-03 0. -1.
</event>
<event>
 8    1  0.1135368E+005  0.1043930E+01  0.7957747E-01            NaN
         13   -1    0    0    0    0  0.00000000000E+00  0.00000000000E+00  0.74505805969E-08  0.10566000000E+00  0.10566000000E+00 0. -1.
     999900   -1    0    0    0    0 -0.00000000000E+00 -0.00000000000E+00 -0.74505805969E-08  0.93827000000E+00  0.93827000000E+00 0.  1.
     999902    2    1    2    0    0  0.88469127691E-03  0.18948169737E-01 -0.12754892469E-01  0.10210716734E+01  0.10208157811E+01 0.  0.
     999903    2    3    3    0    0  0.33718693688E-01 -0.84857483948E-01  0.87738654113E-01  0.12868574880E+00  0.22895581048E-01 0.  0.
         14    1    1    2    0    0 -0.88469127691E-03 -0.18948169737E-01  0.12754892469E-01  0.22858326643E-01  0.00000000000E+00 0. -1.
     999901    1    3    3    0    0 -0.32834002412E-01  0.10380565368E+00 -0.10049354658E+00  0.89238592456E+00  0.88000000000E+00 0.  1.
        -11    1    4    4    0    0  0.34098427621E-02 -0.38903595507E-01  0.34803041546E-01  0.52312805248E-01  0.51100000000E-03 0.  1.
         11    1    4    4    0    0  0.30308850926E-01 -0.45953888440E-01  0.52935612567E-01  0.76372943547E-01  0.51100000000E-03 0. -1.
</event>
<event>
 8    1  0.1135368E+005  0.1043930E+01  0.7957747E-01            NaN
         13   -1    0    0    0    0  0.00000000000E+00  0.00000000000E+00  0.74505805969E-08  0.10566000000E+00  0.10566000000E+00 0.  1.
     999900   -1    0    0    0    0 -0.00000000000E+00 -0.00000000000E+00 -0.74505805969E-08  0.93827000000E+00  0.93827000000E+00 0.  1.
     999902    2    1    2    0    0  0.17886801191E-01 -0.13428267263E-01  0.46541104245E-02  0.10210845024E+01  0.10208289006E+01 0.  0.
     999903    2    3    3    0    0  0.13175501841E+00 -0.80310108363E-03 -0.10236853331E-01  0.13353331707E+00  0.19139586026E-01 0.  0.
         14    1    1    2    0    0 -0.17886801191E-01  0.13428267263E-01 -0.46541104245E-02  0.22845497639E-01  0.00000000000E+00 0.  1.
     999901    1    3    3    0    0 -0.11386821722E+00 -0.12625166179E-01  0.14890963756E-01  0.88755118529E+00  0.88000000000E+00 0. -1.
        -11    1    4    4    0    0  0.74266008491E-01 -0.97695160046E-02 -0.75113677627E-02  0.75283233371E-01  0.51100000000E-03 0.  1.
         11    1    4    4    0    0  0.57489009920E-01  0.89664149210E-02 -0.27254855684E-02  0.58250083696E-01  0.51100000000E-03 0. -1.
</event>
<event>
 8    1  0.1135368E+005  0.1043930E+01  0.7957747E-01            NaN
         13   -1    0    0    0    0  0.00000000000E+00  0.00000000000E+00  0.74505805969E-08  0.10566000000E+00  0.10566000000E+00 0.  1.
     999900   -1    0    0    0    0 -0.00000000000E+00 -0.00000000000E+00 -0.74505805969E-08  0.93827000000E+00  0.93827000000E+00 0. -1.
     999902    2    1    2    0    0  0.83820769327E-02 -0.14466113693E-01  0.17563819925E-01  0.10196809705E+01  0.10193925967E+01 0.  0.
     999903    2    3    3    0    0 -0.10957920431E+00 -0.62468978813E-01 -0.22472076850E-01  0.12961242714E+00  0.19606419892E-01 0.  0.
         14    1    1    2    0    0 -0.83820769327E-02  0.14466113693E-01 -0.17563819925E-01  0.24249029454E-01  0.00000000000E+00 0. -1.
     999901    1    3    3    0    0  0.11796128124E+00  0.48002865119E-01  0.40035896775E-01  0.89006854341E+00  0.88000000000E+00 0.  1.
        -11    1    4    4    0    0 -0.69253996137E-01 -0.32539836062E-01 -0.59790295495E-02  0.76752634009E-01  0.51100000000E-03 0.  1.
         11    1    4    4    0    0 -0.40325208168E-01 -0.29929142751E-01 -0.16493047301E-01  0.52859793131E-01  0.51100000000E-03 0. -1.
</event>
<event>
 8    1  0.1135368E+005  0.1043930E+01  0.7957747E-01            NaN
         13   -1    0    0    0    0  0.00000000000E+00  0.00000000000E+00  0.74505805969E-08  0.10566000000E+00  0.10566000000E+00 0.  1.
     999900   -1    0    0    0    0 -0.00000000000E+00 -0.00000000000E+00 -0.74505805969E-08  0.93827000000E+00  0.93827000000E+00 0.  1.
     999902    2    1    2    0    0  0.16557737140E-03  0.17696371134E-01  0.16069926695E-01  0.10200253663E+01  0.10197452213E+01 0.  0.
     999903    2    3    3    0    0 -0.39158451906E-01 -0.50355488442E-01  0.11225133160E+00  0.13130252003E+00  0.23894157228E-01 0.  0.
         14    1    1    2    0    0 -0.16557737140E-03 -0.17696371134E-01 -0.16069926695E-01  0.23904633675E-01  0.00000000000E+00 0. -1.
     999901    1    3    3    0    0  0.39324029277E-01  0.68051859575E-01 -0.96181404903E-01  0.88872284629E+00  0.88000000000E+00 0.  1.
        -11    1    4    4    0    0 -0.83945170310E-03 -0.12594041933E-01  0.34602633634E-01  0.36836367177E-01  0.51100000000E-03 0. -1.
         11    1    4    4    0    0 -0.38319000203E-01 -0.37761446509E-01  0.77648697965E-01  0.94466152857E-01  0.51100000000E-03 0.  1.
</event>
<event>
 8    1  0.1135368E+005  0.1043930E+01  0.7957747E-01            NaN
         13   -1    0    0    0    0  0.00000000000E+00  0.00000000000E+00  0.74505805969E-08  0.10566000000E+00  0.10566000000E+00 0. -1.
     999900   -1    0    0    0    0 -0.00000000000E+00 -0.00000000000E+00 -0.74505805969E-08  0.93827000000E+00  0.93827000000E+00 0.  1.
     999902    2    1    2    0    0 -0.19166237201E-01  0.49781503091E-02  0.13450733640E-01  0.10199915609E+01  0.10197106136E+01 0.  0.
     999903    2    3    3    0    0 -0.11590495677E+00 -0.57089448698E-01 -0.15631945465E-01  0.13204079151E+00  0.22299075020E-01 0.  0.
         14    1    1    2    0    0  0.19166237201E-01 -0.49781503091E-02 -0.13450733640E-01  0.23938439055E-01  0.00000000000E+00 0.  1.
     999901    1    3    3    0    0  0.96738719573E-01  0.62067599007E-01  0.29082679105E-01  0.88795076943E+00  0.88000000000E+00 0.  1.
        -11    1    4    4    0    0 -0.29127949134E-01 -0.43295821403E-02 -0.13527804674E-02  0.29483450243E-01  0.51100000000E-03 0.  1.
         11    1    4    4    0    0 -0.86777007641E-01 -0.52759866557E-01 -0.14279164997E-01  0.10255734127E+00  0.51100000000E-03 0. -1.
</event>
<event>
 8    1  0.1135368E+005  0.1043930E+01  0.7957747E-01            NaN
         13   -1    0    0    0    0  0.00000000000E+00  0.00000000000E+00  0.74505805969E-08  0.10566000000E+00  0.10566000000E+00 0.  1.
     999900   -1    0    0    0    0 -0.00000000000E+00 -0.00000000000E+00 -0.74505805969E-08  0.93827000000E+00  0.93827000000E+00 0. -1.
     999902    2    1    2    0    0  0.52197576460E-02 -0.17745440513E-01  0.14218484240E-01  0.10205995087E+01  0.10203328111E+01 0.  0.
     999903    2    3    3    0    0  0.71268234396E-01  0.63528662125E-01 -0.84394497461E-01  0.12891996921E+00  0.19567194828E-01 0.  0.
         14    1    1    2    0    0 -0.52197576460E-02  0.17745440513E-01 -0.14218484240E-01  0.23330491271E-01  0.00000000000E+00 0. -1.
     999901    1    3    3    0    0 -0.66048476750E-01 -0.81274102638E-01  0.98612981701E-01  0.89167953952E+00  0.88000000000E+00 0.  1.
        -11    1    4    4    0    0  0.25608200114E-01  0.18812654147E-01 -0.40071276219E-01  0.51143564287E-01  0.51100000000E-03 0.  1.
         11    1    4    4    0    0  0.45660034282E-01  0.44716007979E-01 -0.44323221242E-01  0.77776404921E-01  0.51100000000E-03 0. -1.
</event>
<event>
 8    1  0.1135368E+005  0.1043930E+01  0.7957747E-01            NaN
         13   -1    0    0    0    0  0.00000000000E+00  0.00000000000E+00  0.74505805969E-08  0.10566000000E+00  0.10566000000E+00 0.  1.
     999900   -1    0    0    0    0 -0.00000000000E+00 -0.00000000000E+00 -0.74505805969E-08  0.93827000000E+00  0.93827000000E+00 0. -1.
     999902    2    1    2    0    0  0.16158065652E-01 -0.19953448964E-01  0.11499395881E-02  0.10182289189E+01  0.10179045071E+01 0.  0.
     999903    2    3    3    0    0  0.16966410254E-01 -0.46172715750E-01  0.11867694569E+00  0.13002809666E+00  0.20082572703E-01 0.  0.
         14    1    1    2    0    0 -0.16158065652E-01  0.19953448964E-01 -0.11499395881E-02  0.25701081149E-01  0.00000000000E+00 0.  1.
     999901    1    3    3    0    0 -0.80834460170E-03  0.26219266785E-01 -0.11752700610E+00  0.88820082219E+00  0.88000000000E+00 0. -1.
        -11    1    4    4    0    0  0.54465683268E-02 -0.15509809028E-01  0.65811591745E-01  0.67835433304E-01  0.51100000000E-03 0.  1.
         11    1    4    4    0    0  0.11519841927E-01 -0.30662906722E-01  0.52865353947E-01  0.62192663358E-01  0.51100000000E-03 0. -1.
</event>
<event>
 8    1  0.1135368E+005  0.1043930E+01  0.7957747E-01            NaN
         13   -1    0    0    0    0  0.00000000000E+00  0.00000000000E+00  0.74505805969E-08  0.10566000000E+00  0.10566000000E+00 0.  1.
     999900   -1    0    0    0    0 -0.00000000000E+00 -0.00000000000E+00 -0.74505805969E-08  0.93827000000E+00  0.93827000000E+00 0.  1.
     999902    2    1    2    0    0 -0.68628662333E-02 -0.65559917915E-02 -0.21522581239E-01  0.10204076391E+01  0.10201364852E+01 0.  0.
     999903    2    3    3    0    0 -0.11752483825E+00  0.53802657010E-01  0.70168514759E-02  0.13096751304E+00  0.19910795103E-01 0.  0.
         14    1    1    2    0    0  0.68628662333E-02  0.65559917915E-02  0.21522581239E-01  0.23522360946E-01  0.00000000000E+00 0.  1.
     999901    1    3    3    0    0  0.11066197202E+00 -0.60358648802E-01 -0.28539432715E-01  0.88944012601E+00  0.88000000000E+00 0. -1.
        -11    1    4    4    0    0 -0.10919285129E+00  0.49051214326E-01  0.11710733401E-01  0.12027677580E+00  0.51100000000E-03 0. -1.
         11    1    4    4    0    0 -0.83319869636E-02  0.47514426841E-02 -0.46938819247E-02  0.10690737246E-01  0.51100000000E-03 0.  1.
</event>
<event>
 8    1  0.1135368E+005  0.1043930E+01  0.7957747E-01            NaN
         13   -1    0    0    0    0  0.00000000000E+00  0.00000000000E+00  0.74505805969E-08  0.10566000000E+00  0.10566000000E+00 0.  1.
     999900   -1    0    0    0    0 -0.00000000000E+00 -0.00000000000E+00 -0.74505805969E-08  0.93827000000E+00  0.93827000000E+00 0.  1.
     999902    2    1    2    0    0  0.15576870034E-01 -0.16152646530E-01 -0.79967818850E-02  0.10201078382E+01  0.10198296457E+01 0.  0.
     999903    2    3    3    0    0  0.63026027131E-01 -0.39159909338E-01 -0.10830140509E+00  0.13284137653E+00  0.20294294240E-01 0.  0.
         14    1    1    2    0    0 -0.15576870034E-01  0.16152646530E-01  0.79967818850E-02  0.23822161751E-01  0.00000000000E+00 0.  1.
     999901    1    3    3    0    0 -0.47449157098E-01  0.23007262808E-01  0.10030462321E+00  0.88726646172E+00  0.88000000000E+00 0. -1.
        -11    1    4    4    0    0  0.35968182729E-01 -0.25609972619E-01 -0.80143143210E-01  0.91502816301E-01  0.51100000000E-03 0.  1.
         11    1    4    4    0    0  0.27057844402E-01 -0.13549936719E-01 -0.28158261882E-01  0.41338560231E-01  0.51100000000E-03 0. -1.
</event>
<event>
 8    1  0.1135368E+005  0.1043930E+01  0.7957747E-01            NaN
         13   -1    0    0    0    0  0.00000000000E+00  0.00000000000E+00  0.74505805969E-08  0.10566000000E+00  0.10566000000E+00 0. -1.
     999900   -1    0    0    0    0 -0.00000000000E+00 -0.00000000000E+00 -0.74505805969E-08  0.93827000000E+00  0.93827000000E+00 0.  1.
     999902    2    1    2    0    0 -0.10923794811E-01  0.80687546890E-02 -0.18750992441E-01  0.10207775960E+01  0.10205150007E+01 0.  0.
     999903    2    3    3    0    0  0.33880619986E-01 -0.92350993240E-01  0.80306064505E-01  0.12841900106E+00  0.19125205202E-01 0.  0.
         14    1    1    2    0    0  0.10923794811E-01 -0.80687546890E-02  0.18750992441E-01  0.23152404040E-01  0.00000000000E+00 0. -1.
     999901    1    3    3    0    0 -0.44804414798E-01  0.10041974793E+00 -0.99057056946E-01  0.89235859490E+00  0.88000000000E+00 0.  1.
        -11    1    4    4    0    0  0.31261427657E-01 -0.60515511784E-01  0.51354266659E-01  0.85304899335E-01  0.51100000000E-03 0.  1.
         11    1    4    4    0    0  0.26191923295E-02 -0.31835481457E-01  0.28951797846E-01  0.43114101725E-01  0.51100000000E-03 0. -1.
</event>
<event>
 8    1  0.1135368E+005  0.1043930E+01  0.7957747E-01            NaN
         13   -1    0    0    0    0  0.00000000000E+00  0.00000000000E+00  0.74505805969E-08  0.10566000000E+00  0.10566000000E+00 0.  1.
     999900   -1    0    0    0    0 -0.00000000000E+00 -0.00000000000E+00 -0.74505805969E-08  0.93827000000E+00  0.93827000000E+00 0.  1.
     999902    2    1    2    0    0  0.10497030620E-01  0.16458461959E-01 -0.14191223082E-01  0.10197958036E+01  0.10195101871E+01 0.  0.
     999903    2    3    3    0    0 -0.80709153380E-01  0.12608608746E-01  0.96720479955E-01  0.12814856663E+00  0.19855967215E-01 0.  0.
         14    1    1    2    0    0 -0.10497030620E-01 -0.16458461959E-01  0.14191223082E-01  0.24134196371E-01  0.00000000000E+00 0.  1.
     999901    1    3    3    0    0  0.91206184000E-01  0.38498532134E-02 -0.11091170304E+00  0.89164723699E+00  0.88000000000E+00 0. -1.
        -11    1    4    4    0    0 -0.59435994708E-02  0.42814996837E-03  0.17698465687E-01  0.18681715546E-01  0.51100000000E-03 0. -1.
         11    1    4    4    0    0 -0.74765553909E-01  0.12180458777E-01  0.79022014268E-01  0.10946685109E+00  0.51100000000E-03 0.  1.
</event>
<event>
 8    1  0.1135368E+005  0.1043930E+01  0.7957747E-01            NaN
         13   -1    0    0    0    0  0.00000000000E+00  0.00000000000E+00  0.74505805969E-08  0.10566000000E+00  0.10566000000E+00 0.  1.
     999900   -1    0    0    0    0 -0.00000000000E+00 -0.00000000000E+00 -0.74505805969E-08  0.93827000000E+00  0.93827000000E+00 0. -1.
     999902    2    1    2    0    0 -0.97250931944E-02 -0.19329896675E-01 -0.98564984224E-02  0.10201524285E+01  0.10198752887E+01 0.  0.
     999903    2    3    3    0    0  0.72838185818E-01  0.64288904992E-01  0.80567395572E-01  0.12774821540E+00  0.19749346584E-01 0.  0.
         14    1    1    2    0    0  0.97250931944E-02  0.19329896675E-01  0.98564984224E-02  0.23777571454E-01  0.00000000000E+00 0.  1.
     999901    1    3    3    0    0 -0.82563279013E-01 -0.83618801667E-01 -0.90423893995E-01  0.89240421314E+00  0.88000000000E+00 0. -1.
        -11    1    4    4    0    0  0.28230927685E-01  0.12767318642E-01  0.25166356944E-01  0.39919874074E-01  0.51100000000E-03 0. -1.
         11    1    4    4    0    0  0.44607258134E-01  0.51521586350E-01  0.55401038628E-01  0.87828341327E-01  0.51100000000E-03 0.  1.
</event>
<event>
 8    1  0.1135368E+005  0.1043930E+01  0.7957747E-01            NaN
         13   -1    0    0    0    0  0.00000000000E+00  0.00000000000E+00  0.74505805969E-08  0.10566000000E+00  0.10566000000E+00 0.  1.
     999900   -1    0    0    0    0 -0.00000000000E+00 -0.00000000000E+00 -0.74505805969E-08  0.93827000000E+00  0.93827000000E+00 0. -1.
     999902    2    1    2    0    0  0.10784362015E-01 -0.21369434490E-01 -0.53752198572E-02  0.10193974057E+01  0.10191021649E+01 0.  0.
     999903    2    3    3    0    0  0.85795093565E-01 -0.86239428537E-01  0.47684641339E-01  0.13223897856E+00  0.20378550415E-01 0.  0.
         14    1    1    2    0    0 -0.10784362015E-01  0.21369434490E-01  0.53752198572E-02  0.24532594298E-01  0.00000000000E+00 0.  1.
     999901    1    3    3    0    0 -0.75010731551E-01  0.64869994047E-01 -0.53059861196E-01  0.88715842714E+00  0.88000000000E+00 0. -1.
        -11    1    4    4    0    0  0.58428962208E-01 -0.48408417522E-01  0.22284478719E-01  0.79083358708E-01  0.51100000000E-03 0.  1.
         11    1    4    4    0    0  0.27366131357E-01 -0.37831011015E-01  0.25400162621E-01  0.53155619854E-01  0.51100000000E-03 0. -1.
</event>
<event>
 8    1  0.1135368E+005  0.1043930E+01  0.7957747E-01            NaN
         13   -1    0    0    0    0  0.00000000000E+00  0.00000000000E+00  0.74505805969E-08  0.10566000000E+00  0.10566000000E+00 0.  1.
     999900   -1    0    0    0    0 -0.00000000000E+00 -0.00000000000E+00 -0.74505805969E-08  0.93827000000E+00  0.93827000000E+00 0.  1.
     999902    2    1    2    0    0 -0.22332559323E-01  0.92454103843E-02  0.28523427863E-02  0.10195916213E+01  0.10193010927E+01 0.  0.
     999903    2    3    3    0    0 -0.44876727938E-01 -0.46623220124E-01 -0.11110539927E+00  0.13020086892E+00  0.20499052545E-01 0.  0.
         14    1    1    2    0    0  0.22332559323E-01 -0.92454103843E-02 -0.28523427863E-02  0.24338378715E-01  0.00000000000E+00 0. -1.
     999901    1    3    3    0    0  0.22544168615E-01  0.55868630508E-01  0.11395774206E+00  0.88939075236E+00  0.88000000000E+00 0. -1.
        -11    1    4    4    0    0 -0.30870130410E-01 -0.43284711714E-01 -0.92195358423E-01  0.10642732946E+00  0.51100000000E-03 0.  1.
         11    1    4    4    0    0 -0.14006597528E-01 -0.33385084099E-02 -0.18910040851E-01  0.23773539465E-01  0.51100000000E-03 0. -1.
</event>
<event>
 8    1  0.1135368E+005  0.1043930E+01  0.7957747E-01            NaN
         13   -1    0    0    0    0  0.00000000000E+00  0.00000000000E+00  0.74505805969E-08  0.10566000000E+00  0.10566000000E+00 0.  1.
     999900   -1    0    0    0    0 -0.00000000000E+00 -0.00000000000E+00 -0.74505805969E-08  0.93827000000E+00  0.93827000000E+00 0. -1.
     999902    2    1    2    0    0 -0.10571836407E-01 -0.23379467131E-01  0.37121398860E-02  0.10180042755E+01  0.10176740941E+01 0.  0.
     999903    2    3    3    0    0  0.76117933621E-01 -0.44364239145E-01 -0.91086391421E-01  0.12843008611E+00  0.20866978299E-01 0.  0.
         14    1    1    2    0    0  0.10571836407E-01  0.23379467131E-01 -0.37121398860E-02  0.25925724500E-01  0.00000000000E+00 0.  1.
     999901    1    3    3    0    0 -0.86689770028E-01  0.20984772015E-01  0.94798531307E-01  0.88957418939E+00  0.88000000000E+00 0.  1.
        -11    1    4    4    0    0  0.46438295207E-01 -0.15392677785E-01 -0.45777477982E-01  0.67002152223E-01  0.51100000000E-03 0. -1.
         11    1    4    4    0    0  0.29679638414E-01 -0.28971561360E-01 -0.45308913439E-01  0.61427933890E-01  0.51100000000E-03 0.  1.
</event>
<event>
 8    1  0.1135368E+005  0.1043930E+01  0.7957747E-01            NaN
         13   -1    0    0    0    0  0.00000000000E+00  0.00000000000E+00  0.74505805969E-08  0.10566000000E+00  0.10566000000E+00 0. -1.
     999900   -1    0    0    0    0 -0.00000000000E+00 -0.00000000000E+00 -0.74505805969E-08  0.93827000000E+00  0.93827000000E+00 0. -1.
     999902    2    1    2    0    0 -0.45960766364E-02  0.15925297996E-01  0.16645096739E-01  0.10204396130E+01  0.10201692043E+01 0.  0.
     999903    2    3    3    0    0  0.11409781000E+00  0.16461939065E-01  0.59813886140E-01  0.13142213785E+00  0.20118937796E-01 0.  0.
         14    1    1    2    0    0  0.45960766364E-02 -0.15925297996E-01 -0.16645096739E-01  0.23490387016E-01  0.00000000000E+00 0.  1.
     999901    1    3    3    0    0 -0.11869388664E+00 -0.53664106862E-03 -0.43168789402E-01  0.88901747513E+00  0.88000000000E+00 0.  1.
        -11    1    4    4    0    0  0.48419356763E-01  0.83357946567E-02  0.36674549715E-01  0.61312342148E-01  0.51100000000E-03 0. -1.
         11    1    4    4    0    0  0.65678453238E-01  0.81261444080E-02  0.23139336426E-01  0.70109795706E-01  0.51100000000E-03 0.  1.
</event>
<event>
 8    1  0.1135368E+005  0.1043930E+01  0.7957747E-01            NaN
         13   -1    0    0    0    0  0.00000000000E+00  0.00000000000E+00  0.74505805969E-08  0.10566000000E+00  0.10566000000E+00 0. -1.
     999900   -1    0    0    0    0 -0.00000000000E+00 -0.00000000000E+00 -0.74505805969E-08  0.93827000000E+00  0.93827000000E+00 0. -1.
     999902    2    1    2    0    0  0.19241457354E-01 -0.14232241321E-01 -0.16239128999E-02  0.10199419307E+01  0.10196598034E+01 0.  0.
     999903    2    3    3    0    0  0.12637173288E-01  0.40319997787E-01  0.12101483722E+00  0.12973980403E+00  0.20060547132E-01 0.  0.
         14    1    1    2    0    0 -0.19241457354E-01  0.14232241321E-01  0.16239128999E-02  0.23988069269E-01  0.00000000000E+00 0. -1.
     999901    1    3    3    0    0  0.66042840659E-02 -0.54552239108E-01 -0.12263875012E+00  0.89020212671E+00  0.88000000000E+00 0. -1.
        -11    1    4    4    0    0 -0.54650365154E-02  0.10260578510E-01  0.32646581642E-01  0.34658426240E-01  0.51100000000E-03 0.  1.
         11    1    4    4    0    0  0.18102209804E-01  0.30059419277E-01  0.88368255577E-01  0.95081377786E-01  0.51100000000E-03 0. -1.
</event>
<event>
 8    1  0.1135368E+005  0.1043930E+01  0.7957747E-01            NaN
         13   -1    0    0    0    0  0.00000000000E+00  0.00000000000E+00  0.74505805969E-08  0.10566000000E+00  0.10566000000E+00 0.  1.
     999900   -1    0    0    0    0 -0.00000000000E+00 -0.00000000000E+00 -0.74505805969E-08  0.93827000000E+00  0.93827000000E+00 0. -1.
     999902    2    1    2    0    0  0.61648235711E-04  0.13490743428E-01 -0.85357238501E-02  0.10279655852E+01  0.10278416132E+01 0.  0.
     999903    2    3    3    0    0 -0.10391500657E+00  0.70886030720E-01  0.52288454509E-01  0.13790662960E+00  0.21470865640E-01 0.  0.
         14    1    1    2    0    0 -0.61648235711E-04 -0.13490743428E-01  0.85357238501E-02  0.15964414815E-01  0.00000000000E+00 0. -1.
     999901    1    3    3    0    0  0.10397665480E+00 -0.57395287292E-01 -0.60824178359E-01  0.89005895559E+00  0.88000000000E+00 0. -1.
        -11    1    4    4    0    0 -0.36263375540E-01  0.31452247639E-01  0.10475372675E-01  0.49135230139E-01  0.51100000000E-03 0. -1.
         11    1    4    4    0    0 -0.67651631025E-01  0.39433783081E-01  0.41813081834E-01  0.88771399459E-01  0.51100000000E-03 0.  1.
</event>
<event>
 8    1  0.1135368E+005  0.1043930E+01  0.7957747E-01            NaN
         13   -1    0    0    0    0  0.00000000000E+00  0.00000000000E+00  0.74505805969E-08  0.10566000000E+00  0.10566000000E+00 0.  1.
     999900   -1    0    0    0    0 -0.00000000000E+00 -0.00000000000E+00 -0.74505805969E-08  0.93827000000E+00  0.93827000000E+00 0. -1.
     999902    2    1    2    0    0  0.61564392155E-02 -0.21225532100E-01 -0.75968119717E-02  0.10205604363E+01  0.10202928342E+01 0.  0.
     999903    2    3    3    0    0 -0.69133788412E-01  0.10194863160E+00 -0.30347778465E-01  0.12850769150E+00  0.20499632443E-01 0.  0.
         14    1    1    2    0    0 -0.61564392155E-02  0.21225532100E-01  0.75968119717E-02  0.23369563729E-01  0.00000000000E+00 0.  1.
     999901    1    3    3    0    0  0.75290227627E-01 -0.12317416370E+00  0.22750966493E-01  0.89205274477E+00  0.88000000000E+00 0.  1.
        -11    1    4    4    0    0 -0.27425870219E-01  0.42532502714E-01 -0.22837690685E-01  0.55524889745E-01  0.51100000000E-03 0.  1.
         11    1    4    4    0    0 -0.41707918193E-01  0.59416128890E-01 -0.75100877800E-02  0.72982801753E-01  0.51100000000E-03 0. -1.
</event>
<event>
 8    1  0.1135368E+005  0.1043930E+01  0.7957747E-01            NaN
         13   -1    0    0    0    0  0.00000000000E+00  0.00000000000E+00  0.74505805969E-08  0.10566000000E+00  0.10566000000E+00 0. -1.
     999900   -1    0    0    0    0 -0.00000000000E+00 -0.00000000000E+00 -0.74505805969E-08  0.93827000000E+00  0.93827000000E+00 0.  1.
     999902    2    1    2    0    0 -0.14548544336E-01 -0.88752152159E-02  0.16665283617E-01  0.10200938664E+01  0.10198153436E+01 0.  0.
     999903    2    3    3    0    0  0.51928168798E-01 -0.11172063845E+00 -0.36213306000E-01  0.13004191301E+00  0.20529487022E-01 0.  0.
         14    1    1    2    0    0  0.14548544336E-01  0.88752152159E-02 -0.16665283617E-01  0.23836133609E-01  0.00000000000E+00 0.  1.
     999901    1    3    3    0    0 -0.66476713134E-01  0.10284542324E+00  0.52878589617E-01  0.89005195338E+00  0.88000000000E+00 0.  1.
        -11    1    4    4    0    0  0.66598562128E-02 -0.13476211207E-01  0.23033043633E-02  0.15216053537E-01  0.51100000000E-03 0. -1.
         11    1    4    4    0    0  0.45268312585E-01 -0.98244427248E-01 -0.38516610363E-01  0.11482585948E+00  0.51100000000E-03 0.  1.
</event>
<event>
 8    1  0.1135368E+005  0.1043930E+01  0.7957747E-01            NaN
         13   -1    0    0    0    0  0.00000000000E+00  0.00000000000E+00  0.74505805969E-08  0.10566000000E+00  0.10566000000E+00 0.  1.
     999900   -1    0    0    0    0 -0.00000000000E+00 -0.00000000000E+00 -0.74505805969E-08  0.93827000000E+00  0.93827000000E+00 0. -1.
     999902    2    1    2    0    0  0.21750198374E-01  0.39882847186E-02  0.63057608598E-02  0.10209356493E+01  0.10206766676E+01 0.  0.
     999903    2    3    3    0    0 -0.86753823805E-01  0.92124206301E-01  0.21324977807E-01  0.12977537169E+00  0.19333832717E-01 0.  0.
         14    1    1    2    0    0 -0.21750198374E-01 -0.39882847186E-02 -0.63057608598E-02  0.22994350705E-01  0.00000000000E+00 0. -1.
     999901    1    3    3    0    0  0.10850402218E+00 -0.88135921582E-01 -0.15019216947E-01  0.89116027760E+00  0.88000000000E+00 0. -1.
        -11    1    4    4    0    0 -0.38923502352E-01  0.43773660310E-01  0.27418658297E-03  0.58579080494E-01  0.51100000000E-03 0. -1.
         11    1    4    4    0    0 -0.47830321453E-01  0.48350545992E-01  0.21050791224E-01  0.71196291196E-01  0.51100000000E-03 0.  1.
</event>
<event>
 8    1  0.1135368E+005  0.1043930E+01  0.7957747E-01            NaN
         13   -1    0    0    0    0  0.00000000000E+00  0.00000000000E+00  0.74505805969E-08  0.10566000000E+00  0.10566000000E+00 0. -1.
     999900   -1    0    0    0    0 -0.00000000000E+00 -0.00000000000E+00 -0.74505805969E-08  0.93827000000E+00  0.93827000000E+00 0. -1.
     999902    2    1    2    0    0 -0.17827321303E-01  0.11185439303E-01 -0.13271942733E-01  0.10190488445E+01  0.10187450493E+01 0.  0.
     999903    2    3    3    0    0  0.80039910976E-01 -0.15897605533E-01  0.94775563141E-01  0.12664436778E+00  0.19931565685E-01 0.  0.
         14    1    1    2    0    0  0.17827321303E-01 -0.11185439303E-01  0.13271942733E-01  0.24881155542E-01  0.00000000000E+00 0. -1.
     999901    1    3    3    0    0 -0.97867232279E-01  0.27083044836E-01 -0.10804750587E+00  0.89240447668E+00  0.88000000000E+00 0. -1.
        -11    1    4    4    0    0  0.58905132858E-01 -0.31643097871E-02  0.71790794899E-01  0.92919356899E-01  0.51100000000E-03 0.  1.
         11    1    4    4    0    0  0.21134778118E-01 -0.12733295746E-01  0.22984768242E-01  0.33725010879E-01  0.51100000000E-03 0. -1.
</event>
<event>
 8    1  0.1135368E+005  0.1043930E+01  0.7957747E-01            NaN
         13   -1    0    0    0    0  0.00000000000E+00  0.00000000000E+00  0.74505805969E-08  0.10566000000E+00  0.10566000000E+00 0.  1.
     999900   -1    0    0    0    0 -0.00000000000E+00 -0.00000000000E+00 -0.74505805969E-08  0.93827000000E+00  0.93827000000E+00 0.  1.
     999902    2    1    2    0    0  0.15466662502E-01 -0.76864084864E-02 -0.16242184861E-01  0.10202212022E+01  0.10199456820E+01 0.  0.
     999903    2    3    3    0    0 -0.97631267863E-01 -0.81799982194E-01  0.11908196534E-01  0.12944827511E+00  0.19797707733E-01 0.  0.
         14    1    1    2    0    0 -0.15466662502E-01  0.76864084864E-02  0.16242184861E-01  0.23708797807E-01  0.00000000000E+00 0.  1.
     999901    1    3    3    0    0  0.11309793037E+00  0.74113573708E-01 -0.28150381395E-01  0.89077292709E+00  0.88000000000E+00 0.  1.
        -11    1    4    4    0    0 -0.37924763509E-01 -0.42606412614E-01  0.20328565425E-04  0.57042577232E-01  0.51100000000E-03 0.  1.
         11    1    4    4    0    0 -0.59706504354E-01 -0.39193569580E-01  0.11887867969E-01  0.72405697873E-01  0.51100000000E-03 0. -1.
</event>
<event>
 8    1  0.1135368E+005  0.1043930E+01  0.7957747E-01            NaN
         13   -1    0    0    0    0  0.00000000000E+00  0.00000000000E+00  0.74505805969E-08  0.10566000000E+00  0.10566000000E+00 0.  1.
     999900   -1    0    0    0    0 -0.00000000000E+00 -0.00000000000E+00 -0.74505805969E-08  0.93827000000E+00  0.93827000000E+00 0. -1.
     999902    2    1    2    0    0  0.11454213877E-01  0.20592235241E-01 -0.41808445056E-02  0.10199984595E+01  0.10197176760E+01 0.  0.
     999903    2    3    3    0    0  0.99542295165E-01 -0.35060777949E-01  0.74113533865E-01  0.13039923651E+00  0.19318858743E-01 0.  0.
         14    1    1    2    0    0 -0.11454213877E-01 -0.20592235241E-01  0.41808445056E-02  0.23931540455E-01  0.00000000000E+00 0.  1.
     999901    1    3    3    0    0 -0.88088081288E-01  0.55653013190E-01 -0.78294378370E-01  0.88959922304E+00  0.88000000000E+00 0.  1.
        -11    1    4    4    0    0  0.78875318525E-01 -0.29486780674E-01  0.67699783240E-01  0.10804771112E+00  0.51100000000E-03 0. -1.
         11    1    4    4    0    0  0.20666976640E-01 -0.55739972747E-02  0.64137506247E-02  0.22351525387E-01  0.51100000000E-03 0.  1.
</event>
<event>
 8    1  0.1135368E+005  0.1043930E+01  0.7957747E-01            NaN
         13   -1    0    0    0    0  0.00000000000E+00  0.00000000000E+00  0.74505805969E-08  0.10566000000E+00  0.10566000000E+00 0.  1.
     999900   -1    0    0    0    0 -0.00000000000E+00 -0.00000000000E+00 -0.74505805969E-08  0.93827000000E+00  0.93827000000E+00 0. -1.
     999902    2    1    2    0    0  0.73598659083E-04 -0.69434411758E-02 -0.22305971268E-01  0.10205682118E+01  0.10203007899E+01 0.  0.
     999903    2    3    3    0    0 -0.11782557215E+00  0.46264831939E-01  0.26300320323E-01  0.12978546257E+00  0.11369226843E-01 0.  0.
         14    1    1    2    0    0 -0.73598659083E-04  0.69434411758E-02  0.22305971268E-01  0.23361788167E-01  0.00000000000E+00 0.  1.
     999901    1    3    3    0    0  0.11789917081E+00 -0.53208273114E-01 -0.48606291591E-01  0.89078274926E+00  0.88000000000E+00 0. -1.
        -11    1    4    4    0    0 -0.26372480724E-01  0.79471289944E-02  0.99428788337E-02  0.29287993432E-01  0.51100000000E-03 0. -1.
         11    1    4    4    0    0 -0.91453091424E-01  0.38317702944E-01  0.16357441489E-01  0.10049746914E+00  0.51100000000E-03 0.  1.
</event>
<event>
 8    1  0.1135368E+005  0.1043930E+01  0.7957747E-01            NaN
         13   -1    0    0    0    0  0.00000000000E+00  0.00000000000E+00  0.74505805969E-08  0.10566000000E+00  0.10566000000E+00 0. -1.
     999900   -1    0    0    0    0 -0.00000000000E+00 -0.00000000000E+00 -0.74505805969E-08  0.93827000000E+00  0.93827000000E+00 0. -1.
     999902    2    1    2    0    0 -0.22776929671E-01  0.68962054578E-02 -0.46272817982E-02  0.10196862810E+01  0.10193980350E+01 0.  0.
     999903    2    3    3    0    0  0.78692120829E-01  0.97771124353E-01 -0.23109320298E-01  0.12901473387E+00  0.18950415097E-01 0.  0.
         14    1    1    2    0    0  0.22776929671E-01 -0.68962054578E-02  0.46272817982E-02  0.24243719018E-01  0.00000000000E+00 0.  1.
     999901    1    3    3    0    0 -0.10146905050E+00 -0.90874918895E-01  0.18482038500E-01  0.89067154712E+00  0.88000000000E+00 0.  1.
        -11    1    4    4    0    0  0.12668687527E-01  0.18685600316E-01  0.28785302214E-02  0.22763882799E-01  0.51100000000E-03 0. -1.
         11    1    4    4    0    0  0.66023433302E-01  0.79085524037E-01 -0.25987850520E-01  0.10625085107E+00  0.51100000000E-03 0.  1.
</event>
<event>
 8    1  0.1135368E+005  0.1043930E+01  0.7957747E-01            NaN
         13   -1    0    0    0    0  0.00000000000E+00  0.00000000000E+00  0.74505805969E-08  0.10566000000E+00  0.10566000000E+00 0. -1.
     999900   -1    0    0    0    0 -0.00000000000E+00 -0.00000000000E+00 -0.74505805969E-08  0.93827000000E+00  0.93827000000E+00 0.  1.
     999902    2    1    2    0    0  0.26466257814E-02  0.17938496638E-01 -0.14635222510E-01  0.10206279823E+01  0.10203619428E+01 0.  0.
     999903    2    3    3    0    0 -0.81945152089E-02 -0.95515648722E-01  0.82341651310E-01  0.12799486201E+00  0.20301426784E-01 0.  0.
         14    1    1    2    0    0 -0.26466257814E-02 -0.17938496638E-01  0.14635222510E-01  0.23302017672E-01  0.00000000000E+00 0. -1.
     999901    1    3    3    0    0  0.10841140990E-01  0.11345414536E+00 -0.96976873820E-01  0.89263312032E+00  0.88000000000E+00 0.  1.
        -11    1    4    4    0    0  0.35542665999E-02 -0.55136630248E-01  0.54147971882E-01  0.77362424899E-01  0.51100000000E-03 0. -1.
         11    1    4    4    0    0 -0.11748781809E-01 -0.40379018474E-01  0.28193679427E-01  0.50632437109E-01  0.51100000000E-03 0.  1.
</event>
<event>
 8    1  0.1135368E+005  0.1043930E+01  0.7957747E-01            NaN
         13   -1    0    0    0    0  0.00000000000E+00  0.00000000000E+00  0.74505805969E-08  0.10566000000E+00  0.10566000000E+00 0. -1.
     999900   -1    0    0    0    0 -0.00000000000E+00 -0.00000000000E+00 -0.74505805969E-08  0.93827000000E+00  0.93827000000E+00 0.  1.
     999902    2    1    2    0    0 -0.17261563001E-01 -0.10018271745E-01 -0.12256178813E-01  0.10205090426E+01  0.10202402486E+01 0.  0.
     999903    2    3    3    0    0  0.36576452283E-01 -0.75892930503E-01  0.96591328420E-01  0.12973085339E+00  0.20065787643E-01 0.  0.
         14    1    1    2    0    0  0.17261563001E-01  0.10018271745E-01  0.12256178813E-01  0.23420957390E-01  0.00000000000E+00 0. -1.
     999901    1    3    3    0    0 -0.53838015284E-01  0.65874658758E-01 -0.10884750723E+00  0.89077818922E+00  0.88000000000E+00 0.  1.
        -11    1    4    4    0    0  0.16344561563E-01 -0.36458562529E-01  0.60824618400E-01  0.72775454645E-01  0.51100000000E-03 0.  1.
         11    1    4    4    0    0  0.20231890721E-01 -0.39434367974E-01  0.35766710020E-01  0.56955398746E-01  0.51100000000E-03 0. -1.
</event>
