<event>
 8    1  0.1072332E+005  0.1043930E+01  0.7957747E-01            NaN
         13   -1    0    0    0    0  0.00000000000E+00  0.00000000000E+00  0.74505805969E-08  0.10566000000E+00  0.10566000000E+00 0. -1.
     999900   -1    0    0    0    0 -0.00000000000E+00 -0.00000000000E+00 -0.74505805969E-08  0.93827000000E+00  0.93827000000E+00 0. -1.
     999902    2    1    2    0    0 -0.91722525769E-02 -0.13496842544E-01 -0.17463690834E-01  0.10200286303E+01  0.10197485627E+01 0.  0.
     999903    2    3    3    0    0  0.86695805928E-01  0.56422856889E-01  0.71930077963E-01  0.12757656161E+00  0.20053463820E-01 0.  0.
         14    1    1    2    0    0  0.91722525769E-02  0.13496842544E-01  0.17463690834E-01  0.23901369700E-01  0.00000000000E+00 0. -1.
     999901    1    3    3    0    0 -0.95868058505E-01 -0.69919699433E-01 -0.89393768797E-01  0.89245206869E+00  0.88000000000E+00 0. -1.
        -11    1    4    4    0    0  0.96293593594E-02  0.36023777665E-02  0.14915018154E-01  0.18122377735E-01  0.51100000000E-03 0.  1.
         11    1    4    4    0    0  0.77066446569E-01  0.52820479122E-01  0.57015059809E-01  0.10945418387E+00  0.51100000000E-03 0. -1.
</event>
<event>
 8    1  0.1072332E+005  0.1043930E+01  0.7957747E-01            NaN
         13   -1    0    0    0    0  0.00000000000E+00  0.00000000000E+00  0.74505805969E-08  0.10566000000E+00  0.10566000000E+00 0.  1.
     999900   -1    0    0    0    0 -0.00000000000E+00 -0.00000000000E+00 -0.74505805969E-08  0.93827000000E+00  0.93827000000E+00 0.  1.
     999902    2    1    2    0    0 -0.11370112823E-01  0.15426159380E-01 -0.13402909528E-01  0.10205444523E+01  0.10202764798E+01 0.  0.
     999903    2    3    3    0    0 -0.10267848131E+00 -0.43381817794E-01  0.64733023005E-01  0.13043163903E+00  0.19929765528E-01 0.  0.
         14    1    1    2    0    0  0.11370112823E-01 -0.15426159380E-01  0.13402909528E-01  0.23385547730E-01  0.00000000000E+00 0.  1.
     999901    1    3    3    0    0  0.91308368489E-01  0.58807977174E-01 -0.78135932533E-01  0.89011281324E+00  0.88000000000E+00 0.  1.
        -11    1    4    4    0    0 -0.78786230398E-01 -0.41727135991E-01  0.53478898743E-01  0.10396479072E+00  0.51100000000E-03 0. -1.
         11    1    4    4    0    0 -0.23892250913E-01 -0.16546818037E-02  0.11254124262E-01  0.26466848310E-01  0.51100000000E-03 0.  1.
</event>
<event>
 8    1  0.1072332E+005  0.1043930E+01  0.7957747E-01            NaN
         13   -1    0    0    0    0  0.00000000000E+00  0.00000000000E+00  0.74505805969E-08  0.10566000000E+00  0.10566000000E+00 0. -1.
     999900   -1    0    0    0    0 -0.00000000000E+00 -0.00000000000E+00 -0.74505805969E-08  0.93827000000E+00  0.93827000000E+00 0. -1.
     999902    2    1    2    0    0  0.27052988849E-02 -0.99599009578E-03  0.19618689973E-01  0.10241006371E+01  0.10239086440E+01 0.  0.
     999903    2    3    3    0    0 -0.79727190270E-01  0.61407184098E-01 -0.83335472710E-01  0.13208671843E+00  0.19360605529E-01 0.  0.
         14    1    1    2    0    0 -0.27052988849E-02  0.99599009578E-03 -0.19618689973E-01  0.19829362939E-01  0.00000000000E+00 0.  1.
     999901    1    3    3    0    0  0.82432489155E-01 -0.62403174193E-01  0.10295416268E+00  0.89201391863E+00  0.88000000000E+00 0. -1.
        -11    1    4    4    0    0 -0.37756714565E-01  0.25576425726E-01 -0.49713842451E-01  0.67464437298E-01  0.51100000000E-03 0.  1.
         11    1    4    4    0    0 -0.41970475705E-01  0.35830758371E-01 -0.33621630260E-01  0.64622281132E-01  0.51100000000E-03 0. -1.
</event>
<event>
 8    1  0.1072332E+005  0.1043930E+01  0.7957747E-01            NaN
         13   -1    0    0    0    0  0.00000000000E+00  0.00000000000E+00  0.74505805969E-08  0.10566000000E+00  0.10566000000E+00 0. -1.
     999900   -1    0    0    0    0 -0.00000000000E+00 -0.00000000000E+00 -0.74505805969E-08  0.93827000000E+00  0.93827000000E+00 0. -1.
     999902    2    1    2    0    0  0.54791867614E-02 -0.15419843320E-01 -0.16859603602E-01  0.10204344836E+01  0.10201639555E+01 0.  0.
     999903    2    3    3    0    0 -0.10622115547E+00  0.63832799844E-01 -0.33051108338E-01  0.12969315602E+00  0.19245226681E-01 0.  0.
         14    1    1    2    0    0 -0.54791867614E-02  0.15419843320E-01  0.16859603602E-01  0.23495516364E-01  0.00000000000E+00 0. -1.
     999901    1    3    3    0    0  0.11170034223E+00 -0.79252643165E-01  0.16191504736E-01  0.89074132762E+00  0.88000000000E+00 0.  1.
        -11    1    4    4    0    0 -0.10337796255E+00  0.57165860089E-01 -0.31570699181E-01  0.12227799830E+00  0.51100000000E-03 0. -1.
         11    1    4    4    0    0 -0.28431929192E-02  0.66669397554E-02 -0.14804091572E-02  0.74151577158E-02  0.51100000000E-03 0.  1.
</event>
<event>
 8    1  0.1072332E+005  0.1043930E+01  0.7957747E-01            NaN
         13   -1    0    0    0    0  0.00000000000E+00  0.00000000000E+00  0.74505805969E-08  0.10566000000E+00  0.10566000000E+00 0.  1.
     999900   -1    0    0    0    0 -0.00000000000E+00 -0.00000000000E+00 -0.74505805969E-08  0.93827000000E+00  0.93827000000E+00 0.  1.
     999902    2    1    2    0    0 -0.70208820992E-02  0.10745680645E-01 -0.20456148449E-01  0.10197801253E+01  0.10194941332E+01 0.  0.
     999903    2    3    3    0    0 -0.11716262123E+00 -0.26522327138E-01 -0.50042798692E-01  0.13163853921E+00  0.19847157316E-01 0.  0.
         14    1    1    2    0    0  0.70208820992E-02 -0.10745680645E-01  0.20456148449E-01  0.24149874685E-01  0.00000000000E+00 0.  1.
     999901    1    3    3    0    0  0.11014173913E+00  0.37268007783E-01  0.29586650243E-01  0.88814158611E+00  0.88000000000E+00 0. -1.
        -11    1    4    4    0    0 -0.35164489934E-01 -0.22605854437E-03 -0.93248857347E-02  0.36384159599E-01  0.51100000000E-03 0.  1.
         11    1    4    4    0    0 -0.81998131295E-01 -0.26296268594E-01 -0.40717912957E-01  0.95254379607E-01  0.51100000000E-03 0. -1.
</event>
<event>
 8    1  0.1072332E+005  0.1043930E+01  0.7957747E-01            NaN
         13   -1    0    0    0    0  0.00000000000E+00  0.00000000000E+00  0.74505805969E-08  0.10566000000E+00  0.10566000000E+00 0. -1.
     999900   -1    0    0    0    0 -0.00000000000E+00 -0.00000000000E+00 -0.74505805969E-08  0.93827000000E+00  0.93827000000E+00 0. -1.
     999902    2    1    2    0    0  0.35036384309E-02 -0.15231674055E-01  0.17470573310E-01  0.10204885771E+01  0.10202193076E+01 0.  0.
     999903    2    3    3    0    0 -0.36188638319E-01  0.11315607273E+00  0.48037399045E-01  0.12976234462E+00  0.20414701453E-01 0.  0.
         14    1    1    2    0    0 -0.35036384309E-02  0.15231674055E-01 -0.17470573310E-01  0.23441422921E-01  0.00000000000E+00 0.  1.
     999901    1    3    3    0    0  0.39692276750E-01 -0.12838774678E+00 -0.30566825735E-01  0.89072623246E+00  0.88000000000E+00 0. -1.
        -11    1    4    4    0    0 -0.18542398875E-01  0.83148912085E-01  0.39561568161E-01  0.93930511195E-01  0.51100000000E-03 0.  1.
         11    1    4    4    0    0 -0.17646239444E-01  0.30007160642E-01  0.84758308843E-02  0.35831833424E-01  0.51100000000E-03 0. -1.
</event>
<event>
 8    1  0.1072332E+005  0.1043930E+01  0.7957747E-01            NaN
         13   -1    0    0    0    0  0.00000000000E+00  0.00000000000E+00  0.74505805969E-08  0.10566000000E+00  0.10566000000E+00 0. -1.
     999900   -1    0    0    0    0 -0.00000000000E+00 -0.00000000000E+00 -0.74505805969E-08  0.93827000000E+00  0.93827000000E+00 0. -1.
     999902    2    1    2    0    0  0.61745749743E-02 -0.25251435068E-01 -0.63146154209E-03  0.10179269407E+01  0.10175947610E+01 0.  0.
     999903    2    3    3    0    0  0.89600257851E-01 -0.54232428258E-01  0.74725351920E-01  0.13030179918E+00  0.20623243398E-01 0.  0.
         14    1    1    2    0    0 -0.61745749743E-02  0.25251435068E-01  0.63146154209E-03  0.26003059296E-01  0.00000000000E+00 0. -1.
     999901    1    3    3    0    0 -0.83425682876E-01  0.28980993191E-01 -0.75356813462E-01  0.88762514152E+00  0.88000000000E+00 0. -1.
        -11    1    4    4    0    0  0.25471693510E-02 -0.71005936188E-02  0.74240837485E-02  0.10596444779E-01  0.51100000000E-03 0.  1.
         11    1    4    4    0    0  0.87053088500E-01 -0.47131834640E-01  0.67301268172E-01  0.11970535440E+00  0.51100000000E-03 0. -1.
</event>
<event>
 7    1  0.1072332E+005  0.1043930E+01  0.7957747E-01            NaN
         13   -1    0    0    0    0  0.00000000000E+00  0.00000000000E+00  0.74505805969E-08  0.10566000000E+00  0.10566000000E+00 0.  1.
     999900   -1    0    0    0    0 -0.00000000000E+00 -0.00000000000E+00 -0.74505805969E-08  0.93827000000E+00  0.93827000000E+00 0. -1.
     999903    2    1    2    0    0 -0.64691983363E-01 -0.41357321621E-01 -0.52772701238E-01  0.95791489520E-01  0.22261417419E-01 0.  0.
         14    1    1    2    0    0 -0.26659005114E-01  0.54572121757E-01  0.14715876881E-01  0.62493008082E-01  0.00000000000E+00 0. -1.
     999901    1    1    2    0    0  0.91350988477E-01 -0.13214800136E-01  0.38056824357E-01  0.88564550240E+00  0.88000000000E+00 0.  1.
        -11    1    3    3    0    0 -0.37614939236E-01 -0.11712582963E-01 -0.30874615567E-01  0.50055681604E-01  0.51100000000E-03 0.  1.
         11    1    3    3    0    0 -0.27077044126E-01 -0.29644738658E-01 -0.21898085671E-01  0.45735807917E-01  0.51100000000E-03 0. -1.
</event>
<event>
 8    1  0.1072332E+005  0.1043930E+01  0.7957747E-01            NaN
         13   -1    0    0    0    0  0.00000000000E+00  0.00000000000E+00  0.74505805969E-08  0.10566000000E+00  0.10566000000E+00 0.  1.
     999900   -1    0    0    0    0 -0.00000000000E+00 -0.00000000000E+00 -0.74505805969E-08  0.93827000000E+00  0.93827000000E+00 0.  1.
     999902    2    1    2    0    0 -0.19541761041E-01 -0.10286337861E-01  0.10816195267E-01  0.10193397733E+01  0.10190431267E+01 0.  0.
     999903    2    3    3    0    0 -0.12816269228E+00 -0.24151531226E-01 -0.18949059597E-01  0.13205361835E+00  0.83737151794E-02 0.  0.
         14    1    1    2    0    0  0.19541761041E-01  0.10286337861E-01 -0.10816195267E-01  0.24590226742E-01  0.00000000000E+00 0. -1.
     999901    1    3    3    0    0  0.10862093124E+00  0.13865193365E-01  0.29765254864E-01  0.88728615491E+00  0.88000000000E+00 0. -1.
        -11    1    4    4    0    0 -0.28253984628E-01 -0.18564267519E-02 -0.40427875562E-02  0.28606628949E-01  0.51100000000E-03 0.  1.
         11    1    4    4    0    0 -0.99908707657E-01 -0.22295104474E-01 -0.14906272041E-01  0.10344698940E+00  0.51100000000E-03 0. -1.
</event>
<event>
 8    1  0.1072332E+005  0.1043930E+01  0.7957747E-01            NaN
         13   -1    0    0    0    0  0.00000000000E+00  0.00000000000E+00  0.74505805969E-08  0.10566000000E+00  0.10566000000E+00 0.  1.
     999900   -1    0    0    0    0 -0.00000000000E+00 -0.00000000000E+00 -0.74505805969E-08  0.93827000000E+00  0.93827000000E+00 0.  1.
     999902    2    1    2    0    0 -0.87947602907E-02 -0.21547366725E-01 -0.27740937826E-03  0.10206552545E+01  0.10203898445E+01 0.  0.
     999903    2    3    3    0    0  0.69620230197E-02  0.90607874713E-01 -0.90339069524E-01  0.12883790941E+00  0.13409052717E-01 0.  0.
         14    1    1    2    0    0  0.87947602907E-02  0.21547366725E-01  0.27740937826E-03  0.23274745483E-01  0.00000000000E+00 0. -1.
     999901    1    3    3    0    0 -0.15756783310E-01 -0.11215524144E+00  0.90061660145E-01  0.89181734511E+00  0.88000000000E+00 0.  1.
        -11    1    4    4    0    0 -0.30279872072E-02  0.15990297624E-01 -0.20177499666E-01  0.25927802421E-01  0.51100000000E-03 0.  1.
         11    1    4    4    0    0  0.99900102269E-02  0.74617577089E-01 -0.70161569858E-01  0.10291010699E+00  0.51100000000E-03 0. -1.
</event>
<event>
 8    1  0.1072332E+005  0.1043930E+01  0.7957747E-01            NaN
         13   -1    0    0    0    0  0.00000000000E+00  0.00000000000E+00  0.74505805969E-08  0.10566000000E+00  0.10566000000E+00 0.  1.
     999900   -1    0    0    0    0 -0.00000000000E+00 -0.00000000000E+00 -0.74505805969E-08  0.93827000000E+00  0.93827000000E+00 0.  1.
     999902    2    1    2    0    0  0.18698084013E-01  0.10230504306E-01  0.87066545432E-02  0.10209063731E+01  0.10206467240E+01 0.  0.
     999903    2    3    3    0    0  0.13845601364E-01  0.11360042267E+00 -0.62658226947E-01  0.13197339869E+00  0.19853660861E-01 0.  0.
         14    1    1    2    0    0 -0.18698084013E-01 -0.10230504306E-01 -0.87066545432E-02  0.23023626940E-01  0.00000000000E+00 0. -1.
     999901    1    3    3    0    0  0.48524826494E-02 -0.10336991837E+00  0.71364881490E-01  0.88893297437E+00  0.88000000000E+00 0.  1.
        -11    1    4    4    0    0  0.17219076782E-01  0.72852207242E-01 -0.45682470976E-01  0.87698859632E-01  0.51100000000E-03 0.  1.
         11    1    4    4    0    0 -0.33734754185E-02  0.40748215430E-01 -0.16975755971E-01  0.44274539059E-01  0.51100000000E-03 0. -1.
</event>
<event>
 8    1  0.1072332E+005  0.1043930E+01  0.7957747E-01            NaN
         13   -1    0    0    0    0  0.00000000000E+00  0.00000000000E+00  0.74505805969E-08  0.10566000000E+00  0.10566000000E+00 0. -1.
     999900   -1    0    0    0    0 -0.00000000000E+00 -0.00000000000E+00 -0.74505805969E-08  0.93827000000E+00  0.93827000000E+00 0. -1.
     999902    2    1    2    0    0  0.18411292119E-01 -0.11916261246E-01  0.97866685554E-02  0.10199143418E+01  0.10196315573E+01 0.  0.
     999903    2    3    3    0    0  0.60083150967E-01  0.26262692141E-02  0.11587868067E+00  0.13244403575E+00  0.22286131327E-01 0.  0.
         14    1    1    2    0    0 -0.18411292119E-01  0.11916261246E-01 -0.97866685554E-02  0.24015658246E-01  0.00000000000E+00 0.  1.
     999901    1    3    3    0    0 -0.41671858848E-01 -0.14542530461E-01 -0.10609201212E+00  0.88747030601E+00  0.88000000000E+00 0. -1.
        -11    1    4    4    0    0 -0.19320688776E-02  0.59893874708E-03  0.38312513755E-02  0.43624793264E-02  0.51100000000E-03 0.  1.
         11    1    4    4    0    0  0.62015219845E-01  0.20273304670E-02  0.11204742930E+00  0.12808155642E+00  0.51100000000E-03 0. -1.
</event>
<event>
 8    1  0.1072332E+005  0.1043930E+01  0.7957747E-01            NaN
         13   -1    0    0    0    0  0.00000000000E+00  0.00000000000E+00  0.74505805969E-08  0.10566000000E+00  0.10566000000E+00 0.  1.
     999900   -1    0    0    0    0 -0.00000000000E+00 -0.00000000000E+00 -0.74505805969E-08  0.93827000000E+00  0.93827000000E+00 0.  1.
     999902    2    1    2    0    0  0.15509121316E-01  0.17926605473E-01 -0.17563724599E-02  0.10201606737E+01  0.10198837283E+01 0.  0.
     999903    2    3    3    0    0 -0.27851699010E-01 -0.18920846277E-01 -0.12392136592E+00  0.12990105930E+00  0.19597569050E-01 0.  0.
         14    1    1    2    0    0 -0.15509121316E-01 -0.17926605473E-01  0.17563724599E-02  0.23769326284E-01  0.00000000000E+00 0. -1.
     999901    1    3    3    0    0  0.43360820326E-01  0.36847451750E-01  0.12216499346E+00  0.89025961442E+00  0.88000000000E+00 0. -1.
        -11    1    4    4    0    0 -0.25842202443E-01 -0.11545711711E-01 -0.71122641198E-01  0.76549422584E-01  0.51100000000E-03 0.  1.
         11    1    4    4    0    0 -0.20094965669E-02 -0.73751345660E-02 -0.52798724724E-01  0.53351636712E-01  0.51100000000E-03 0. -1.
</event>
<event>
 8    1  0.1072332E+005  0.1043930E+01  0.7957747E-01            NaN
         13   -1    0    0    0    0  0.00000000000E+00  0.00000000000E+00  0.74505805969E-08  0.10566000000E+00  0.10566000000E+00 0. -1.
     999900   -1    0    0    0    0 -0.00000000000E+00 -0.00000000000E+00 -0.74505805969E-08  0.93827000000E+00  0.93827000000E+00 0.  1.
     999902    2    1    2    0    0 -0.41424527787E-02  0.22235939369E-01 -0.47814322447E-02  0.10208116305E+01  0.10205498155E+01 0.  0.
     999903    2    3    3    0    0  0.23996419573E-01  0.98826245140E-01 -0.84256506004E-01  0.13347056955E+00  0.19307492098E-01 0.  0.
         14    1    1    2    0    0  0.41424527787E-02 -0.22235939369E-01  0.47814322447E-02  0.23118369514E-01  0.00000000000E+00 0.  1.
     999901    1    3    3    0    0 -0.28138872352E-01 -0.76590305771E-01  0.79475073759E-01  0.88734106094E+00  0.88000000000E+00 0. -1.
        -11    1    4    4    0    0  0.15335492350E-01  0.81531878823E-01 -0.59715472899E-01  0.10221948647E+00  0.51100000000E-03 0.  1.
         11    1    4    4    0    0  0.86609272232E-02  0.17294366317E-01 -0.24541033105E-01  0.31251083077E-01  0.51100000000E-03 0. -1.
</event>
<event>
 8    1  0.1072332E+005  0.1043930E+01  0.7957747E-01            NaN
         13   -1    0    0    0    0  0.00000000000E+00  0.00000000000E+00  0.74505805969E-08  0.10566000000E+00  0.10566000000E+00 0. -1.
     999900   -1    0    0    0    0 -0.00000000000E+00 -0.00000000000E+00 -0.74505805969E-08  0.93827000000E+00  0.93827000000E+00 0. -1.
     999902    2    1    2    0    0  0.70436433933E-02 -0.49651210327E-02 -0.28351990361E-01  0.10142972361E+01  0.10138642821E+01 0.  0.
     999903    2    3    3    0    0 -0.41314781125E-01 -0.10619312344E+00  0.44875238174E-01  0.12415799267E+00  0.20433539482E-01 0.  0.
         14    1    1    2    0    0 -0.70436433933E-02  0.49651210327E-02  0.28351990361E-01  0.29632763903E-01  0.00000000000E+00 0. -1.
     999901    1    3    3    0    0  0.48358424519E-01  0.10122800241E+00 -0.73227228535E-01  0.89013924343E+00  0.88000000000E+00 0.  1.
        -11    1    4    4    0    0 -0.23182650755E-01 -0.78942041994E-01  0.38358462824E-01  0.90779480508E-01  0.51100000000E-03 0. -1.
         11    1    4    4    0    0 -0.18132130370E-01 -0.27251081451E-01  0.65167753502E-02  0.33378512159E-01  0.51100000000E-03 0.  1.
</event>
<event>
 8    1  0.1072332E+005  0.1043930E+01  0.7957747E-01            NaN
         13   -1    0    0    0    0  0.00000000000E+00  0.00000000000E+00  0.74505805969E-08  0.10566000000E+00  0.10566000000E+00 0.  1.
     999900   -1    0    0    0    0 -0.00000000000E+00 -0.00000000000E+00 -0.74505805969E-08  0.93827000000E+00  0.93827000000E+00 0.  1.
     999902    2    1    2    0    0 -0.74302009775E-02  0.17875699159E-01 -0.13611548548E-01  0.10202652000E+01  0.10199907134E+01 0.  0.
     999903    2    3    3    0    0  0.10728451592E-01  0.11166106458E+00 -0.68833213718E-01  0.13337464091E+00  0.21621528842E-01 0.  0.
         14    1    1    2    0    0  0.74302009775E-02 -0.17875699159E-01  0.13611548548E-01  0.23664800039E-01  0.00000000000E+00 0.  1.
     999901    1    3    3    0    0 -0.18158652569E-01 -0.93785365424E-01  0.55221665170E-01  0.88689055905E+00  0.88000000000E+00 0. -1.
        -11    1    4    4    0    0  0.33132294822E-02  0.31784158739E-01 -0.31559154583E-01  0.44916050532E-01  0.51100000000E-03 0.  1.
         11    1    4    4    0    0  0.74152221094E-02  0.79876905845E-01 -0.37274059135E-01  0.88458590378E-01  0.51100000000E-03 0. -1.
</event>
<event>
 7    1  0.1072332E+005  0.1043930E+01  0.7957747E-01            NaN
         13   -1    0    0    0    0  0.00000000000E+00  0.00000000000E+00  0.74505805969E-08  0.10566000000E+00  0.10566000000E+00 0.  1.
     999900   -1    0    0    0    0 -0.00000000000E+00 -0.00000000000E+00 -0.74505805969E-08  0.93827000000E+00  0.93827000000E+00 0. -1.
     999903    2    1    2    0    0  0.83190235956E-01 -0.47433870086E-02 -0.51849034205E-01  0.10024102525E+00  0.20416310083E-01 0.  0.
         14    1    1    2    0    0 -0.52279487678E-01 -0.75567077321E-02  0.34115609680E-01  0.62881821598E-01  0.00000000000E+00 0. -1.
     999901    1    1    2    0    0 -0.30910748278E-01  0.12300094741E-01  0.17733424525E-01  0.88080715315E+00  0.88000000000E+00 0.  1.
        -11    1    3    3    0    0  0.67528675324E-01 -0.11765634382E-02 -0.32104099794E-01  0.74782622562E-01  0.51100000000E-03 0.  1.
         11    1    3    3    0    0  0.15661560632E-01 -0.35668235703E-02 -0.19744934411E-01  0.25458402693E-01  0.51100000000E-03 0. -1.
</event>
<event>
 8    1  0.1072332E+005  0.1043930E+01  0.7957747E-01            NaN
         13   -1    0    0    0    0  0.00000000000E+00  0.00000000000E+00  0.74505805969E-08  0.10566000000E+00  0.10566000000E+00 0.  1.
     999900   -1    0    0    0    0 -0.00000000000E+00 -0.00000000000E+00 -0.74505805969E-08  0.93827000000E+00  0.93827000000E+00 0. -1.
     999902    2    1    2    0    0  0.82835796021E-02  0.11249273609E-01 -0.18719383025E-01  0.10205723642E+01  0.10203050385E+01 0.  0.
     999903    2    3    3    0    0 -0.24069864679E-01 -0.11775779990E+00  0.40867265902E-01  0.12858573928E+00  0.20442629464E-01 0.  0.
         14    1    1    2    0    0 -0.82835796021E-02 -0.11249273609E-01  0.18719383025E-01  0.23357635767E-01  0.00000000000E+00 0.  1.
     999901    1    3    3    0    0  0.32353444281E-01  0.12900707351E+00 -0.59586648927E-01  0.89198662496E+00  0.88000000000E+00 0. -1.
        -11    1    4    4    0    0 -0.65951721348E-02 -0.50602828152E-01  0.27307685529E-01  0.57880163462E-01  0.51100000000E-03 0. -1.
         11    1    4    4    0    0 -0.17474692544E-01 -0.67154971750E-01  0.13559580373E-01  0.70705575814E-01  0.51100000000E-03 0.  1.
</event>
<event>
 8    1  0.1072332E+005  0.1043930E+01  0.7957747E-01            NaN
         13   -1    0    0    0    0  0.00000000000E+00  0.00000000000E+00  0.74505805969E-08  0.10566000000E+00  0.10566000000E+00 0. -1.
     999900   -1    0    0    0    0 -0.00000000000E+00 -0.00000000000E+00 -0.74505805969E-08  0.93827000000E+00  0.93827000000E+00 0. -1.
     999902    2    1    2    0    0 -0.86024184631E-02  0.10397281186E-01  0.19156052232E-01  0.10204979835E+01  0.10202289326E+01 0.  0.
     999903    2    3    3    0    0 -0.32293631988E-01 -0.12367061825E+00  0.11853899021E-01  0.12999879952E+00  0.20539534314E-01 0.  0.
         14    1    1    2    0    0  0.86024184631E-02 -0.10397281186E-01 -0.19156052232E-01  0.23432016486E-01  0.00000000000E+00 0.  1.
     999901    1    3    3    0    0  0.23691213525E-01  0.13406789943E+00  0.73021532105E-02  0.89049918400E+00  0.88000000000E+00 0.  1.
        -11    1    4    4    0    0 -0.19358135880E-01 -0.53624433303E-01 -0.35339925860E-02  0.57123265806E-01  0.51100000000E-03 0.  1.
         11    1    4    4    0    0 -0.12935496108E-01 -0.70046184943E-01  0.15387891607E-01  0.72875533712E-01  0.51100000000E-03 0. -1.
</event>
<event>
 8    1  0.1072332E+005  0.1043930E+01  0.7957747E-01            NaN
         13   -1    0    0    0    0  0.00000000000E+00  0.00000000000E+00  0.74505805969E-08  0.10566000000E+00  0.10566000000E+00 0. -1.
     999900   -1    0    0    0    0 -0.00000000000E+00 -0.00000000000E+00 -0.74505805969E-08  0.93827000000E+00  0.93827000000E+00 0. -1.
     999902    2    1    2    0    0 -0.12018303912E-01  0.64303674335E-02 -0.18581887724E-01  0.10208849180E+01  0.10206247792E+01 0.  0.
     999903    2    3    3    0    0  0.87358109974E-01  0.79797904882E-01 -0.53817757280E-01  0.13155931186E+00  0.20306563871E-01 0.  0.
         14    1    1    2    0    0  0.12018303912E-01 -0.64303674335E-02  0.18581887724E-01  0.23045082027E-01  0.00000000000E+00 0. -1.
     999901    1    3    3    0    0 -0.99376413886E-01 -0.73367537449E-01  0.35235869556E-01  0.88932560611E+00  0.88000000000E+00 0. -1.
        -11    1    4    4    0    0  0.32385704821E-01  0.27625383648E-01 -0.90079930000E-02  0.43513225085E-01  0.51100000000E-03 0.  1.
         11    1    4    4    0    0  0.54972405153E-01  0.52172521234E-01 -0.44809764280E-01  0.88046086773E-01  0.51100000000E-03 0. -1.
</event>
<event>
 8    1  0.1072332E+005  0.1043930E+01  0.7957747E-01            NaN
         13   -1    0    0    0    0  0.00000000000E+00  0.00000000000E+00  0.74505805969E-08  0.10566000000E+00  0.10566000000E+00 0. -1.
     999900   -1    0    0    0    0 -0.00000000000E+00 -0.00000000000E+00 -0.74505805969E-08  0.93827000000E+00  0.93827000000E+00 0.  1.
     999902    2    1    2    0    0  0.17342189816E-01  0.10448761339E-02 -0.15668281059E-01  0.10205347367E+01  0.10202665389E+01 0.  0.
     999903    2    3    3    0    0 -0.47491224754E-01  0.75861546119E-01 -0.95295687043E-01  0.13141076922E+00  0.13309082994E-01 0.  0.
         14    1    1    2    0    0 -0.17342189816E-01 -0.10448761339E-02  0.15668281059E-01  0.23395263305E-01  0.00000000000E+00 0. -1.
     999901    1    3    3    0    0  0.64833414571E-01 -0.74816669985E-01  0.79627405984E-01  0.88912396747E+00  0.88000000000E+00 0.  1.
        -11    1    4    4    0    0 -0.28678584007E-01  0.48855383729E-01 -0.69015402555E-01  0.89289958063E-01  0.51100000000E-03 0.  1.
         11    1    4    4    0    0 -0.18812640747E-01  0.27006162390E-01 -0.26280284488E-01  0.42120811159E-01  0.51100000000E-03 0. -1.
</event>
<event>
 8    1  0.1072332E+005  0.1043930E+01  0.7957747E-01            NaN
         13   -1    0    0    0    0  0.00000000000E+00  0.00000000000E+00  0.74505805969E-08  0.10566000000E+00  0.10566000000E+00 0. -1.
     999900   -1    0    0    0    0 -0.00000000000E+00 -0.00000000000E+00 -0.74505805969E-08  0.93827000000E+00  0.93827000000E+00 0.  1.
     999902    2    1    2    0    0 -0.30055363134E-01  0.17791903257E-02  0.69514770786E-02  0.10130299449E+01  0.10125585691E+01 0.  0.
     999903    2    3    3    0    0 -0.10077442771E+00  0.74309859440E-01 -0.51247736789E-02  0.12713620416E+00  0.21445526637E-01 0.  0.
         14    1    1    2    0    0  0.30055363134E-01 -0.17791903257E-02 -0.69514770786E-02  0.30900055096E-01  0.00000000000E+00 0. -1.
     999901    1    3    3    0    0  0.70719064576E-01 -0.72530669114E-01  0.12076250757E-01  0.88589374074E+00  0.88000000000E+00 0. -1.
        -11    1    4    4    0    0 -0.43783221986E-01  0.28001024254E-01  0.78498093969E-02  0.52563376179E-01  0.51100000000E-03 0.  1.
         11    1    4    4    0    0 -0.56991205724E-01  0.46308835186E-01 -0.12974583076E-01  0.74572827981E-01  0.51100000000E-03 0. -1.
</event>
<event>
 8    1  0.1072332E+005  0.1043930E+01  0.7957747E-01            NaN
         13   -1    0    0    0    0  0.00000000000E+00  0.00000000000E+00  0.74505805969E-08  0.10566000000E+00  0.10566000000E+00 0.  1.
     999900   -1    0    0    0    0 -0.00000000000E+00 -0.00000000000E+00 -0.74505805969E-08  0.93827000000E+00  0.93827000000E+00 0. -1.
     999902    2    1    2    0    0 -0.31380607890E-02 -0.10993018082E-01 -0.20857838141E-01  0.10201446414E+01  0.10198673179E+01 0.  0.
     999903    2    3    3    0    0 -0.53848302233E-01  0.44519874593E-01 -0.11071548098E+00  0.13237912854E+00  0.19612675897E-01 0.  0.
         14    1    1    2    0    0  0.31380607890E-02  0.10993018082E-01  0.20857838141E-01  0.23785358605E-01  0.00000000000E+00 0.  1.
     999901    1    3    3    0    0  0.50710241444E-01 -0.55512892676E-01  0.89857642843E-01  0.88776551286E+00  0.88000000000E+00 0.  1.
        -11    1    4    4    0    0 -0.20215143528E-01  0.26081609046E-01 -0.63332569347E-01  0.71415529260E-01  0.51100000000E-03 0. -1.
         11    1    4    4    0    0 -0.33633158704E-01  0.18438265548E-01 -0.47382911637E-01  0.60963599279E-01  0.51100000000E-03 0.  1.
</event>
<event>
 8    1  0.1072332E+005  0.1043930E+01  0.7957747E-01            NaN
         13   -1    0    0    0    0  0.00000000000E+00  0.00000000000E+00  0.74505805969E-08  0.10566000000E+00  0.10566000000E+00 0. -1.
     999900   -1    0    0    0    0 -0.00000000000E+00 -0.00000000000E+00 -0.74505805969E-08  0.93827000000E+00  0.93827000000E+00 0. -1.
     999902    2    1    2    0    0 -0.76445355156E-04  0.80726445035E-02  0.22279913923E-01  0.10202325740E+01  0.10199573212E+01 0.  0.
     999903    2    3    3    0    0 -0.39913591150E-01 -0.10400545452E+00 -0.60893614478E-01  0.12834338008E+00  0.18808551155E-01 0.  0.
         14    1    1    2    0    0  0.76445355156E-04 -0.80726445035E-02 -0.22279913923E-01  0.23697425970E-01  0.00000000000E+00 0.  1.
     999901    1    3    3    0    0  0.39837145795E-01  0.11207809902E+00  0.83173528401E-01  0.89188919395E+00  0.88000000000E+00 0.  1.
        -11    1    4    4    0    0 -0.11663290756E-01 -0.34946693028E-01 -0.30283399224E-01  0.47693281439E-01  0.51100000000E-03 0.  1.
         11    1    4    4    0    0 -0.28250300394E-01 -0.69058761492E-01 -0.30610215254E-01  0.80650098637E-01  0.51100000000E-03 0. -1.
</event>
<event>
 8    1  0.1072332E+005  0.1043930E+01  0.7957747E-01            NaN
         13   -1    0    0    0    0  0.00000000000E+00  0.00000000000E+00  0.74505805969E-08  0.10566000000E+00  0.10566000000E+00 0. -1.
     999900   -1    0    0    0    0 -0.00000000000E+00 -0.00000000000E+00 -0.74505805969E-08  0.93827000000E+00  0.93827000000E+00 0. -1.
     999902    2    1    2    0    0  0.17766549798E-01 -0.92644524435E-02 -0.12508535612E-01  0.10203091653E+01  0.10200357096E+01 0.  0.
     999903    2    3    3    0    0  0.46517037441E-01 -0.85959445480E-01 -0.88427461886E-01  0.13325088315E+00  0.19583687187E-01 0.  0.
         14    1    1    2    0    0 -0.17766549798E-01  0.92644524435E-02  0.12508535612E-01  0.23620834743E-01  0.00000000000E+00 0.  1.
     999901    1    3    3    0    0 -0.28750487643E-01  0.76694993036E-01  0.75918926274E-01  0.88705828211E+00  0.88000000000E+00 0.  1.
        -11    1    4    4    0    0  0.13465062811E-01 -0.36151677489E-01 -0.45500950338E-01  0.59656091931E-01  0.51100000000E-03 0.  1.
         11    1    4    4    0    0  0.33051974631E-01 -0.49807767991E-01 -0.42926511547E-01  0.73594791214E-01  0.51100000000E-03 0. -1.
</event>
<event>
 8    1  0.1072332E+005  0.1043930E+01  0.7957747E-01            NaN
         13   -1    0    0    0    0  0.00000000000E+00  0.00000000000E+00  0.74505805969E-08  0.10566000000E+00  0.10566000000E+00 0.  1.
     999900   -1    0    0    0    0 -0.00000000000E+00 -0.00000000000E+00 -0.74505805969E-08  0.93827000000E+00  0.93827000000E+00 0.  1.
     999902    2    1    2    0    0 -0.92796970920E-02 -0.20918590009E-01 -0.65159934427E-02  0.10201359176E+01  0.10198583882E+01 0.  0.
     999903    2    3    3    0    0  0.89270909582E-01 -0.86223518907E-01  0.37580985669E-01  0.13113563675E+00  0.19504723294E-01 0.  0.
         14    1    1    2    0    0  0.92796970920E-02  0.20918590009E-01  0.65159934427E-02  0.23794082387E-01  0.00000000000E+00 0.  1.
     999901    1    3    3    0    0 -0.98550606674E-01  0.65304928898E-01 -0.44096979112E-01  0.88900028087E+00  0.88000000000E+00 0.  1.
        -11    1    4    4    0    0  0.41145836180E-01 -0.29476588819E-01  0.89111899097E-02  0.51395715288E-01  0.51100000000E-03 0.  1.
         11    1    4    4    0    0  0.48125073403E-01 -0.56746930087E-01  0.28669795759E-01  0.79739921459E-01  0.51100000000E-03 0. -1.
</event>
<event>
 8    1  0.1072332E+005  0.1043930E+01  0.7957747E-01            NaN
         13   -1    0    0    0    0  0.00000000000E+00  0.00000000000E+00  0.74505805969E-08  0.10566000000E+00  0.10566000000E+00 0. -1.
     999900   -1    0    0    0    0 -0.00000000000E+00 -0.00000000000E+00 -0.74505805969E-08  0.93827000000E+00  0.93827000000E+00 0.  1.
     999902    2    1    2    0    0  0.44013904245E-02  0.19776998470E-01 -0.13573413960E-01  0.10195427190E+01  0.10192510076E+01 0.  0.
     999903    2    3    3    0    0  0.21416414909E-01  0.40174513064E-01  0.11928516587E+00  0.12917371020E+00  0.19602098947E-01 0.  0.
         14    1    1    2    0    0 -0.44013904245E-02 -0.19776998470E-01  0.13573413960E-01  0.24387280962E-01  0.00000000000E+00 0. -1.
     999901    1    3    3    0    0 -0.17015024484E-01 -0.20397514593E-01 -0.13285857983E+00  0.89036900884E+00  0.88000000000E+00 0.  1.
        -11    1    4    4    0    0  0.45479938777E-02  0.19715867860E-02  0.35084538515E-02  0.60944049910E-02  0.51100000000E-03 0.  1.
         11    1    4    4    0    0  0.16868421031E-01  0.38202926278E-01  0.11577671202E+00  0.12307930521E+00  0.51100000000E-03 0. -1.
</event>
<event>
 8    1  0.1072332E+005  0.1043930E+01  0.7957747E-01            NaN
         13   -1    0    0    0    0  0.00000000000E+00  0.00000000000E+00  0.74505805969E-08  0.10566000000E+00  0.10566000000E+00 0.  1.
     999900   -1    0    0    0    0 -0.00000000000E+00 -0.00000000000E+00 -0.74505805969E-08  0.93827000000E+00  0.93827000000E+00 0.  1.
     999902    2    1    2    0    0 -0.18740320675E-01  0.55701312438E-02 -0.13188152213E-01  0.10203470965E+01  0.10200745286E+01 0.  0.
     999903    2    3    3    0    0  0.85354430734E-01  0.13124789718E-01  0.92195979017E-01  0.12793541721E+00  0.20241874363E-01 0.  0.
         14    1    1    2    0    0  0.18740320675E-01 -0.55701312438E-02  0.13188152213E-01  0.23582903550E-01  0.00000000000E+00 0.  1.
     999901    1    3    3    0    0 -0.10409475141E+00 -0.75546584738E-02 -0.10538413123E+00  0.89241167924E+00  0.88000000000E+00 0.  1.
        -11    1    4    4    0    0  0.12129748406E-01 -0.27189211018E-02  0.21966431402E-01  0.25244970942E-01  0.51100000000E-03 0. -1.
         11    1    4    4    0    0  0.73224682328E-01  0.15843710819E-01  0.70229547616E-01  0.10269044626E+00  0.51100000000E-03 0.  1.
</event>
<event>
 8    1  0.1072332E+005  0.1043930E+01  0.7957747E-01            NaN
         13   -1    0    0    0    0  0.00000000000E+00  0.00000000000E+00  0.74505805969E-08  0.10566000000E+00  0.10566000000E+00 0.  1.
     999900   -1    0    0    0    0 -0.00000000000E+00 -0.00000000000E+00 -0.74505805969E-08  0.93827000000E+00  0.93827000000E+00 0.  1.
     999902    2    1    2    0    0  0.16045941467E-01 -0.18630994620E-01 -0.29003133124E-02  0.10191712033E+01  0.10188704253E+01 0.  0.
     999903    2    3    3    0    0 -0.40608695067E-01 -0.99022802834E-01  0.72108548604E-01  0.13052114839E+00  0.19533197388E-01 0.  0.
         14    1    1    2    0    0 -0.16045941467E-01  0.18630994620E-01  0.29003133124E-02  0.24758796728E-01  0.00000000000E+00 0. -1.
     999901    1    3    3    0    0  0.56654636534E-01  0.80391808214E-01 -0.75008861916E-01  0.88865005488E+00  0.88000000000E+00 0.  1.
        -11    1    4    4    0    0 -0.35473658198E-01 -0.63373012129E-01  0.44998243070E-01  0.85437825889E-01  0.51100000000E-03 0.  1.
         11    1    4    4    0    0 -0.51350368690E-02 -0.35649790705E-01  0.27110305534E-01  0.45083322505E-01  0.51100000000E-03 0. -1.
</event>
<event>
 8    1  0.1072332E+005  0.1043930E+01  0.7957747E-01            NaN
         13   -1    0    0    0    0  0.00000000000E+00  0.00000000000E+00  0.74505805969E-08  0.10566000000E+00  0.10566000000E+00 0. -1.
     999900   -1    0    0    0    0 -0.00000000000E+00 -0.00000000000E+00 -0.74505805969E-08  0.93827000000E+00  0.93827000000E+00 0. -1.
     999902    2    1    2    0    0 -0.37304150188E-02  0.18408148291E-01 -0.14715805007E-01  0.10200693454E+01  0.10197902425E+01 0.  0.
     999903    2    3    3    0    0  0.98760842223E-01  0.83706468150E-01  0.97532297393E-02  0.13138095119E+00  0.20133357360E-01 0.  0.
         14    1    1    2    0    0  0.37304150188E-02 -0.18408148291E-01  0.14715805007E-01  0.23860654574E-01  0.00000000000E+00 0.  1.
     999901    1    3    3    0    0 -0.10249125724E+00 -0.65298319859E-01 -0.24469034747E-01  0.88868839424E+00  0.88000000000E+00 0. -1.
        -11    1    4    4    0    0  0.61027930467E-01  0.40531342638E-01  0.10642382658E-01  0.74031881394E-01  0.51100000000E-03 0.  1.
         11    1    4    4    0    0  0.37732911756E-01  0.43175125512E-01 -0.88915291867E-03  0.57349069796E-01  0.51100000000E-03 0. -1.
</event>
<event>
 8    1  0.1072332E+005  0.1043930E+01  0.7957747E-01            NaN
         13   -1    0    0    0    0  0.00000000000E+00  0.00000000000E+00  0.74505805969E-08  0.10566000000E+00  0.10566000000E+00 0. -1.
     999900   -1    0    0    0    0 -0.00000000000E+00 -0.00000000000E+00 -0.74505805969E-08  0.93827000000E+00  0.93827000000E+00 0.  1.
     999902    2    1    2    0    0 -0.13449190879E-01 -0.20873837197E-01  0.13402230562E-03  0.10190982506E+01  0.10187956756E+01 0.  0.
     999903    2    3    3    0    0 -0.24556921140E-01  0.12338818284E+00  0.31866754218E-03  0.12728271691E+00  0.19315859693E-01 0.  0.
         14    1    1    2    0    0  0.13449190879E-01  0.20873837197E-01 -0.13402230562E-03  0.24831749367E-01  0.00000000000E+00 0.  1.
     999901    1    3    3    0    0  0.11107730260E-01 -0.14426202003E+00 -0.18464523656E-03  0.89181553372E+00  0.88000000000E+00 0. -1.
        -11    1    4    4    0    0 -0.95793984019E-02  0.80400060424E-01 -0.65812551365E-02  0.81237359817E-01  0.51100000000E-03 0.  1.
         11    1    4    4    0    0 -0.14977522738E-01  0.42988122413E-01  0.68999226786E-02  0.46045357094E-01  0.51100000000E-03 0. -1.
</event>
<event>
 8    1  0.1072332E+005  0.1043930E+01  0.7957747E-01            NaN
         13   -1    0    0    0    0  0.00000000000E+00  0.00000000000E+00  0.74505805969E-08  0.10566000000E+00  0.10566000000E+00 0. -1.
     999900   -1    0    0    0    0 -0.00000000000E+00 -0.00000000000E+00 -0.74505805969E-08  0.93827000000E+00  0.93827000000E+00 0.  1.
     999902    2    1    2    0    0 -0.91952056728E-02  0.19071234600E-01  0.10331029273E-01  0.10203716902E+01  0.10200996971E+01 0.  0.
     999903    2    3    3    0    0 -0.75687325576E-01 -0.75463677236E-03  0.10669085224E+00  0.13239675658E+00  0.20416230593E-01 0.  0.
         14    1    1    2    0    0  0.91952056728E-02 -0.19071234600E-01 -0.10331029273E-01  0.23558309837E-01  0.00000000000E+00 0.  1.
     999901    1    3    3    0    0  0.66492119903E-01  0.19825871372E-01 -0.96359822971E-01  0.88797493358E+00  0.88000000000E+00 0.  1.
        -11    1    4    4    0    0 -0.52782395175E-01  0.56984074981E-02  0.60929276097E-01  0.80815165008E-01  0.51100000000E-03 0. -1.
         11    1    4    4    0    0 -0.22904930401E-01 -0.64530442705E-02  0.45761576146E-01  0.51581591575E-01  0.51100000000E-03 0.  1.
</event>
<event>
 8    1  0.1072332E+005  0.1043930E+01  0.7957747E-01            NaN
         13   -1    0    0    0    0  0.00000000000E+00  0.00000000000E+00  0.74505805969E-08  0.10566000000E+00  0.10566000000E+00 0. -1.
     999900   -1    0    0    0    0 -0.00000000000E+00 -0.00000000000E+00 -0.74505805969E-08  0.93827000000E+00  0.93827000000E+00 0.  1.
     999902    2    1    2    0    0 -0.17406066852E-01  0.71170294875E-02 -0.14448455355E-01  0.10202154236E+01  0.10199397675E+01 0.  0.
     999903    2    3    3    0    0 -0.11979265316E+00 -0.33887084285E-01 -0.41823414944E-01  0.13290840862E+00  0.20416483821E-01 0.  0.
         14    1    1    2    0    0  0.17406066852E-01 -0.71170294875E-02  0.14448455355E-01  0.23714576406E-01  0.00000000000E+00 0. -1.
     999901    1    3    3    0    0  0.10238658631E+00  0.41004113773E-01  0.27374959589E-01  0.88730701497E+00  0.88000000000E+00 0.  1.
        -11    1    4    4    0    0 -0.60355141411E-01 -0.23842684422E-01 -0.29924176910E-01  0.71462816765E-01  0.51100000000E-03 0. -1.
         11    1    4    4    0    0 -0.59437511754E-01 -0.10044399863E-01 -0.11899238034E-01  0.61445591859E-01  0.51100000000E-03 0.  1.
</event>
<event>
 8    1  0.1072332E+005  0.1043930E+01  0.7957747E-01            NaN
         13   -1    0    0    0    0  0.00000000000E+00  0.00000000000E+00  0.74505805969E-08  0.10566000000E+00  0.10566000000E+00 0.  1.
     999900   -1    0    0    0    0 -0.00000000000E+00 -0.00000000000E+00 -0.74505805969E-08  0.93827000000E+00  0.93827000000E+00 0.  1.
     999902    2    1    2    0    0 -0.22316822546E-01 -0.90804285683E-02  0.55611229769E-02  0.10192030746E+01  0.10189030800E+01 0.  0.
     999903    2    3    3    0    0  0.26596988761E-01 -0.52645180589E-01 -0.11251839950E+00  0.12890356196E+00  0.21836281973E-01 0.  0.
         14    1    1    2    0    0  0.22316822546E-01  0.90804285683E-02 -0.55611229769E-02  0.24726925411E-01  0.00000000000E+00 0. -1.
     999901    1    3    3    0    0 -0.48913811307E-01  0.43564752021E-01  0.11807952248E+00  0.89029951263E+00  0.88000000000E+00 0. -1.
        -11    1    4    4    0    0  0.56297970318E-02 -0.34544928672E-01 -0.67695216637E-01  0.76209908727E-01  0.51100000000E-03 0. -1.
         11    1    4    4    0    0  0.20967191729E-01 -0.18100251917E-01 -0.44823182861E-01  0.52693653235E-01  0.51100000000E-03 0.  1.
</event>
<event>
 8    1  0.1072332E+005  0.1043930E+01  0.7957747E-01            NaN
         13   -1    0    0    0    0  0.00000000000E+00  0.00000000000E+00  0.74505805969E-08  0.10566000000E+00  0.10566000000E+00 0. -1.
     999900   -1    0    0    0    0 -0.00000000000E+00 -0.00000000000E+00 -0.74505805969E-08  0.93827000000E+00  0.93827000000E+00 0. -1.
     999902    2    1    2    0    0 -0.15339058080E-01 -0.12107201609E-01  0.12273323689E-01  0.10208539191E+01  0.10205930720E+01 0.  0.
     999903    2    3    3    0    0  0.52855044858E-02 -0.26535536225E-01 -0.12524453239E+00  0.12981816780E+00  0.20844485027E-01 0.  0.
         14    1    1    2    0    0  0.15339058080E-01  0.12107201609E-01 -0.12273323689E-01  0.23076080862E-01  0.00000000000E+00 0.  1.
     999901    1    3    3    0    0 -0.20624562566E-01  0.14428334616E-01  0.13751785608E+00  0.89103575134E+00  0.88000000000E+00 0.  1.
        -11    1    4    4    0    0  0.66234349135E-03 -0.20918461109E-01 -0.49793540173E-01  0.54015539228E-01  0.51100000000E-03 0. -1.
         11    1    4    4    0    0  0.46231609945E-02 -0.56170751161E-02 -0.75450992220E-01  0.75802628572E-01  0.51100000000E-03 0.  1.
</event>
<event>
 8    1  0.1072332E+005  0.1043930E+01  0.7957747E-01            NaN
         13   -1    0    0    0    0  0.00000000000E+00  0.00000000000E+00  0.74505805969E-08  0.10566000000E+00  0.10566000000E+00 0. -1.
     999900   -1    0    0    0    0 -0.00000000000E+00 -0.00000000000E+00 -0.74505805969E-08  0.93827000000E+00  0.93827000000E+00 0.  1.
     999902    2    1    2    0    0  0.17029195365E-02  0.15205073660E-01 -0.11688354972E-01  0.10246761214E+01  0.10244952132E+01 0.  0.
     999903    2    3    3    0    0  0.40646506413E-01 -0.73767644998E-01 -0.10311955221E+00  0.13462420635E+00  0.19905550826E-01 0.  0.
         14    1    1    2    0    0 -0.17029195365E-02 -0.15205073660E-01  0.11688354972E-01  0.19253878620E-01  0.00000000000E+00 0. -1.
     999901    1    3    3    0    0 -0.38943586876E-01  0.88972718658E-01  0.91431197242E-01  0.89005191503E+00  0.88000000000E+00 0.  1.
        -11    1    4    4    0    0  0.13455593040E-01 -0.29290893396E-01 -0.25411445879E-01  0.41048899165E-01  0.51100000000E-03 0. -1.
         11    1    4    4    0    0  0.27190913373E-01 -0.44476751603E-01 -0.77708106335E-01  0.93575307183E-01  0.51100000000E-03 0.  1.
</event>
<event>
 8    1  0.1072332E+005  0.1043930E+01  0.7957747E-01            NaN
         13   -1    0    0    0    0  0.00000000000E+00  0.00000000000E+00  0.74505805969E-08  0.10566000000E+00  0.10566000000E+00 0.  1.
     999900   -1    0    0    0    0 -0.00000000000E+00 -0.00000000000E+00 -0.74505805969E-08  0.93827000000E+00  0.93827000000E+00 0.  1.
     999902    2    1    2    0    0 -0.16411546147E-01 -0.10851217099E-01  0.13206000159E-01  0.10202343000E+01  0.10199590877E+01 0.  0.
     999903    2    3    3    0    0  0.10496178191E+00 -0.22359527226E-02 -0.70281478286E-01  0.12794742536E+00  0.20225783563E-01 0.  0.
         14    1    1    2    0    0  0.16411546147E-01  0.10851217099E-01 -0.13206000159E-01  0.23695700025E-01  0.00000000000E+00 0. -1.
     999901    1    3    3    0    0 -0.12137332806E+00 -0.86152643762E-02  0.83487478445E-01  0.89228687461E+00  0.88000000000E+00 0. -1.
        -11    1    4    4    0    0  0.17115183635E-01 -0.20350866487E-03 -0.32550522395E-02  0.17430645791E-01  0.51100000000E-03 0.  1.
         11    1    4    4    0    0  0.87846598277E-01 -0.20324440577E-02 -0.67026426047E-01  0.11051677957E+00  0.51100000000E-03 0. -1.
</event>
<event>
 8    1  0.1072332E+005  0.1043930E+01  0.7957747E-01            NaN
         13   -1    0    0    0    0  0.00000000000E+00  0.00000000000E+00  0.74505805969E-08  0.10566000000E+00  0.10566000000E+00 0.  1.
     999900   -1    0    0    0    0 -0.00000000000E+00 -0.00000000000E+00 -0.74505805969E-08  0.93827000000E+00  0.93827000000E+00 0.  1.
     999902    2    1    2    0    0 -0.22833929222E-01  0.24914368607E-02  0.46249310068E-02  0.10204995589E+01  0.10202305446E+01 0.  0.
     999903    2    3    3    0    0  0.89113576529E-01  0.21296535416E-01  0.88801021488E-01  0.12922435454E+00  0.20458261081E-01 0.  0.
         14    1    1    2    0    0  0.22833929222E-01 -0.24914368607E-02 -0.46249310068E-02  0.23430441057E-01  0.00000000000E+00 0. -1.
     999901    1    3    3    0    0 -0.11194750575E+00 -0.18805098555E-01 -0.84176090481E-01  0.89127520440E+00  0.88000000000E+00 0. -1.
        -11    1    4    4    0    0  0.42391524377E-01  0.19446795627E-01  0.50840896942E-01  0.68994761555E-01  0.51100000000E-03 0.  1.
         11    1    4    4    0    0  0.46722052152E-01  0.18497397889E-02  0.37960124546E-01  0.60229592985E-01  0.51100000000E-03 0. -1.
</event>
<event>
 8    1  0.1072332E+005  0.1043930E+01  0.7957747E-01            NaN
         13   -1    0    0    0    0  0.00000000000E+00  0.00000000000E+00  0.74505805969E-08  0.10566000000E+00  0.10566000000E+00 0.  1.
     999900   -1    0    0    0    0 -0.00000000000E+00 -0.00000000000E+00 -0.74505805969E-08  0.93827000000E+00  0.93827000000E+00 0. -1.
     999902    2    1    2    0    0 -0.47774189845E-02 -0.15508186230E-02 -0.23103477102E-01  0.10202868313E+01  0.10200128523E+01 0.  0.
     999903    2    3    3    0    0 -0.10678878779E+00  0.70325366417E-01  0.17787870884E-01  0.13054270649E+00  0.19377500055E-01 0.  0.
         14    1    1    2    0    0  0.47774189845E-02  0.15508186230E-02  0.23103477102E-01  0.23643168670E-01  0.00000000000E+00 0.  1.
     999901    1    3    3    0    0  0.10201136881E+00 -0.71876185040E-01 -0.40891347985E-01  0.88974412484E+00  0.88000000000E+00 0. -1.
        -11    1    4    4    0    0 -0.41158459605E-01  0.38259212377E-01  0.10037165046E-01  0.57085829520E-01  0.51100000000E-03 0.  1.
         11    1    4    4    0    0 -0.65630328186E-01  0.32066154040E-01  0.77507058380E-02  0.73456876974E-01  0.51100000000E-03 0. -1.
</event>
<event>
 8    1  0.1072332E+005  0.1043930E+01  0.7957747E-01            NaN
         13   -1    0    0    0    0  0.00000000000E+00  0.00000000000E+00  0.74505805969E-08  0.10566000000E+00  0.10566000000E+00 0.  1.
     999900   -1    0    0    0    0 -0.00000000000E+00 -0.00000000000E+00 -0.74505805969E-08  0.93827000000E+00  0.93827000000E+00 0. -1.
     999902    2    1    2    0    0 -0.56584097613E-02  0.21184249389E-01  0.85605652398E-02  0.10203912383E+01  0.10201197018E+01 0.  0.
     999903    2    3    3    0    0  0.88587969538E-01 -0.34732343489E-01  0.86487509115E-01  0.13017685183E+00  0.20291857690E-01 0.  0.
         14    1    1    2    0    0  0.56584097613E-02 -0.21184249389E-01 -0.85605652398E-02  0.23538761659E-01  0.00000000000E+00 0. -1.
     999901    1    3    3    0    0 -0.94246379299E-01  0.55916592878E-01 -0.77926943875E-01  0.89021438651E+00  0.88000000000E+00 0.  1.
        -11    1    4    4    0    0  0.62926413159E-01 -0.21631496416E-01  0.71580166523E-01  0.97732473982E-01  0.51100000000E-03 0.  1.
         11    1    4    4    0    0  0.25661556378E-01 -0.13100847072E-01  0.14907342592E-01  0.32444377848E-01  0.51100000000E-03 0. -1.
</event>
<event>
 8    1  0.1072332E+005  0.1043930E+01  0.7957747E-01            NaN
         13   -1    0    0    0    0  0.00000000000E+00  0.00000000000E+00  0.74505805969E-08  0.10566000000E+00  0.10566000000E+00 0.  1.
     999900   -1    0    0    0    0 -0.00000000000E+00 -0.00000000000E+00 -0.74505805969E-08  0.93827000000E+00  0.93827000000E+00 0.  1.
     999902    2    1    2    0    0  0.28099286887E-02 -0.54686014858E-02 -0.23062482600E-01  0.10200620423E+01  0.10197827664E+01 0.  0.
     999903    2    3    3    0    0  0.82796182104E-01 -0.84170774400E-01  0.50290945789E-01  0.12990893287E+00  0.20179806177E-01 0.  0.
         14    1    1    2    0    0 -0.28099286887E-02  0.54686014858E-02  0.23062482600E-01  0.23867957707E-01  0.00000000000E+00 0.  1.
     999901    1    3    3    0    0 -0.79986253415E-01  0.78702172914E-01 -0.73353428388E-01  0.89015310942E+00  0.88000000000E+00 0.  1.
        -11    1    4    4    0    0  0.67303451647E-01 -0.59321289521E-01  0.44119712084E-01  0.99977898105E-01  0.51100000000E-03 0.  1.
         11    1    4    4    0    0  0.15492730456E-01 -0.24849484879E-01  0.61712337050E-02  0.29931034766E-01  0.51100000000E-03 0. -1.
</event>
<event>
 8    1  0.1072332E+005  0.1043930E+01  0.7957747E-01            NaN
         13   -1    0    0    0    0  0.00000000000E+00  0.00000000000E+00  0.74505805969E-08  0.10566000000E+00  0.10566000000E+00 0.  1.
     999900   -1    0    0    0    0 -0.00000000000E+00 -0.00000000000E+00 -0.74505805969E-08  0.93827000000E+00  0.93827000000E+00 0. -1.
     999902    2    1    2    0    0  0.60451075697E-02  0.91548185081E-03 -0.23136214330E-01  0.10199995624E+01  0.10197188050E+01 0.  0.
     999903    2    3    3    0    0  0.10287590628E+00 -0.66246851119E-01 -0.44130498838E-01  0.13189610974E+00  0.21839996816E-01 0.  0.
         14    1    1    2    0    0 -0.60451075697E-02 -0.91548185081E-03  0.23136214330E-01  0.23930437649E-01  0.00000000000E+00 0.  1.
     999901    1    3    3    0    0 -0.96830798715E-01  0.67162332970E-01  0.20994284507E-01  0.88810345261E+00  0.88000000000E+00 0.  1.
        -11    1    4    4    0    0  0.19802778736E-01 -0.18586594234E-01 -0.19195485180E-02  0.27231550055E-01  0.51100000000E-03 0.  1.
         11    1    4    4    0    0  0.83073127549E-01 -0.47660256885E-01 -0.42210950320E-01  0.10466455969E+00  0.51100000000E-03 0. -1.
</event>
<event>
 8    1  0.1072332E+005  0.1043930E+01  0.7957747E-01            NaN
         13   -1    0    0    0    0  0.00000000000E+00  0.00000000000E+00  0.74505805969E-08  0.10566000000E+00  0.10566000000E+00 0. -1.
     999900   -1    0    0    0    0 -0.00000000000E+00 -0.00000000000E+00 -0.74505805969E-08  0.93827000000E+00  0.93827000000E+00 0. -1.
     999902    2    1    2    0    0 -0.80172436293E-02 -0.16455266558E-01  0.12612380203E-01  0.10217010970E+01  0.10214592540E+01 0.  0.
     999903    2    3    3    0    0  0.30632984433E-01  0.44630870759E-01 -0.11590922690E+00  0.12943255013E+00  0.19686081177E-01 0.  0.
         14    1    1    2    0    0  0.80172436293E-02  0.16455266558E-01 -0.12612380203E-01  0.22228902971E-01  0.00000000000E+00 0.  1.
     999901    1    3    3    0    0 -0.38650228062E-01 -0.61086137317E-01  0.12852160710E+00  0.89226854690E+00  0.88000000000E+00 0.  1.
        -11    1    4    4    0    0  0.11387261262E-01  0.28222479004E-01 -0.79238179824E-01  0.84883027179E-01  0.51100000000E-03 0. -1.
         11    1    4    4    0    0  0.19245723171E-01  0.16408391755E-01 -0.36671047073E-01  0.44549522947E-01  0.51100000000E-03 0.  1.
</event>
<event>
 8    1  0.1072332E+005  0.1043930E+01  0.7957747E-01            NaN
         13   -1    0    0    0    0  0.00000000000E+00  0.00000000000E+00  0.74505805969E-08  0.10566000000E+00  0.10566000000E+00 0.  1.
     999900   -1    0    0    0    0 -0.00000000000E+00 -0.00000000000E+00 -0.74505805969E-08  0.93827000000E+00  0.93827000000E+00 0. -1.
     999902    2    1    2    0    0  0.19939084843E-01 -0.46046754718E-02  0.11891208144E-01  0.10202620687E+01  0.10199875087E+01 0.  0.
     999903    2    3    3    0    0  0.36887715964E-01 -0.12306099698E+00 -0.18623325497E-01  0.13163937433E+00  0.21849120190E-01 0.  0.
         14    1    1    2    0    0 -0.19939084843E-01  0.46046754718E-02 -0.11891208144E-01  0.23667931293E-01  0.00000000000E+00 0.  1.
     999901    1    3    3    0    0 -0.16948631121E-01  0.11845632151E+00  0.30514533641E-01  0.88862269438E+00  0.88000000000E+00 0.  1.
        -11    1    4    4    0    0 -0.84382663956E-03 -0.27879911208E-01 -0.28374061051E-02  0.28041281831E-01  0.51100000000E-03 0.  1.
         11    1    4    4    0    0  0.37731542603E-01 -0.95181085776E-01 -0.15785919392E-01  0.10359809250E+00  0.51100000000E-03 0. -1.
</event>
<event>
 8    1  0.1072332E+005  0.1043930E+01  0.7957747E-01            NaN
         13   -1    0    0    0    0  0.00000000000E+00  0.00000000000E+00  0.74505805969E-08  0.10566000000E+00  0.10566000000E+00 0. -1.
     999900   -1    0    0    0    0 -0.00000000000E+00 -0.00000000000E+00 -0.74505805969E-08  0.93827000000E+00  0.93827000000E+00 0.  1.
     999902    2    1    2    0    0 -0.14024202793E-02  0.14949312067E-01 -0.18702193361E-01  0.10199462399E+01  0.10196642151E+01 0.  0.
     999903    2    3    3    0    0  0.18023871146E-01  0.93349330664E-02 -0.12982629181E+00  0.13272728870E+00  0.18699363964E-01 0.  0.
         14    1    1    2    0    0  0.14024202793E-02 -0.14949312067E-01  0.18702193361E-01  0.23983760139E-01  0.00000000000E+00 0. -1.
     999901    1    3    3    0    0 -0.19426291425E-01  0.56143790002E-02  0.11112409845E+00  0.88721895117E+00  0.88000000000E+00 0. -1.
        -11    1    4    4    0    0  0.12207240698E-01 -0.32041425561E-03 -0.32037874952E-01  0.34290026877E-01  0.51100000000E-03 0.  1.
         11    1    4    4    0    0  0.58166304480E-02  0.96553473220E-02 -0.97788416859E-01  0.98437261819E-01  0.51100000000E-03 0. -1.
</event>
<event>
 8    1  0.1072332E+005  0.1043930E+01  0.7957747E-01            NaN
         13   -1    0    0    0    0  0.00000000000E+00  0.00000000000E+00  0.74505805969E-08  0.10566000000E+00  0.10566000000E+00 0. -1.
     999900   -1    0    0    0    0 -0.00000000000E+00 -0.00000000000E+00 -0.74505805969E-08  0.93827000000E+00  0.93827000000E+00 0.  1.
     999902    2    1    2    0    0 -0.21525396898E-01  0.59528505274E-02 -0.96482106206E-04  0.10215964277E+01  0.10213522765E+01 0.  0.
     999903    2    3    3    0    0 -0.17176396264E-01  0.98858968218E-01 -0.84623850428E-01  0.13266710743E+00  0.19267619143E-01 0.  0.
         14    1    1    2    0    0  0.21525396898E-01 -0.59528505274E-02  0.96482106206E-04  0.22333572258E-01  0.00000000000E+00 0. -1.
     999901    1    3    3    0    0 -0.43490006339E-02 -0.92906117691E-01  0.84527368321E-01  0.88892932031E+00  0.88000000000E+00 0.  1.
        -11    1    4    4    0    0  0.86851315601E-03  0.93923012102E-02 -0.22248486076E-02  0.97046746186E-02  0.51100000000E-03 0. -1.
         11    1    4    4    0    0 -0.18044909420E-01  0.89466667008E-01 -0.82399001820E-01  0.12296243281E+00  0.51100000000E-03 0.  1.
</event>
<event>
 8    1  0.1072332E+005  0.1043930E+01  0.7957747E-01            NaN
         13   -1    0    0    0    0  0.00000000000E+00  0.00000000000E+00  0.74505805969E-08  0.10566000000E+00  0.10566000000E+00 0.  1.
     999900   -1    0    0    0    0 -0.00000000000E+00 -0.00000000000E+00 -0.74505805969E-08  0.93827000000E+00  0.93827000000E+00 0. -1.
     999902    2    1    2    0    0  0.10813969987E-01 -0.21066157255E-01 -0.21543187735E-02  0.10201525734E+01  0.10198754370E+01 0.  0.
     999903    2    3    3    0    0  0.11049302415E+00  0.65728604121E-01  0.53719881303E-02  0.13025039349E+00  0.20182887813E-01 0.  0.
         14    1    1    2    0    0 -0.10813969987E-01  0.21066157255E-01  0.21543187735E-02  0.23777426643E-01  0.00000000000E+00 0.  1.
     999901    1    3    3    0    0 -0.99679054168E-01 -0.86794761376E-01 -0.75263069039E-02  0.88990217987E+00  0.88000000000E+00 0. -1.
        -11    1    4    4    0    0  0.76396650412E-01  0.41298018705E-01  0.12368641090E-01  0.87722397064E-01  0.51100000000E-03 0.  1.
         11    1    4    4    0    0  0.34096373743E-01  0.24430585415E-01 -0.69966529593E-02  0.42527996423E-01  0.51100000000E-03 0. -1.
</event>
<event>
 8    1  0.1072332E+005  0.1043930E+01  0.7957747E-01            NaN
         13   -1    0    0    0    0  0.00000000000E+00  0.00000000000E+00  0.74505805969E-08  0.10566000000E+00  0.10566000000E+00 0.  1.
     999900   -1    0    0    0    0 -0.00000000000E+00 -0.00000000000E+00 -0.74505805969E-08  0.93827000000E+00  0.93827000000E+00 0. -1.
     999902    2    1    2    0    0  0.10629019585E-01  0.14178904237E-01 -0.16244023124E-01  0.10198907473E+01  0.10196074003E+01 0.  0.
     999903    2    3    3    0    0 -0.87065154172E-01  0.46766905775E-01 -0.83745661312E-01  0.13131739604E+00  0.21527614052E-01 0.  0.
         14    1    1    2    0    0 -0.10629019585E-01 -0.14178904237E-01  0.16244023124E-01  0.24039252692E-01  0.00000000000E+00 0.  1.
     999901    1    3    3    0    0  0.97694173758E-01 -0.32588001538E-01  0.67501638187E-01  0.88857335127E+00  0.88000000000E+00 0.  1.
        -11    1    4    4    0    0 -0.53098723637E-01  0.38653979003E-01 -0.48067220708E-01  0.81389946383E-01  0.51100000000E-03 0.  1.
         11    1    4    4    0    0 -0.33966430535E-01  0.81129267724E-02 -0.35678440603E-01  0.49927449654E-01  0.51100000000E-03 0. -1.
</event>
<event>
 8    1  0.1072332E+005  0.1043930E+01  0.7957747E-01            NaN
         13   -1    0    0    0    0  0.00000000000E+00  0.00000000000E+00  0.74505805969E-08  0.10566000000E+00  0.10566000000E+00 0.  1.
     999900   -1    0    0    0    0 -0.00000000000E+00 -0.00000000000E+00 -0.74505805969E-08  0.93827000000E+00  0.93827000000E+00 0. -1.
     999902    2    1    2    0    0 -0.41558907701E-03 -0.23539467304E-01 -0.21282813271E-03  0.10203859024E+01  0.10201142413E+01 0.  0.
     999903    2    3    3    0    0  0.15695318579E-01 -0.35694018747E-01  0.12449505525E+00  0.13136433314E+00  0.15400105151E-01 0.  0.
         14    1    1    2    0    0  0.41558907701E-03  0.23539467304E-01  0.21282813271E-03  0.23544097584E-01  0.00000000000E+00 0.  1.
     999901    1    3    3    0    0 -0.16110907656E-01  0.12154551444E-01 -0.12470788338E+00  0.88902156928E+00  0.88000000000E+00 0. -1.
        -11    1    4    4    0    0  0.79060635921E-02 -0.10848901894E-01  0.65707089126E-01  0.67066289567E-01  0.51100000000E-03 0. -1.
         11    1    4    4    0    0  0.77892549866E-02 -0.24845116854E-01  0.58787966126E-01  0.64298043570E-01  0.51100000000E-03 0.  1.
</event>
<event>
 8    1  0.1072332E+005  0.1043930E+01  0.7957747E-01            NaN
         13   -1    0    0    0    0  0.00000000000E+00  0.00000000000E+00  0.74505805969E-08  0.10566000000E+00  0.10566000000E+00 0. -1.
     999900   -1    0    0    0    0 -0.00000000000E+00 -0.00000000000E+00 -0.74505805969E-08  0.93827000000E+00  0.93827000000E+00 0. -1.
     999902    2    1    2    0    0  0.18010820643E-03  0.19398331548E-01  0.11663497980E-01  0.10212945214E+01  0.10210436497E+01 0.  0.
     999903    2    3    3    0    0  0.56527366954E-01  0.37977056537E-01 -0.11004861632E+00  0.13093840088E+00  0.19913985869E-01 0.  0.
         14    1    1    2    0    0 -0.18010820643E-03 -0.19398331548E-01 -0.11663497980E-01  0.22635478589E-01  0.00000000000E+00 0. -1.
     999901    1    3    3    0    0 -0.56347258747E-01 -0.18578724989E-01  0.12171211431E+00  0.89035612053E+00  0.88000000000E+00 0.  1.
        -11    1    4    4    0    0  0.30412837837E-01  0.88054910160E-02 -0.53159181770E-01  0.61875981647E-01  0.51100000000E-03 0.  1.
         11    1    4    4    0    0  0.26114529117E-01  0.29171565521E-01 -0.56889434555E-01  0.69062419237E-01  0.51100000000E-03 0. -1.
</event>
<event>
 8    1  0.1072332E+005  0.1043930E+01  0.7957747E-01            NaN
         13   -1    0    0    0    0  0.00000000000E+00  0.00000000000E+00  0.74505805969E-08  0.10566000000E+00  0.10566000000E+00 0. -1.
     999900   -1    0    0    0    0 -0.00000000000E+00 -0.00000000000E+00 -0.74505805969E-08  0.93827000000E+00  0.93827000000E+00 0. -1.
     999902    2    1    2    0    0  0.50297806036E-02  0.72733937505E-02  0.21270175197E-01  0.10208947813E+01  0.10206348677E+01 0.  0.
     999903    2    3    3    0    0  0.65434788329E-01 -0.11125483245E+00 -0.10470502692E-02  0.13061630577E+00  0.20004343323E-01 0.  0.
         14    1    1    2    0    0 -0.50297806036E-02 -0.72733937505E-02 -0.21270175197E-01  0.23035218742E-01  0.00000000000E+00 0.  1.
     999901    1    3    3    0    0 -0.60405007725E-01  0.11852822620E+00  0.22317225466E-01  0.89027847549E+00  0.88000000000E+00 0. -1.
        -11    1    4    4    0    0  0.11744800587E-01 -0.33313642849E-01  0.54655804863E-02  0.35747347199E-01  0.51100000000E-03 0. -1.
         11    1    4    4    0    0  0.53689987742E-01 -0.77941189601E-01 -0.65126307555E-02  0.94868958571E-01  0.51100000000E-03 0.  1.
</event>
<event>
 8    1  0.1072332E+005  0.1043930E+01  0.7957747E-01            NaN
         13   -1    0    0    0    0  0.00000000000E+00  0.00000000000E+00  0.74505805969E-08  0.10566000000E+00  0.10566000000E+00 0. -1.
     999900   -1    0    0    0    0 -0.00000000000E+00 -0.00000000000E+00 -0.74505805969E-08  0.93827000000E+00  0.93827000000E+00 0.  1.
     999902    2    1    2    0    0  0.19892982070E-01 -0.11519070892E-01  0.95628253624E-02  0.10190328644E+01  0.10187286741E+01 0.  0.
     999903    2    3    3    0    0 -0.10160498501E+00 -0.31568915960E-01 -0.66684214291E-01  0.12719354969E+00  0.20279181782E-01 0.  0.
         14    1    1    2    0    0 -0.19892982070E-01  0.11519070892E-01 -0.95628253624E-02  0.24897135553E-01  0.00000000000E+00 0.  1.
     999901    1    3    3    0    0  0.12149796708E+00  0.20049845068E-01  0.76247039653E-01  0.89183931476E+00  0.88000000000E+00 0. -1.
        -11    1    4    4    0    0 -0.64004548187E-01 -0.15520892486E-01 -0.30437956644E-01  0.72554880041E-01  0.51100000000E-03 0. -1.
         11    1    4    4    0    0 -0.37600436821E-01 -0.16048023474E-01 -0.36246257646E-01  0.54638669648E-01  0.51100000000E-03 0.  1.
</event>
<event>
 8    1  0.1072332E+005  0.1043930E+01  0.7957747E-01            NaN
         13   -1    0    0    0    0  0.00000000000E+00  0.00000000000E+00  0.74505805969E-08  0.10566000000E+00  0.10566000000E+00 0. -1.
     999900   -1    0    0    0    0 -0.00000000000E+00 -0.00000000000E+00 -0.74505805969E-08  0.93827000000E+00  0.93827000000E+00 0. -1.
     999902    2    1    2    0    0 -0.16184906888E-01 -0.15864273958E-01  0.63742973840E-02  0.10203873140E+01  0.10201156858E+01 0.  0.
     999903    2    3    3    0    0 -0.11910969493E+00 -0.39088872557E-01 -0.39379101363E-01  0.13290420568E+00  0.19943792990E-01 0.  0.
         14    1    1    2    0    0  0.16184906888E-01  0.15864273958E-01 -0.63742973840E-02  0.23542686047E-01  0.00000000000E+00 0. -1.
     999901    1    3    3    0    0  0.10292478804E+00  0.23224598599E-01  0.45753398747E-01  0.88748310827E+00  0.88000000000E+00 0. -1.
        -11    1    4    4    0    0 -0.87905661698E-01 -0.19376185391E-01 -0.28531771539E-01  0.94430741960E-01  0.51100000000E-03 0. -1.
         11    1    4    4    0    0 -0.31204033232E-01 -0.19712687166E-01 -0.10847329824E-01  0.38473463719E-01  0.51100000000E-03 0.  1.
</event>
<event>
 8    1  0.1072332E+005  0.1043930E+01  0.7957747E-01            NaN
         13   -1    0    0    0    0  0.00000000000E+00  0.00000000000E+00  0.74505805969E-08  0.10566000000E+00  0.10566000000E+00 0.  1.
     999900   -1    0    0    0    0 -0.00000000000E+00 -0.00000000000E+00 -0.74505805969E-08  0.93827000000E+00  0.93827000000E+00 0. -1.
     999902    2    1    2    0    0  0.16296638050E-01 -0.17912163908E-01 -0.33165259817E-03  0.10197114942E+01  0.10194238547E+01 0.  0.
     999903    2    3    3    0    0 -0.85563065054E-01  0.45129073426E-01 -0.80080683610E-01  0.12802236418E+00  0.24882493321E-01 0.  0.
         14    1    1    2    0    0 -0.16296638050E-01  0.17912163908E-01  0.33165259817E-03  0.24218505756E-01  0.00000000000E+00 0.  1.
     999901    1    3    3    0    0  0.10185970310E+00 -0.63041237334E-01  0.79749031012E-01  0.89168913006E+00  0.88000000000E+00 0.  1.
        -11    1    4    4    0    0 -0.19789200076E-01 -0.12374765134E-03 -0.19638647825E-01  0.27884859019E-01  0.51100000000E-03 0.  1.
         11    1    4    4    0    0 -0.65773864978E-01  0.45252821077E-01 -0.60442035786E-01  0.10013750516E+00  0.51100000000E-03 0. -1.
</event>
<event>
 8    1  0.1072332E+005  0.1043930E+01  0.7957747E-01            NaN
         13   -1    0    0    0    0  0.00000000000E+00  0.00000000000E+00  0.74505805969E-08  0.10566000000E+00  0.10566000000E+00 0.  1.
     999900   -1    0    0    0    0 -0.00000000000E+00 -0.00000000000E+00 -0.74505805969E-08  0.93827000000E+00  0.93827000000E+00 0. -1.
     999902    2    1    2    0    0 -0.18578814638E-01  0.93168391213E-02 -0.11304144283E-01  0.10202707624E+01  0.10199964064E+01 0.  0.
     999903    2    3    3    0    0  0.36378993847E-01 -0.82705973459E-01 -0.91545100567E-01  0.13014314809E+00  0.19824840896E-01 0.  0.
         14    1    1    2    0    0  0.18578814638E-01 -0.93168391213E-02  0.11304144283E-01  0.23659237573E-01  0.00000000000E+00 0.  1.
     999901    1    3    3    0    0 -0.54957808485E-01  0.92022812580E-01  0.80240956284E-01  0.89012761434E+00  0.88000000000E+00 0.  1.
        -11    1    4    4    0    0  0.22761312674E-01 -0.44134980172E-01 -0.63190398768E-01  0.80369530587E-01  0.51100000000E-03 0.  1.
         11    1    4    4    0    0  0.13617681173E-01 -0.38570993287E-01 -0.28354701800E-01  0.49773617498E-01  0.51100000000E-03 0. -1.
</event>
<event>
 8    1  0.1072332E+005  0.1043930E+01  0.7957747E-01            NaN
         13   -1    0    0    0    0  0.00000000000E+00  0.00000000000E+00  0.74505805969E-08  0.10566000000E+00  0.10566000000E+00 0. -1.
     999900   -1    0    0    0    0 -0.00000000000E+00 -0.00000000000E+00 -0.74505805969E-08  0.93827000000E+00  0.93827000000E+00 0. -1.
     999902    2    1    2    0    0 -0.10113129943E-01 -0.12856263550E-01  0.17555581481E-01  0.10199350557E+01  0.10196527647E+01 0.  0.
     999903    2    3    3    0    0  0.86602643019E-01 -0.95291333005E-01  0.12728437768E-01  0.13079345691E+00  0.19090817681E-01 0.  0.
         14    1    1    2    0    0  0.10113129943E-01  0.12856263550E-01 -0.17555581481E-01  0.23994944277E-01  0.00000000000E+00 0.  1.
     999901    1    3    3    0    0 -0.96715772962E-01  0.82435069455E-01  0.48271437133E-02  0.88914159881E+00  0.88000000000E+00 0. -1.
        -11    1    4    4    0    0  0.30354146084E-01 -0.45723683769E-01  0.98714225380E-02  0.55765002876E-01  0.51100000000E-03 0.  1.
         11    1    4    4    0    0  0.56248496935E-01 -0.49567649237E-01  0.28570152302E-02  0.75028454038E-01  0.51100000000E-03 0. -1.
</event>
<event>
 8    1  0.1072332E+005  0.1043930E+01  0.7957747E-01            NaN
         13   -1    0    0    0    0  0.00000000000E+00  0.00000000000E+00  0.74505805969E-08  0.10566000000E+00  0.10566000000E+00 0. -1.
     999900   -1    0    0    0    0 -0.00000000000E+00 -0.00000000000E+00 -0.74505805969E-08  0.93827000000E+00  0.93827000000E+00 0.  1.
     999902    2    1    2    0    0  0.12446232110E-01 -0.19773414300E-01 -0.80218014745E-02  0.10192268442E+01  0.10189274332E+01 0.  0.
     999903    2    3    3    0    0 -0.47140875731E-01  0.48159331721E-01  0.10655612546E+00  0.12721026211E+00  0.16931022324E-01 0.  0.
         14    1    1    2    0    0 -0.12446232110E-01  0.19773414300E-01  0.80218014745E-02  0.24703155784E-01  0.00000000000E+00 0. -1.
     999901    1    3    3    0    0  0.59587107841E-01 -0.67932746021E-01 -0.11457792694E+00  0.89201658210E+00  0.88000000000E+00 0. -1.
        -11    1    4    4    0    0 -0.24254441263E-01  0.34782446109E-01  0.57488214242E-01  0.71437051843E-01  0.51100000000E-03 0.  1.
         11    1    4    4    0    0 -0.22886434469E-01  0.13376885613E-01  0.49067911221E-01  0.55773210271E-01  0.51100000000E-03 0. -1.
</event>
<event>
 8    1  0.1072332E+005  0.1043930E+01  0.7957747E-01            NaN
         13   -1    0    0    0    0  0.00000000000E+00  0.00000000000E+00  0.74505805969E-08  0.10566000000E+00  0.10566000000E+00 0.  1.
     999900   -1    0    0    0    0 -0.00000000000E+00 -0.00000000000E+00 -0.74505805969E-08  0.93827000000E+00  0.93827000000E+00 0.  1.
     999902    2    1    2    0    0 -0.13406458580E-02  0.21263963918E-01  0.11096336020E-01  0.10199074655E+01  0.10196245171E+01 0.  0.
     999903    2    3    3    0    0  0.44301163800E-01 -0.41042254428E-01 -0.11118009543E+00  0.12810212497E+00  0.20051958471E-01 0.  0.
         14    1    1    2    0    0  0.13406458580E-02 -0.21263963918E-01 -0.11096336020E-01  0.24022534543E-01  0.00000000000E+00 0. -1.
     999901    1    3    3    0    0 -0.45641809658E-01  0.62306218345E-01  0.12227643145E+00  0.89180534049E+00  0.88000000000E+00 0. -1.
        -11    1    4    4    0    0  0.17003818994E-01 -0.28856608274E-01 -0.64237973795E-01  0.72447305677E-01  0.51100000000E-03 0.  1.
         11    1    4    4    0    0  0.27297344805E-01 -0.12185646154E-01 -0.46942121638E-01  0.55654819292E-01  0.51100000000E-03 0. -1.
</event>
<event>
 8    1  0.1072332E+005  0.1043930E+01  0.7957747E-01            NaN
         13   -1    0    0    0    0  0.00000000000E+00  0.00000000000E+00  0.74505805969E-08  0.10566000000E+00  0.10566000000E+00 0.  1.
     999900   -1    0    0    0    0 -0.00000000000E+00 -0.00000000000E+00 -0.74505805969E-08  0.93827000000E+00  0.93827000000E+00 0. -1.
     999902    2    1    2    0    0  0.16675542809E-01  0.55919659596E-02 -0.16136898709E-01  0.10200607036E+01  0.10197813960E+01 0.  0.
     999903    2    3    3    0    0  0.10905226043E+00  0.64753784972E-01  0.34664131661E-01  0.13179592129E+00  0.91167248204E-02 0.  0.
         14    1    1    2    0    0 -0.16675542809E-01 -0.55919659596E-02  0.16136898709E-01  0.23869296412E-01  0.00000000000E+00 0.  1.
     999901    1    3    3    0    0 -0.92376717620E-01 -0.59161819012E-01 -0.50801030370E-01  0.88826478230E+00  0.88000000000E+00 0. -1.
        -11    1    4    4    0    0  0.35866420571E-01  0.22941132564E-01  0.74771770173E-02  0.43230371096E-01  0.51100000000E-03 0. -1.
         11    1    4    4    0    0  0.73185839858E-01  0.41812652408E-01  0.27186954643E-01  0.88565550192E-01  0.51100000000E-03 0.  1.
</event>
<event>
 8    1  0.1072332E+005  0.1043930E+01  0.7957747E-01            NaN
         13   -1    0    0    0    0  0.00000000000E+00  0.00000000000E+00  0.74505805969E-08  0.10566000000E+00  0.10566000000E+00 0.  1.
     999900   -1    0    0    0    0 -0.00000000000E+00 -0.00000000000E+00 -0.74505805969E-08  0.93827000000E+00  0.93827000000E+00 0. -1.
     999902    2    1    2    0    0 -0.13771754700E-01  0.11342717822E-01  0.14846936709E-01  0.10207190111E+01  0.10204550699E+01 0.  0.
     999903    2    3    3    0    0 -0.12904972820E+00 -0.15374992092E-02 -0.20988526818E-01  0.13238400021E+00  0.20707703872E-01 0.  0.
         14    1    1    2    0    0  0.13771754700E-01 -0.11342717822E-01 -0.14846936709E-01  0.23210988879E-01  0.00000000000E+00 0. -1.
     999901    1    3    3    0    0  0.11527797351E+00  0.12880217031E-01  0.35835463527E-01  0.88833501091E+00  0.88000000000E+00 0.  1.
        -11    1    4    4    0    0 -0.28976992513E-01  0.61771351807E-02  0.93247834708E-03  0.29647153844E-01  0.51100000000E-03 0. -1.
         11    1    4    4    0    0 -0.10007273569E+00 -0.77146343899E-02 -0.21921005165E-01  0.10273684636E+00  0.51100000000E-03 0.  1.
</event>
<event>
 8    1  0.1072332E+005  0.1043930E+01  0.7957747E-01            NaN
         13   -1    0    0    0    0  0.00000000000E+00  0.00000000000E+00  0.74505805969E-08  0.10566000000E+00  0.10566000000E+00 0. -1.
     999900   -1    0    0    0    0 -0.00000000000E+00 -0.00000000000E+00 -0.74505805969E-08  0.93827000000E+00  0.93827000000E+00 0.  1.
     999902    2    1    2    0    0  0.32908313389E-02 -0.22902170152E-01  0.86333632521E-02  0.10192343743E+01  0.10189351480E+01 0.  0.
     999903    2    3    3    0    0  0.97087993432E-01 -0.81584296336E-01 -0.28319022804E-01  0.13153680282E+00  0.20442298437E-01 0.  0.
         14    1    1    2    0    0 -0.32908313389E-02  0.22902170152E-01 -0.86333632521E-02  0.24695625718E-01  0.00000000000E+00 0.  1.
     999901    1    3    3    0    0 -0.93797162093E-01  0.58682126183E-01  0.36952386057E-01  0.88769757147E+00  0.88000000000E+00 0. -1.
        -11    1    4    4    0    0  0.32166430025E-01 -0.22655457630E-01 -0.17943725325E-01  0.43245663141E-01  0.51100000000E-03 0. -1.
         11    1    4    4    0    0  0.64921563407E-01 -0.58928838706E-01 -0.10375297479E-01  0.88291139675E-01  0.51100000000E-03 0.  1.
</event>
<event>
 8    1  0.1072332E+005  0.1043930E+01  0.7957747E-01            NaN
         13   -1    0    0    0    0  0.00000000000E+00  0.00000000000E+00  0.74505805969E-08  0.10566000000E+00  0.10566000000E+00 0.  1.
     999900   -1    0    0    0    0 -0.00000000000E+00 -0.00000000000E+00 -0.74505805969E-08  0.93827000000E+00  0.93827000000E+00 0. -1.
     999902    2    1    2    0    0  0.38901315256E-02  0.23267401351E-01  0.14618948733E-02  0.10202943865E+01  0.10200205845E+01 0.  0.
     999903    2    3    3    0    0  0.64466105868E-01 -0.49278710624E-01  0.99668381535E-01  0.12980188173E+00  0.18178891495E-01 0.  0.
         14    1    1    2    0    0 -0.38901315256E-02 -0.23267401351E-01 -0.14618948733E-02  0.23635613501E-01  0.00000000000E+00 0.  1.
     999901    1    3    3    0    0 -0.60575974342E-01  0.72546111976E-01 -0.98206486662E-01  0.89049250477E+00  0.88000000000E+00 0. -1.
        -11    1    4    4    0    0  0.50347784905E-01 -0.35095894328E-01  0.62565978361E-01  0.87643505252E-01  0.51100000000E-03 0.  1.
         11    1    4    4    0    0  0.14118320962E-01 -0.14182816296E-01  0.37102403174E-01  0.42158376477E-01  0.51100000000E-03 0. -1.
</event>
<event>
 8    1  0.1072332E+005  0.1043930E+01  0.7957747E-01            NaN
         13   -1    0    0    0    0  0.00000000000E+00  0.00000000000E+00  0.74505805969E-08  0.10566000000E+00  0.10566000000E+00 0. -1.
     999900   -1    0    0    0    0 -0.00000000000E+00 -0.00000000000E+00 -0.74505805969E-08  0.93827000000E+00  0.93827000000E+00 0.  1.
     999902    2    1    2    0    0  0.15784817814E-01 -0.96280712918E-02 -0.88376317504E-02  0.10234369776E+01  0.10232317837E+01 0.  0.
     999903    2    3    3    0    0 -0.61777181651E-01  0.11040835193E+00  0.28674807750E-01  0.13111876659E+00  0.19064679520E-01 0.  0.
         14    1    1    2    0    0 -0.15784817814E-01  0.96280712918E-02  0.88376317504E-02  0.20493022353E-01  0.00000000000E+00 0. -1.
     999901    1    3    3    0    0  0.77561999465E-01 -0.12003642322E+00 -0.37512439500E-01  0.89231821105E+00  0.88000000000E+00 0.  1.
        -11    1    4    4    0    0 -0.24495235780E-01  0.57851142006E-01  0.74087159039E-02  0.63260741378E-01  0.51100000000E-03 0.  1.
         11    1    4    4    0    0 -0.37281945871E-01  0.52557209922E-01  0.21266091846E-01  0.67858025215E-01  0.51100000000E-03 0. -1.
</event>
<event>
 8    1  0.1072332E+005  0.1043930E+01  0.7957747E-01            NaN
         13   -1    0    0    0    0  0.00000000000E+00  0.00000000000E+00  0.74505805969E-08  0.10566000000E+00  0.10566000000E+00 0.  1.
     999900   -1    0    0    0    0 -0.00000000000E+00 -0.00000000000E+00 -0.74505805969E-08  0.93827000000E+00  0.93827000000E+00 0.  1.
     999902    2    1    2    0    0 -0.45626075310E-02 -0.11640344937E-01  0.20092133916E-01  0.10202654936E+01  0.10199910140E+01 0.  0.
     999903    2    3    3    0    0  0.56077628683E-01 -0.11523910526E+00  0.24284188716E-01  0.13210587129E+00  0.20916203940E-01 0.  0.
         14    1    1    2    0    0  0.45626075310E-02  0.11640344937E-01 -0.20092133916E-01  0.23664506398E-01  0.00000000000E+00 0. -1.
     999901    1    3    3    0    0 -0.60640236214E-01  0.10359876032E+00 -0.41920547992E-02  0.88815962232E+00  0.88000000000E+00 0.  1.
        -11    1    4    4    0    0  0.30625808465E-01 -0.41974876968E-01  0.51317018975E-02  0.52215188653E-01  0.51100000000E-03 0.  1.
         11    1    4    4    0    0  0.25451820217E-01 -0.73264228291E-01  0.19152486818E-01  0.79890682634E-01  0.51100000000E-03 0. -1.
</event>
<event>
 8    1  0.1072332E+005  0.1043930E+01  0.7957747E-01            NaN
         13   -1    0    0    0    0  0.00000000000E+00  0.00000000000E+00  0.74505805969E-08  0.10566000000E+00  0.10566000000E+00 0. -1.
     999900   -1    0    0    0    0 -0.00000000000E+00 -0.00000000000E+00 -0.74505805969E-08  0.93827000000E+00  0.93827000000E+00 0. -1.
     999902    2    1    2    0    0  0.32509311830E-02 -0.22496882210E-01 -0.45916748280E-03  0.10211948049E+01  0.10209416929E+01 0.  0.
     999903    2    3    3    0    0 -0.42735624526E-01  0.10558781523E+00 -0.56585763509E-01  0.12896689239E+00  0.21339877503E-01 0.  0.
         14    1    1    2    0    0 -0.32509311830E-02  0.22496882210E-01  0.45916748280E-03  0.22735195128E-01  0.00000000000E+00 0. -1.
     999901    1    3    3    0    0  0.45986555709E-01 -0.12808469744E+00  0.56126596026E-01  0.89222791248E+00  0.88000000000E+00 0.  1.
        -11    1    4    4    0    0 -0.25568638545E-01  0.55609236676E-01 -0.18901780797E-01  0.64059979075E-01  0.51100000000E-03 0.  1.
         11    1    4    4    0    0 -0.17166985981E-01  0.49978578558E-01 -0.37683982712E-01  0.64906913318E-01  0.51100000000E-03 0. -1.
</event>
<event>
 8    1  0.1072332E+005  0.1043930E+01  0.7957747E-01            NaN
         13   -1    0    0    0    0  0.00000000000E+00  0.00000000000E+00  0.74505805969E-08  0.10566000000E+00  0.10566000000E+00 0. -1.
     999900   -1    0    0    0    0 -0.00000000000E+00 -0.00000000000E+00 -0.74505805969E-08  0.93827000000E+00  0.93827000000E+00 0.  1.
     999902    2    1    2    0    0  0.13077711881E-01  0.16961992995E-01 -0.10937860888E-01  0.10198806226E+01  0.10195970340E+01 0.  0.
     999903    2    3    3    0    0  0.77833163955E-01  0.90190705145E-01 -0.54868925449E-01  0.13337870418E+00  0.24226329554E-01 0.  0.
         14    1    1    2    0    0 -0.13077711881E-01 -0.16961992995E-01  0.10937860888E-01  0.24049377439E-01  0.00000000000E+00 0. -1.
     999901    1    3    3    0    0 -0.64755452074E-01 -0.73228712151E-01  0.43931064561E-01  0.88650191838E+00  0.88000000000E+00 0. -1.
        -11    1    4    4    0    0  0.22367886507E-01  0.17273928166E-01 -0.22788641471E-01  0.36308321941E-01  0.51100000000E-03 0.  1.
         11    1    4    4    0    0  0.55465277448E-01  0.72916776979E-01 -0.32080283978E-01  0.97070382241E-01  0.51100000000E-03 0. -1.
</event>
<event>
 8    1  0.1072332E+005  0.1043930E+01  0.7957747E-01            NaN
         13   -1    0    0    0    0  0.00000000000E+00  0.00000000000E+00  0.74505805969E-08  0.10566000000E+00  0.10566000000E+00 0.  1.
     999900   -1    0    0    0    0 -0.00000000000E+00 -0.00000000000E+00 -0.74505805969E-08  0.93827000000E+00  0.93827000000E+00 0.  1.
     999902    2    1    2    0    0  0.20408307530E-01 -0.10694711755E-01  0.49293334299E-02  0.10203678650E+01  0.10200957827E+01 0.  0.
     999903    2    3    3    0    0 -0.78608251060E-01 -0.10066953907E+00  0.15190837291E-01  0.13019650688E+00  0.20168183771E-01 0.  0.
         14    1    1    2    0    0 -0.20408307530E-01  0.10694711755E-01 -0.49293334299E-02  0.23562134959E-01  0.00000000000E+00 0. -1.
     999901    1    3    3    0    0  0.99016558589E-01  0.89974827310E-01 -0.10261503861E-01  0.89017135816E+00  0.88000000000E+00 0. -1.
        -11    1    4    4    0    0 -0.49876150306E-01 -0.51689358985E-01  0.18108010071E-02  0.71853742581E-01  0.51100000000E-03 0.  1.
         11    1    4    4    0    0 -0.28732100754E-01 -0.48980180081E-01  0.13380036283E-01  0.58342764302E-01  0.51100000000E-03 0. -1.
</event>
<event>
 8    1  0.1072332E+005  0.1043930E+01  0.7957747E-01            NaN
         13   -1    0    0    0    0  0.00000000000E+00  0.00000000000E+00  0.74505805969E-08  0.10566000000E+00  0.10566000000E+00 0.  1.
     999900   -1    0    0    0    0 -0.00000000000E+00 -0.00000000000E+00 -0.74505805969E-08  0.93827000000E+00  0.93827000000E+00 0. -1.
     999902    2    1    2    0    0  0.11600227053E-01  0.18350663512E-01  0.11559212875E-01  0.10193347256E+01  0.10190379558E+01 0.  0.
     999903    2    3    3    0    0  0.23518173630E-01 -0.64994038990E-01 -0.10545286542E+00  0.12760595333E+00  0.19637792771E-01 0.  0.
         14    1    1    2    0    0 -0.11600227053E-01 -0.18350663512E-01 -0.11559212875E-01  0.24595274369E-01  0.00000000000E+00 0. -1.
     999901    1    3    3    0    0 -0.11917946577E-01  0.83344702502E-01  0.11701207829E+00  0.89172877230E+00  0.88000000000E+00 0.  1.
        -11    1    4    4    0    0 -0.29018046652E-02 -0.13473647258E-01 -0.17072419377E-01  0.21947397685E-01  0.51100000000E-03 0. -1.
         11    1    4    4    0    0  0.26419978295E-01 -0.51520391732E-01 -0.88380446041E-01  0.10565855564E+00  0.51100000000E-03 0.  1.
</event>
<event>
 8    1  0.1072332E+005  0.1043930E+01  0.7957747E-01            NaN
         13   -1    0    0    0    0  0.00000000000E+00  0.00000000000E+00  0.74505805969E-08  0.10566000000E+00  0.10566000000E+00 0. -1.
     999900   -1    0    0    0    0 -0.00000000000E+00 -0.00000000000E+00 -0.74505805969E-08  0.93827000000E+00  0.93827000000E+00 0.  1.
     999902    2    1    2    0    0 -0.83183683931E-02  0.20644493149E-01 -0.80249438943E-02  0.10202701168E+01  0.10199957456E+01 0.  0.
     999903    2    3    3    0    0 -0.87030399733E-01 -0.78460456723E-01 -0.52960862635E-01  0.13008102912E+00  0.19644017405E-01 0.  0.
         14    1    1    2    0    0  0.83183683931E-02 -0.20644493149E-01  0.80249438943E-02  0.23659883233E-01  0.00000000000E+00 0.  1.
     999901    1    3    3    0    0  0.78712031340E-01  0.99104949872E-01  0.44935918741E-01  0.89018908764E+00  0.88000000000E+00 0. -1.
        -11    1    4    4    0    0 -0.55537242378E-01 -0.62101541851E-01 -0.36571673436E-01  0.90987555249E-01  0.51100000000E-03 0.  1.
         11    1    4    4    0    0 -0.31493157355E-01 -0.16358914873E-01 -0.16389189199E-01  0.39093473875E-01  0.51100000000E-03 0. -1.
</event>
<event>
 8    1  0.1072332E+005  0.1043930E+01  0.7957747E-01            NaN
         13   -1    0    0    0    0  0.00000000000E+00  0.00000000000E+00  0.74505805969E-08  0.10566000000E+00  0.10566000000E+00 0.  1.
     999900   -1    0    0    0    0 -0.00000000000E+00 -0.00000000000E+00 -0.74505805969E-08  0.93827000000E+00  0.93827000000E+00 0. -1.
     999902    2    1    2    0    0  0.94720493366E-02 -0.17047247553E-01 -0.11670977977E-01  0.10212024816E+01  0.10209495425E+01 0.  0.
     999903    2    3    3    0    0 -0.28809033611E-01  0.32947609987E-01  0.11994182681E+00  0.12918966916E+00  0.19708459539E-01 0.  0.
         14    1    1    2    0    0 -0.94720493366E-02  0.17047247553E-01  0.11670977977E-01  0.22727518446E-01  0.00000000000E+00 0. -1.
     999901    1    3    3    0    0  0.38281082948E-01 -0.49994857540E-01 -0.13161280479E+00  0.89201281239E+00  0.88000000000E+00 0. -1.
        -11    1    4    4    0    0 -0.16916964306E-01  0.58998348867E-02  0.54843174574E-01  0.57697717904E-01  0.51100000000E-03 0.  1.
         11    1    4    4    0    0 -0.11892069306E-01  0.27047775100E-01  0.65098652236E-01  0.71491951255E-01  0.51100000000E-03 0. -1.
</event>
<event>
 8    1  0.1072332E+005  0.1043930E+01  0.7957747E-01            NaN
         13   -1    0    0    0    0  0.00000000000E+00  0.00000000000E+00  0.74505805969E-08  0.10566000000E+00  0.10566000000E+00 0.  1.
     999900   -1    0    0    0    0 -0.00000000000E+00 -0.00000000000E+00 -0.74505805969E-08  0.93827000000E+00  0.93827000000E+00 0. -1.
     999902    2    1    2    0    0  0.36076539117E-02  0.20896339394E-01  0.11390702820E-01  0.10198588497E+01  0.10195747413E+01 0.  0.
     999903    2    3    3    0    0  0.12379028377E+00 -0.91196923889E-02 -0.32111559957E-01  0.13011884634E+00  0.22193664506E-01 0.  0.
         14    1    1    2    0    0 -0.36076539117E-02 -0.20896339394E-01 -0.11390702820E-01  0.24071150316E-01  0.00000000000E+00 0. -1.
     999901    1    3    3    0    0 -0.12018262986E+00  0.30016031783E-01  0.43502262777E-01  0.88974000334E+00  0.88000000000E+00 0. -1.
        -11    1    4    4    0    0  0.29200105317E-01  0.54807731574E-02 -0.19976016683E-02  0.29781480124E-01  0.51100000000E-03 0.  1.
         11    1    4    4    0    0  0.94590178455E-01 -0.14600465546E-01 -0.30113958288E-01  0.10033736622E+00  0.51100000000E-03 0. -1.
</event>
<event>
 7    1  0.1072332E+005  0.1043930E+01  0.7957747E-01            NaN
         13   -1    0    0    0    0  0.00000000000E+00  0.00000000000E+00  0.74505805969E-08  0.10566000000E+00  0.10566000000E+00 0.  1.
     999900   -1    0    0    0    0 -0.00000000000E+00 -0.00000000000E+00 -0.74505805969E-08  0.93827000000E+00  0.93827000000E+00 0.  1.
     999903    2    1    2    0    0 -0.48253016124E-01  0.20812931010E-01 -0.71205665377E-01  0.90732962146E-01  0.20017291916E-01 0.  0.
         14    1    1    2    0    0 -0.19633047502E-01 -0.40124188165E-01 -0.44222362854E-01  0.62857174662E-01  0.00000000000E+00 0. -1.
     999901    1    1    2    0    0  0.67886063626E-01  0.19311257155E-01  0.11542802823E+00  0.89033986319E+00  0.88000000000E+00 0. -1.
        -11    1    3    3    0    0 -0.17966925638E-01 -0.17421840847E-02 -0.18097565319E-01  0.25566161498E-01  0.51100000000E-03 0. -1.
         11    1    3    3    0    0 -0.30286090485E-01  0.22555115094E-01 -0.53108100059E-01  0.65166800648E-01  0.51100000000E-03 0.  1.
</event>
<event>
 8    1  0.1072332E+005  0.1043930E+01  0.7957747E-01            NaN
         13   -1    0    0    0    0  0.00000000000E+00  0.00000000000E+00  0.74505805969E-08  0.10566000000E+00  0.10566000000E+00 0. -1.
     999900   -1    0    0    0    0 -0.00000000000E+00 -0.00000000000E+00 -0.74505805969E-08  0.93827000000E+00  0.93827000000E+00 0.  1.
     999902    2    1    2    0    0 -0.77122896412E-04 -0.24229229010E-01 -0.15954234347E-01  0.10149196729E+01  0.10145049745E+01 0.  0.
     999903    2    3    3    0    0 -0.46022098463E-01 -0.11703264307E+00  0.41660515771E-02  0.12861936240E+00  0.26662920082E-01 0.  0.
         14    1    1    2    0    0  0.77122896412E-04  0.24229229010E-01  0.15954234347E-01  0.29010327126E-01  0.00000000000E+00 0. -1.
     999901    1    3    3    0    0  0.45944975567E-01  0.92803414061E-01 -0.20120285924E-01  0.88630031047E+00  0.88000000000E+00 0.  1.
        -11    1    4    4    0    0 -0.35288165801E-01 -0.83183859048E-01  0.14762105501E-01  0.91558669341E-01  0.51100000000E-03 0.  1.
         11    1    4    4    0    0 -0.10733932662E-01 -0.33848784023E-01 -0.10596053924E-01  0.37060693059E-01  0.51100000000E-03 0. -1.
</event>
<event>
 8    1  0.1072332E+005  0.1043930E+01  0.7957747E-01            NaN
         13   -1    0    0    0    0  0.00000000000E+00  0.00000000000E+00  0.74505805969E-08  0.10566000000E+00  0.10566000000E+00 0.  1.
     999900   -1    0    0    0    0 -0.00000000000E+00 -0.00000000000E+00 -0.74505805969E-08  0.93827000000E+00  0.93827000000E+00 0.  1.
     999902    2    1    2    0    0  0.16272907662E-01 -0.10199640996E-01  0.12407293111E-01  0.10210655927E+01  0.10208095628E+01 0.  0.
     999903    2    3    3    0    0  0.59681738623E-01  0.11461355636E+00  0.12732388301E-01  0.13119887988E+00  0.18784438866E-01 0.  0.
         14    1    1    2    0    0 -0.16272907662E-01  0.10199640996E-01 -0.12407293111E-01  0.22864407330E-01  0.00000000000E+00 0. -1.
     999901    1    3    3    0    0 -0.43408830961E-01 -0.12481319736E+00 -0.32509519004E-03  0.88986671279E+00  0.88000000000E+00 0.  1.
        -11    1    4    4    0    0  0.31925308741E-01  0.71517903050E-01  0.15581273218E-01  0.79856577631E-01  0.51100000000E-03 0.  1.
         11    1    4    4    0    0  0.27756429882E-01  0.43095653313E-01 -0.28488849165E-02  0.51342302252E-01  0.51100000000E-03 0. -1.
</event>
<event>
 8    1  0.1072332E+005  0.1043930E+01  0.7957747E-01            NaN
         13   -1    0    0    0    0  0.00000000000E+00  0.00000000000E+00  0.74505805969E-08  0.10566000000E+00  0.10566000000E+00 0.  1.
     999900   -1    0    0    0    0 -0.00000000000E+00 -0.00000000000E+00 -0.74505805969E-08  0.93827000000E+00  0.93827000000E+00 0.  1.
     999902    2    1    2    0    0 -0.65323988789E-02  0.17534081857E-01  0.14201698197E-01  0.10204394808E+01  0.10201690690E+01 0.  0.
     999903    2    3    3    0    0 -0.90453519843E-01 -0.77587613927E-01  0.49197794820E-01  0.13065545174E+00  0.21183648580E-01 0.  0.
         14    1    1    2    0    0  0.65323988789E-02 -0.17534081857E-01 -0.14201698197E-01  0.23490519223E-01  0.00000000000E+00 0.  1.
     999901    1    3    3    0    0  0.83921120964E-01  0.95121695784E-01 -0.34996096623E-01  0.88978402904E+00  0.88000000000E+00 0. -1.
        -11    1    4    4    0    0 -0.71919589031E-01 -0.51252389194E-01  0.30609317110E-01  0.93468850958E-01  0.51100000000E-03 0.  1.
         11    1    4    4    0    0 -0.18533930812E-01 -0.26335224733E-01  0.18588477710E-01  0.37186600781E-01  0.51100000000E-03 0. -1.
</event>
<event>
 8    1  0.1072332E+005  0.1043930E+01  0.7957747E-01            NaN
         13   -1    0    0    0    0  0.00000000000E+00  0.00000000000E+00  0.74505805969E-08  0.10566000000E+00  0.10566000000E+00 0.  1.
     999900   -1    0    0    0    0 -0.00000000000E+00 -0.00000000000E+00 -0.74505805969E-08  0.93827000000E+00  0.93827000000E+00 0. -1.
     999902    2    1    2    0    0  0.11651452450E-01 -0.19790301564E-01 -0.67363497984E-02  0.10199969520E+01  0.10197161327E+01 0.  0.
     999903    2    3    3    0    0 -0.12441345662E+00  0.18724387535E-01 -0.20628145005E-01  0.12859916043E+00  0.16820012515E-01 0.  0.
         14    1    1    2    0    0 -0.11651452450E-01  0.19790301564E-01  0.67363497984E-02  0.23933048047E-01  0.00000000000E+00 0.  1.
     999901    1    3    3    0    0  0.13606490907E+00 -0.38514689100E-01  0.13891795206E-01  0.89139779152E+00  0.88000000000E+00 0.  1.
        -11    1    4    4    0    0 -0.33411101113E-01  0.11406184265E-01 -0.16290965966E-02  0.35345689890E-01  0.51100000000E-03 0.  1.
         11    1    4    4    0    0 -0.91002355505E-01  0.73182032706E-02 -0.18999048408E-01  0.93253470541E-01  0.51100000000E-03 0. -1.
</event>
<event>
 8    1  0.1072332E+005  0.1043930E+01  0.7957747E-01            NaN
         13   -1    0    0    0    0  0.00000000000E+00  0.00000000000E+00  0.74505805969E-08  0.10566000000E+00  0.10566000000E+00 0. -1.
     999900   -1    0    0    0    0 -0.00000000000E+00 -0.00000000000E+00 -0.74505805969E-08  0.93827000000E+00  0.93827000000E+00 0.  1.
     999902    2    1    2    0    0  0.39032668538E-02  0.23284105626E-01  0.44475936944E-02  0.10199057174E+01  0.10196227274E+01 0.  0.
     999903    2    3    3    0    0 -0.35969880895E-01  0.23129274162E-01  0.12150897204E+00  0.13125884813E+00  0.25212284120E-01 0.  0.
         14    1    1    2    0    0 -0.39032668538E-02 -0.23284105626E-01 -0.44475936944E-02  0.24024282645E-01  0.00000000000E+00 0. -1.
     999901    1    3    3    0    0  0.39873147749E-01  0.15483146350E-03 -0.11706137835E+00  0.88864686923E+00  0.88000000000E+00 0. -1.
        -11    1    4    4    0    0 -0.58638528173E-02  0.17887459715E-01  0.52847954008E-01  0.56102703578E-01  0.51100000000E-03 0.  1.
         11    1    4    4    0    0 -0.30106028078E-01  0.52418144474E-02  0.68661018035E-01  0.75156144552E-01  0.51100000000E-03 0. -1.
</event>
<event>
 8    1  0.1072332E+005  0.1043930E+01  0.7957747E-01            NaN
         13   -1    0    0    0    0  0.00000000000E+00  0.00000000000E+00  0.74505805969E-08  0.10566000000E+00  0.10566000000E+00 0. -1.
     999900   -1    0    0    0    0 -0.00000000000E+00 -0.00000000000E+00 -0.74505805969E-08  0.93827000000E+00  0.93827000000E+00 0.  1.
     999902    2    1    2    0    0 -0.94046149116E-02 -0.19310549706E-01 -0.98343297799E-02  0.10203067455E+01  0.10200332332E+01 0.  0.
     999903    2    3    3    0    0 -0.98065244838E-01  0.63371423212E-01  0.54376212938E-01  0.12967774880E+00  0.15060427447E-01 0.  0.
         14    1    1    2    0    0  0.94046149116E-02  0.19310549706E-01  0.98343297799E-02  0.23623254514E-01  0.00000000000E+00 0. -1.
     999901    1    3    3    0    0  0.88660629927E-01 -0.82681972918E-01 -0.64210542718E-01  0.89062899669E+00  0.88000000000E+00 0.  1.
        -11    1    4    4    0    0 -0.92553344103E-01  0.59141842259E-01  0.54699878555E-01  0.12270377682E+00  0.51100000000E-03 0. -1.
         11    1    4    4    0    0 -0.55119007352E-02  0.42295809534E-02 -0.32366561734E-03  0.69739719807E-02  0.51100000000E-03 0.  1.
</event>
<event>
 8    1  0.1072332E+005  0.1043930E+01  0.7957747E-01            NaN
         13   -1    0    0    0    0  0.00000000000E+00  0.00000000000E+00  0.74505805969E-08  0.10566000000E+00  0.10566000000E+00 0.  1.
     999900   -1    0    0    0    0 -0.00000000000E+00 -0.00000000000E+00 -0.74505805969E-08  0.93827000000E+00  0.93827000000E+00 0. -1.
     999902    2    1    2    0    0  0.83974024772E-02  0.61576481704E-02  0.11040499445E-01  0.10287535173E+01  0.10286415672E+01 0.  0.
     999903    2    3    3    0    0 -0.87142783894E-03  0.10697838793E+00  0.86420961819E-01  0.13974679803E+00  0.24808265745E-01 0.  0.
         14    1    1    2    0    0 -0.83974024772E-02 -0.61576481704E-02 -0.11040499445E-01  0.15176482707E-01  0.00000000000E+00 0. -1.
     999901    1    3    3    0    0  0.92688303162E-02 -0.10082073976E+00 -0.75380462374E-01  0.88900671926E+00  0.88000000000E+00 0. -1.
        -11    1    4    4    0    0 -0.12185591305E-01  0.44320712988E-01  0.40196321185E-01  0.61064061386E-01  0.51100000000E-03 0. -1.
         11    1    4    4    0    0  0.11314163466E-01  0.62657674938E-01  0.46224640634E-01  0.78682736648E-01  0.51100000000E-03 0.  1.
</event>
<event>
 8    1  0.1072332E+005  0.1043930E+01  0.7957747E-01            NaN
         13   -1    0    0    0    0  0.00000000000E+00  0.00000000000E+00  0.74505805969E-08  0.10566000000E+00  0.10566000000E+00 0. -1.
     999900   -1    0    0    0    0 -0.00000000000E+00 -0.00000000000E+00 -0.74505805969E-08  0.93827000000E+00  0.93827000000E+00 0. -1.
     999902    2    1    2    0    0  0.12058271348E-01 -0.20552343801E-01  0.31561394020E-02  0.10198933205E+01  0.10196100349E+01 0.  0.
     999903    2    3    3    0    0 -0.58329277305E-01 -0.72965947205E-01  0.89999496123E-01  0.13127452632E+00  0.20168240288E-01 0.  0.
         14    1    1    2    0    0 -0.12058271348E-01  0.20552343801E-01 -0.31561394020E-02  0.24036679461E-01  0.00000000000E+00 0.  1.
     999901    1    3    3    0    0  0.70387548654E-01  0.52413603405E-01 -0.86843356721E-01  0.88861879422E+00  0.88000000000E+00 0. -1.
        -11    1    4    4    0    0 -0.39535398438E-01 -0.33429889159E-01  0.49778880313E-01  0.71824809537E-01  0.51100000000E-03 0.  1.
         11    1    4    4    0    0 -0.18793878867E-01 -0.39536058047E-01  0.40220615810E-01  0.59449716785E-01  0.51100000000E-03 0. -1.
</event>
<event>
 8    1  0.1072332E+005  0.1043930E+01  0.7957747E-01            NaN
         13   -1    0    0    0    0  0.00000000000E+00  0.00000000000E+00  0.74505805969E-08  0.10566000000E+00  0.10566000000E+00 0.  1.
     999900   -1    0    0    0    0 -0.00000000000E+00 -0.00000000000E+00 -0.74505805969E-08  0.93827000000E+00  0.93827000000E+00 0. -1.
     999902    2    1    2    0    0  0.91735712563E-02 -0.19547593582E-01 -0.62988012195E-02  0.10214369406E+01  0.10211892508E+01 0.  0.
     999903    2    3    3    0    0 -0.72013630714E-01 -0.10673131559E+00  0.25437663968E-01  0.13284278894E+00  0.20557117706E-01 0.  0.
         14    1    1    2    0    0 -0.91735712563E-02  0.19547593582E-01  0.62988012195E-02  0.22493059402E-01  0.00000000000E+00 0.  1.
     999901    1    3    3    0    0  0.81187201970E-01  0.87183722006E-01 -0.31736465187E-01  0.88859415166E+00  0.88000000000E+00 0. -1.
        -11    1    4    4    0    0 -0.22241355334E-01 -0.27244848798E-01 -0.16851215214E-02  0.35214491742E-01  0.51100000000E-03 0. -1.
         11    1    4    4    0    0 -0.49772275380E-01 -0.79486466790E-01  0.27122785489E-01  0.97628297194E-01  0.51100000000E-03 0.  1.
</event>
<event>
 8    1  0.1072332E+005  0.1043930E+01  0.7957747E-01            NaN
         13   -1    0    0    0    0  0.00000000000E+00  0.00000000000E+00  0.74505805969E-08  0.10566000000E+00  0.10566000000E+00 0. -1.
     999900   -1    0    0    0    0 -0.00000000000E+00 -0.00000000000E+00 -0.74505805969E-08  0.93827000000E+00  0.93827000000E+00 0. -1.
     999902    2    1    2    0    0 -0.85584020190E-02  0.14573685337E-01 -0.16533100865E-01  0.10202872004E+01  0.10200132300E+01 0.  0.
     999903    2    3    3    0    0 -0.35234342467E-01 -0.11920313935E+00  0.25078322077E-01  0.12880564974E+00  0.22608092495E-01 0.  0.
         14    1    1    2    0    0  0.85584020190E-02 -0.14573685337E-01  0.16533100865E-01  0.23642799615E-01  0.00000000000E+00 0. -1.
     999901    1    3    3    0    0  0.26675940448E-01  0.13377682469E+00 -0.41611422941E-01  0.89148155065E+00  0.88000000000E+00 0. -1.
        -11    1    4    4    0    0 -0.21282390496E-01 -0.35039160083E-01  0.68882491582E-02  0.41573933925E-01  0.51100000000E-03 0. -1.
         11    1    4    4    0    0 -0.13951951971E-01 -0.84163979269E-01  0.18190072918E-01  0.87231715815E-01  0.51100000000E-03 0.  1.
</event>
<event>
 8    1  0.1072332E+005  0.1043930E+01  0.7957747E-01            NaN
         13   -1    0    0    0    0  0.00000000000E+00  0.00000000000E+00  0.74505805969E-08  0.10566000000E+00  0.10566000000E+00 0.  1.
     999900   -1    0    0    0    0 -0.00000000000E+00 -0.00000000000E+00 -0.74505805969E-08  0.93827000000E+00  0.93827000000E+00 0.  1.
     999902    2    1    2    0    0  0.20699970098E-01  0.75322085794E-02 -0.60262930473E-02  0.10210927686E+01  0.10208373539E+01 0.  0.
     999903    2    3    3    0    0  0.18444911627E-01 -0.89172677250E-01 -0.92487737118E-01  0.13158026084E+00  0.21619491018E-01 0.  0.
         14    1    1    2    0    0 -0.20699970098E-01 -0.75322085794E-02  0.60262930473E-02  0.22837231357E-01  0.00000000000E+00 0. -1.
     999901    1    3    3    0    0  0.22550584709E-02  0.96704885830E-01  0.86461444071E-01  0.88951250781E+00  0.88000000000E+00 0. -1.
        -11    1    4    4    0    0  0.16775645217E-02 -0.84220049869E-03 -0.78960285398E-02  0.81321529810E-02  0.51100000000E-03 0.  1.
         11    1    4    4    0    0  0.16767347105E-01 -0.88330476752E-01 -0.84591708579E-01  0.12344810786E+00  0.51100000000E-03 0. -1.
</event>
<event>
 8    1  0.1072332E+005  0.1043930E+01  0.7957747E-01            NaN
         13   -1    0    0    0    0  0.00000000000E+00  0.00000000000E+00  0.74505805969E-08  0.10566000000E+00  0.10566000000E+00 0. -1.
     999900   -1    0    0    0    0 -0.00000000000E+00 -0.00000000000E+00 -0.74505805969E-08  0.93827000000E+00  0.93827000000E+00 0. -1.
     999902    2    1    2    0    0 -0.19782118517E-01  0.10775567253E-01 -0.11625330277E-01  0.10185805746E+01  0.10182650901E+01 0.  0.
     999903    2    3    3    0    0 -0.38970623800E-01 -0.82591703830E-01 -0.90830256393E-01  0.12989667899E+00  0.16820008187E-01 0.  0.
         14    1    1    2    0    0  0.19782118517E-01 -0.10775567253E-01  0.11625330277E-01  0.25349425372E-01  0.00000000000E+00 0. -1.
     999901    1    3    3    0    0  0.19188505283E-01  0.93367271083E-01  0.79204926116E-01  0.88868389564E+00  0.88000000000E+00 0.  1.
        -11    1    4    4    0    0 -0.93289531249E-02 -0.33931951156E-01 -0.27179572675E-01  0.44467931900E-01  0.51100000000E-03 0. -1.
         11    1    4    4    0    0 -0.29641670675E-01 -0.48659752674E-01 -0.63650683718E-01  0.85428747091E-01  0.51100000000E-03 0.  1.
</event>
<event>
 8    1  0.1072332E+005  0.1043930E+01  0.7957747E-01            NaN
         13   -1    0    0    0    0  0.00000000000E+00  0.00000000000E+00  0.74505805969E-08  0.10566000000E+00  0.10566000000E+00 0.  1.
     999900   -1    0    0    0    0 -0.00000000000E+00 -0.00000000000E+00 -0.74505805969E-08  0.93827000000E+00  0.93827000000E+00 0.  1.
     999902    2    1    2    0    0 -0.15791012186E-01 -0.12990564714E-01 -0.16095096061E-01  0.10179076451E+01  0.10175749658E+01 0.  0.
     999903    2    3    3    0    0  0.59798034013E-01 -0.31984181963E-01 -0.10891258413E+00  0.12960052057E+00  0.18318056157E-01 0.  0.
         14    1    1    2    0    0  0.15791012186E-01  0.12990564714E-01  0.16095096061E-01  0.26022354902E-01  0.00000000000E+00 0. -1.
     999901    1    3    3    0    0 -0.75589046199E-01  0.18993617248E-01  0.92817488070E-01  0.88830712453E+00  0.88000000000E+00 0. -1.
        -11    1    4    4    0    0  0.21734887779E-01 -0.10693365538E-01 -0.23797040471E-01  0.33960472163E-01  0.51100000000E-03 0.  1.
         11    1    4    4    0    0  0.38063146234E-01 -0.21290816424E-01 -0.85115543660E-01  0.95640048404E-01  0.51100000000E-03 0. -1.
</event>
<event>
 8    1  0.1072332E+005  0.1043930E+01  0.7957747E-01            NaN
         13   -1    0    0    0    0  0.00000000000E+00  0.00000000000E+00  0.74505805969E-08  0.10566000000E+00  0.10566000000E+00 0. -1.
     999900   -1    0    0    0    0 -0.00000000000E+00 -0.00000000000E+00 -0.74505805969E-08  0.93827000000E+00  0.93827000000E+00 0. -1.
     999902    2    1    2    0    0 -0.22707893075E-01 -0.12390590447E-02  0.49667999307E-02  0.10206522687E+01  0.10203867898E+01 0.  0.
     999903    2    3    3    0    0 -0.13071332071E+00  0.16779981125E-01 -0.10668615007E-01  0.13372818824E+00  0.20046670754E-01 0.  0.
         14    1    1    2    0    0  0.22707893075E-01  0.12390590447E-02 -0.49667999307E-02  0.23277731349E-01  0.00000000000E+00 0.  1.
     999901    1    3    3    0    0  0.10800542763E+00 -0.18019040170E-01  0.15635414937E-01  0.88692408041E+00  0.88000000000E+00 0. -1.
        -11    1    4    4    0    0 -0.10007580493E+00  0.48137686592E-02 -0.11289968859E-01  0.10082689929E+00  0.51100000000E-03 0. -1.
         11    1    4    4    0    0 -0.30637515772E-01  0.11966212466E-01  0.62135385262E-03  0.32901288958E-01  0.51100000000E-03 0.  1.
</event>
<event>
 8    1  0.1072332E+005  0.1043930E+01  0.7957747E-01            NaN
         13   -1    0    0    0    0  0.00000000000E+00  0.00000000000E+00  0.74505805969E-08  0.10566000000E+00  0.10566000000E+00 0.  1.
     999900   -1    0    0    0    0 -0.00000000000E+00 -0.00000000000E+00 -0.74505805969E-08  0.93827000000E+00  0.93827000000E+00 0. -1.
     999902    2    1    2    0    0 -0.21296529506E-01 -0.12251165390E-01 -0.33320526447E-02  0.10191361339E+01  0.10188344927E+01 0.  0.
     999903    2    3    3    0    0 -0.10931095414E-01  0.51881027556E-01  0.11616014334E+00  0.12868750240E+00  0.16005140048E-01 0.  0.
         14    1    1    2    0    0  0.21296529506E-01  0.12251165390E-01  0.33320526447E-02  0.24793866121E-01  0.00000000000E+00 0.  1.
     999901    1    3    3    0    0 -0.10365434092E-01 -0.64132192945E-01 -0.11949219598E+00  0.89044863148E+00  0.88000000000E+00 0.  1.
        -11    1    4    4    0    0 -0.61173299376E-02  0.37253988363E-01  0.64078621270E-01  0.74374808904E-01  0.51100000000E-03 0. -1.
         11    1    4    4    0    0 -0.48137654768E-02  0.14627039192E-01  0.52081522065E-01  0.54312693500E-01  0.51100000000E-03 0.  1.
</event>
<event>
 8    1  0.1072332E+005  0.1043930E+01  0.7957747E-01            NaN
         13   -1    0    0    0    0  0.00000000000E+00  0.00000000000E+00  0.74505805969E-08  0.10566000000E+00  0.10566000000E+00 0. -1.
     999900   -1    0    0    0    0 -0.00000000000E+00 -0.00000000000E+00 -0.74505805969E-08  0.93827000000E+00  0.93827000000E+00 0. -1.
     999902    2    1    2    0    0 -0.21496259867E-01  0.42734305748E-02  0.96100929271E-02  0.10199987384E+01  0.10197179615E+01 0.  0.
     999903    2    3    3    0    0 -0.57432301817E-01  0.11575350720E+00  0.19411314533E-01  0.13218385308E+00  0.19960665348E-01 0.  0.
         14    1    1    2    0    0  0.21496259867E-01 -0.42734305748E-02 -0.96100929271E-02  0.23931261630E-01  0.00000000000E+00 0.  1.
     999901    1    3    3    0    0  0.35936041950E-01 -0.11148007663E+00 -0.98012216054E-02  0.88781488529E+00  0.88000000000E+00 0. -1.
        -11    1    4    4    0    0 -0.21667180945E-01  0.65938164860E-01  0.92959688890E-02  0.70028454743E-01  0.51100000000E-03 0.  1.
         11    1    4    4    0    0 -0.35765120873E-01  0.49815342345E-01  0.10115345644E-01  0.62155398337E-01  0.51100000000E-03 0. -1.
</event>
<event>
 8    1  0.1072332E+005  0.1043930E+01  0.7957747E-01            NaN
         13   -1    0    0    0    0  0.00000000000E+00  0.00000000000E+00  0.74505805969E-08  0.10566000000E+00  0.10566000000E+00 0.  1.
     999900   -1    0    0    0    0 -0.00000000000E+00 -0.00000000000E+00 -0.74505805969E-08  0.93827000000E+00  0.93827000000E+00 0.  1.
     999902    2    1    2    0    0  0.17791552605E-01  0.13662252131E-01 -0.84883673853E-02  0.10199456539E+01  0.10196636151E+01 0.  0.
     999903    2    3    3    0    0  0.33432160426E-01 -0.88331922623E-01 -0.87429200038E-01  0.13040695583E+00  0.21020732701E-01 0.  0.
         14    1    1    2    0    0 -0.17791552605E-01 -0.13662252131E-01  0.84883673853E-02  0.23984346109E-01  0.00000000000E+00 0. -1.
     999901    1    3    3    0    0 -0.15640607821E-01  0.10199417475E+00  0.78940832653E-01  0.88953869807E+00  0.88000000000E+00 0.  1.
        -11    1    4    4    0    0  0.22071018715E-01 -0.77963502872E-01 -0.69257297223E-01  0.10659395849E+00  0.51100000000E-03 0.  1.
         11    1    4    4    0    0  0.11361141711E-01 -0.10368419751E-01 -0.18171902816E-01  0.23812997334E-01  0.51100000000E-03 0. -1.
</event>
<event>
 8    1  0.1072332E+005  0.1043930E+01  0.7957747E-01            NaN
         13   -1    0    0    0    0  0.00000000000E+00  0.00000000000E+00  0.74505805969E-08  0.10566000000E+00  0.10566000000E+00 0.  1.
     999900   -1    0    0    0    0 -0.00000000000E+00 -0.00000000000E+00 -0.74505805969E-08  0.93827000000E+00  0.93827000000E+00 0.  1.
     999902    2    1    2    0    0  0.11490260269E-02  0.15372078817E-01  0.17536415203E-01  0.10205816183E+01  0.10203145068E+01 0.  0.
     999903    2    3    3    0    0 -0.27784640434E-01 -0.32459549358E-01 -0.11931709010E+00  0.12825101614E+00  0.19650612292E-01 0.  0.
         14    1    1    2    0    0 -0.11490260269E-02 -0.15372078817E-01 -0.17536415203E-01  0.23348381660E-01  0.00000000000E+00 0. -1.
     999901    1    3    3    0    0  0.28933666460E-01  0.47831628175E-01  0.13685350530E+00  0.89233060220E+00  0.88000000000E+00 0. -1.
        -11    1    4    4    0    0 -0.20760002378E-01 -0.19540387428E-01 -0.51607059058E-01  0.58960614865E-01  0.51100000000E-03 0.  1.
         11    1    4    4    0    0 -0.70246380557E-02 -0.12919161930E-01 -0.67710031038E-01  0.69290401276E-01  0.51100000000E-03 0. -1.
</event>
<event>
 8    1  0.1072332E+005  0.1043930E+01  0.7957747E-01            NaN
         13   -1    0    0    0    0  0.00000000000E+00  0.00000000000E+00  0.74505805969E-08  0.10566000000E+00  0.10566000000E+00 0. -1.
     999900   -1    0    0    0    0 -0.00000000000E+00 -0.00000000000E+00 -0.74505805969E-08  0.93827000000E+00  0.93827000000E+00 0.  1.
     999902    2    1    2    0    0 -0.13172368931E-01 -0.11706859064E-01  0.24397790407E-01  0.10138332555E+01  0.10133864297E+01 0.  0.
     999903    2    3    3    0    0  0.72683399757E-01  0.94962613811E-01 -0.16138983807E-01  0.12232171911E+00  0.20034009736E-01 0.  0.
         14    1    1    2    0    0  0.13172368931E-01  0.11706859064E-01 -0.24397790407E-01  0.30096744494E-01  0.00000000000E+00 0.  1.
     999901    1    3    3    0    0 -0.85855768687E-01 -0.10666947287E+00  0.40536774214E-01  0.89151153639E+00  0.88000000000E+00 0. -1.
        -11    1    4    4    0    0  0.37360374440E-02  0.15859927163E-01 -0.14958384226E-02  0.16370519815E-01  0.51100000000E-03 0.  1.
         11    1    4    4    0    0  0.68947362313E-01  0.79102686648E-01 -0.14643145384E-01  0.10595119930E+00  0.51100000000E-03 0. -1.
</event>
<event>
 8    1  0.1072332E+005  0.1043930E+01  0.7957747E-01            NaN
         13   -1    0    0    0    0  0.00000000000E+00  0.00000000000E+00  0.74505805969E-08  0.10566000000E+00  0.10566000000E+00 0. -1.
     999900   -1    0    0    0    0 -0.00000000000E+00 -0.00000000000E+00 -0.74505805969E-08  0.93827000000E+00  0.93827000000E+00 0.  1.
     999902    2    1    2    0    0 -0.19893983039E-01  0.48511688287E-02 -0.11758907353E-01  0.10203169464E+01  0.10200436729E+01 0.  0.
     999903    2    3    3    0    0  0.69144533966E-02  0.10785536498E+00 -0.72752584055E-01  0.13180764124E+00  0.19993158349E-01 0.  0.
         14    1    1    2    0    0  0.19893983039E-01 -0.48511688287E-02  0.11758907353E-01  0.23613053642E-01  0.00000000000E+00 0. -1.
     999901    1    3    3    0    0 -0.26808436435E-01 -0.10300419615E+00  0.60993676702E-01  0.88850930512E+00  0.88000000000E+00 0. -1.
        -11    1    4    4    0    0  0.12817711389E-01  0.47884904162E-01 -0.35257994006E-01  0.60832927221E-01  0.51100000000E-03 0. -1.
         11    1    4    4    0    0 -0.59032579927E-02  0.59970460819E-01 -0.37494590049E-01  0.70974714017E-01  0.51100000000E-03 0.  1.
</event>
<event>
 8    1  0.1072332E+005  0.1043930E+01  0.7957747E-01            NaN
         13   -1    0    0    0    0  0.00000000000E+00  0.00000000000E+00  0.74505805969E-08  0.10566000000E+00  0.10566000000E+00 0.  1.
     999900   -1    0    0    0    0 -0.00000000000E+00 -0.00000000000E+00 -0.74505805969E-08  0.93827000000E+00  0.93827000000E+00 0. -1.
     999902    2    1    2    0    0  0.21973620332E-01 -0.60278476016E-02  0.35581731493E-02  0.10208684404E+01  0.10206079252E+01 0.  0.
     999903    2    3    3    0    0  0.44796511417E-01 -0.41694540226E-01  0.11613063975E+00  0.13268740162E+00  0.19350941615E-01 0.  0.
         14    1    1    2    0    0 -0.21973620332E-01  0.60278476016E-02 -0.35581731493E-02  0.23061559647E-01  0.00000000000E+00 0. -1.
     999901    1    3    3    0    0 -0.22822891085E-01  0.35666692624E-01 -0.11257246660E+00  0.88818103873E+00  0.88000000000E+00 0. -1.
        -11    1    4    4    0    0  0.11862262849E-01 -0.23869939036E-01  0.45204708655E-01  0.52480606657E-01  0.51100000000E-03 0. -1.
         11    1    4    4    0    0  0.32934248569E-01 -0.17824601190E-01  0.70925931094E-01  0.80206794967E-01  0.51100000000E-03 0.  1.
</event>
<event>
 8    1  0.1072332E+005  0.1043930E+01  0.7957747E-01            NaN
         13   -1    0    0    0    0  0.00000000000E+00  0.00000000000E+00  0.74505805969E-08  0.10566000000E+00  0.10566000000E+00 0. -1.
     999900   -1    0    0    0    0 -0.00000000000E+00 -0.00000000000E+00 -0.74505805969E-08  0.93827000000E+00  0.93827000000E+00 0.  1.
     999902    2    1    2    0    0 -0.20922926338E-02 -0.17955155202E-01 -0.16229211778E-01  0.10196369433E+01  0.10193475088E+01 0.  0.
     999903    2    3    3    0    0 -0.86730701107E-01 -0.56134914133E-01  0.75143562836E-01  0.13004696019E+00  0.24337496185E-01 0.  0.
         14    1    1    2    0    0  0.20922926338E-02  0.17955155202E-01  0.16229211778E-01  0.24293056657E-01  0.00000000000E+00 0. -1.
     999901    1    3    3    0    0  0.84638408473E-01  0.38179758931E-01 -0.91372774613E-01  0.88958998315E+00  0.88000000000E+00 0.  1.
        -11    1    4    4    0    0 -0.26674337729E-01 -0.20588833239E-01  0.38696037170E-01  0.51313397481E-01  0.51100000000E-03 0. -1.
         11    1    4    4    0    0 -0.60056363378E-01 -0.35546080894E-01  0.36447525666E-01  0.78733562712E-01  0.51100000000E-03 0.  1.
</event>
<event>
 8    1  0.1072332E+005  0.1043930E+01  0.7957747E-01            NaN
         13   -1    0    0    0    0  0.00000000000E+00  0.00000000000E+00  0.74505805969E-08  0.10566000000E+00  0.10566000000E+00 0.  1.
     999900   -1    0    0    0    0 -0.00000000000E+00 -0.00000000000E+00 -0.74505805969E-08  0.93827000000E+00  0.93827000000E+00 0.  1.
     999902    2    1    2    0    0 -0.49112253693E-02  0.15305480966E-01  0.19203881860E-01  0.10188866983E+01  0.10185788811E+01 0.  0.
     999903    2    3    3    0    0  0.36167395534E-01  0.11073742360E+00 -0.52451428752E-01  0.12988209070E+00  0.23395461562E-01 0.  0.
         14    1    1    2    0    0  0.49112253693E-02 -0.15305480966E-01 -0.19203881860E-01  0.25043301713E-01  0.00000000000E+00 0. -1.
     999901    1    3    3    0    0 -0.41078620904E-01 -0.95431942633E-01  0.71655310612E-01  0.88900460759E+00  0.88000000000E+00 0. -1.
        -11    1    4    4    0    0  0.34452822374E-01  0.78823490575E-01 -0.31249497658E-01  0.91525580363E-01  0.51100000000E-03 0. -1.
         11    1    4    4    0    0  0.17145731603E-02  0.31913933023E-01 -0.21201931094E-01  0.38356510337E-01  0.51100000000E-03 0.  1.
</event>
<event>
 8    1  0.1072332E+005  0.1043930E+01  0.7957747E-01            NaN
         13   -1    0    0    0    0  0.00000000000E+00  0.00000000000E+00  0.74505805969E-08  0.10566000000E+00  0.10566000000E+00 0. -1.
     999900   -1    0    0    0    0 -0.00000000000E+00 -0.00000000000E+00 -0.74505805969E-08  0.93827000000E+00  0.93827000000E+00 0.  1.
     999902    2    1    2    0    0  0.13522330867E-01 -0.14790289807E-01  0.13416133136E-01  0.10198136418E+01  0.10195284524E+01 0.  0.
     999903    2    3    3    0    0  0.10019185664E+00 -0.69778573781E-01  0.49120835989E-01  0.13312872376E+00  0.20073441804E-01 0.  0.
         14    1    1    2    0    0 -0.13522330867E-01  0.14790289807E-01 -0.13416133136E-01  0.24116358203E-01  0.00000000000E+00 0.  1.
     999901    1    3    3    0    0 -0.86669525770E-01  0.54988283973E-01 -0.35704702853E-01  0.88668491804E+00  0.88000000000E+00 0. -1.
        -11    1    4    4    0    0  0.67802879264E-01 -0.41452397869E-01  0.22766966081E-01  0.82668782446E-01  0.51100000000E-03 0.  1.
         11    1    4    4    0    0  0.32388977374E-01 -0.28326175912E-01  0.26353869908E-01  0.50459941312E-01  0.51100000000E-03 0. -1.
</event>
<event>
 8    1  0.1072332E+005  0.1043930E+01  0.7957747E-01            NaN
         13   -1    0    0    0    0  0.00000000000E+00  0.00000000000E+00  0.74505805969E-08  0.10566000000E+00  0.10566000000E+00 0. -1.
     999900   -1    0    0    0    0 -0.00000000000E+00 -0.00000000000E+00 -0.74505805969E-08  0.93827000000E+00  0.93827000000E+00 0.  1.
     999902    2    1    2    0    0  0.14592901107E-01  0.95862796099E-02 -0.15838274886E-01  0.10203567000E+01  0.10200843567E+01 0.  0.
     999903    2    3    3    0    0 -0.51610554860E-01  0.10084735903E+00  0.60892421992E-01  0.12985174102E+00  0.17881509823E-01 0.  0.
         14    1    1    2    0    0 -0.14592901107E-01 -0.95862796099E-02  0.15838274886E-01  0.23573299957E-01  0.00000000000E+00 0. -1.
     999901    1    3    3    0    0  0.66203455967E-01 -0.91261079422E-01 -0.76730696879E-01  0.89050495902E+00  0.88000000000E+00 0.  1.
        -11    1    4    4    0    0 -0.28411511128E-01  0.72598546545E-01  0.44715744517E-01  0.89875034652E-01  0.51100000000E-03 0. -1.
         11    1    4    4    0    0 -0.23199043732E-01  0.28248812486E-01  0.16176677476E-01  0.39976706369E-01  0.51100000000E-03 0.  1.
</event>
<event>
 8    1  0.1072332E+005  0.1043930E+01  0.7957747E-01            NaN
         13   -1    0    0    0    0  0.00000000000E+00  0.00000000000E+00  0.74505805969E-08  0.10566000000E+00  0.10566000000E+00 0.  1.
     999900   -1    0    0    0    0 -0.00000000000E+00 -0.00000000000E+00 -0.74505805969E-08  0.93827000000E+00  0.93827000000E+00 0. -1.
     999902    2    1    2    0    0 -0.26399030277E-02  0.16005964560E-01 -0.16569939063E-01  0.10207411477E+01  0.10204777155E+01 0.  0.
     999903    2    3    3    0    0  0.48146625422E-01  0.33673511559E-01  0.11385818025E+00  0.12950441823E+00  0.18860175281E-01 0.  0.
         14    1    1    2    0    0  0.26399030277E-02 -0.16005964560E-01  0.16569939063E-01  0.23188852279E-01  0.00000000000E+00 0.  1.
     999901    1    3    3    0    0 -0.50786528450E-01 -0.17667546999E-01 -0.13042811931E+00  0.89123672949E+00  0.88000000000E+00 0. -1.
        -11    1    4    4    0    0  0.30830073846E-01  0.20912383403E-01  0.89833518471E-01  0.97252986560E-01  0.51100000000E-03 0. -1.
         11    1    4    4    0    0  0.17316551576E-01  0.12761128156E-01  0.24024661775E-01  0.32251431669E-01  0.51100000000E-03 0.  1.
</event>
<event>
 8    1  0.1072332E+005  0.1043930E+01  0.7957747E-01            NaN
         13   -1    0    0    0    0  0.00000000000E+00  0.00000000000E+00  0.74505805969E-08  0.10566000000E+00  0.10566000000E+00 0.  1.
     999900   -1    0    0    0    0 -0.00000000000E+00 -0.00000000000E+00 -0.74505805969E-08  0.93827000000E+00  0.93827000000E+00 0. -1.
     999902    2    1    2    0    0  0.18120328996E-01 -0.97306594759E-02  0.10209056658E-01  0.10209679249E+01  0.10207096780E+01 0.  0.
     999903    2    3    3    0    0  0.76817598423E-01  0.31479091991E-02 -0.10434835239E+00  0.13151043463E+00  0.22261244572E-01 0.  0.
         14    1    1    2    0    0 -0.18120328996E-01  0.97306594759E-02 -0.10209056658E-01  0.22962075137E-01  0.00000000000E+00 0. -1.
     999901    1    3    3    0    0 -0.58697269427E-01 -0.12878568675E-01  0.11455740905E+00  0.88945749024E+00  0.88000000000E+00 0.  1.
        -11    1    4    4    0    0  0.64032170192E-01 -0.55834916854E-02 -0.88162078631E-01  0.10910594589E+00  0.51100000000E-03 0.  1.
         11    1    4    4    0    0  0.12785428231E-01  0.87314008844E-02 -0.16186273757E-01  0.22404488737E-01  0.51100000000E-03 0. -1.
</event>
<event>
 8    1  0.1072332E+005  0.1043930E+01  0.7957747E-01            NaN
         13   -1    0    0    0    0  0.00000000000E+00  0.00000000000E+00  0.74505805969E-08  0.10566000000E+00  0.10566000000E+00 0.  1.
     999900   -1    0    0    0    0 -0.00000000000E+00 -0.00000000000E+00 -0.74505805969E-08  0.93827000000E+00  0.93827000000E+00 0.  1.
     999902    2    1    2    0    0  0.15488285322E-01 -0.17584852055E-01  0.59799669934E-02  0.10197458314E+01  0.10194590167E+01 0.  0.
     999903    2    3    3    0    0  0.96718234461E-01 -0.87905345949E-01  0.15016902792E-01  0.13316535415E+00  0.20633406211E-01 0.  0.
         14    1    1    2    0    0 -0.15488285322E-01  0.17584852055E-01 -0.59799669934E-02  0.24184168566E-01  0.00000000000E+00 0. -1.
     999901    1    3    3    0    0 -0.81229949139E-01  0.70320493894E-01 -0.90369357984E-02  0.88658047729E+00  0.88000000000E+00 0. -1.
        -11    1    4    4    0    0  0.85088888321E-01 -0.69887047454E-01  0.17775913665E-01  0.11153726976E+00  0.51100000000E-03 0. -1.
         11    1    4    4    0    0  0.11629346140E-01 -0.18018298495E-01 -0.27590108733E-02  0.21628084388E-01  0.51100000000E-03 0.  1.
</event>
<event>
 8    1  0.1072332E+005  0.1043930E+01  0.7957747E-01            NaN
         13   -1    0    0    0    0  0.00000000000E+00  0.00000000000E+00  0.74505805969E-08  0.10566000000E+00  0.10566000000E+00 0. -1.
     999900   -1    0    0    0    0 -0.00000000000E+00 -0.00000000000E+00 -0.74505805969E-08  0.93827000000E+00  0.93827000000E+00 0.  1.
     999902    2    1    2    0    0 -0.23982280465E-02  0.22230520000E-01  0.76020102094E-02  0.10203135211E+01  0.10200401675E+01 0.  0.
     999903    2    3    3    0    0  0.77372517101E-01  0.10473055108E+00 -0.14436784248E-01  0.13258871273E+00  0.20404687450E-01 0.  0.
         14    1    1    2    0    0  0.23982280465E-02 -0.22230520000E-01 -0.76020102094E-02  0.23616478918E-01  0.00000000000E+00 0. -1.
     999901    1    3    3    0    0 -0.79770745148E-01 -0.82500031084E-01  0.22038794457E-01  0.88772480836E+00  0.88000000000E+00 0. -1.
        -11    1    4    4    0    0  0.40565570476E-01  0.61854704297E-01 -0.17437617960E-01  0.75999352582E-01  0.51100000000E-03 0.  1.
         11    1    4    4    0    0  0.36806946625E-01  0.42875846787E-01  0.30008337118E-02  0.56589360144E-01  0.51100000000E-03 0. -1.
</event>
<event>
 8    1  0.1072332E+005  0.1043930E+01  0.7957747E-01            NaN
         13   -1    0    0    0    0  0.00000000000E+00  0.00000000000E+00  0.74505805969E-08  0.10566000000E+00  0.10566000000E+00 0. -1.
     999900   -1    0    0    0    0 -0.00000000000E+00 -0.00000000000E+00 -0.74505805969E-08  0.93827000000E+00  0.93827000000E+00 0. -1.
     999902    2    1    2    0    0 -0.10244723184E-01  0.28547672823E-03 -0.44694949424E-03  0.10336715589E+01  0.10336206538E+01 0.  0.
     999903    2    3    3    0    0  0.12144316263E-01  0.39990405916E-01 -0.13449690974E+00  0.14235391499E+00  0.20700275389E-01 0.  0.
         14    1    1    2    0    0  0.10244723184E-01 -0.28547672823E-03  0.44694949424E-03  0.10258441106E-01  0.00000000000E+00 0.  1.
     999901    1    3    3    0    0 -0.22389039447E-01 -0.39704929188E-01  0.13404996025E+00  0.89131764390E+00  0.88000000000E+00 0.  1.
        -11    1    4    4    0    0 -0.55716300908E-02  0.14202662532E-01 -0.40188895899E-01  0.42990314717E-01  0.51100000000E-03 0.  1.
         11    1    4    4    0    0  0.17715946354E-01  0.25787743384E-01 -0.94308013841E-01  0.99363600276E-01  0.51100000000E-03 0. -1.
</event>
<event>
 8    1  0.1072332E+005  0.1043930E+01  0.7957747E-01            NaN
         13   -1    0    0    0    0  0.00000000000E+00  0.00000000000E+00  0.74505805969E-08  0.10566000000E+00  0.10566000000E+00 0.  1.
     999900   -1    0    0    0    0 -0.00000000000E+00 -0.00000000000E+00 -0.74505805969E-08  0.93827000000E+00  0.93827000000E+00 0.  1.
     999902    2    1    2    0    0 -0.35033651567E-02  0.77138146660E-02  0.21948003581E-01  0.10204036028E+01  0.10201323548E+01 0.  0.
     999903    2    3    3    0    0  0.99075577937E-01 -0.58701241477E-01  0.59303292581E-01  0.13117426406E+00  0.20688188594E-01 0.  0.
         14    1    1    2    0    0  0.35033651567E-02 -0.77138146660E-02 -0.21948003581E-01  0.23526397202E-01  0.00000000000E+00 0. -1.
     999901    1    3    3    0    0 -0.10257894309E+00  0.66415056143E-01 -0.37355289000E-01  0.88922933873E+00  0.88000000000E+00 0.  1.
        -11    1    4    4    0    0  0.76528105833E-01 -0.47072013797E-01  0.55254897537E-01  0.10547838778E+00  0.51100000000E-03 0.  1.
         11    1    4    4    0    0  0.22547472104E-01 -0.11629227680E-01  0.40483950442E-02  0.25695876287E-01  0.51100000000E-03 0. -1.
</event>
<event>
 8    1  0.1072332E+005  0.1043930E+01  0.7957747E-01            NaN
         13   -1    0    0    0    0  0.00000000000E+00  0.00000000000E+00  0.74505805969E-08  0.10566000000E+00  0.10566000000E+00 0.  1.
     999900   -1    0    0    0    0 -0.00000000000E+00 -0.00000000000E+00 -0.74505805969E-08  0.93827000000E+00  0.93827000000E+00 0.  1.
     999902    2    1    2    0    0  0.55954002066E-03  0.19958364492E-01  0.13269907011E-01  0.10199562679E+01  0.10196744817E+01 0.  0.
     999903    2    3    3    0    0 -0.28029263389E-01 -0.12200520224E+00 -0.14383091785E-01  0.12769192238E+00  0.20674736556E-01 0.  0.
         14    1    1    2    0    0 -0.55954002066E-03 -0.19958364492E-01 -0.13269907011E-01  0.23973732090E-01  0.00000000000E+00 0. -1.
     999901    1    3    3    0    0  0.28588803410E-01  0.14196356673E+00  0.27652998796E-01  0.89226434553E+00  0.88000000000E+00 0. -1.
        -11    1    4    4    0    0 -0.35501521908E-02 -0.94209102490E-02  0.43210191571E-02  0.10967655085E-01  0.51100000000E-03 0. -1.
         11    1    4    4    0    0 -0.24479111199E-01 -0.11258429199E+00 -0.18704110942E-01  0.11672426730E+00  0.51100000000E-03 0.  1.
</event>
<event>
 8    1  0.1072332E+005  0.1043930E+01  0.7957747E-01            NaN
         13   -1    0    0    0    0  0.00000000000E+00  0.00000000000E+00  0.74505805969E-08  0.10566000000E+00  0.10566000000E+00 0. -1.
     999900   -1    0    0    0    0 -0.00000000000E+00 -0.00000000000E+00 -0.74505805969E-08  0.93827000000E+00  0.93827000000E+00 0. -1.
     999902    2    1    2    0    0  0.15268713825E-01 -0.18345989842E-01 -0.35910910710E-03  0.10200587218E+01  0.10197793673E+01 0.  0.
     999903    2    3    3    0    0  0.36725204242E-02 -0.12645558371E+00 -0.34768410002E-01  0.13269963099E+00  0.19895921029E-01 0.  0.
         14    1    1    2    0    0 -0.15268713825E-01  0.18345989842E-01  0.35910910710E-03  0.23871278234E-01  0.00000000000E+00 0. -1.
     999901    1    3    3    0    0  0.11596193401E-01  0.10810959387E+00  0.34409300894E-01  0.88735909077E+00  0.88000000000E+00 0. -1.
        -11    1    4    4    0    0  0.34381415478E-02 -0.21124785366E-01  0.10749252353E-02  0.21435810209E-01  0.51100000000E-03 0. -1.
         11    1    4    4    0    0  0.23437887641E-03 -0.10533079835E+00 -0.35843335237E-01  0.11126382079E+00  0.51100000000E-03 0.  1.
</event>
<event>
 8    1  0.1072332E+005  0.1043930E+01  0.7957747E-01            NaN
         13   -1    0    0    0    0  0.00000000000E+00  0.00000000000E+00  0.74505805969E-08  0.10566000000E+00  0.10566000000E+00 0.  1.
     999900   -1    0    0    0    0 -0.00000000000E+00 -0.00000000000E+00 -0.74505805969E-08  0.93827000000E+00  0.93827000000E+00 0. -1.
     999902    2    1    2    0    0 -0.20213235780E-01 -0.11736334370E-01 -0.13064926311E-01  0.10171529810E+01  0.10168004613E+01 0.  0.
     999903    2    3    3    0    0  0.11382723871E+00 -0.48812510109E-01 -0.15241764777E-01  0.12622861262E+00  0.19027607192E-01 0.  0.
         14    1    1    2    0    0  0.20213235780E-01  0.11736334370E-01  0.13064926311E-01  0.26777018965E-01  0.00000000000E+00 0.  1.
     999901    1    3    3    0    0 -0.13404047449E+00  0.37076175739E-01  0.21768384658E-02  0.89092436841E+00  0.88000000000E+00 0.  1.
        -11    1    4    4    0    0  0.63176883507E-01 -0.17259329085E-01 -0.50570764387E-02  0.65688950313E-01  0.51100000000E-03 0. -1.
         11    1    4    4    0    0  0.50650355201E-01 -0.31553181024E-01 -0.10184688338E-01  0.60539662307E-01  0.51100000000E-03 0.  1.
</event>
<event>
 8    1  0.1072332E+005  0.1043930E+01  0.7957747E-01            NaN
         13   -1    0    0    0    0  0.00000000000E+00  0.00000000000E+00  0.74505805969E-08  0.10566000000E+00  0.10566000000E+00 0. -1.
     999900   -1    0    0    0    0 -0.00000000000E+00 -0.00000000000E+00 -0.74505805969E-08  0.93827000000E+00  0.93827000000E+00 0. -1.
     999902    2    1    2    0    0  0.12123055625E-01 -0.39596157246E-02  0.20145397185E-01  0.10200870962E+01  0.10198084133E+01 0.  0.
     999903    2    3    3    0    0 -0.92369399307E-01  0.85456738599E-01  0.22936422214E-01  0.12940098572E+00  0.19585084677E-01 0.  0.
         14    1    1    2    0    0 -0.12123055625E-01  0.39596157246E-02 -0.20145397185E-01  0.23842903810E-01  0.00000000000E+00 0. -1.
     999901    1    3    3    0    0  0.10449245493E+00 -0.89416354323E-01 -0.27910250297E-02  0.89068611047E+00  0.88000000000E+00 0. -1.
        -11    1    4    4    0    0 -0.38557334082E-01  0.27567743668E-01  0.11542399600E-02  0.47415629209E-01  0.51100000000E-03 0. -1.
         11    1    4    4    0    0 -0.53812065225E-01  0.57888994931E-01  0.21782182254E-01  0.81985356514E-01  0.51100000000E-03 0.  1.
</event>
<event>
 8    1  0.1072332E+005  0.1043930E+01  0.7957747E-01            NaN
         13   -1    0    0    0    0  0.00000000000E+00  0.00000000000E+00  0.74505805969E-08  0.10566000000E+00  0.10566000000E+00 0. -1.
     999900   -1    0    0    0    0 -0.00000000000E+00 -0.00000000000E+00 -0.74505805969E-08  0.93827000000E+00  0.93827000000E+00 0. -1.
     999902    2    1    2    0    0  0.16833857775E-01  0.13646287767E-01  0.90239272131E-02  0.10204559462E+01  0.10201859179E+01 0.  0.
     999903    2    3    3    0    0 -0.40293197322E-01  0.54609930924E-01 -0.10881263474E+00  0.12982303880E+00  0.20200139086E-01 0.  0.
         14    1    1    2    0    0 -0.16833857775E-01 -0.13646287767E-01 -0.90239272131E-02  0.23474053757E-01  0.00000000000E+00 0.  1.
     999901    1    3    3    0    0  0.57127055097E-01 -0.40963643157E-01  0.11783656195E+00  0.89063290744E+00  0.88000000000E+00 0.  1.
        -11    1    4    4    0    0 -0.35260392035E-01  0.41903336446E-01 -0.71376805822E-01  0.89967185029E-01  0.51100000000E-03 0. -1.
         11    1    4    4    0    0 -0.50328052875E-02  0.12706594479E-01 -0.37435828917E-01  0.39855853773E-01  0.51100000000E-03 0.  1.
</event>
<event>
 8    1  0.1072332E+005  0.1043930E+01  0.7957747E-01            NaN
         13   -1    0    0    0    0  0.00000000000E+00  0.00000000000E+00  0.74505805969E-08  0.10566000000E+00  0.10566000000E+00 0. -1.
     999900   -1    0    0    0    0 -0.00000000000E+00 -0.00000000000E+00 -0.74505805969E-08  0.93827000000E+00  0.93827000000E+00 0. -1.
     999902    2    1    2    0    0 -0.30834393502E-02 -0.23654872730E-01 -0.10292020324E-03  0.10200747868E+01  0.10197958127E+01 0.  0.
     999903    2    3    3    0    0  0.79640263586E-01 -0.92181874555E-01  0.47407866677E-01  0.13227050893E+00  0.20196834663E-01 0.  0.
         14    1    1    2    0    0  0.30834393502E-02  0.23654872730E-01  0.10292020324E-03  0.23855213154E-01  0.00000000000E+00 0.  1.
     999901    1    3    3    0    0 -0.82723702936E-01  0.68527001826E-01 -0.47510786881E-01  0.88780427791E+00  0.88000000000E+00 0.  1.
        -11    1    4    4    0    0  0.58095995925E-01 -0.52648363504E-01  0.28250983019E-01  0.83338910988E-01  0.51100000000E-03 0. -1.
         11    1    4    4    0    0  0.21544267661E-01 -0.39533511052E-01  0.19156883659E-01  0.48931597947E-01  0.51100000000E-03 0.  1.
</event>
<event>
 8    1  0.1072332E+005  0.1043930E+01  0.7957747E-01            NaN
         13   -1    0    0    0    0  0.00000000000E+00  0.00000000000E+00  0.74505805969E-08  0.10566000000E+00  0.10566000000E+00 0.  1.
     999900   -1    0    0    0    0 -0.00000000000E+00 -0.00000000000E+00 -0.74505805969E-08  0.93827000000E+00  0.93827000000E+00 0.  1.
     999902    2    1    2    0    0 -0.18730850210E-02 -0.20254494331E-01  0.12530101074E-01  0.10200394910E+01  0.10197596809E+01 0.  0.
     999903    2    3    3    0    0 -0.10885330666E+00 -0.43077402113E-01  0.58155281777E-01  0.13209393519E+00  0.19028031197E-01 0.  0.
         14    1    1    2    0    0  0.18730850210E-02  0.20254494331E-01 -0.12530101074E-01  0.23890509016E-01  0.00000000000E+00 0.  1.
     999901    1    3    3    0    0  0.10698022164E+00  0.22822907781E-01 -0.45625180703E-01  0.88794555580E+00  0.88000000000E+00 0.  1.
        -11    1    4    4    0    0 -0.76621247450E-01 -0.37590010114E-01  0.36196616899E-01  0.92705342980E-01  0.51100000000E-03 0.  1.
         11    1    4    4    0    0 -0.32232059212E-01 -0.54873919989E-02  0.21958664878E-01  0.39388592209E-01  0.51100000000E-03 0. -1.
</event>
<event>
 8    1  0.1072332E+005  0.1043930E+01  0.7957747E-01            NaN
         13   -1    0    0    0    0  0.00000000000E+00  0.00000000000E+00  0.74505805969E-08  0.10566000000E+00  0.10566000000E+00 0. -1.
     999900   -1    0    0    0    0 -0.00000000000E+00 -0.00000000000E+00 -0.74505805969E-08  0.93827000000E+00  0.93827000000E+00 0.  1.
     999902    2    1    2    0    0 -0.40347623135E-02 -0.22744894252E-01  0.38617939501E-03  0.10208267826E+01  0.10205653146E+01 0.  0.
     999903    2    3    3    0    0 -0.93051447124E-02  0.12190786787E+00  0.33496972513E-01  0.12838713578E+00  0.20324750919E-01 0.  0.
         14    1    1    2    0    0  0.40347623135E-02  0.22744894252E-01 -0.38617939501E-03  0.23103217438E-01  0.00000000000E+00 0.  1.
     999901    1    3    3    0    0  0.52703823989E-02 -0.14465276212E+00 -0.33110793118E-01  0.89243964678E+00  0.88000000000E+00 0. -1.
        -11    1    4    4    0    0 -0.12638598239E-01  0.93378086417E-01  0.18686855693E-01  0.96065919478E-01  0.51100000000E-03 0.  1.
         11    1    4    4    0    0  0.33334535262E-02  0.28529781455E-01  0.14810116820E-01  0.32321216307E-01  0.51100000000E-03 0. -1.
</event>
<event>
 8    1  0.1072332E+005  0.1043930E+01  0.7957747E-01            NaN
         13   -1    0    0    0    0  0.00000000000E+00  0.00000000000E+00  0.74505805969E-08  0.10566000000E+00  0.10566000000E+00 0. -1.
     999900   -1    0    0    0    0 -0.00000000000E+00 -0.00000000000E+00 -0.74505805969E-08  0.93827000000E+00  0.93827000000E+00 0. -1.
     999902    2    1    2    0    0  0.23199008430E-01 -0.26996426927E-03 -0.16312827760E-02  0.10206721421E+01  0.10204071215E+01 0.  0.
     999903    2    3    3    0    0  0.76008263167E-01 -0.76326150049E-01  0.74511531028E-01  0.13254428590E+00  0.20324424156E-01 0.  0.
         14    1    1    2    0    0 -0.23199008430E-01  0.26996426927E-03  0.16312827760E-02  0.23257857948E-01  0.00000000000E+00 0.  1.
     999901    1    3    3    0    0 -0.52809254737E-01  0.76056185780E-01 -0.76142813804E-01  0.88812785615E+00  0.88000000000E+00 0.  1.
        -11    1    4    4    0    0  0.52003368247E-01 -0.39055012925E-01  0.39932657950E-01  0.76318560230E-01  0.51100000000E-03 0.  1.
         11    1    4    4    0    0  0.24004894921E-01 -0.37271137124E-01  0.34578873078E-01  0.56225725669E-01  0.51100000000E-03 0. -1.
</event>
<event>
 8    1  0.1481639E+005  0.1043930E+01  0.7957747E-01            NaN
         13   -1    0    0    0    0  0.00000000000E+00  0.00000000000E+00  0.74505805969E-08  0.10566000000E+00  0.10566000000E+00 0. -1.
     999900   -1    0    0    0    0 -0.00000000000E+00 -0.00000000000E+00 -0.74505805969E-08  0.93827000000E+00  0.93827000000E+00 0.  1.
     999902    2    1    2    0    0  0.17821031063E-01 -0.13333678338E-01  0.22326695468E-01  0.10124044951E+01  0.10119135360E+01 0.  0.
     999903    2    3    3    0    0  0.30433675632E-01  0.14256818203E-01 -0.11538614810E+00  0.12117773298E+00  0.15511747798E-01 0.  0.
         14    1    1    2    0    0 -0.17821031063E-01  0.13333678338E-01 -0.22326695468E-01  0.31525504860E-01  0.00000000000E+00 0.  1.
     999901    1    3    3    0    0 -0.12612644569E-01 -0.27590496541E-01  0.13771284357E+00  0.89122676216E+00  0.88000000000E+00 0. -1.
        -11    1    4    4    0    0  0.14741361470E-01  0.15179055854E-01 -0.70993277601E-01  0.74081158604E-01  0.51100000000E-03 0.  1.
         11    1    4    4    0    0  0.15692314162E-01 -0.92223765137E-03 -0.44392870499E-01  0.47096574378E-01  0.51100000000E-03 0. -1.
</event>
<event>
 8    1  0.1072332E+005  0.1043930E+01  0.7957747E-01            NaN
         13   -1    0    0    0    0  0.00000000000E+00  0.00000000000E+00  0.74505805969E-08  0.10566000000E+00  0.10566000000E+00 0.  1.
     999900   -1    0    0    0    0 -0.00000000000E+00 -0.00000000000E+00 -0.74505805969E-08  0.93827000000E+00  0.93827000000E+00 0.  1.
     999902    2    1    2    0    0 -0.58244611865E-02 -0.20174418766E-01  0.12555517953E-01  0.10194642576E+01  0.10191706432E+01 0.  0.
     999903    2    3    3    0    0 -0.12699533933E+00 -0.24073014657E-01 -0.73480047715E-02  0.13092966008E+00  0.19525789823E-01 0.  0.
         14    1    1    2    0    0  0.58244611865E-02  0.20174418766E-01 -0.12555517953E-01  0.24465742411E-01  0.00000000000E+00 0. -1.
     999901    1    3    3    0    0  0.12117087814E+00  0.38985958918E-02  0.19903522724E-01  0.88853459751E+00  0.88000000000E+00 0. -1.
        -11    1    4    4    0    0 -0.95116955091E-01 -0.10492612445E-01 -0.10104885176E-02  0.95700638815E-01  0.51100000000E-03 0. -1.
         11    1    4    4    0    0 -0.31878384237E-01 -0.13580402212E-01 -0.63375162539E-02  0.35229021262E-01  0.51100000000E-03 0.  1.
</event>
<event>
 8    1  0.1072332E+005  0.1043930E+01  0.7957747E-01            NaN
         13   -1    0    0    0    0  0.00000000000E+00  0.00000000000E+00  0.74505805969E-08  0.10566000000E+00  0.10566000000E+00 0.  1.
     999900   -1    0    0    0    0 -0.00000000000E+00 -0.00000000000E+00 -0.74505805969E-08  0.93827000000E+00  0.93827000000E+00 0.  1.
     999902    2    1    2    0    0  0.10382296835E-01  0.19164788398E-01  0.10325005485E-01  0.10198118131E+01  0.10195265799E+01 0.  0.
     999903    2    3    3    0    0  0.21332871976E-01  0.12616175250E+00 -0.27787517594E-01  0.13244445407E+00  0.19937604133E-01 0.  0.
         14    1    1    2    0    0 -0.10382296835E-01 -0.19164788398E-01 -0.10325005485E-01  0.24118186917E-01  0.00000000000E+00 0. -1.
     999901    1    3    3    0    0 -0.10950575141E-01 -0.10699696411E+00  0.38112523079E-01  0.88736735901E+00  0.88000000000E+00 0. -1.
        -11    1    4    4    0    0  0.13471237590E-01  0.75391300222E-01 -0.66061603274E-02  0.76871482792E-01  0.51100000000E-03 0. -1.
         11    1    4    4    0    0  0.78616343860E-02  0.50770452282E-01 -0.21181357267E-01  0.55572971279E-01  0.51100000000E-03 0.  1.
</event>
<event>
 8    1  0.1072332E+005  0.1043930E+01  0.7957747E-01            NaN
         13   -1    0    0    0    0  0.00000000000E+00  0.00000000000E+00  0.74505805969E-08  0.10566000000E+00  0.10566000000E+00 0. -1.
     999900   -1    0    0    0    0 -0.00000000000E+00 -0.00000000000E+00 -0.74505805969E-08  0.93827000000E+00  0.93827000000E+00 0.  1.
     999902    2    1    2    0    0 -0.20632597038E-01 -0.76035546417E-02 -0.99410947931E-02  0.10197982063E+01  0.10195126473E+01 0.  0.
     999903    2    3    3    0    0 -0.46697619953E-02  0.59012393592E-01  0.11253010966E+00  0.12867998033E+00  0.19779850389E-01 0.  0.
         14    1    1    2    0    0  0.20632597038E-01  0.76035546417E-02  0.99410947931E-02  0.24131793746E-01  0.00000000000E+00 0.  1.
     999901    1    3    3    0    0 -0.15962835043E-01 -0.66615948233E-01 -0.12247120446E+00  0.89111822593E+00  0.88000000000E+00 0.  1.
        -11    1    4    4    0    0  0.16640765615E-02  0.23212325952E-01  0.26440095968E-01  0.35226708939E-01  0.51100000000E-03 0. -1.
         11    1    4    4    0    0 -0.63338385569E-02  0.35800067640E-01  0.86090013694E-01  0.93453271386E-01  0.51100000000E-03 0.  1.
</event>
<event>
 8    1  0.1072332E+005  0.1043930E+01  0.7957747E-01            NaN
         13   -1    0    0    0    0  0.00000000000E+00  0.00000000000E+00  0.74505805969E-08  0.10566000000E+00  0.10566000000E+00 0.  1.
     999900   -1    0    0    0    0 -0.00000000000E+00 -0.00000000000E+00 -0.74505805969E-08  0.93827000000E+00  0.93827000000E+00 0. -1.
     999902    2    1    2    0    0 -0.13002492301E-01 -0.10734503496E-01  0.16807927929E-01  0.10201224211E+01  0.10198445731E+01 0.  0.
     999903    2    3    3    0    0  0.55673233326E-01 -0.10802277759E+00  0.46618681857E-01  0.13160115259E+00  0.19419899022E-01 0.  0.
         14    1    1    2    0    0  0.13002492301E-01  0.10734503496E-01 -0.16807927929E-01  0.23807578890E-01  0.00000000000E+00 0. -1.
     999901    1    3    3    0    0 -0.68675725627E-01  0.97288274091E-01 -0.29810753928E-01  0.88852126852E+00  0.88000000000E+00 0. -1.
        -11    1    4    4    0    0  0.20933815352E-01 -0.27102381040E-01  0.66376549123E-02  0.34886720496E-01  0.51100000000E-03 0. -1.
         11    1    4    4    0    0  0.34739417975E-01 -0.80920396546E-01  0.39981026945E-01  0.96714432093E-01  0.51100000000E-03 0.  1.
</event>
<event>
 8    1  0.1072332E+005  0.1043930E+01  0.7957747E-01            NaN
         13   -1    0    0    0    0  0.00000000000E+00  0.00000000000E+00  0.74505805969E-08  0.10566000000E+00  0.10566000000E+00 0.  1.
     999900   -1    0    0    0    0 -0.00000000000E+00 -0.00000000000E+00 -0.74505805969E-08  0.93827000000E+00  0.93827000000E+00 0.  1.
     999902    2    1    2    0    0  0.89878611022E-02 -0.61136102172E-02  0.20572789474E-01  0.10206620490E+01  0.10203967957E+01 0.  0.
     999903    2    3    3    0    0  0.11766157196E+00 -0.51350820452E-01  0.27311362083E-01  0.13279843955E+00  0.20207987775E-01 0.  0.
         14    1    1    2    0    0 -0.89878611022E-02  0.61136102172E-02 -0.20572789474E-01  0.23267951002E-01  0.00000000000E+00 0.  1.
     999901    1    3    3    0    0 -0.10867371086E+00  0.45237210235E-01 -0.67385726097E-02  0.88786360945E+00  0.88000000000E+00 0. -1.
        -11    1    4    4    0    0  0.71465734675E-01 -0.21681960038E-01  0.20680243902E-01  0.77494465819E-01  0.51100000000E-03 0. -1.
         11    1    4    4    0    0  0.46195837289E-01 -0.29668860414E-01  0.66311181810E-02  0.55303973731E-01  0.51100000000E-03 0.  1.
</event>
<event>
 8    1  0.1072332E+005  0.1043930E+01  0.7957747E-01            NaN
         13   -1    0    0    0    0  0.00000000000E+00  0.00000000000E+00  0.74505805969E-08  0.10566000000E+00  0.10566000000E+00 0. -1.
     999900   -1    0    0    0    0 -0.00000000000E+00 -0.00000000000E+00 -0.74505805969E-08  0.93827000000E+00  0.93827000000E+00 0.  1.
     999902    2    1    2    0    0 -0.20776779691E-01 -0.11590753142E-01  0.85348021936E-03  0.10201235185E+01  0.10198456964E+01 0.  0.
     999903    2    3    3    0    0  0.87058990491E-02  0.12626071557E+00  0.13756407756E-01  0.12881058731E+00  0.19630783856E-01 0.  0.
         14    1    1    2    0    0  0.20776779691E-01  0.11590753142E-01 -0.85348021936E-03  0.23806481496E-01  0.00000000000E+00 0.  1.
     999901    1    3    3    0    0 -0.29482678740E-01 -0.13785146871E+00 -0.12902927537E-01  0.89131293119E+00  0.88000000000E+00 0. -1.
        -11    1    4    4    0    0 -0.49306208940E-02  0.59142555796E-01  0.25177685336E-02  0.59403309739E-01  0.51100000000E-03 0.  1.
         11    1    4    4    0    0  0.13636519943E-01  0.67118159773E-01  0.11238639223E-01  0.69407277573E-01  0.51100000000E-03 0. -1.
</event>
<event>
 8    1  0.1072332E+005  0.1043930E+01  0.7957747E-01            NaN
         13   -1    0    0    0    0  0.00000000000E+00  0.00000000000E+00  0.74505805969E-08  0.10566000000E+00  0.10566000000E+00 0. -1.
     999900   -1    0    0    0    0 -0.00000000000E+00 -0.00000000000E+00 -0.74505805969E-08  0.93827000000E+00  0.93827000000E+00 0.  1.
     999902    2    1    2    0    0 -0.33344417067E-02  0.23315948259E-01 -0.35559776166E-02  0.10201099051E+01  0.10198317614E+01 0.  0.
     999903    2    3    3    0    0 -0.21711634703E-01 -0.11154563189E-01 -0.12709136952E+00  0.13062301343E+00  0.17729525366E-01 0.  0.
         14    1    1    2    0    0  0.33344417067E-02 -0.23315948259E-01  0.35559776166E-02  0.23820094910E-01  0.00000000000E+00 0.  1.
     999901    1    3    3    0    0  0.18377192996E-01  0.34470511448E-01  0.12353539190E+00  0.88948689166E+00  0.88000000000E+00 0. -1.
        -11    1    4    4    0    0 -0.20708093181E-01 -0.18640636223E-02 -0.85914661230E-01  0.88396210279E-01  0.51100000000E-03 0.  1.
         11    1    4    4    0    0 -0.10035415214E-02 -0.92904995663E-02 -0.41176708290E-01  0.42226803151E-01  0.51100000000E-03 0. -1.
</event>
<event>
 8    1  0.1072332E+005  0.1043930E+01  0.7957747E-01            NaN
         13   -1    0    0    0    0  0.00000000000E+00  0.00000000000E+00  0.74505805969E-08  0.10566000000E+00  0.10566000000E+00 0.  1.
     999900   -1    0    0    0    0 -0.00000000000E+00 -0.00000000000E+00 -0.74505805969E-08  0.93827000000E+00  0.93827000000E+00 0.  1.
     999902    2    1    2    0    0  0.18722765920E-01 -0.13730622933E-01  0.23582314097E-02  0.10205926217E+01  0.10203257648E+01 0.  0.
     999903    2    3    3    0    0  0.75662620134E-01 -0.94320963529E-01  0.52963685677E-01  0.13363272296E+00  0.20767195262E-01 0.  0.
         14    1    1    2    0    0 -0.18722765920E-01  0.13730622933E-01 -0.23582314097E-02  0.23337378285E-01  0.00000000000E+00 0. -1.
     999901    1    3    3    0    0 -0.56939854214E-01  0.80590340595E-01 -0.50605454268E-01  0.88695989875E+00  0.88000000000E+00 0. -1.
        -11    1    4    4    0    0  0.45294531350E-01 -0.46012969577E-01  0.36827542080E-01  0.74332475515E-01  0.51100000000E-03 0.  1.
         11    1    4    4    0    0  0.30368088784E-01 -0.48307993952E-01  0.16136143597E-01  0.59300247447E-01  0.51100000000E-03 0. -1.
</event>
<event>
 8    1  0.1072332E+005  0.1043930E+01  0.7957747E-01            NaN
         13   -1    0    0    0    0  0.00000000000E+00  0.00000000000E+00  0.74505805969E-08  0.10566000000E+00  0.10566000000E+00 0.  1.
     999900   -1    0    0    0    0 -0.00000000000E+00 -0.00000000000E+00 -0.74505805969E-08  0.93827000000E+00  0.93827000000E+00 0. -1.
     999902    2    1    2    0    0  0.18100863228E-01 -0.11103114053E-01  0.80655076818E-02  0.10212149652E+01  0.10209623070E+01 0.  0.
     999903    2    3    3    0    0 -0.47389874171E-01 -0.57412913503E-01 -0.10523351036E+00  0.13033321004E+00  0.19251262981E-01 0.  0.
         14    1    1    2    0    0 -0.18100863228E-01  0.11103114053E-01 -0.80655076818E-02  0.22715034788E-01  0.00000000000E+00 0.  1.
     999901    1    3    3    0    0  0.65490737399E-01  0.46309799450E-01  0.11329901804E+00  0.89088175517E+00  0.88000000000E+00 0. -1.
        -11    1    4    4    0    0 -0.10602820516E-01 -0.35414326671E-02 -0.20965632125E-01  0.23765108871E-01  0.51100000000E-03 0. -1.
         11    1    4    4    0    0 -0.36787053655E-01 -0.53871480836E-01 -0.84267878232E-01  0.10656810117E+00  0.51100000000E-03 0.  1.
</event>
<event>
 8    1  0.1072332E+005  0.1043930E+01  0.7957747E-01            NaN
         13   -1    0    0    0    0  0.00000000000E+00  0.00000000000E+00  0.74505805969E-08  0.10566000000E+00  0.10566000000E+00 0.  1.
     999900   -1    0    0    0    0 -0.00000000000E+00 -0.00000000000E+00 -0.74505805969E-08  0.93827000000E+00  0.93827000000E+00 0.  1.
     999902    2    1    2    0    0  0.21823466244E-02 -0.24197946208E-01 -0.19240738403E-02  0.10195577761E+01  0.10192664291E+01 0.  0.
     999903    2    3    3    0    0 -0.84147359304E-01  0.27931028021E-01  0.91412325618E-01  0.12889401713E+00  0.19913160822E-01 0.  0.
         14    1    1    2    0    0 -0.21823466244E-02  0.24197946208E-01  0.19240738403E-02  0.24372223895E-01  0.00000000000E+00 0.  1.
     999901    1    3    3    0    0  0.86329705929E-01 -0.52128974229E-01 -0.93336399458E-01  0.89066375897E+00  0.88000000000E+00 0.  1.
        -11    1    4    4    0    0 -0.71517767260E-01  0.23103791719E-01  0.65644884424E-01  0.99790220952E-01  0.51100000000E-03 0.  1.
         11    1    4    4    0    0 -0.12629592044E-01  0.48272363024E-02  0.25767441194E-01  0.29103796182E-01  0.51100000000E-03 0. -1.
</event>
<event>
 8    1  0.1072332E+005  0.1043930E+01  0.7957747E-01            NaN
         13   -1    0    0    0    0  0.00000000000E+00  0.00000000000E+00  0.74505805969E-08  0.10566000000E+00  0.10566000000E+00 0. -1.
     999900   -1    0    0    0    0 -0.00000000000E+00 -0.00000000000E+00 -0.74505805969E-08  0.93827000000E+00  0.93827000000E+00 0.  1.
     999902    2    1    2    0    0 -0.14099705392E-01  0.48420086006E-02 -0.16106396963E-01  0.10219831833E+01  0.10217475051E+01 0.  0.
     999903    2    3    3    0    0 -0.47391620932E-01  0.62654151753E-01  0.10336861259E+00  0.13140759784E+00  0.20282461261E-01 0.  0.
         14    1    1    2    0    0  0.14099705392E-01 -0.48420086006E-02  0.16106396963E-01  0.21946816685E-01  0.00000000000E+00 0.  1.
     999901    1    3    3    0    0  0.33291915540E-01 -0.57812143152E-01 -0.11947500955E+00  0.89057558547E+00  0.88000000000E+00 0.  1.
        -11    1    4    4    0    0 -0.22418128168E-01  0.15243134479E-01  0.28508715717E-01  0.39343787466E-01  0.51100000000E-03 0. -1.
         11    1    4    4    0    0 -0.24973492764E-01  0.47411017274E-01  0.74859896873E-01  0.92063810375E-01  0.51100000000E-03 0.  1.
</event>
<event>
 8    1  0.1072332E+005  0.1043930E+01  0.7957747E-01            NaN
         13   -1    0    0    0    0  0.00000000000E+00  0.00000000000E+00  0.74505805969E-08  0.10566000000E+00  0.10566000000E+00 0.  1.
     999900   -1    0    0    0    0 -0.00000000000E+00 -0.00000000000E+00 -0.74505805969E-08  0.93827000000E+00  0.93827000000E+00 0.  1.
     999902    2    1    2    0    0  0.16723292561E-01 -0.17074725845E-01  0.45024288836E-02  0.10196095016E+01  0.10193194048E+01 0.  0.
     999903    2    3    3    0    0  0.10715078031E+00 -0.13974837904E-01  0.73240600424E-01  0.13230364899E+00  0.21528682457E-01 0.  0.
         14    1    1    2    0    0 -0.16723292561E-01  0.17074725845E-01 -0.45024288836E-02  0.24320498404E-01  0.00000000000E+00 0. -1.
     999901    1    3    3    0    0 -0.90427487753E-01 -0.30998879408E-02 -0.68738171540E-01  0.88730585261E+00  0.88000000000E+00 0. -1.
        -11    1    4    4    0    0  0.38244896189E-01 -0.13663537143E-01  0.20296629525E-01  0.45404610150E-01  0.51100000000E-03 0.  1.
         11    1    4    4    0    0  0.68905884125E-01 -0.31130076114E-03  0.52943970899E-01  0.86899038837E-01  0.51100000000E-03 0. -1.
</event>
<event>
 8    1  0.1072332E+005  0.1043930E+01  0.7957747E-01            NaN
         13   -1    0    0    0    0  0.00000000000E+00  0.00000000000E+00  0.74505805969E-08  0.10566000000E+00  0.10566000000E+00 0.  1.
     999900   -1    0    0    0    0 -0.00000000000E+00 -0.00000000000E+00 -0.74505805969E-08  0.93827000000E+00  0.93827000000E+00 0.  1.
     999902    2    1    2    0    0  0.93643010659E-02 -0.18266463389E-01  0.12323057243E-01  0.10199881630E+01  0.10197071350E+01 0.  0.
     999903    2    3    3    0    0 -0.66923152887E-01 -0.79586680568E-01 -0.75720346326E-01  0.13019516147E+00  0.20111218388E-01 0.  0.
         14    1    1    2    0    0 -0.93643010659E-02  0.18266463389E-01 -0.12323057243E-01  0.23941837002E-01  0.00000000000E+00 0.  1.
     999901    1    3    3    0    0  0.76287453953E-01  0.61320217179E-01  0.88043403569E-01  0.88979300153E+00  0.88000000000E+00 0. -1.
        -11    1    4    4    0    0 -0.40534547811E-01 -0.36580212110E-01 -0.31108145227E-01  0.62842177753E-01  0.51100000000E-03 0. -1.
         11    1    4    4    0    0 -0.26388605076E-01 -0.43006468458E-01 -0.44612201098E-01  0.67352983712E-01  0.51100000000E-03 0.  1.
</event>
<event>
 8    1  0.1072332E+005  0.1043930E+01  0.7957747E-01            NaN
         13   -1    0    0    0    0  0.00000000000E+00  0.00000000000E+00  0.74505805969E-08  0.10566000000E+00  0.10566000000E+00 0. -1.
     999900   -1    0    0    0    0 -0.00000000000E+00 -0.00000000000E+00 -0.74505805969E-08  0.93827000000E+00  0.93827000000E+00 0.  1.
     999902    2    1    2    0    0 -0.11501467009E-01  0.20350989923E-01  0.55604689941E-02  0.10199015721E+01  0.10196184832E+01 0.  0.
     999903    2    3    3    0    0  0.95151708456E-01 -0.74279853219E-01  0.36596266113E-01  0.12788525101E+00  0.21071462103E-01 0.  0.
         14    1    1    2    0    0  0.11501467009E-01 -0.20350989923E-01 -0.55604689941E-02  0.24028427948E-01  0.00000000000E+00 0. -1.
     999901    1    3    3    0    0 -0.10665317547E+00  0.94630843142E-01 -0.31035797119E-01  0.89201632105E+00  0.88000000000E+00 0.  1.
        -11    1    4    4    0    0  0.23474209892E-01 -0.16316501734E-01 -0.29656490744E-03  0.28593982420E-01  0.51100000000E-03 0. -1.
         11    1    4    4    0    0  0.71677498564E-01 -0.57963351484E-01  0.36892831020E-01  0.99291268586E-01  0.51100000000E-03 0.  1.
</event>
<event>
 8    1  0.1072332E+005  0.1043930E+01  0.7957747E-01            NaN
         13   -1    0    0    0    0  0.00000000000E+00  0.00000000000E+00  0.74505805969E-08  0.10566000000E+00  0.10566000000E+00 0.  1.
     999900   -1    0    0    0    0 -0.00000000000E+00 -0.00000000000E+00 -0.74505805969E-08  0.93827000000E+00  0.93827000000E+00 0.  1.
     999902    2    1    2    0    0  0.75487910047E-02 -0.20770283201E-01  0.11350857046E-01  0.10190858686E+01  0.10187829880E+01 0.  0.
     999903    2    3    3    0    0 -0.60619140628E-01  0.10939575989E+00 -0.62585140690E-02  0.12672935036E+00  0.19469123066E-01 0.  0.
         14    1    1    2    0    0 -0.75487910047E-02  0.20770283201E-01 -0.11350857046E-01  0.24844131411E-01  0.00000000000E+00 0. -1.
     999901    1    3    3    0    0  0.68167931632E-01 -0.13016604309E+00  0.17609371115E-01  0.89235651823E+00  0.88000000000E+00 0. -1.
        -11    1    4    4    0    0 -0.40105129063E-01  0.56670692894E-01 -0.94167743970E-02  0.70063725074E-01  0.51100000000E-03 0. -1.
         11    1    4    4    0    0 -0.20514011565E-01  0.52725066991E-01  0.31582603280E-02  0.56665625286E-01  0.51100000000E-03 0.  1.
</event>
<event>
 8    1  0.1072332E+005  0.1043930E+01  0.7957747E-01            NaN
         13   -1    0    0    0    0  0.00000000000E+00  0.00000000000E+00  0.74505805969E-08  0.10566000000E+00  0.10566000000E+00 0.  1.
     999900   -1    0    0    0    0 -0.00000000000E+00 -0.00000000000E+00 -0.74505805969E-08  0.93827000000E+00  0.93827000000E+00 0.  1.
     999902    2    1    2    0    0  0.22889753164E-01 -0.39412561173E-02 -0.22154534321E-02  0.10205979934E+01  0.10203312607E+01 0.  0.
     999903    2    3    3    0    0  0.19887977448E-01  0.73439169649E-01  0.10444822567E+00  0.13078122493E+00  0.20135879987E-01 0.  0.
         14    1    1    2    0    0 -0.22889753164E-01  0.39412561173E-02  0.22154534321E-02  0.23332006634E-01  0.00000000000E+00 0.  1.
     999901    1    3    3    0    0  0.30017757156E-02 -0.77380425767E-01 -0.10666367910E+00  0.88981676844E+00  0.88000000000E+00 0.  1.
        -11    1    4    4    0    0  0.19327916907E-01  0.67491676396E-01  0.10293492975E+00  0.12459757477E+00  0.51100000000E-03 0. -1.
         11    1    4    4    0    0  0.56006054118E-03  0.59474932532E-02  0.15132959248E-02  0.61836501649E-02  0.51100000000E-03 0.  1.
</event>
<event>
 8    1  0.1072332E+005  0.1043930E+01  0.7957747E-01            NaN
         13   -1    0    0    0    0  0.00000000000E+00  0.00000000000E+00  0.74505805969E-08  0.10566000000E+00  0.10566000000E+00 0.  1.
     999900   -1    0    0    0    0 -0.00000000000E+00 -0.00000000000E+00 -0.74505805969E-08  0.93827000000E+00  0.93827000000E+00 0. -1.
     999902    2    1    2    0    0 -0.30725414268E-02  0.38009102306E-02 -0.22988168923E-01  0.10204280141E+01  0.10201573353E+01 0.  0.
     999903    2    3    3    0    0  0.28540174431E-01 -0.12175729823E+00  0.26686728562E-01  0.12956785510E+00  0.20886990301E-01 0.  0.
         14    1    1    2    0    0  0.30725414268E-02 -0.38009102306E-02  0.22988168923E-01  0.23501985870E-01  0.00000000000E+00 0.  1.
     999901    1    3    3    0    0 -0.31612715857E-01  0.12555820846E+00 -0.49674897485E-01  0.89086015904E+00  0.88000000000E+00 0.  1.
        -11    1    4    4    0    0  0.12067640090E-01 -0.36975015969E-01  0.17689609224E-01  0.42731289927E-01  0.51100000000E-03 0. -1.
         11    1    4    4    0    0  0.16472534340E-01 -0.84782282261E-01  0.89971193380E-02  0.86836565169E-01  0.51100000000E-03 0.  1.
</event>
<event>
 8    1  0.1072332E+005  0.1043930E+01  0.7957747E-01            NaN
         13   -1    0    0    0    0  0.00000000000E+00  0.00000000000E+00  0.74505805969E-08  0.10566000000E+00  0.10566000000E+00 0. -1.
     999900   -1    0    0    0    0 -0.00000000000E+00 -0.00000000000E+00 -0.74505805969E-08  0.93827000000E+00  0.93827000000E+00 0. -1.
     999902    2    1    2    0    0 -0.16402969058E-01 -0.19570250874E-01  0.20789254228E-02  0.10183102021E+01  0.10179878652E+01 0.  0.
     999903    2    3    3    0    0 -0.62395851160E-01  0.10425797833E+00 -0.33496988236E-01  0.12774048491E+00  0.20799398451E-01 0.  0.
         14    1    1    2    0    0  0.16402969058E-01  0.19570250874E-01 -0.20789254228E-02  0.25619797893E-01  0.00000000000E+00 0. -1.
     999901    1    3    3    0    0  0.45992882102E-01 -0.12382822921E+00  0.35575913658E-01  0.89056971720E+00  0.88000000000E+00 0.  1.
        -11    1    4    4    0    0 -0.45774558291E-01  0.88439322909E-01 -0.32551959799E-01  0.10476982023E+00  0.51100000000E-03 0.  1.
         11    1    4    4    0    0 -0.16621292869E-01  0.15818655426E-01 -0.94502843707E-03  0.22970664681E-01  0.51100000000E-03 0. -1.
</event>
<event>
 8    1  0.1072332E+005  0.1043930E+01  0.7957747E-01            NaN
         13   -1    0    0    0    0  0.00000000000E+00  0.00000000000E+00  0.74505805969E-08  0.10566000000E+00  0.10566000000E+00 0. -1.
     999900   -1    0    0    0    0 -0.00000000000E+00 -0.00000000000E+00 -0.74505805969E-08  0.93827000000E+00  0.93827000000E+00 0.  1.
     999902    2    1    2    0    0 -0.43155274104E-02  0.23477211477E-01  0.32308650910E-02  0.10198417928E+01  0.10195572768E+01 0.  0.
     999903    2    3    3    0    0 -0.11203964605E+00  0.22026064692E-01 -0.61731448370E-01  0.13089483505E+00  0.16871760823E-01 0.  0.
         14    1    1    2    0    0  0.43155274104E-02 -0.23477211477E-01 -0.32308650910E-02  0.24088207173E-01  0.00000000000E+00 0.  1.
     999901    1    3    3    0    0  0.10772411864E+00  0.14511467853E-02  0.64962313461E-01  0.88894695777E+00  0.88000000000E+00 0. -1.
        -11    1    4    4    0    0 -0.10468790702E-01  0.71955158713E-02 -0.81658997732E-02  0.15110065107E-01  0.51100000000E-03 0. -1.
         11    1    4    4    0    0 -0.10157085535E+00  0.14830548821E-01 -0.53565548597E-01  0.11578476995E+00  0.51100000000E-03 0.  1.
</event>
<event>
 8    1  0.1072332E+005  0.1043930E+01  0.7957747E-01            NaN
         13   -1    0    0    0    0  0.00000000000E+00  0.00000000000E+00  0.74505805969E-08  0.10566000000E+00  0.10566000000E+00 0. -1.
     999900   -1    0    0    0    0 -0.00000000000E+00 -0.00000000000E+00 -0.74505805969E-08  0.93827000000E+00  0.93827000000E+00 0. -1.
     999902    2    1    2    0    0 -0.12556668968E-01  0.13304908938E-02  0.17156873985E-01  0.10226274540E+01  0.10224055512E+01 0.  0.
     999903    2    3    3    0    0  0.64222623042E-01 -0.14525758220E-01 -0.11035994645E+00  0.12998697776E+00  0.19538516914E-01 0.  0.
         14    1    1    2    0    0  0.12556668968E-01 -0.13304908938E-02 -0.17156873985E-01  0.21302546010E-01  0.00000000000E+00 0.  1.
     999901    1    3    3    0    0 -0.76779292009E-01  0.15856249114E-01  0.12751682044E+00  0.89264047623E+00  0.88000000000E+00 0.  1.
        -11    1    4    4    0    0  0.49318191585E-01 -0.31503979390E-02 -0.72597073095E-01  0.87822577800E-01  0.51100000000E-03 0.  1.
         11    1    4    4    0    0  0.14904431456E-01 -0.11375360281E-01 -0.37762873356E-01  0.42164399956E-01  0.51100000000E-03 0. -1.
</event>
<event>
 8    1  0.1072332E+005  0.1043930E+01  0.7957747E-01            NaN
         13   -1    0    0    0    0  0.00000000000E+00  0.00000000000E+00  0.74505805969E-08  0.10566000000E+00  0.10566000000E+00 0.  1.
     999900   -1    0    0    0    0 -0.00000000000E+00 -0.00000000000E+00 -0.74505805969E-08  0.93827000000E+00  0.93827000000E+00 0.  1.
     999902    2    1    2    0    0  0.20559055785E-01  0.14554152093E-02  0.17878470276E-01  0.10166457058E+01  0.10162795179E+01 0.  0.
     999903    2    3    3    0    0  0.38856112470E-01 -0.12008864001E+00  0.83175185577E-02  0.12805178766E+00  0.19924865640E-01 0.  0.
         14    1    1    2    0    0 -0.20559055785E-01 -0.14554152093E-02 -0.17878470276E-01  0.27284294156E-01  0.00000000000E+00 0. -1.
     999901    1    3    3    0    0 -0.18297056685E-01  0.12154405522E+00  0.95609517180E-02  0.88859391819E+00  0.88000000000E+00 0. -1.
        -11    1    4    4    0    0  0.34464331442E-01 -0.76958721958E-01  0.30865697272E-02  0.84381414190E-01  0.51100000000E-03 0. -1.
         11    1    4    4    0    0  0.43917810284E-02 -0.43129918054E-01  0.52309488305E-02  0.43670373466E-01  0.51100000000E-03 0.  1.
</event>
<event>
 8    1  0.1072332E+005  0.1043930E+01  0.7957747E-01            NaN
         13   -1    0    0    0    0  0.00000000000E+00  0.00000000000E+00  0.74505805969E-08  0.10566000000E+00  0.10566000000E+00 0. -1.
     999900   -1    0    0    0    0 -0.00000000000E+00 -0.00000000000E+00 -0.74505805969E-08  0.93827000000E+00  0.93827000000E+00 0.  1.
     999902    2    1    2    0    0 -0.10248255197E-01 -0.22018533984E-01 -0.14090766416E-02  0.10196024833E+01  0.10193122170E+01 0.  0.
     999903    2    3    3    0    0  0.45324178911E-01 -0.74742537206E-01 -0.95863759753E-01  0.13123892981E+00  0.19825947698E-01 0.  0.
         14    1    1    2    0    0  0.10248255197E-01  0.22018533984E-01  0.14090766416E-02  0.24327516732E-01  0.00000000000E+00 0. -1.
     999901    1    3    3    0    0 -0.55572434108E-01  0.52724003223E-01  0.94454683111E-01  0.88836355346E+00  0.88000000000E+00 0. -1.
        -11    1    4    4    0    0  0.43454914138E-01 -0.56484529868E-01 -0.75780922053E-01  0.10402807768E+00  0.51100000000E-03 0.  1.
         11    1    4    4    0    0  0.18692647729E-02 -0.18258007338E-01 -0.20082837700E-01  0.27210852134E-01  0.51100000000E-03 0. -1.
</event>
<event>
 8    1  0.1072332E+005  0.1043930E+01  0.7957747E-01            NaN
         13   -1    0    0    0    0  0.00000000000E+00  0.00000000000E+00  0.74505805969E-08  0.10566000000E+00  0.10566000000E+00 0.  1.
     999900   -1    0    0    0    0 -0.00000000000E+00 -0.00000000000E+00 -0.74505805969E-08  0.93827000000E+00  0.93827000000E+00 0. -1.
     999902    2    1    2    0    0  0.61425320385E-02  0.20031948041E-01  0.10476754956E-01  0.10205041161E+01  0.10202352077E+01 0.  0.
     999903    2    3    3    0    0  0.12451068561E+00 -0.34988448394E-01 -0.30296578704E-02  0.13077343382E+00  0.19115695497E-01 0.  0.
         14    1    1    2    0    0 -0.61425320385E-02 -0.20031948041E-01 -0.10476754956E-01  0.23425883901E-01  0.00000000000E+00 0. -1.
     999901    1    3    3    0    0 -0.11836815357E+00  0.55020396434E-01  0.13506412827E-01  0.88973068228E+00  0.88000000000E+00 0. -1.
        -11    1    4    4    0    0  0.37283145314E-01 -0.19408228077E-01 -0.32849230043E-02  0.42163539720E-01  0.51100000000E-03 0.  1.
         11    1    4    4    0    0  0.87227540294E-01 -0.15580220317E-01  0.25526513393E-03  0.88609894099E-01  0.51100000000E-03 0. -1.
</event>
<event>
 8    1  0.1072332E+005  0.1043930E+01  0.7957747E-01            NaN
         13   -1    0    0    0    0  0.00000000000E+00  0.00000000000E+00  0.74505805969E-08  0.10566000000E+00  0.10566000000E+00 0. -1.
     999900   -1    0    0    0    0 -0.00000000000E+00 -0.00000000000E+00 -0.74505805969E-08  0.93827000000E+00  0.93827000000E+00 0.  1.
     999902    2    1    2    0    0  0.19138665608E-01 -0.13796562696E-01 -0.14384633134E-02  0.10202931043E+01  0.10200192723E+01 0.  0.
     999903    2    3    3    0    0  0.28671862390E-01 -0.12783285718E+00  0.86235211160E-02  0.13282682218E+00  0.20131679199E-01 0.  0.
         14    1    1    2    0    0 -0.19138665608E-01  0.13796562696E-01  0.14384633134E-02  0.23636895739E-01  0.00000000000E+00 0.  1.
     999901    1    3    3    0    0 -0.95331967817E-02  0.11403629448E+00 -0.10061984429E-01  0.88746628208E+00  0.88000000000E+00 0.  1.
        -11    1    4    4    0    0  0.14415829422E-01 -0.93382474448E-01 -0.28451607934E-03  0.94490447890E-01  0.51100000000E-03 0.  1.
         11    1    4    4    0    0  0.14256032968E-01 -0.34450382728E-01  0.89080371953E-02  0.38336374290E-01  0.51100000000E-03 0. -1.
</event>
<event>
 8    1  0.1072332E+005  0.1043930E+01  0.7957747E-01            NaN
         13   -1    0    0    0    0  0.00000000000E+00  0.00000000000E+00  0.74505805969E-08  0.10566000000E+00  0.10566000000E+00 0.  1.
     999900   -1    0    0    0    0 -0.00000000000E+00 -0.00000000000E+00 -0.74505805969E-08  0.93827000000E+00  0.93827000000E+00 0. -1.
     999902    2    1    2    0    0  0.18703894021E-01 -0.41174140507E-03 -0.13825957168E-01  0.10206671052E+01  0.10204019685E+01 0.  0.
     999903    2    3    3    0    0 -0.71383669072E-01 -0.20379927608E-01  0.10267526834E+00  0.12820588306E+00  0.19584893761E-01 0.  0.
         14    1    1    2    0    0 -0.18703894021E-01  0.41174140507E-03  0.13825957168E-01  0.23262894793E-01  0.00000000000E+00 0.  1.
     999901    1    3    3    0    0  0.90087563092E-01  0.19968186203E-01 -0.11650122551E+00  0.89246122214E+00  0.88000000000E+00 0. -1.
        -11    1    4    4    0    0 -0.43812821219E-02 -0.52271054478E-02  0.17440814818E-01  0.18733963994E-01  0.51100000000E-03 0. -1.
         11    1    4    4    0    0 -0.67002386950E-01 -0.15152822160E-01  0.85234453524E-01  0.10947191907E+00  0.51100000000E-03 0.  1.
</event>
<event>
 8    1  0.1072332E+005  0.1043930E+01  0.7957747E-01            NaN
         13   -1    0    0    0    0  0.00000000000E+00  0.00000000000E+00  0.74505805969E-08  0.10566000000E+00  0.10566000000E+00 0. -1.
     999900   -1    0    0    0    0 -0.00000000000E+00 -0.00000000000E+00 -0.74505805969E-08  0.93827000000E+00  0.93827000000E+00 0.  1.
     999902    2    1    2    0    0  0.69477685858E-02  0.17575319983E-01  0.14663402063E-01  0.10200097425E+01  0.10197292268E+01 0.  0.
     999903    2    3    3    0    0 -0.59961481938E-01  0.52027153437E-01  0.10395272864E+00  0.13229562154E+00  0.19843328282E-01 0.  0.
         14    1    1    2    0    0 -0.69477685858E-02 -0.17575319983E-01 -0.14663402063E-01  0.23920257542E-01  0.00000000000E+00 0.  1.
     999901    1    3    3    0    0  0.66909250524E-01 -0.34451833454E-01 -0.89289326572E-01  0.88771412092E+00  0.88000000000E+00 0.  1.
        -11    1    4    4    0    0 -0.46740971746E-01  0.39306925291E-01  0.64747217671E-01  0.89006831944E-01  0.51100000000E-03 0. -1.
         11    1    4    4    0    0 -0.13220510192E-01  0.12720228147E-01  0.39205510965E-01  0.43288789598E-01  0.51100000000E-03 0.  1.
</event>
<event>
 8    1  0.1072332E+005  0.1043930E+01  0.7957747E-01            NaN
         13   -1    0    0    0    0  0.00000000000E+00  0.00000000000E+00  0.74505805969E-08  0.10566000000E+00  0.10566000000E+00 0. -1.
     999900   -1    0    0    0    0 -0.00000000000E+00 -0.00000000000E+00 -0.74505805969E-08  0.93827000000E+00  0.93827000000E+00 0.  1.
     999902    2    1    2    0    0  0.10862462488E-01 -0.21261806173E-01  0.16584069150E-02  0.10199965964E+01  0.10197157687E+01 0.  0.
     999903    2    3    3    0    0  0.12333609962E+00  0.32637900842E-01  0.21283206448E-01  0.13098555588E+00  0.20669178258E-01 0.  0.
         14    1    1    2    0    0 -0.10862462488E-01  0.21261806173E-01 -0.16584069150E-02  0.23933403572E-01  0.00000000000E+00 0. -1.
     999901    1    3    3    0    0 -0.11247363714E+00 -0.53899707015E-01 -0.19624799533E-01  0.88901104055E+00  0.88000000000E+00 0.  1.
        -11    1    4    4    0    0  0.30129896941E-01 -0.31774415929E-03  0.15676448454E-02  0.30176651279E-01  0.51100000000E-03 0. -1.
         11    1    4    4    0    0  0.93206202682E-01  0.32955645001E-01  0.19715561602E-01  0.10080890460E+00  0.51100000000E-03 0.  1.
</event>
<event>
 8    1  0.1072332E+005  0.1043930E+01  0.7957747E-01            NaN
         13   -1    0    0    0    0  0.00000000000E+00  0.00000000000E+00  0.74505805969E-08  0.10566000000E+00  0.10566000000E+00 0. -1.
     999900   -1    0    0    0    0 -0.00000000000E+00 -0.00000000000E+00 -0.74505805969E-08  0.93827000000E+00  0.93827000000E+00 0.  1.
     999902    2    1    2    0    0 -0.30137520881E-02 -0.20412274577E-01  0.14638171955E-01  0.10186313887E+01  0.10183171836E+01 0.  0.
     999903    2    3    3    0    0  0.71504423710E-01  0.80218418881E-01 -0.62965408447E-01  0.12638601288E+00  0.21468680769E-01 0.  0.
         14    1    1    2    0    0  0.30137520881E-02  0.20412274577E-01 -0.14638171955E-01  0.25298611291E-01  0.00000000000E+00 0. -1.
     999901    1    3    3    0    0 -0.74518175798E-01 -0.10063069346E+00  0.77603580402E-01  0.89224537583E+00  0.88000000000E+00 0. -1.
        -11    1    4    4    0    0  0.45914258866E-01  0.58178485754E-01 -0.32607114378E-01  0.80971231934E-01  0.51100000000E-03 0. -1.
         11    1    4    4    0    0  0.25590164844E-01  0.22039933127E-01 -0.30358294068E-01  0.45414780950E-01  0.51100000000E-03 0.  1.
</event>
<event>
 8    1  0.1072332E+005  0.1043930E+01  0.7957747E-01            NaN
         13   -1    0    0    0    0  0.00000000000E+00  0.00000000000E+00  0.74505805969E-08  0.10566000000E+00  0.10566000000E+00 0.  1.
     999900   -1    0    0    0    0 -0.00000000000E+00 -0.00000000000E+00 -0.74505805969E-08  0.93827000000E+00  0.93827000000E+00 0. -1.
     999902    2    1    2    0    0 -0.52816626886E-02 -0.15713841353E-01 -0.16078030693E-01  0.10208361947E+01  0.10205749422E+01 0.  0.
     999903    2    3    3    0    0  0.62134334170E-01 -0.91232774244E-01 -0.71954789208E-01  0.13327197846E+00  0.19995848935E-01 0.  0.
         14    1    1    2    0    0  0.52816626886E-02  0.15713841353E-01  0.16078030693E-01  0.23093805269E-01  0.00000000000E+00 0.  1.
     999901    1    3    3    0    0 -0.67415996858E-01  0.75518932890E-01  0.55876758515E-01  0.88756421627E+00  0.88000000000E+00 0.  1.
        -11    1    4    4    0    0  0.43729879014E-01 -0.57887703093E-01 -0.36415093604E-01  0.81176404522E-01  0.51100000000E-03 0. -1.
         11    1    4    4    0    0  0.18404455156E-01 -0.33345071151E-01 -0.35539695604E-01  0.52095573941E-01  0.51100000000E-03 0.  1.
</event>
<event>
 7    1  0.1072332E+005  0.1043930E+01  0.7957747E-01            NaN
         13   -1    0    0    0    0  0.00000000000E+00  0.00000000000E+00  0.74505805969E-08  0.10566000000E+00  0.10566000000E+00 0. -1.
     999900   -1    0    0    0    0 -0.00000000000E+00 -0.00000000000E+00 -0.74505805969E-08  0.93827000000E+00  0.93827000000E+00 0. -1.
     999903    2    1    2    0    0 -0.52453884216E-01 -0.43469250201E-01  0.80917845389E-01  0.10764198880E+00  0.19952803514E-01 0.  0.
         14    1    1    2    0    0 -0.30109979769E-01  0.10967050445E-02 -0.40509646506E-01  0.50486088219E-01  0.00000000000E+00 0.  1.
     999901    1    1    2    0    0  0.82563863985E-01  0.42372545156E-01 -0.40408198884E-01  0.88580192298E+00  0.88000000000E+00 0. -1.
        -11    1    3    3    0    0 -0.63307295942E-02 -0.97145321906E-02  0.50615509370E-02  0.12662175633E-01  0.51100000000E-03 0.  1.
         11    1    3    3    0    0 -0.46123154622E-01 -0.33754718010E-01  0.75856294452E-01  0.94979813167E-01  0.51100000000E-03 0. -1.
</event>
<event>
 8    1  0.1072332E+005  0.1043930E+01  0.7957747E-01            NaN
         13   -1    0    0    0    0  0.00000000000E+00  0.00000000000E+00  0.74505805969E-08  0.10566000000E+00  0.10566000000E+00 0.  1.
     999900   -1    0    0    0    0 -0.00000000000E+00 -0.00000000000E+00 -0.74505805969E-08  0.93827000000E+00  0.93827000000E+00 0. -1.
     999902    2    1    2    0    0  0.36977232997E-02 -0.73818901437E-02  0.22444679179E-01  0.10200149612E+01  0.10197345693E+01 0.  0.
     999903    2    3    3    0    0 -0.11276569834E+00  0.59688981211E-01 -0.61172880331E-02  0.12935340010E+00  0.20396168845E-01 0.  0.
         14    1    1    2    0    0 -0.36977232997E-02  0.73818901437E-02 -0.22444679179E-01  0.23915038849E-01  0.00000000000E+00 0. -1.
     999901    1    3    3    0    0  0.11646342164E+00 -0.67070871355E-01  0.28561967212E-01  0.89066156105E+00  0.88000000000E+00 0.  1.
        -11    1    4    4    0    0 -0.85910735931E-01  0.39617839029E-01 -0.11815781706E-01  0.95342023976E-01  0.51100000000E-03 0. -1.
         11    1    4    4    0    0 -0.26854962412E-01  0.20071142182E-01  0.56984936730E-02  0.34011376123E-01  0.51100000000E-03 0.  1.
</event>
<event>
 8    1  0.1072332E+005  0.1043930E+01  0.7957747E-01            NaN
         13   -1    0    0    0    0  0.00000000000E+00  0.00000000000E+00  0.74505805969E-08  0.10566000000E+00  0.10566000000E+00 0. -1.
     999900   -1    0    0    0    0 -0.00000000000E+00 -0.00000000000E+00 -0.74505805969E-08  0.93827000000E+00  0.93827000000E+00 0.  1.
     999902    2    1    2    0    0  0.13627124026E-01 -0.15726556639E-01 -0.11133653944E-01  0.10203295478E+01  0.10200565694E+01 0.  0.
     999903    2    3    3    0    0 -0.42754822920E-01  0.31104197239E-01  0.11495152193E+00  0.12832645644E+00  0.21409835606E-01 0.  0.
         14    1    1    2    0    0 -0.13627124026E-01  0.15726556639E-01  0.11133653944E-01  0.23600452180E-01  0.00000000000E+00 0. -1.
     999901    1    3    3    0    0  0.56381946946E-01 -0.46830753878E-01 -0.12608517587E+00  0.89200309138E+00  0.88000000000E+00 0.  1.
        -11    1    4    4    0    0 -0.22716529623E-01  0.10344150497E-01  0.74973893649E-01  0.79021440239E-01  0.51100000000E-03 0. -1.
         11    1    4    4    0    0 -0.20038293297E-01  0.20760046742E-01  0.39977628281E-01  0.49305016204E-01  0.51100000000E-03 0.  1.
</event>
<event>
 8    1  0.1072332E+005  0.1043930E+01  0.7957747E-01            NaN
         13   -1    0    0    0    0  0.00000000000E+00  0.00000000000E+00  0.74505805969E-08  0.10566000000E+00  0.10566000000E+00 0.  1.
     999900   -1    0    0    0    0 -0.00000000000E+00 -0.00000000000E+00 -0.74505805969E-08  0.93827000000E+00  0.93827000000E+00 0.  1.
     999902    2    1    2    0    0  0.20043906390E-01 -0.72691799028E-02 -0.13827661381E-01  0.10185173382E+01  0.10182002577E+01 0.  0.
     999903    2    3    3    0    0  0.50780990172E-01 -0.98313252357E-01  0.64959634773E-01  0.12978721636E+00  0.19513145046E-01 0.  0.
         14    1    1    2    0    0 -0.20043906390E-01  0.72691799028E-02  0.13827661381E-01  0.25412661787E-01  0.00000000000E+00 0.  1.
     999901    1    3    3    0    0 -0.30737083781E-01  0.91044072454E-01 -0.78787296154E-01  0.88873012185E+00  0.88000000000E+00 0.  1.
        -11    1    4    4    0    0  0.38755071022E-01 -0.75628445242E-01  0.39814070939E-01  0.93845823697E-01  0.51100000000E-03 0. -1.
         11    1    4    4    0    0  0.12025919149E-01 -0.22684807115E-01  0.25145563834E-01  0.35941392665E-01  0.51100000000E-03 0.  1.
</event>
<event>
 8    1  0.1072332E+005  0.1043930E+01  0.7957747E-01            NaN
         13   -1    0    0    0    0  0.00000000000E+00  0.00000000000E+00  0.74505805969E-08  0.10566000000E+00  0.10566000000E+00 0.  1.
     999900   -1    0    0    0    0 -0.00000000000E+00 -0.00000000000E+00 -0.74505805969E-08  0.93827000000E+00  0.93827000000E+00 0. -1.
     999902    2    1    2    0    0 -0.77424994212E-02  0.12709173580E-01 -0.17752130579E-01  0.10207652093E+01  0.10205023297E+01 0.  0.
     999903    2    3    3    0    0 -0.59299664424E-02 -0.12263896479E+00  0.33287111851E-01  0.12895390180E+00  0.21109163570E-01 0.  0.
         14    1    1    2    0    0  0.77424994212E-02 -0.12709173580E-01  0.17752130579E-01  0.23164790750E-01  0.00000000000E+00 0.  1.
     999901    1    3    3    0    0 -0.18125329788E-02  0.13534813837E+00 -0.51039242431E-01  0.89181130745E+00  0.88000000000E+00 0. -1.
        -11    1    4    4    0    0 -0.15951378439E-02 -0.61792153280E-01  0.59340880545E-02  0.62099027317E-01  0.51100000000E-03 0.  1.
         11    1    4    4    0    0 -0.43348285985E-02 -0.60846811508E-01  0.27353023797E-01  0.66854874478E-01  0.51100000000E-03 0. -1.
</event>
<event>
 8    1  0.1072332E+005  0.1043930E+01  0.7957747E-01            NaN
         13   -1    0    0    0    0  0.00000000000E+00  0.00000000000E+00  0.74505805969E-08  0.10566000000E+00  0.10566000000E+00 0.  1.
     999900   -1    0    0    0    0 -0.00000000000E+00 -0.00000000000E+00 -0.74505805969E-08  0.93827000000E+00  0.93827000000E+00 0. -1.
     999902    2    1    2    0    0  0.19909654830E-01  0.23663667938E-02 -0.13094950742E-01  0.10199827291E+01  0.10197015720E+01 0.  0.
     999903    2    3    3    0    0 -0.41348961358E-01  0.11287450835E+00 -0.46303894338E-01  0.13033813642E+00  0.19839050704E-01 0.  0.
         14    1    1    2    0    0 -0.19909654830E-01 -0.23663667938E-02  0.13094950742E-01  0.23947270872E-01  0.00000000000E+00 0.  1.
     999901    1    3    3    0    0  0.61258616188E-01 -0.11050814156E+00  0.33208943596E-01  0.88964459271E+00  0.88000000000E+00 0.  1.
        -11    1    4    4    0    0 -0.31335885301E-02  0.31997302880E-01 -0.87622912047E-02  0.33326950608E-01  0.51100000000E-03 0. -1.
         11    1    4    4    0    0 -0.38215372828E-01  0.80877205470E-01 -0.37541603134E-01  0.97011185808E-01  0.51100000000E-03 0.  1.
</event>
<event>
 8    1  0.1072332E+005  0.1043930E+01  0.7957747E-01            NaN
         13   -1    0    0    0    0  0.00000000000E+00  0.00000000000E+00  0.74505805969E-08  0.10566000000E+00  0.10566000000E+00 0.  1.
     999900   -1    0    0    0    0 -0.00000000000E+00 -0.00000000000E+00 -0.74505805969E-08  0.93827000000E+00  0.93827000000E+00 0.  1.
     999902    2    1    2    0    0  0.35222570909E-02  0.17558448931E-01 -0.15963127567E-01  0.10199398590E+01  0.10196576823E+01 0.  0.
     999903    2    3    3    0    0  0.10788545848E+00  0.68128110099E-01  0.24558511747E-01  0.13140681420E+00  0.19593845485E-01 0.  0.
         14    1    1    2    0    0 -0.35222570909E-02 -0.17558448931E-01  0.15963127567E-01  0.23990141009E-01  0.00000000000E+00 0.  1.
     999901    1    3    3    0    0 -0.10436320139E+00 -0.50569661167E-01 -0.40521639315E-01  0.88853304479E+00  0.88000000000E+00 0. -1.
        -11    1    4    4    0    0  0.37754890052E-01  0.21693784934E-01  0.17733725160E-01  0.47019125435E-01  0.51100000000E-03 0. -1.
         11    1    4    4    0    0  0.70130568432E-01  0.46434325164E-01  0.68247865873E-02  0.84387688764E-01  0.51100000000E-03 0.  1.
</event>
<event>
 8    1  0.1072332E+005  0.1043930E+01  0.7957747E-01            NaN
         13   -1    0    0    0    0  0.00000000000E+00  0.00000000000E+00  0.74505805969E-08  0.10566000000E+00  0.10566000000E+00 0. -1.
     999900   -1    0    0    0    0 -0.00000000000E+00 -0.00000000000E+00 -0.74505805969E-08  0.93827000000E+00  0.93827000000E+00 0.  1.
     999902    2    1    2    0    0 -0.15752647017E-01  0.12627627557E-01 -0.10093897796E-02  0.10237156058E+01  0.10235160086E+01 0.  0.
     999903    2    3    3    0    0  0.54061744525E-01 -0.11522827942E+00 -0.25906979871E-01  0.13139219345E+00  0.19811822059E-01 0.  0.
         14    1    1    2    0    0  0.15752647017E-01 -0.12627627557E-01  0.10093897796E-02  0.20214394215E-01  0.00000000000E+00 0. -1.
     999901    1    3    3    0    0 -0.69814391543E-01  0.12785590698E+00  0.24897590091E-01  0.89232341234E+00  0.88000000000E+00 0.  1.
        -11    1    4    4    0    0  0.73655392953E-02 -0.36804232790E-01 -0.74236240875E-02  0.38264527123E-01  0.51100000000E-03 0. -1.
         11    1    4    4    0    0  0.46696205230E-01 -0.78424046630E-01 -0.18483355783E-01  0.93127666323E-01  0.51100000000E-03 0.  1.
</event>
<event>
 8    1  0.1072332E+005  0.1043930E+01  0.7957747E-01            NaN
         13   -1    0    0    0    0  0.00000000000E+00  0.00000000000E+00  0.74505805969E-08  0.10566000000E+00  0.10566000000E+00 0.  1.
     999900   -1    0    0    0    0 -0.00000000000E+00 -0.00000000000E+00 -0.74505805969E-08  0.93827000000E+00  0.93827000000E+00 0.  1.
     999902    2    1    2    0    0  0.99717418709E-03 -0.19681585944E-01 -0.13606132875E-01  0.10199824316E+01  0.10197012674E+01 0.  0.
     999903    2    3    3    0    0  0.11525913688E+00 -0.43403659387E-01  0.39071128478E-01  0.13071676444E+00  0.19793259990E-01 0.  0.
         14    1    1    2    0    0 -0.99717418709E-03  0.19681585944E-01  0.13606132875E-01  0.23947568425E-01  0.00000000000E+00 0.  1.
     999901    1    3    3    0    0 -0.11426196270E+00  0.23722073443E-01 -0.52677261354E-01  0.88926566714E+00  0.88000000000E+00 0.  1.
        -11    1    4    4    0    0  0.10912943392E+00 -0.42908099408E-01  0.41043452127E-01  0.12423833718E+00  0.51100000000E-03 0.  1.
         11    1    4    4    0    0  0.61297029640E-02 -0.49555997930E-03 -0.19723236486E-02  0.64784272547E-02  0.51100000000E-03 0. -1.
</event>
<event>
 8    1  0.1072332E+005  0.1043930E+01  0.7957747E-01            NaN
         13   -1    0    0    0    0  0.00000000000E+00  0.00000000000E+00  0.74505805969E-08  0.10566000000E+00  0.10566000000E+00 0. -1.
     999900   -1    0    0    0    0 -0.00000000000E+00 -0.00000000000E+00 -0.74505805969E-08  0.93827000000E+00  0.93827000000E+00 0.  1.
     999902    2    1    2    0    0  0.13881918575E-02  0.10659770908E-01  0.20859647849E-01  0.10204633705E+01  0.10201935149E+01 0.  0.
     999903    2    3    3    0    0  0.54072266899E-01  0.95992098952E-01  0.72539914443E-01  0.13326098775E+00  0.18925077548E-01 0.  0.
         14    1    1    2    0    0 -0.13881918575E-02 -0.10659770908E-01 -0.20859647849E-01  0.23466629516E-01  0.00000000000E+00 0.  1.
     999901    1    3    3    0    0 -0.52684075042E-01 -0.85332328043E-01 -0.51680266594E-01  0.88720238273E+00  0.88000000000E+00 0.  1.
        -11    1    4    4    0    0  0.30055932701E-01  0.34606358638E-01  0.28240522737E-01  0.53840016663E-01  0.51100000000E-03 0.  1.
         11    1    4    4    0    0  0.24016334198E-01  0.61385740313E-01  0.44299391706E-01  0.79420971088E-01  0.51100000000E-03 0. -1.
</event>
<event>
 8    1  0.1072332E+005  0.1043930E+01  0.7957747E-01            NaN
         13   -1    0    0    0    0  0.00000000000E+00  0.00000000000E+00  0.74505805969E-08  0.10566000000E+00  0.10566000000E+00 0.  1.
     999900   -1    0    0    0    0 -0.00000000000E+00 -0.00000000000E+00 -0.74505805969E-08  0.93827000000E+00  0.93827000000E+00 0. -1.
     999902    2    1    2    0    0  0.55444679396E-02 -0.73201479069E-02  0.21894347351E-01  0.10201878827E+01  0.10199115784E+01 0.  0.
     999903    2    3    3    0    0  0.11504658953E+00 -0.57378976989E-01 -0.16112161421E-01  0.13117658030E+00  0.20484841010E-01 0.  0.
         14    1    1    2    0    0 -0.55444679396E-02  0.73201479069E-02 -0.21894347351E-01  0.23742117345E-01  0.00000000000E+00 0. -1.
     999901    1    3    3    0    0 -0.10950212159E+00  0.50058829082E-01  0.38006508772E-01  0.88901130235E+00  0.88000000000E+00 0.  1.
        -11    1    4    4    0    0  0.12139965666E-01 -0.13126071594E-01  0.71161759170E-03  0.17900839155E-01  0.51100000000E-03 0.  1.
         11    1    4    4    0    0  0.10290662386E+00 -0.44252905394E-01 -0.16823779012E-01  0.11327574115E+00  0.51100000000E-03 0. -1.
</event>
<event>
 8    1  0.1072332E+005  0.1043930E+01  0.7957747E-01            NaN
         13   -1    0    0    0    0  0.00000000000E+00  0.00000000000E+00  0.74505805969E-08  0.10566000000E+00  0.10566000000E+00 0.  1.
     999900   -1    0    0    0    0 -0.00000000000E+00 -0.00000000000E+00 -0.74505805969E-08  0.93827000000E+00  0.93827000000E+00 0.  1.
     999902    2    1    2    0    0  0.97588912594E-02  0.15390809381E-01 -0.14616678874E-01  0.10205684873E+01  0.10203010718E+01 0.  0.
     999903    2    3    3    0    0  0.81276545449E-02  0.64622251452E-01 -0.11477067798E+00  0.13351875968E+00  0.20318870807E-01 0.  0.
         14    1    1    2    0    0 -0.97588912594E-02 -0.15390809381E-01  0.14616678874E-01  0.23361512651E-01  0.00000000000E+00 0.  1.
     999901    1    3    3    0    0  0.16312367146E-02 -0.49231442071E-01  0.10015399911E+00  0.88704972767E+00  0.88000000000E+00 0. -1.
        -11    1    4    4    0    0  0.15858431745E-02  0.55475827432E-02 -0.26337225174E-01  0.26966666900E-01  0.51100000000E-03 0. -1.
         11    1    4    4    0    0  0.65418113704E-02  0.59074668709E-01 -0.88433452808E-01  0.10655209278E+00  0.51100000000E-03 0.  1.
</event>
<event>
 8    1  0.1072332E+005  0.1043930E+01  0.7957747E-01            NaN
         13   -1    0    0    0    0  0.00000000000E+00  0.00000000000E+00  0.74505805969E-08  0.10566000000E+00  0.10566000000E+00 0. -1.
     999900   -1    0    0    0    0 -0.00000000000E+00 -0.00000000000E+00 -0.74505805969E-08  0.93827000000E+00  0.93827000000E+00 0. -1.
     999902    2    1    2    0    0  0.14044367916E-02  0.22643192335E-01  0.34895861916E-02  0.10209764858E+01  0.10207184336E+01 0.  0.
     999903    2    3    3    0    0  0.37234745052E-01  0.37425491870E-01  0.11994944289E+00  0.13245792912E+00  0.19239034647E-01 0.  0.
         14    1    1    2    0    0 -0.14044367916E-02 -0.22643192335E-01 -0.34895861916E-02  0.22953514189E-01  0.00000000000E+00 0.  1.
     999901    1    3    3    0    0 -0.35830308260E-01 -0.14782299535E-01 -0.11645985670E+00  0.88851855670E+00  0.88000000000E+00 0. -1.
        -11    1    4    4    0    0  0.20000414030E-01  0.32604246195E-01  0.83788491170E-01  0.92107685916E-01  0.51100000000E-03 0. -1.
         11    1    4    4    0    0  0.17234331021E-01  0.48212456748E-02  0.36160951724E-01  0.40350243199E-01  0.51100000000E-03 0.  1.
</event>
<event>
 8    1  0.1072332E+005  0.1043930E+01  0.7957747E-01            NaN
         13   -1    0    0    0    0  0.00000000000E+00  0.00000000000E+00  0.74505805969E-08  0.10566000000E+00  0.10566000000E+00 0.  1.
     999900   -1    0    0    0    0 -0.00000000000E+00 -0.00000000000E+00 -0.74505805969E-08  0.93827000000E+00  0.93827000000E+00 0.  1.
     999902    2    1    2    0    0  0.49905083988E-02  0.18427544642E-01 -0.13940165384E-01  0.10202908844E+01  0.10200170003E+01 0.  0.
     999903    2    3    3    0    0  0.92906708883E-02 -0.12224866642E+00  0.30577241071E-01  0.12799604118E+00  0.20419742398E-01 0.  0.
         14    1    1    2    0    0 -0.49905083988E-02 -0.18427544642E-01  0.13940165384E-01  0.23639115605E-01  0.00000000000E+00 0.  1.
     999901    1    3    3    0    0 -0.43001624894E-02  0.14067621106E+00 -0.44517406456E-01  0.89229484322E+00  0.88000000000E+00 0.  1.
        -11    1    4    4    0    0 -0.28398907360E-02 -0.84723311752E-01  0.22958374014E-01  0.87826263680E-01  0.51100000000E-03 0.  1.
         11    1    4    4    0    0  0.12130561624E-01 -0.37525354664E-01  0.76188670577E-02  0.40169777498E-01  0.51100000000E-03 0. -1.
</event>
<event>
 8    1  0.1072332E+005  0.1043930E+01  0.7957747E-01            NaN
         13   -1    0    0    0    0  0.00000000000E+00  0.00000000000E+00  0.74505805969E-08  0.10566000000E+00  0.10566000000E+00 0.  1.
     999900   -1    0    0    0    0 -0.00000000000E+00 -0.00000000000E+00 -0.74505805969E-08  0.93827000000E+00  0.93827000000E+00 0. -1.
     999902    2    1    2    0    0  0.10050907143E-01  0.16082821728E-01 -0.16776271882E-01  0.10186096290E+01  0.10182948763E+01 0.  0.
     999903    2    3    3    0    0  0.45614045601E-01  0.31274776931E-01  0.11389306936E+00  0.12812099401E+00  0.19611349498E-01 0.  0.
         14    1    1    2    0    0 -0.10050907143E-01 -0.16082821728E-01  0.16776271882E-01  0.25320370996E-01  0.00000000000E+00 0.  1.
     999901    1    3    3    0    0 -0.35563138458E-01 -0.15191955202E-01 -0.13066934124E+00  0.89048863500E+00  0.88000000000E+00 0. -1.
        -11    1    4    4    0    0  0.45598921068E-01  0.27410100079E-01  0.95516061788E-01  0.10933505554E+00  0.51100000000E-03 0.  1.
         11    1    4    4    0    0  0.15124533335E-04  0.38646768521E-02  0.18377007570E-01  0.18785938469E-01  0.51100000000E-03 0. -1.
</event>
<event>
 8    1  0.1072332E+005  0.1043930E+01  0.7957747E-01            NaN
         13   -1    0    0    0    0  0.00000000000E+00  0.00000000000E+00  0.74505805969E-08  0.10566000000E+00  0.10566000000E+00 0. -1.
     999900   -1    0    0    0    0 -0.00000000000E+00 -0.00000000000E+00 -0.74505805969E-08  0.93827000000E+00  0.93827000000E+00 0.  1.
     999902    2    1    2    0    0 -0.20872059244E-01  0.74925348966E-02  0.90000331078E-02  0.10199971453E+01  0.10197163306E+01 0.  0.
     999903    2    3    3    0    0  0.67363360788E-01 -0.62909343035E-01  0.88379433817E-01  0.12924296880E+00  0.19935216196E-01 0.  0.
         14    1    1    2    0    0  0.20872059244E-01 -0.74925348966E-02 -0.90000331078E-02  0.23932854661E-01  0.00000000000E+00 0.  1.
     999901    1    3    3    0    0 -0.88235420032E-01  0.70401877932E-01 -0.79379400709E-01  0.89075417654E+00  0.88000000000E+00 0.  1.
        -11    1    4    4    0    0  0.30908243923E-01 -0.17329139637E-01  0.27083412703E-01  0.44602589472E-01  0.51100000000E-03 0. -1.
         11    1    4    4    0    0  0.36455116864E-01 -0.45580203398E-01  0.61296021115E-01  0.84640379329E-01  0.51100000000E-03 0.  1.
</event>
<event>
 8    1  0.1072332E+005  0.1043930E+01  0.7957747E-01            NaN
         13   -1    0    0    0    0  0.00000000000E+00  0.00000000000E+00  0.74505805969E-08  0.10566000000E+00  0.10566000000E+00 0.  1.
     999900   -1    0    0    0    0 -0.00000000000E+00 -0.00000000000E+00 -0.74505805969E-08  0.93827000000E+00  0.93827000000E+00 0. -1.
     999902    2    1    2    0    0  0.10328893833E-01  0.21658849880E-01  0.22858527202E-02  0.10198257068E+01  0.10195408061E+01 0.  0.
     999903    2    3    3    0    0  0.69023137996E-01  0.11129644517E+00  0.91808928199E-02  0.13330021123E+00  0.23099031031E-01 0.  0.
         14    1    1    2    0    0 -0.10328893833E-01 -0.21658849880E-01 -0.22858527202E-02  0.24104293157E-01  0.00000000000E+00 0. -1.
     999901    1    3    3    0    0 -0.58694244163E-01 -0.89637595295E-01 -0.68950400997E-02  0.88652549561E+00  0.88000000000E+00 0. -1.
        -11    1    4    4    0    0  0.32093201424E-01  0.46080893749E-01  0.15001661765E-01  0.58126872642E-01  0.51100000000E-03 0.  1.
         11    1    4    4    0    0  0.36929936572E-01  0.65215551425E-01 -0.58207689453E-02  0.75173338592E-01  0.51100000000E-03 0. -1.
</event>
<event>
 8    1  0.1072332E+005  0.1043930E+01  0.7957747E-01            NaN
         13   -1    0    0    0    0  0.00000000000E+00  0.00000000000E+00  0.74505805969E-08  0.10566000000E+00  0.10566000000E+00 0.  1.
     999900   -1    0    0    0    0 -0.00000000000E+00 -0.00000000000E+00 -0.74505805969E-08  0.93827000000E+00  0.93827000000E+00 0.  1.
     999902    2    1    2    0    0 -0.51834087223E-02 -0.92474959797E-02 -0.21157370042E-01  0.10202652960E+01  0.10199908117E+01 0.  0.
     999903    2    3    3    0    0 -0.15414483274E-01 -0.10007753665E+00 -0.84640037766E-01  0.13325637820E+00  0.18444693059E-01 0.  0.
         14    1    1    2    0    0  0.51834087223E-02  0.92474959797E-02  0.21157370042E-01  0.23664703991E-01  0.00000000000E+00 0.  1.
     999901    1    3    3    0    0  0.10231074552E-01  0.90830040666E-01  0.63482667724E-01  0.88700891781E+00  0.88000000000E+00 0. -1.
        -11    1    4    4    0    0 -0.93337072120E-02 -0.20390769179E-01 -0.24634519554E-01  0.33316996153E-01  0.51100000000E-03 0.  1.
         11    1    4    4    0    0 -0.60807760623E-02 -0.79686767466E-01 -0.60005518212E-01  0.99939382046E-01  0.51100000000E-03 0. -1.
</event>
<event>
 8    1  0.1072332E+005  0.1043930E+01  0.7957747E-01            NaN
         13   -1    0    0    0    0  0.00000000000E+00  0.00000000000E+00  0.74505805969E-08  0.10566000000E+00  0.10566000000E+00 0. -1.
     999900   -1    0    0    0    0 -0.00000000000E+00 -0.00000000000E+00 -0.74505805969E-08  0.93827000000E+00  0.93827000000E+00 0. -1.
     999902    2    1    2    0    0  0.87401854797E-02 -0.14750982523E-01  0.16809299107E-01  0.10199188596E+01  0.10196361828E+01 0.  0.
     999903    2    3    3    0    0  0.44174557586E-01  0.15847007979E-01 -0.11782797507E+00  0.12844871014E+00  0.20325359214E-01 0.  0.
         14    1    1    2    0    0 -0.87401854797E-02  0.14750982523E-01 -0.16809299107E-01  0.24011140416E-01  0.00000000000E+00 0.  1.
     999901    1    3    3    0    0 -0.35434372107E-01 -0.30597990501E-01  0.13463727418E+00  0.89147014944E+00  0.88000000000E+00 0.  1.
        -11    1    4    4    0    0  0.30802610944E-01  0.63025293484E-02 -0.53525151043E-01  0.62078382972E-01  0.51100000000E-03 0. -1.
         11    1    4    4    0    0  0.13371946642E-01  0.95444786304E-02 -0.64302824030E-01  0.66370327170E-01  0.51100000000E-03 0.  1.
</event>
<event>
 8    1  0.1072332E+005  0.1043930E+01  0.7957747E-01            NaN
         13   -1    0    0    0    0  0.00000000000E+00  0.00000000000E+00  0.74505805969E-08  0.10566000000E+00  0.10566000000E+00 0. -1.
     999900   -1    0    0    0    0 -0.00000000000E+00 -0.00000000000E+00 -0.74505805969E-08  0.93827000000E+00  0.93827000000E+00 0.  1.
     999902    2    1    2    0    0  0.94187805340E-02  0.15431429201E-01  0.16641567228E-01  0.10193579795E+01  0.10190617774E+01 0.  0.
     999903    2    3    3    0    0 -0.10905155054E+00  0.59970522645E-01 -0.28204070805E-01  0.12917255976E+00  0.20034378492E-01 0.  0.
         14    1    1    2    0    0 -0.94187805340E-02 -0.15431429201E-01 -0.16641567228E-01  0.24572020547E-01  0.00000000000E+00 0.  1.
     999901    1    3    3    0    0  0.11847033108E+00 -0.44539093444E-01  0.44845638033E-01  0.89018541970E+00  0.88000000000E+00 0. -1.
        -11    1    4    4    0    0 -0.82943491776E-01  0.39961508554E-01 -0.28143378853E-01  0.96274897497E-01  0.51100000000E-03 0.  1.
         11    1    4    4    0    0 -0.26108058768E-01  0.20009014092E-01 -0.60691951375E-04  0.32897662259E-01  0.51100000000E-03 0. -1.
</event>
<event>
 8    1  0.1072332E+005  0.1043930E+01  0.7957747E-01            NaN
         13   -1    0    0    0    0  0.00000000000E+00  0.00000000000E+00  0.74505805969E-08  0.10566000000E+00  0.10566000000E+00 0.  1.
     999900   -1    0    0    0    0 -0.00000000000E+00 -0.00000000000E+00 -0.74505805969E-08  0.93827000000E+00  0.93827000000E+00 0.  1.
     999902    2    1    2    0    0  0.23455063666E-01  0.45603337496E-02 -0.24029755248E-02  0.10199151932E+01  0.10196324290E+01 0.  0.
     999903    2    3    3    0    0  0.80612302957E-01  0.10253131484E+00 -0.13936795995E-01  0.13256053344E+00  0.19158466314E-01 0.  0.
         14    1    1    2    0    0 -0.23455063666E-01 -0.45603337496E-02  0.24029755248E-02  0.24014806825E-01  0.00000000000E+00 0.  1.
     999901    1    3    3    0    0 -0.57157239291E-01 -0.97970981094E-01  0.11533820470E-01  0.88735465974E+00  0.88000000000E+00 0.  1.
        -11    1    4    4    0    0  0.21685333156E-01  0.42436290458E-01 -0.51721966838E-02  0.47938556105E-01  0.51100000000E-03 0. -1.
         11    1    4    4    0    0  0.58926969801E-01  0.60095024386E-01 -0.87645993110E-02  0.84621977334E-01  0.51100000000E-03 0.  1.
</event>
<event>
 7    1  0.1072332E+005  0.1043930E+01  0.7957747E-01            NaN
         13   -1    0    0    0    0  0.00000000000E+00  0.00000000000E+00  0.74505805969E-08  0.10566000000E+00  0.10566000000E+00 0.  1.
     999900   -1    0    0    0    0 -0.00000000000E+00 -0.00000000000E+00 -0.74505805969E-08  0.93827000000E+00  0.93827000000E+00 0.  1.
     999903    2    1    2    0    0 -0.87068163839E-01  0.56091624232E-01 -0.80944387488E-02  0.10580446727E+00  0.20048189240E-01 0.  0.
         14    1    1    2    0    0 -0.24976428290E-01  0.16398103943E-02 -0.40728496767E-01  0.47805035270E-01  0.00000000000E+00 0. -1.
     999901    1    1    2    0    0  0.11204459213E+00 -0.57731434626E-01  0.48822935516E-01  0.89032049746E+00  0.88000000000E+00 0. -1.
        -11    1    3    3    0    0 -0.15369912340E-01  0.86447444082E-02 -0.90378078692E-02  0.19821929858E-01  0.51100000000E-03 0. -1.
         11    1    3    3    0    0 -0.71698251500E-01  0.47446879823E-01  0.94336912036E-03  0.85982537409E-01  0.51100000000E-03 0.  1.
</event>
<event>
 8    1  0.1072332E+005  0.1043930E+01  0.7957747E-01            NaN
         13   -1    0    0    0    0  0.00000000000E+00  0.00000000000E+00  0.74505805969E-08  0.10566000000E+00  0.10566000000E+00 0.  1.
     999900   -1    0    0    0    0 -0.00000000000E+00 -0.00000000000E+00 -0.74505805969E-08  0.93827000000E+00  0.93827000000E+00 0.  1.
     999902    2    1    2    0    0 -0.21381720525E-01 -0.63358734356E-03 -0.14259547263E-01  0.10182217505E+01  0.10178971554E+01 0.  0.
     999903    2    3    3    0    0  0.16309467828E-01 -0.12080197322E+00  0.33642527131E-01  0.12796578988E+00  0.19603782140E-01 0.  0.
         14    1    1    2    0    0  0.21381720525E-01  0.63358734356E-03  0.14259547263E-01  0.25708249526E-01  0.00000000000E+00 0.  1.
     999901    1    3    3    0    0 -0.37691188353E-01  0.12016838587E+00 -0.47902074394E-01  0.89025596059E+00  0.88000000000E+00 0.  1.
        -11    1    4    4    0    0  0.81289492033E-03 -0.62867113769E-01  0.23596436363E-01  0.67156442147E-01  0.51100000000E-03 0. -1.
         11    1    4    4    0    0  0.15496572908E-01 -0.57934859447E-01  0.10046090768E-01  0.60809347733E-01  0.51100000000E-03 0.  1.
</event>
<event>
 8    1  0.1072332E+005  0.1043930E+01  0.7957747E-01            NaN
         13   -1    0    0    0    0  0.00000000000E+00  0.00000000000E+00  0.74505805969E-08  0.10566000000E+00  0.10566000000E+00 0. -1.
     999900   -1    0    0    0    0 -0.00000000000E+00 -0.00000000000E+00 -0.74505805969E-08  0.93827000000E+00  0.93827000000E+00 0.  1.
     999902    2    1    2    0    0  0.10220948712E-01  0.20271709666E-01  0.66033392471E-02  0.10202865211E+01  0.10200125347E+01 0.  0.
     999903    2    3    3    0    0  0.10112251383E+00  0.58327334832E-01  0.60828170887E-01  0.13312720197E+00  0.19873216621E-01 0.  0.
         14    1    1    2    0    0 -0.10220948712E-01 -0.20271709666E-01 -0.66033392471E-02  0.23643478901E-01  0.00000000000E+00 0. -1.
     999901    1    3    3    0    0 -0.90901565121E-01 -0.38055625166E-01 -0.54224831640E-01  0.88715931913E+00  0.88000000000E+00 0.  1.
        -11    1    4    4    0    0  0.82314650867E-01  0.53487531999E-01  0.44645975435E-01  0.10784313641E+00  0.51100000000E-03 0.  1.
         11    1    4    4    0    0  0.18807862965E-01  0.48398028332E-02  0.16182195451E-01  0.25284065563E-01  0.51100000000E-03 0. -1.
</event>
<event>
 8    1  0.1072332E+005  0.1043930E+01  0.7957747E-01            NaN
         13   -1    0    0    0    0  0.00000000000E+00  0.00000000000E+00  0.74505805969E-08  0.10566000000E+00  0.10566000000E+00 0. -1.
     999900   -1    0    0    0    0 -0.00000000000E+00 -0.00000000000E+00 -0.74505805969E-08  0.93827000000E+00  0.93827000000E+00 0.  1.
     999902    2    1    2    0    0  0.15162412263E-01  0.11937256385E-01  0.13112198212E-01  0.10205991925E+01  0.10203324876E+01 0.  0.
     999903    2    3    3    0    0  0.33902545656E-01  0.83414645965E-01 -0.93105712634E-01  0.13113730216E+00  0.20516640305E-01 0.  0.
         14    1    1    2    0    0 -0.15162412263E-01 -0.11937256385E-01 -0.13112198212E-01  0.23330807479E-01  0.00000000000E+00 0.  1.
     999901    1    3    3    0    0 -0.18740133393E-01 -0.71477389580E-01  0.10621791085E+00  0.88946189036E+00  0.88000000000E+00 0. -1.
        -11    1    4    4    0    0  0.15548138930E-01  0.52038948422E-01 -0.43226623579E-01  0.69416128415E-01  0.51100000000E-03 0. -1.
         11    1    4    4    0    0  0.18354406726E-01  0.31375697542E-01 -0.49879089054E-01  0.61721173745E-01  0.51100000000E-03 0.  1.
</event>
<event>
 8    1  0.1072332E+005  0.1043930E+01  0.7957747E-01            NaN
         13   -1    0    0    0    0  0.00000000000E+00  0.00000000000E+00  0.74505805969E-08  0.10566000000E+00  0.10566000000E+00 0.  1.
     999900   -1    0    0    0    0 -0.00000000000E+00 -0.00000000000E+00 -0.74505805969E-08  0.93827000000E+00  0.93827000000E+00 0.  1.
     999902    2    1    2    0    0  0.67153758663E-03  0.17720702193E-01  0.16202777367E-01  0.10199090874E+01  0.10196261777E+01 0.  0.
     999903    2    3    3    0    0  0.37196210624E-01  0.30731470732E-01  0.12206460559E+00  0.13271685425E+00  0.19647241182E-01 0.  0.
         14    1    1    2    0    0 -0.67153758663E-03 -0.17720702193E-01 -0.16202777367E-01  0.24020912625E-01  0.00000000000E+00 0. -1.
     999901    1    3    3    0    0 -0.36524673037E-01 -0.13010768539E-01 -0.10586182822E+00  0.88719223312E+00  0.88000000000E+00 0.  1.
        -11    1    4    4    0    0  0.21072803134E-02  0.16424119709E-02  0.28607954754E-01  0.28736985639E-01  0.51100000000E-03 0.  1.
         11    1    4    4    0    0  0.35088930310E-01  0.29089058761E-01  0.93456650838E-01  0.10397986861E+00  0.51100000000E-03 0. -1.
</event>
<event>
 8    1  0.1072332E+005  0.1043930E+01  0.7957747E-01            NaN
         13   -1    0    0    0    0  0.00000000000E+00  0.00000000000E+00  0.74505805969E-08  0.10566000000E+00  0.10566000000E+00 0.  1.
     999900   -1    0    0    0    0 -0.00000000000E+00 -0.00000000000E+00 -0.74505805969E-08  0.93827000000E+00  0.93827000000E+00 0.  1.
     999902    2    1    2    0    0 -0.93156170998E-02  0.19546574471E-01 -0.17513463771E-01  0.10160809298E+01  0.10156992100E+01 0.  0.
     999903    2    3    3    0    0  0.48600448337E-01  0.29833024438E-01  0.10981843237E+00  0.12497291536E+00  0.17496529980E-01 0.  0.
         14    1    1    2    0    0  0.93156170998E-02 -0.19546574471E-01  0.17513463771E-01  0.27849070160E-01  0.00000000000E+00 0.  1.
     999901    1    3    3    0    0 -0.57916065437E-01 -0.10286449967E-01 -0.12733189614E+00  0.89110801448E+00  0.88000000000E+00 0.  1.
        -11    1    4    4    0    0  0.46932227387E-01  0.22606908261E-01  0.93305315796E-01  0.10686369517E+00  0.51100000000E-03 0. -1.
         11    1    4    4    0    0  0.16682209505E-02  0.72261161773E-02  0.16513116572E-01  0.18109220195E-01  0.51100000000E-03 0.  1.
</event>
<event>
 8    1  0.1072332E+005  0.1043930E+01  0.7957747E-01            NaN
         13   -1    0    0    0    0  0.00000000000E+00  0.00000000000E+00  0.74505805969E-08  0.10566000000E+00  0.10566000000E+00 0.  1.
     999900   -1    0    0    0    0 -0.00000000000E+00 -0.00000000000E+00 -0.74505805969E-08  0.93827000000E+00  0.93827000000E+00 0.  1.
     999902    2    1    2    0    0 -0.41664618276E-02  0.14045054911E-01 -0.18104167072E-01  0.10206408644E+01  0.10203751223E+01 0.  0.
     999903    2    3    3    0    0 -0.60121161964E-01  0.57998512821E-01  0.97703909308E-01  0.13020594511E+00  0.20715999705E-01 0.  0.
         14    1    1    2    0    0  0.41664618276E-02 -0.14045054911E-01  0.18104167072E-01  0.23289135600E-01  0.00000000000E+00 0. -1.
     999901    1    3    3    0    0  0.55954700136E-01 -0.43953457910E-01 -0.11580807638E+00  0.89043491929E+00  0.88000000000E+00 0.  1.
        -11    1    4    4    0    0 -0.48865616835E-01  0.48763144699E-01  0.90855250747E-01  0.11410797737E+00  0.51100000000E-03 0. -1.
         11    1    4    4    0    0 -0.11255545129E-01  0.92353681216E-02  0.68486585607E-02  0.16097967747E-01  0.51100000000E-03 0.  1.
</event>
<event>
 8    1  0.1072332E+005  0.1043930E+01  0.7957747E-01            NaN
         13   -1    0    0    0    0  0.00000000000E+00  0.00000000000E+00  0.74505805969E-08  0.10566000000E+00  0.10566000000E+00 0. -1.
     999900   -1    0    0    0    0 -0.00000000000E+00 -0.00000000000E+00 -0.74505805969E-08  0.93827000000E+00  0.93827000000E+00 0. -1.
     999902    2    1    2    0    0  0.15224175550E-01 -0.15289698110E-01  0.11352579336E-01  0.10195490351E+01  0.10192574766E+01 0.  0.
     999903    2    3    3    0    0  0.62544030563E-01  0.41326779964E-01 -0.10313111715E+00  0.12907101126E+00  0.20090796957E-01 0.  0.
         14    1    1    2    0    0 -0.15224175550E-01  0.15289698110E-01 -0.11352579336E-01  0.24380964851E-01  0.00000000000E+00 0. -1.
     999901    1    3    3    0    0 -0.47319855013E-01 -0.56616478074E-01  0.11448369648E+00  0.89047802389E+00  0.88000000000E+00 0.  1.
        -11    1    4    4    0    0  0.26540610137E-01  0.18382853501E-01 -0.61376840602E-01  0.69352079800E-01  0.51100000000E-03 0. -1.
         11    1    4    4    0    0  0.36003420427E-01  0.22943926463E-01 -0.41754276545E-01  0.59718931461E-01  0.51100000000E-03 0.  1.
</event>
<event>
 8    1  0.1072332E+005  0.1043930E+01  0.7957747E-01            NaN
         13   -1    0    0    0    0  0.00000000000E+00  0.00000000000E+00  0.74505805969E-08  0.10566000000E+00  0.10566000000E+00 0. -1.
     999900   -1    0    0    0    0 -0.00000000000E+00 -0.00000000000E+00 -0.74505805969E-08  0.93827000000E+00  0.93827000000E+00 0.  1.
     999902    2    1    2    0    0 -0.16066936359E-01 -0.83440338248E-02  0.15529164538E-01  0.10200778660E+01  0.10197989647E+01 0.  0.
     999903    2    3    3    0    0 -0.40091165270E-01  0.33394698626E-01  0.12022630137E+00  0.13256404876E+00  0.19908692923E-01 0.  0.
         14    1    1    2    0    0  0.16066936359E-01  0.83440338248E-02 -0.15529164538E-01  0.23852133986E-01  0.00000000000E+00 0.  1.
     999901    1    3    3    0    0  0.24024228911E-01 -0.41738732451E-01 -0.10469713683E+00  0.88751381726E+00  0.88000000000E+00 0.  1.
        -11    1    4    4    0    0 -0.14918680048E-01  0.41905611239E-02  0.20955645077E-01  0.26067757834E-01  0.51100000000E-03 0. -1.
         11    1    4    4    0    0 -0.25172485223E-01  0.29204137502E-01  0.99270656288E-01  0.10649629092E+00  0.51100000000E-03 0.  1.
</event>
<event>
 8    1  0.1072332E+005  0.1043930E+01  0.7957747E-01            NaN
         13   -1    0    0    0    0  0.00000000000E+00  0.00000000000E+00  0.74505805969E-08  0.10566000000E+00  0.10566000000E+00 0.  1.
     999900   -1    0    0    0    0 -0.00000000000E+00 -0.00000000000E+00 -0.74505805969E-08  0.93827000000E+00  0.93827000000E+00 0. -1.
     999902    2    1    2    0    0  0.49052987945E-02 -0.21496065860E-01 -0.94030306730E-02  0.10199600232E+01  0.10196783263E+01 0.  0.
     999903    2    3    3    0    0 -0.24182910451E-01 -0.60000920449E-01 -0.11368477268E+00  0.13248978171E+00  0.21080585973E-01 0.  0.
         14    1    1    2    0    0 -0.49052987945E-02  0.21496065860E-01  0.94030306730E-02  0.23969976837E-01  0.00000000000E+00 0.  1.
     999901    1    3    3    0    0  0.29088209246E-01  0.38504854589E-01  0.10428174201E+00  0.88747024145E+00  0.88000000000E+00 0.  1.
        -11    1    4    4    0    0 -0.23765568948E-01 -0.32179119933E-01 -0.61961408945E-01  0.73754832700E-01  0.51100000000E-03 0.  1.
         11    1    4    4    0    0 -0.41734150288E-03 -0.27821800516E-01 -0.51723363739E-01  0.58734949012E-01  0.51100000000E-03 0. -1.
</event>
<event>
 7    1  0.1072332E+005  0.1043930E+01  0.7957747E-01            NaN
         13   -1    0    0    0    0  0.00000000000E+00  0.00000000000E+00  0.74505805969E-08  0.10566000000E+00  0.10566000000E+00 0.  1.
     999900   -1    0    0    0    0 -0.00000000000E+00 -0.00000000000E+00 -0.74505805969E-08  0.93827000000E+00  0.93827000000E+00 0.  1.
     999903    2    1    2    0    0 -0.29835249379E-02  0.10108120333E+00 -0.49031688380E-01  0.11415626154E+00  0.20030838630E-01 0.  0.
         14    1    1    2    0    0  0.36361682244E-01  0.22455239307E-02  0.22265028776E-01  0.42695969596E-01  0.00000000000E+00 0.  1.
     999901    1    1    2    0    0 -0.33378157306E-01 -0.10332672726E+00  0.26766659605E-01  0.88707776887E+00  0.88000000000E+00 0. -1.
        -11    1    3    3    0    0 -0.84782789188E-02  0.74116722627E-01 -0.28675959051E-01  0.79923347871E-01  0.51100000000E-03 0.  1.
         11    1    3    3    0    0  0.54947539809E-02  0.26964480699E-01 -0.20355729329E-01  0.34232913668E-01  0.51100000000E-03 0. -1.
</event>
<event>
 8    1  0.1072332E+005  0.1043930E+01  0.7957747E-01            NaN
         13   -1    0    0    0    0  0.00000000000E+00  0.00000000000E+00  0.74505805969E-08  0.10566000000E+00  0.10566000000E+00 0.  1.
     999900   -1    0    0    0    0 -0.00000000000E+00 -0.00000000000E+00 -0.74505805969E-08  0.93827000000E+00  0.93827000000E+00 0. -1.
     999902    2    1    2    0    0 -0.12900708773E-02 -0.20439462281E-01 -0.10164797489E-01  0.10210660763E+01  0.10208100573E+01 0.  0.
     999903    2    3    3    0    0  0.70426208915E-01  0.67174888913E-01  0.82396131409E-01  0.12899711878E+00  0.19463236632E-01 0.  0.
         14    1    1    2    0    0  0.12900708773E-02  0.20439462281E-01  0.10164797489E-01  0.22863923749E-01  0.00000000000E+00 0.  1.
     999901    1    3    3    0    0 -0.71716279792E-01 -0.87614351193E-01 -0.92560928899E-01  0.89206895747E+00  0.88000000000E+00 0. -1.
        -11    1    4    4    0    0  0.22071431273E-01  0.96516113136E-02  0.19263365463E-01  0.30848663656E-01  0.51100000000E-03 0. -1.
         11    1    4    4    0    0  0.48354777642E-01  0.57523277599E-01  0.63132765947E-01  0.98148455126E-01  0.51100000000E-03 0.  1.
</event>
<event>
 8    1  0.1072332E+005  0.1043930E+01  0.7957747E-01            NaN
         13   -1    0    0    0    0  0.00000000000E+00  0.00000000000E+00  0.74505805969E-08  0.10566000000E+00  0.10566000000E+00 0. -1.
     999900   -1    0    0    0    0 -0.00000000000E+00 -0.00000000000E+00 -0.74505805969E-08  0.93827000000E+00  0.93827000000E+00 0. -1.
     999902    2    1    2    0    0  0.29044982858E-01  0.53672408719E-03 -0.39009607895E-02  0.10146193092E+01  0.10141958519E+01 0.  0.
     999903    2    3    3    0    0 -0.11443015445E+00 -0.19986398608E-01 -0.32333766822E-01  0.12231065290E+00  0.20511142307E-01 0.  0.
         14    1    1    2    0    0 -0.29044982858E-01 -0.53672408719E-03  0.39009607895E-02  0.29310690832E-01  0.00000000000E+00 0. -1.
     999901    1    3    3    0    0  0.14347513731E+00  0.20523122696E-01  0.28432806032E-01  0.89230865627E+00  0.88000000000E+00 0.  1.
        -11    1    4    4    0    0 -0.64254743023E-01 -0.14819147199E-01 -0.83966012961E-02  0.66475884041E-01  0.51100000000E-03 0.  1.
         11    1    4    4    0    0 -0.50175411428E-01 -0.51672514090E-02 -0.23937165526E-01  0.55834768859E-01  0.51100000000E-03 0. -1.
</event>
<event>
 8    1  0.1072332E+005  0.1043930E+01  0.7957747E-01            NaN
         13   -1    0    0    0    0  0.00000000000E+00  0.00000000000E+00  0.74505805969E-08  0.10566000000E+00  0.10566000000E+00 0. -1.
     999900   -1    0    0    0    0 -0.00000000000E+00 -0.00000000000E+00 -0.74505805969E-08  0.93827000000E+00  0.93827000000E+00 0. -1.
     999902    2    1    2    0    0  0.12960251404E-01  0.15355047912E-01 -0.16098925860E-01  0.10181827472E+01  0.10178571539E+01 0.  0.
     999903    2    3    3    0    0  0.26595856983E-01  0.12482867474E+00 -0.21992016060E-01  0.13127512336E+00  0.21446948431E-01 0.  0.
         14    1    1    2    0    0 -0.12960251404E-01 -0.15355047912E-01  0.16098925860E-01  0.25747252799E-01  0.00000000000E+00 0. -1.
     999901    1    3    3    0    0 -0.13635605578E-01 -0.10947362683E+00  0.58930902001E-02  0.88690762384E+00  0.88000000000E+00 0.  1.
        -11    1    4    4    0    0  0.20238940553E-01  0.54834279930E-01 -0.16703483470E-01  0.60792108462E-01  0.51100000000E-03 0. -1.
         11    1    4    4    0    0  0.63569164291E-02  0.69994394812E-01 -0.52885325894E-02  0.70483014901E-01  0.51100000000E-03 0.  1.
</event>
<event>
 8    1  0.1072332E+005  0.1043930E+01  0.7957747E-01            NaN
         13   -1    0    0    0    0  0.00000000000E+00  0.00000000000E+00  0.74505805969E-08  0.10566000000E+00  0.10566000000E+00 0.  1.
     999900   -1    0    0    0    0 -0.00000000000E+00 -0.00000000000E+00 -0.74505805969E-08  0.93827000000E+00  0.93827000000E+00 0.  1.
     999902    2    1    2    0    0 -0.23290707089E-02 -0.49151403275E-02 -0.22962988276E-01  0.10203316525E+01  0.10200587233E+01 0.  0.
     999903    2    3    3    0    0 -0.83892257441E-01 -0.66953108654E-01  0.69899647639E-01  0.12953160080E+00  0.19283289332E-01 0.  0.
         14    1    1    2    0    0  0.23290707089E-02  0.49151403275E-02  0.22962988276E-01  0.23598347513E-01  0.00000000000E+00 0.  1.
     999901    1    3    3    0    0  0.81563186733E-01  0.62037968326E-01 -0.92862635915E-01  0.89080005169E+00  0.88000000000E+00 0.  1.
        -11    1    4    4    0    0 -0.27216934632E-01 -0.29706477563E-01  0.17996583680E-01  0.44129066217E-01  0.51100000000E-03 0. -1.
         11    1    4    4    0    0 -0.56675322809E-01 -0.37246631090E-01  0.51903063959E-01  0.85402534579E-01  0.51100000000E-03 0.  1.
</event>
<event>
 8    1  0.1072332E+005  0.1043930E+01  0.7957747E-01            NaN
         13   -1    0    0    0    0  0.00000000000E+00  0.00000000000E+00  0.74505805969E-08  0.10566000000E+00  0.10566000000E+00 0.  1.
     999900   -1    0    0    0    0 -0.00000000000E+00 -0.00000000000E+00 -0.74505805969E-08  0.93827000000E+00  0.93827000000E+00 0.  1.
     999902    2    1    2    0    0  0.18782804056E-01 -0.14894770242E-01  0.13670820890E-02  0.10199192353E+01  0.10196365675E+01 0.  0.
     999903    2    3    3    0    0  0.33851571989E-01 -0.10575774719E+00 -0.69145013273E-01  0.13230721197E+00  0.19837728229E-01 0.  0.
         14    1    1    2    0    0 -0.18782804056E-01  0.14894770242E-01 -0.13670820890E-02  0.24010764715E-01  0.00000000000E+00 0. -1.
     999901    1    3    3    0    0 -0.15068767933E-01  0.90862976946E-01  0.70512095362E-01  0.88761202332E+00  0.88000000000E+00 0. -1.
        -11    1    4    4    0    0  0.23147541642E-01 -0.58243624170E-01 -0.28427989643E-01  0.68822526520E-01  0.51100000000E-03 0.  1.
         11    1    4    4    0    0  0.10704030347E-01 -0.47514123018E-01 -0.40717023630E-01  0.63484685446E-01  0.51100000000E-03 0. -1.
</event>
<event>
 8    1  0.1072332E+005  0.1043930E+01  0.7957747E-01            NaN
         13   -1    0    0    0    0  0.00000000000E+00  0.00000000000E+00  0.74505805969E-08  0.10566000000E+00  0.10566000000E+00 0.  1.
     999900   -1    0    0    0    0 -0.00000000000E+00 -0.00000000000E+00 -0.74505805969E-08  0.93827000000E+00  0.93827000000E+00 0.  1.
     999902    2    1    2    0    0  0.17199864953E-01 -0.14910761818E-01  0.82484402467E-02  0.10197183718E+01  0.10194308976E+01 0.  0.
     999903    2    3    3    0    0  0.90360410338E-01 -0.18732447950E-01  0.93095900172E-01  0.13260723891E+00  0.20048062746E-01 0.  0.
         14    1    1    2    0    0 -0.17199864953E-01  0.14910761818E-01 -0.82484402467E-02  0.24211628175E-01  0.00000000000E+00 0. -1.
     999901    1    3    3    0    0 -0.73160545385E-01  0.38216861317E-02 -0.84847459925E-01  0.88711113291E+00  0.88000000000E+00 0.  1.
        -11    1    4    4    0    0  0.56491791970E-01 -0.21376481789E-01  0.61751637878E-01  0.86381725123E-01  0.51100000000E-03 0.  1.
         11    1    4    4    0    0  0.33868618368E-01  0.26440338392E-02  0.31344262294E-01  0.46225513787E-01  0.51100000000E-03 0. -1.
</event>
<event>
 8    1  0.1072332E+005  0.1043930E+01  0.7957747E-01            NaN
         13   -1    0    0    0    0  0.00000000000E+00  0.00000000000E+00  0.74505805969E-08  0.10566000000E+00  0.10566000000E+00 0.  1.
     999900   -1    0    0    0    0 -0.00000000000E+00 -0.00000000000E+00 -0.74505805969E-08  0.93827000000E+00  0.93827000000E+00 0. -1.
     999902    2    1    2    0    0 -0.73177718959E-02  0.53643572375E-02  0.21047903996E-01  0.10210096951E+01  0.10207523976E+01 0.  0.
     999903    2    3    3    0    0  0.11177754619E+00 -0.63257927786E-01  0.36989590887E-02  0.13017093377E+00  0.20856760077E-01 0.  0.
         14    1    1    2    0    0  0.73177718959E-02 -0.53643572375E-02 -0.21047903996E-01  0.22920304900E-01  0.00000000000E+00 0. -1.
     999901    1    3    3    0    0 -0.11909531809E+00  0.68622285023E-01  0.17348944907E-01  0.89083876133E+00  0.88000000000E+00 0. -1.
        -11    1    4    4    0    0  0.90816045387E-01 -0.42708480754E-01 -0.14247703364E-02  0.10036861820E+00  0.51100000000E-03 0. -1.
         11    1    4    4    0    0  0.20961500804E-01 -0.20549447032E-01  0.51237294251E-02  0.29802315573E-01  0.51100000000E-03 0.  1.
</event>
<event>
 8    1  0.1072332E+005  0.1043930E+01  0.7957747E-01            NaN
         13   -1    0    0    0    0  0.00000000000E+00  0.00000000000E+00  0.74505805969E-08  0.10566000000E+00  0.10566000000E+00 0.  1.
     999900   -1    0    0    0    0 -0.00000000000E+00 -0.00000000000E+00 -0.74505805969E-08  0.93827000000E+00  0.93827000000E+00 0.  1.
     999902    2    1    2    0    0  0.92478163805E-02  0.27870353808E-01  0.11527874168E-01  0.10123836751E+01  0.10118920570E+01 0.  0.
     999903    2    3    3    0    0  0.92579901406E-01  0.53604536086E-01  0.64558234887E-01  0.12648373514E+00  0.19643959143E-01 0.  0.
         14    1    1    2    0    0 -0.92478163805E-02 -0.27870353808E-01 -0.11527874168E-01  0.31546324857E-01  0.00000000000E+00 0. -1.
     999901    1    3    3    0    0 -0.83332085025E-01 -0.25734182279E-01 -0.53030360720E-01  0.88589994000E+00  0.88000000000E+00 0.  1.
        -11    1    4    4    0    0  0.23771846253E-01  0.56923872357E-02  0.98033207944E-02  0.26341415420E-01  0.51100000000E-03 0. -1.
         11    1    4    4    0    0  0.68808055153E-01  0.47912148851E-01  0.54754914093E-01  0.10014231972E+00  0.51100000000E-03 0.  1.
</event>
<event>
 8    1  0.1072332E+005  0.1043930E+01  0.7957747E-01            NaN
         13   -1    0    0    0    0  0.00000000000E+00  0.00000000000E+00  0.74505805969E-08  0.10566000000E+00  0.10566000000E+00 0.  1.
     999900   -1    0    0    0    0 -0.00000000000E+00 -0.00000000000E+00 -0.74505805969E-08  0.93827000000E+00  0.93827000000E+00 0.  1.
     999902    2    1    2    0    0  0.36103566493E-02 -0.23489866812E-01 -0.24218838373E-02  0.10200412152E+01  0.10197614460E+01 0.  0.
     999903    2    3    3    0    0  0.40291442694E-01 -0.72275526645E-01  0.10067400479E+00  0.13192280815E+00  0.20523644059E-01 0.  0.
         14    1    1    2    0    0 -0.36103566493E-02  0.23489866812E-01  0.24218838373E-02  0.23888784802E-01  0.00000000000E+00 0. -1.
     999901    1    3    3    0    0 -0.36681086045E-01  0.48785659833E-01 -0.10309588862E+00  0.88811840704E+00  0.88000000000E+00 0.  1.
        -11    1    4    4    0    0  0.11674891101E-02 -0.18877820380E-01  0.25558428902E-01  0.31799835567E-01  0.51100000000E-03 0. -1.
         11    1    4    4    0    0  0.39123953584E-01 -0.53397706265E-01  0.75115575884E-01  0.10012297259E+00  0.51100000000E-03 0.  1.
</event>
<event>
 8    1  0.1072332E+005  0.1043930E+01  0.7957747E-01            NaN
         13   -1    0    0    0    0  0.00000000000E+00  0.00000000000E+00  0.74505805969E-08  0.10566000000E+00  0.10566000000E+00 0. -1.
     999900   -1    0    0    0    0 -0.00000000000E+00 -0.00000000000E+00 -0.74505805969E-08  0.93827000000E+00  0.93827000000E+00 0. -1.
     999902    2    1    2    0    0 -0.14570778594E-01 -0.18047889064E-01  0.21696135876E-02  0.10206331952E+01  0.10203672761E+01 0.  0.
     999903    2    3    3    0    0  0.56988182075E-01 -0.11600755976E+00  0.18251635799E-01  0.13216518042E+00  0.20714871191E-01 0.  0.
         14    1    1    2    0    0  0.14570778594E-01  0.18047889064E-01 -0.21696135876E-02  0.23296804751E-01  0.00000000000E+00 0.  1.
     999901    1    3    3    0    0 -0.71558960670E-01  0.97959670696E-01 -0.16082022211E-01  0.88846801483E+00  0.88000000000E+00 0. -1.
        -11    1    4    4    0    0  0.48098810041E-01 -0.81284561344E-01  0.75336164688E-02  0.94750683050E-01  0.51100000000E-03 0. -1.
         11    1    4    4    0    0  0.88893720348E-02 -0.34722998415E-01  0.10718019330E-01  0.37414497370E-01  0.51100000000E-03 0.  1.
</event>
<event>
 8    1  0.1072332E+005  0.1043930E+01  0.7957747E-01            NaN
         13   -1    0    0    0    0  0.00000000000E+00  0.00000000000E+00  0.74505805969E-08  0.10566000000E+00  0.10566000000E+00 0. -1.
     999900   -1    0    0    0    0 -0.00000000000E+00 -0.00000000000E+00 -0.74505805969E-08  0.93827000000E+00  0.93827000000E+00 0.  1.
     999902    2    1    2    0    0 -0.22577708308E-01 -0.69667094548E-02  0.13282507836E-02  0.10202645779E+01  0.10199900768E+01 0.  0.
     999903    2    3    3    0    0 -0.19796754854E-01  0.12708175133E+00  0.19299361575E-02  0.13010892546E+00  0.19568464581E-01 0.  0.
         14    1    1    2    0    0  0.22577708308E-01  0.69667094548E-02 -0.13282507836E-02  0.23665422101E-01  0.00000000000E+00 0.  1.
     999901    1    3    3    0    0 -0.27809534540E-02 -0.13404846079E+00 -0.60168537384E-03  0.89015565244E+00  0.88000000000E+00 0.  1.
        -11    1    4    4    0    0 -0.88572935987E-02  0.10330841226E+00  0.46539175068E-02  0.10379306221E+00  0.51100000000E-03 0.  1.
         11    1    4    4    0    0 -0.10939461256E-01  0.23773339076E-01 -0.27239813493E-02  0.26315863254E-01  0.51100000000E-03 0. -1.
</event>
<event>
 8    1  0.1072332E+005  0.1043930E+01  0.7957747E-01            NaN
         13   -1    0    0    0    0  0.00000000000E+00  0.00000000000E+00  0.74505805969E-08  0.10566000000E+00  0.10566000000E+00 0.  1.
     999900   -1    0    0    0    0 -0.00000000000E+00 -0.00000000000E+00 -0.74505805969E-08  0.93827000000E+00  0.93827000000E+00 0. -1.
     999902    2    1    2    0    0 -0.21717071829E-01  0.83099854986E-02 -0.54368373043E-02  0.10200501703E+01  0.10197706132E+01 0.  0.
     999903    2    3    3    0    0  0.92106765125E-02  0.12925470440E+00 -0.91694469692E-02  0.13123180693E+00  0.18603580814E-01 0.  0.
         14    1    1    2    0    0  0.21717071829E-01 -0.83099854986E-02  0.54368373043E-02  0.23879829725E-01  0.00000000000E+00 0. -1.
     999901    1    3    3    0    0 -0.30927748342E-01 -0.12094471891E+00  0.37326096648E-02  0.88881836335E+00  0.88000000000E+00 0. -1.
        -11    1    4    4    0    0  0.57666978692E-02  0.47219709080E-01  0.52654168678E-02  0.47863780311E-01  0.51100000000E-03 0. -1.
         11    1    4    4    0    0  0.34439786433E-02  0.82034995325E-01 -0.14434863837E-01  0.83368026616E-01  0.51100000000E-03 0.  1.
</event>
<event>
 8    1  0.1072332E+005  0.1043930E+01  0.7957747E-01            NaN
         13   -1    0    0    0    0  0.00000000000E+00  0.00000000000E+00  0.74505805969E-08  0.10566000000E+00  0.10566000000E+00 0.  1.
     999900   -1    0    0    0    0 -0.00000000000E+00 -0.00000000000E+00 -0.74505805969E-08  0.93827000000E+00  0.93827000000E+00 0.  1.
     999902    2    1    2    0    0  0.17519843042E-02 -0.15338440042E-01 -0.17278683570E-01  0.10207591110E+01  0.10204960914E+01 0.  0.
     999903    2    3    3    0    0  0.64909548286E-01  0.42665160358E-01 -0.10501679076E+00  0.13224840705E+00  0.20677269120E-01 0.  0.
         14    1    1    2    0    0 -0.17519843042E-02  0.15338440042E-01  0.17278683570E-01  0.23170889017E-01  0.00000000000E+00 0.  1.
     999901    1    3    3    0    0 -0.63157563982E-01 -0.58003600401E-01  0.87738107193E-01  0.88851070393E+00  0.88000000000E+00 0. -1.
        -11    1    4    4    0    0  0.80409150923E-02  0.97307753303E-02 -0.76212299932E-02  0.14754272997E-01  0.51100000000E-03 0. -1.
         11    1    4    4    0    0  0.56868633193E-01  0.32934385028E-01 -0.97395560770E-01  0.11749413405E+00  0.51100000000E-03 0.  1.
</event>
<event>
 8    1  0.1072332E+005  0.1043930E+01  0.7957747E-01            NaN
         13   -1    0    0    0    0  0.00000000000E+00  0.00000000000E+00  0.74505805969E-08  0.10566000000E+00  0.10566000000E+00 0.  1.
     999900   -1    0    0    0    0 -0.00000000000E+00 -0.00000000000E+00 -0.74505805969E-08  0.93827000000E+00  0.93827000000E+00 0. -1.
     999902    2    1    2    0    0 -0.24315220463E-01 -0.14112740142E-02 -0.97276077954E-02  0.10177031437E+01  0.10173651462E+01 0.  0.
     999903    2    3    3    0    0 -0.90373611399E-01 -0.16351028940E-01 -0.91783485604E-01  0.13129461799E+00  0.19476208501E-01 0.  0.
         14    1    1    2    0    0  0.24315220463E-01  0.14112740142E-02  0.97276077954E-02  0.26226856348E-01  0.00000000000E+00 0.  1.
     999901    1    3    3    0    0  0.66058390937E-01  0.14939754926E-01  0.82055877809E-01  0.88640852567E+00  0.88000000000E+00 0.  1.
        -11    1    4    4    0    0 -0.45639158088E-01 -0.78074171757E-02 -0.59840079867E-01  0.75663629264E-01  0.51100000000E-03 0.  1.
         11    1    4    4    0    0 -0.44734453311E-01 -0.85436117646E-02 -0.31943405737E-01  0.55630988721E-01  0.51100000000E-03 0. -1.
</event>
<event>
 8    1  0.1072332E+005  0.1043930E+01  0.7957747E-01            NaN
         13   -1    0    0    0    0  0.00000000000E+00  0.00000000000E+00  0.74505805969E-08  0.10566000000E+00  0.10566000000E+00 0. -1.
     999900   -1    0    0    0    0 -0.00000000000E+00 -0.00000000000E+00 -0.74505805969E-08  0.93827000000E+00  0.93827000000E+00 0. -1.
     999902    2    1    2    0    0  0.14122087642E-01  0.80078419475E-02 -0.25793331476E-01  0.10134528800E+01  0.10129945139E+01 0.  0.
     999903    2    3    3    0    0 -0.13049069585E-01 -0.17855950522E-03 -0.12520194143E+00  0.12740132360E+00  0.19628067060E-01 0.  0.
         14    1    1    2    0    0 -0.14122087642E-01 -0.80078419475E-02  0.25793331476E-01  0.30477119953E-01  0.00000000000E+00 0. -1.
     999901    1    3    3    0    0  0.27171157227E-01  0.81864014528E-02  0.99408609952E-01  0.88605155645E+00  0.88000000000E+00 0.  1.
        -11    1    4    4    0    0  0.21875104790E-02  0.64914009022E-02 -0.32547024157E-01  0.33263995404E-01  0.51100000000E-03 0. -1.
         11    1    4    4    0    0 -0.15236580064E-01 -0.66699604074E-02 -0.92654917271E-01  0.94137328194E-01  0.51100000000E-03 0.  1.
</event>
<event>
 8    1  0.1072332E+005  0.1043930E+01  0.7957747E-01            NaN
         13   -1    0    0    0    0  0.00000000000E+00  0.00000000000E+00  0.74505805969E-08  0.10566000000E+00  0.10566000000E+00 0.  1.
     999900   -1    0    0    0    0 -0.00000000000E+00 -0.00000000000E+00 -0.74505805969E-08  0.93827000000E+00  0.93827000000E+00 0.  1.
     999902    2    1    2    0    0  0.18174287408E-01 -0.20939696063E-02  0.15065751757E-01  0.10202304998E+01  0.10199551983E+01 0.  0.
     999903    2    3    3    0    0  0.66001362581E-01  0.31454285096E-01  0.10926112741E+00  0.13327746653E+00  0.21893770974E-01 0.  0.
         14    1    1    2    0    0 -0.18174287408E-01  0.20939696063E-02 -0.15065751757E-01  0.23699500153E-01  0.00000000000E+00 0.  1.
     999901    1    3    3    0    0 -0.47827075173E-01 -0.33548254702E-01 -0.94195375658E-01  0.88695303332E+00  0.88000000000E+00 0.  1.
        -11    1    4    4    0    0  0.17188653131E-02  0.39256766196E-02  0.16821046041E-01  0.17365890297E-01  0.51100000000E-03 0. -1.
         11    1    4    4    0    0  0.64282497268E-01  0.27528608476E-01  0.92440081373E-01  0.11591157623E+00  0.51100000000E-03 0.  1.
</event>
<event>
 8    1  0.1072332E+005  0.1043930E+01  0.7957747E-01            NaN
         13   -1    0    0    0    0  0.00000000000E+00  0.00000000000E+00  0.74505805969E-08  0.10566000000E+00  0.10566000000E+00 0. -1.
     999900   -1    0    0    0    0 -0.00000000000E+00 -0.00000000000E+00 -0.74505805969E-08  0.93827000000E+00  0.93827000000E+00 0.  1.
     999902    2    1    2    0    0 -0.10243245407E-01  0.11666377947E-01 -0.16993310232E-01  0.10209125926E+01  0.10206530854E+01 0.  0.
     999903    2    3    3    0    0  0.16876858900E-01  0.12705440105E+00 -0.28271355517E-01  0.13289396090E+00  0.20829933036E-01 0.  0.
         14    1    1    2    0    0  0.10243245407E-01 -0.11666377947E-01  0.16993310232E-01  0.23017407402E-01  0.00000000000E+00 0.  1.
     999901    1    3    3    0    0 -0.27120104307E-01 -0.11538802310E+00  0.11278045286E-01  0.88801863170E+00  0.88000000000E+00 0. -1.
        -11    1    4    4    0    0  0.16992643098E-01  0.62625292621E-01 -0.81939695504E-02  0.65407029082E-01  0.51100000000E-03 0.  1.
         11    1    4    4    0    0 -0.11578419757E-03  0.64429108424E-01 -0.20077385967E-01  0.67486931821E-01  0.51100000000E-03 0. -1.
</event>
<event>
 8    1  0.1072332E+005  0.1043930E+01  0.7957747E-01            NaN
         13   -1    0    0    0    0  0.00000000000E+00  0.00000000000E+00  0.74505805969E-08  0.10566000000E+00  0.10566000000E+00 0.  1.
     999900   -1    0    0    0    0 -0.00000000000E+00 -0.00000000000E+00 -0.74505805969E-08  0.93827000000E+00  0.93827000000E+00 0.  1.
     999902    2    1    2    0    0  0.18449313452E-02 -0.14382181739E-01 -0.20693490146E-01  0.10186620072E+01  0.10183485717E+01 0.  0.
     999903    2    3    3    0    0  0.10220155535E+00  0.64677610634E-01  0.35470640960E-01  0.12766463779E+00  0.20291430184E-01 0.  0.
         14    1    1    2    0    0 -0.18449313452E-02  0.14382181739E-01  0.20693490146E-01  0.25267992751E-01  0.00000000000E+00 0.  1.
     999901    1    3    3    0    0 -0.10035662401E+00 -0.79059792373E-01 -0.56164131106E-01  0.89099736945E+00  0.88000000000E+00 0.  1.
        -11    1    4    4    0    0  0.51097012244E-01  0.21619034791E-01  0.20726446318E-01  0.59229502982E-01  0.51100000000E-03 0.  1.
         11    1    4    4    0    0  0.51104543110E-01  0.43058575843E-01  0.14744194642E-01  0.68435134812E-01  0.51100000000E-03 0. -1.
</event>
<event>
 8    1  0.1072332E+005  0.1043930E+01  0.7957747E-01            NaN
         13   -1    0    0    0    0  0.00000000000E+00  0.00000000000E+00  0.74505805969E-08  0.10566000000E+00  0.10566000000E+00 0.  1.
     999900   -1    0    0    0    0 -0.00000000000E+00 -0.00000000000E+00 -0.74505805969E-08  0.93827000000E+00  0.93827000000E+00 0.  1.
     999902    2    1    2    0    0  0.67244899539E-02 -0.20241590301E-01  0.10249500418E-01  0.10202658287E+01  0.10199913570E+01 0.  0.
     999903    2    3    3    0    0 -0.66345485131E-02 -0.12885542296E+00  0.26937762551E-01  0.13333069771E+00  0.20092153708E-01 0.  0.
         14    1    1    2    0    0 -0.67244899539E-02  0.20241590301E-01 -0.10249500418E-01  0.23664171269E-01  0.00000000000E+00 0.  1.
     999901    1    3    3    0    0  0.13359038467E-01  0.10861383265E+00 -0.16688262133E-01  0.88693513102E+00  0.88000000000E+00 0.  1.
        -11    1    4    4    0    0 -0.21291863865E-02 -0.12034011510E+00  0.28148492149E-01  0.12360774841E+00  0.51100000000E-03 0.  1.
         11    1    4    4    0    0 -0.45053621266E-02 -0.85153078556E-02 -0.12107295980E-02  0.97229492916E-02  0.51100000000E-03 0. -1.
</event>
<event>
 8    1  0.1072332E+005  0.1043930E+01  0.7957747E-01            NaN
         13   -1    0    0    0    0  0.00000000000E+00  0.00000000000E+00  0.74505805969E-08  0.10566000000E+00  0.10566000000E+00 0.  1.
     999900   -1    0    0    0    0 -0.00000000000E+00 -0.00000000000E+00 -0.74505805969E-08  0.93827000000E+00  0.93827000000E+00 0. -1.
     999902    2    1    2    0    0  0.18478492342E-02  0.17186455112E-01  0.11333201847E-01  0.10232604511E+01  0.10230516705E+01 0.  0.
     999903    2    3    3    0    0  0.16754891449E-01 -0.93930480957E-01 -0.87328484130E-01  0.13067806185E+00  0.18623374226E-01 0.  0.
         14    1    1    2    0    0 -0.18478492342E-02 -0.17186455112E-01 -0.11333201847E-01  0.20669548863E-01  0.00000000000E+00 0. -1.
     999901    1    3    3    0    0 -0.14907042215E-01  0.11111693607E+00  0.98661685978E-01  0.89258238929E+00  0.88000000000E+00 0.  1.
        -11    1    4    4    0    0  0.15724102900E-01 -0.39554552885E-01 -0.33655667309E-01  0.54265782303E-01  0.51100000000E-03 0.  1.
         11    1    4    4    0    0  0.10307885493E-02 -0.54375928072E-01 -0.53672816821E-01  0.76412279545E-01  0.51100000000E-03 0. -1.
</event>
<event>
 8    1  0.1072332E+005  0.1043930E+01  0.7957747E-01            NaN
         13   -1    0    0    0    0  0.00000000000E+00  0.00000000000E+00  0.74505805969E-08  0.10566000000E+00  0.10566000000E+00 0. -1.
     999900   -1    0    0    0    0 -0.00000000000E+00 -0.00000000000E+00 -0.74505805969E-08  0.93827000000E+00  0.93827000000E+00 0.  1.
     999902    2    1    2    0    0  0.14747576193E-01  0.18981125002E-01 -0.49082629739E-02  0.10193970598E+01  0.10191018106E+01 0.  0.
     999903    2    3    3    0    0 -0.39203951177E-01  0.16790061471E-02 -0.12213314109E+00  0.12981749467E+00  0.19907509156E-01 0.  0.
         14    1    1    2    0    0 -0.14747576193E-01 -0.18981125002E-01  0.49082629739E-02  0.24532940210E-01  0.00000000000E+00 0.  1.
     999901    1    3    3    0    0  0.53951527371E-01  0.17302118855E-01  0.11722487812E+00  0.88957956512E+00  0.88000000000E+00 0. -1.
        -11    1    4    4    0    0 -0.26182054541E-01 -0.86632708265E-03 -0.49763544062E-01  0.56239860786E-01  0.51100000000E-03 0.  1.
         11    1    4    4    0    0 -0.13021896637E-01  0.25453332297E-02 -0.72369597030E-01  0.73577633888E-01  0.51100000000E-03 0. -1.
</event>
<event>
 8    1  0.1072332E+005  0.1043930E+01  0.7957747E-01            NaN
         13   -1    0    0    0    0  0.00000000000E+00  0.00000000000E+00  0.74505805969E-08  0.10566000000E+00  0.10566000000E+00 0. -1.
     999900   -1    0    0    0    0 -0.00000000000E+00 -0.00000000000E+00 -0.74505805969E-08  0.93827000000E+00  0.93827000000E+00 0.  1.
     999902    2    1    2    0    0 -0.84703364303E-02  0.19871389453E-01 -0.24526517247E-02  0.10221898478E+01  0.10219586345E+01 0.  0.
     999903    2    3    3    0    0 -0.11620086354E+00 -0.56878922765E-01  0.17798111778E-01  0.13207380461E+00  0.19719648540E-01 0.  0.
         14    1    1    2    0    0  0.84703364303E-02 -0.19871389453E-01  0.24526517247E-02  0.21740152219E-01  0.00000000000E+00 0.  1.
     999901    1    3    3    0    0  0.10773052711E+00  0.76750312218E-01 -0.20250763503E-01  0.89011604318E+00  0.88000000000E+00 0.  1.
        -11    1    4    4    0    0 -0.66973252379E-01 -0.34056051456E-01  0.56103311228E-03  0.75138585654E-01  0.51100000000E-03 0.  1.
         11    1    4    4    0    0 -0.49227611157E-01 -0.22822871309E-01  0.17237078666E-01  0.56935218951E-01  0.51100000000E-03 0. -1.
</event>
<event>
 8    1  0.1072332E+005  0.1043930E+01  0.7957747E-01            NaN
         13   -1    0    0    0    0  0.00000000000E+00  0.00000000000E+00  0.74505805969E-08  0.10566000000E+00  0.10566000000E+00 0. -1.
     999900   -1    0    0    0    0 -0.00000000000E+00 -0.00000000000E+00 -0.74505805969E-08  0.93827000000E+00  0.93827000000E+00 0.  1.
     999902    2    1    2    0    0  0.15472873075E-01 -0.65532407673E-02  0.19360427953E-01  0.10182944595E+01  0.10179717213E+01 0.  0.
     999903    2    3    3    0    0  0.10569599963E+00  0.51547445137E-01 -0.49523182865E-01  0.12910333601E+00  0.19655591835E-01 0.  0.
         14    1    1    2    0    0 -0.15472873075E-01  0.65532407673E-02 -0.19360427953E-01  0.25635540491E-01  0.00000000000E+00 0.  1.
     999901    1    3    3    0    0 -0.90223126554E-01 -0.58100685904E-01  0.68883610818E-01  0.88919112350E+00  0.88000000000E+00 0.  1.
        -11    1    4    4    0    0  0.92543461607E-01  0.47747708482E-01 -0.49731101316E-01  0.11540181762E+00  0.51100000000E-03 0. -1.
         11    1    4    4    0    0  0.13152538022E-01  0.37997366543E-02  0.20791845072E-03  0.13701518389E-01  0.51100000000E-03 0.  1.
</event>
<event>
 8    1  0.1072332E+005  0.1043930E+01  0.7957747E-01            NaN
         13   -1    0    0    0    0  0.00000000000E+00  0.00000000000E+00  0.74505805969E-08  0.10566000000E+00  0.10566000000E+00 0.  1.
     999900   -1    0    0    0    0 -0.00000000000E+00 -0.00000000000E+00 -0.74505805969E-08  0.93827000000E+00  0.93827000000E+00 0.  1.
     999902    2    1    2    0    0  0.63626730940E-02 -0.10270126344E-01 -0.20269119905E-01  0.10203334679E+01  0.10200605813E+01 0.  0.
     999903    2    3    3    0    0  0.92044784907E-01 -0.12040796483E-01  0.88092408986E-01  0.12955471846E+00  0.20172489845E-01 0.  0.
         14    1    1    2    0    0 -0.63626730940E-02  0.10270126344E-01  0.20269119905E-01  0.23596532071E-01  0.00000000000E+00 0.  1.
     999901    1    3    3    0    0 -0.85682111813E-01  0.17706701383E-02 -0.10836152889E+00  0.89077874947E+00  0.88000000000E+00 0. -1.
        -11    1    4    4    0    0  0.44956520566E-01  0.92216053046E-03  0.32085463916E-01  0.55241987991E-01  0.51100000000E-03 0.  1.
         11    1    4    4    0    0  0.47088264341E-01 -0.12962957013E-01  0.56006945070E-01  0.74312730472E-01  0.51100000000E-03 0. -1.
</event>
<event>
 8    1  0.1072332E+005  0.1043930E+01  0.7957747E-01            NaN
         13   -1    0    0    0    0  0.00000000000E+00  0.00000000000E+00  0.74505805969E-08  0.10566000000E+00  0.10566000000E+00 0.  1.
     999900   -1    0    0    0    0 -0.00000000000E+00 -0.00000000000E+00 -0.74505805969E-08  0.93827000000E+00  0.93827000000E+00 0. -1.
     999902    2    1    2    0    0  0.59751672585E-02  0.50539142955E-02 -0.22228426049E-01  0.10203641858E+01  0.10200920175E+01 0.  0.
     999903    2    3    3    0    0  0.12773694975E+00 -0.63171588956E-02 -0.25224571091E-01  0.13190247597E+00  0.20133289652E-01 0.  0.
         14    1    1    2    0    0 -0.59751672585E-02 -0.50539142955E-02  0.22228426049E-01  0.23565814182E-01  0.00000000000E+00 0.  1.
     999901    1    3    3    0    0 -0.12176178249E+00  0.11371073191E-01  0.29961450421E-02  0.88846170985E+00  0.88000000000E+00 0.  1.
        -11    1    4    4    0    0  0.68725988976E-01  0.35944757602E-02 -0.61495708478E-02  0.69096021299E-01  0.51100000000E-03 0.  1.
         11    1    4    4    0    0  0.59010960774E-01 -0.99116346558E-02 -0.19075000243E-01  0.62806454671E-01  0.51100000000E-03 0. -1.
</event>
<event>
 8    1  0.1072332E+005  0.1043930E+01  0.7957747E-01            NaN
         13   -1    0    0    0    0  0.00000000000E+00  0.00000000000E+00  0.74505805969E-08  0.10566000000E+00  0.10566000000E+00 0. -1.
     999900   -1    0    0    0    0 -0.00000000000E+00 -0.00000000000E+00 -0.74505805969E-08  0.93827000000E+00  0.93827000000E+00 0.  1.
     999902    2    1    2    0    0  0.11418696815E-01  0.20953785407E-01  0.30067230435E-02  0.10198782195E+01  0.10195945736E+01 0.  0.
     999903    2    3    3    0    0 -0.15146889462E-01 -0.12250159712E+00  0.25829755976E-01  0.12757442151E+00  0.19286968950E-01 0.  0.
         14    1    1    2    0    0 -0.11418696815E-01 -0.20953785407E-01 -0.30067230435E-02  0.24051780460E-01  0.00000000000E+00 0.  1.
     999901    1    3    3    0    0  0.26565586277E-01  0.14345538253E+00 -0.22823032933E-01  0.89230379803E+00  0.88000000000E+00 0.  1.
        -11    1    4    4    0    0 -0.27939969963E-02 -0.40252608588E-01 -0.42823191529E-03  0.40354967736E-01  0.51100000000E-03 0. -1.
         11    1    4    4    0    0 -0.12352892466E-01 -0.82248988534E-01  0.26257987891E-01  0.87219453772E-01  0.51100000000E-03 0.  1.
</event>
<event>
 8    1  0.1072332E+005  0.1043930E+01  0.7957747E-01            NaN
         13   -1    0    0    0    0  0.00000000000E+00  0.00000000000E+00  0.74505805969E-08  0.10566000000E+00  0.10566000000E+00 0. -1.
     999900   -1    0    0    0    0 -0.00000000000E+00 -0.00000000000E+00 -0.74505805969E-08  0.93827000000E+00  0.93827000000E+00 0.  1.
     999902    2    1    2    0    0 -0.17246173210E-01 -0.16047792085E-01  0.10219277398E-02  0.10203502108E+01  0.10200777158E+01 0.  0.
     999903    2    3    3    0    0 -0.12736800209E+00  0.28029664408E-01 -0.93258640113E-02  0.13233178976E+00  0.20407371177E-01 0.  0.
         14    1    1    2    0    0  0.17246173210E-01  0.16047792085E-01 -0.10219277398E-02  0.23579789174E-01  0.00000000000E+00 0.  1.
     999901    1    3    3    0    0  0.11012182888E+00 -0.44077456493E-01  0.10347791751E-01  0.88801842107E+00  0.88000000000E+00 0. -1.
        -11    1    4    4    0    0 -0.50065143195E-01  0.13083126166E-01  0.60725442525E-02  0.52103969793E-01  0.51100000000E-03 0. -1.
         11    1    4    4    0    0 -0.77302858890E-01  0.14946538242E-01 -0.15398408264E-01  0.80227819963E-01  0.51100000000E-03 0.  1.
</event>
<event>
 8    1  0.1072332E+005  0.1043930E+01  0.7957747E-01            NaN
         13   -1    0    0    0    0  0.00000000000E+00  0.00000000000E+00  0.74505805969E-08  0.10566000000E+00  0.10566000000E+00 0. -1.
     999900   -1    0    0    0    0 -0.00000000000E+00 -0.00000000000E+00 -0.74505805969E-08  0.93827000000E+00  0.93827000000E+00 0. -1.
     999902    2    1    2    0    0  0.40852272582E-02 -0.20628759000E-01  0.11525340162E-01  0.10199494194E+01  0.10196674703E+01 0.  0.
     999903    2    3    3    0    0 -0.10310434860E+00 -0.79628491507E-01  0.75069392685E-03  0.13141879720E+00  0.17295472066E-01 0.  0.
         14    1    1    2    0    0 -0.40852272582E-02  0.20628759000E-01 -0.11525340162E-01  0.23980580592E-01  0.00000000000E+00 0. -1.
     999901    1    3    3    0    0  0.10718957586E+00  0.58999732507E-01  0.10774646235E-01  0.88853062221E+00  0.88000000000E+00 0. -1.
        -11    1    4    4    0    0 -0.40533690598E-01 -0.41723810721E-01  0.26848959263E-02  0.58235094588E-01  0.51100000000E-03 0.  1.
         11    1    4    4    0    0 -0.62570658006E-01 -0.37904680786E-01 -0.19342019994E-02  0.73183702607E-01  0.51100000000E-03 0. -1.
</event>
<event>
 8    1  0.1072332E+005  0.1043930E+01  0.7957747E-01            NaN
         13   -1    0    0    0    0  0.00000000000E+00  0.00000000000E+00  0.74505805969E-08  0.10566000000E+00  0.10566000000E+00 0.  1.
     999900   -1    0    0    0    0 -0.00000000000E+00 -0.00000000000E+00 -0.74505805969E-08  0.93827000000E+00  0.93827000000E+00 0. -1.
     999902    2    1    2    0    0  0.14077791789E-01  0.58471914032E-02  0.19042964740E-01  0.10195372065E+01  0.10192453616E+01 0.  0.
     999903    2    3    3    0    0 -0.41705894975E-01 -0.10948119310E+00  0.51207118176E-01  0.12967935900E+00  0.21657651775E-01 0.  0.
         14    1    1    2    0    0 -0.14077791789E-01 -0.58471914032E-02 -0.19042964740E-01  0.24392793506E-01  0.00000000000E+00 0. -1.
     999901    1    3    3    0    0  0.55783686763E-01  0.11532838450E+00 -0.32164153436E-01  0.88985784749E+00  0.88000000000E+00 0. -1.
        -11    1    4    4    0    0 -0.13321212737E-01 -0.40545817616E-01  0.29999267300E-01  0.52169293597E-01  0.51100000000E-03 0. -1.
         11    1    4    4    0    0 -0.28384682238E-01 -0.68935375484E-01  0.21207850876E-01  0.77510065402E-01  0.51100000000E-03 0.  1.
</event>
<event>
 8    1  0.1072332E+005  0.1043930E+01  0.7957747E-01            NaN
         13   -1    0    0    0    0  0.00000000000E+00  0.00000000000E+00  0.74505805969E-08  0.10566000000E+00  0.10566000000E+00 0.  1.
     999900   -1    0    0    0    0 -0.00000000000E+00 -0.00000000000E+00 -0.74505805969E-08  0.93827000000E+00  0.93827000000E+00 0.  1.
     999902    2    1    2    0    0 -0.52159253483E-02 -0.23306407734E-01 -0.10086166672E-02  0.10200257781E+01  0.10197456428E+01 0.  0.
     999903    2    3    3    0    0  0.10111639181E-01  0.46191683573E-01 -0.11857090880E+00  0.12935984099E+00  0.20952116093E-01 0.  0.
         14    1    1    2    0    0  0.52159253483E-02  0.23306407734E-01  0.10086166672E-02  0.23904221934E-01  0.00000000000E+00 0.  1.
     999901    1    3    3    0    0 -0.15327564530E-01 -0.69498091308E-01  0.11756229214E+00  0.89066593707E+00  0.88000000000E+00 0. -1.
        -11    1    4    4    0    0  0.15598915097E-01  0.28719402313E-01 -0.85803351517E-01  0.91818334084E-01  0.51100000000E-03 0.  1.
         11    1    4    4    0    0 -0.54872759159E-02  0.17472281260E-01 -0.32767557287E-01  0.37541506909E-01  0.51100000000E-03 0. -1.
</event>
<event>
 8    1  0.1072332E+005  0.1043930E+01  0.7957747E-01            NaN
         13   -1    0    0    0    0  0.00000000000E+00  0.00000000000E+00  0.74505805969E-08  0.10566000000E+00  0.10566000000E+00 0.  1.
     999900   -1    0    0    0    0 -0.00000000000E+00 -0.00000000000E+00 -0.74505805969E-08  0.93827000000E+00  0.93827000000E+00 0. -1.
     999902    2    1    2    0    0 -0.22270167412E-01  0.84994020917E-02  0.23144468011E-02  0.10199809529E+01  0.10196997536E+01 0.  0.
     999903    2    3    3    0    0  0.97932857445E-01  0.80822865864E-01  0.13532321876E-01  0.12879898983E+00  0.16818912938E-01 0.  0.
         14    1    1    2    0    0  0.22270167412E-01 -0.84994020917E-02 -0.23144468011E-02  0.23949047089E-01  0.00000000000E+00 0. -1.
     999901    1    3    3    0    0 -0.12020302486E+00 -0.72323463772E-01 -0.11217875075E-01  0.89118196308E+00  0.88000000000E+00 0. -1.
        -11    1    4    4    0    0  0.41567042156E-01  0.30674382816E-01 -0.22810535672E-02  0.51712678147E-01  0.51100000000E-03 0. -1.
         11    1    4    4    0    0  0.56365815289E-01  0.50148483048E-01  0.15813375443E-01  0.77086311684E-01  0.51100000000E-03 0.  1.
</event>
<event>
 8    1  0.1072332E+005  0.1043930E+01  0.7957747E-01            NaN
         13   -1    0    0    0    0  0.00000000000E+00  0.00000000000E+00  0.74505805969E-08  0.10566000000E+00  0.10566000000E+00 0. -1.
     999900   -1    0    0    0    0 -0.00000000000E+00 -0.00000000000E+00 -0.74505805969E-08  0.93827000000E+00  0.93827000000E+00 0.  1.
     999902    2    1    2    0    0  0.13855545561E-01 -0.88916947303E-02  0.16945783056E-01  0.10203037870E+01  0.10200302053E+01 0.  0.
     999903    2    3    3    0    0  0.11025915515E+00  0.69245350404E-01  0.49477220731E-02  0.13151640677E+00  0.17890932005E-01 0.  0.
         14    1    1    2    0    0 -0.13855545561E-01  0.88916947303E-02 -0.16945783056E-01  0.23626213013E-01  0.00000000000E+00 0.  1.
     999901    1    3    3    0    0 -0.96403609594E-01 -0.78137045134E-01  0.11998060983E-01  0.88878738022E+00  0.88000000000E+00 0. -1.
        -11    1    4    4    0    0  0.58307589925E-01  0.32536307181E-01 -0.57048001725E-02  0.67016357658E-01  0.51100000000E-03 0. -1.
         11    1    4    4    0    0  0.51951565230E-01  0.36709043223E-01  0.10652522246E-01  0.64500049112E-01  0.51100000000E-03 0.  1.
</event>
<event>
 8    1  0.1072332E+005  0.1043930E+01  0.7957747E-01            NaN
         13   -1    0    0    0    0  0.00000000000E+00  0.00000000000E+00  0.74505805969E-08  0.10566000000E+00  0.10566000000E+00 0. -1.
     999900   -1    0    0    0    0 -0.00000000000E+00 -0.00000000000E+00 -0.74505805969E-08  0.93827000000E+00  0.93827000000E+00 0.  1.
     999902    2    1    2    0    0  0.95846840760E-02  0.34002192709E-02  0.22971642286E-01  0.10188078184E+01  0.10184980347E+01 0.  0.
     999903    2    3    3    0    0 -0.84519983254E-02 -0.12644629877E+00  0.14150797487E-01  0.12905321881E+00  0.19859140627E-01 0.  0.
         14    1    1    2    0    0 -0.95846840760E-02 -0.34002192709E-02 -0.22971642286E-01  0.25122181618E-01  0.00000000000E+00 0.  1.
     999901    1    3    3    0    0  0.18036682401E-01  0.12984651804E+00  0.88208447996E-02  0.88975459957E+00  0.88000000000E+00 0. -1.
        -11    1    4    4    0    0 -0.78097074145E-02 -0.58530690267E-01  0.15742520201E-01  0.61114002457E-01  0.51100000000E-03 0. -1.
         11    1    4    4    0    0 -0.64229091090E-03 -0.67915608505E-01 -0.15917227144E-02  0.67939216351E-01  0.51100000000E-03 0.  1.
</event>
<event>
 8    1  0.1072332E+005  0.1043930E+01  0.7957747E-01            NaN
         13   -1    0    0    0    0  0.00000000000E+00  0.00000000000E+00  0.74505805969E-08  0.10566000000E+00  0.10566000000E+00 0.  1.
     999900   -1    0    0    0    0 -0.00000000000E+00 -0.00000000000E+00 -0.74505805969E-08  0.93827000000E+00  0.93827000000E+00 0.  1.
     999902    2    1    2    0    0 -0.16945400236E-01  0.18711989122E-01 -0.44616736451E-02  0.10182942504E+01  0.10179715068E+01 0.  0.
     999903    2    3    3    0    0  0.11847445710E+00 -0.30766336775E-01  0.22771901246E-01  0.12614610681E+00  0.20285864874E-01 0.  0.
         14    1    1    2    0    0  0.16945400236E-01 -0.18711989122E-01  0.44616736451E-02  0.25635749604E-01  0.00000000000E+00 0. -1.
     999901    1    3    3    0    0 -0.13541985734E+00  0.49478325896E-01 -0.27233574891E-01  0.89214814358E+00  0.88000000000E+00 0.  1.
        -11    1    4    4    0    0  0.10337745480E+00 -0.19631381235E-01  0.17676920827E-01  0.10670062765E+00  0.51100000000E-03 0.  1.
         11    1    4    4    0    0  0.15097002299E-01 -0.11134955539E-01  0.50949804193E-02  0.19445479160E-01  0.51100000000E-03 0. -1.
</event>
<event>
 8    1  0.1072332E+005  0.1043930E+01  0.7957747E-01            NaN
         13   -1    0    0    0    0  0.00000000000E+00  0.00000000000E+00  0.74505805969E-08  0.10566000000E+00  0.10566000000E+00 0. -1.
     999900   -1    0    0    0    0 -0.00000000000E+00 -0.00000000000E+00 -0.74505805969E-08  0.93827000000E+00  0.93827000000E+00 0. -1.
     999902    2    1    2    0    0 -0.18714459161E-01 -0.62188920532E-02  0.14053896445E-01  0.10197139391E+01  0.10194263583E+01 0.  0.
     999903    2    3    3    0    0  0.38363786153E-01  0.93490886927E-01 -0.76107995465E-01  0.12767743040E+00  0.17227107501E-01 0.  0.
         14    1    1    2    0    0  0.18714459161E-01  0.62188920532E-02 -0.14053896445E-01  0.24216060896E-01  0.00000000000E+00 0.  1.
     999901    1    3    3    0    0 -0.57078245313E-01 -0.99709778980E-01  0.90161891910E-01  0.89203650871E+00  0.88000000000E+00 0.  1.
        -11    1    4    4    0    0  0.29811748715E-01  0.61498747195E-01 -0.42441580628E-01  0.80451135201E-01  0.51100000000E-03 0.  1.
         11    1    4    4    0    0  0.85520374379E-02  0.31992139732E-01 -0.33666414837E-01  0.47226295196E-01  0.51100000000E-03 0. -1.
</event>
<event>
 8    1  0.1072332E+005  0.1043930E+01  0.7957747E-01            NaN
         13   -1    0    0    0    0  0.00000000000E+00  0.00000000000E+00  0.74505805969E-08  0.10566000000E+00  0.10566000000E+00 0. -1.
     999900   -1    0    0    0    0 -0.00000000000E+00 -0.00000000000E+00 -0.74505805969E-08  0.93827000000E+00  0.93827000000E+00 0.  1.
     999902    2    1    2    0    0  0.10087421349E-01 -0.27841397497E-02 -0.20836933821E-01  0.10206129394E+01  0.10203465523E+01 0.  0.
     999903    2    3    3    0    0  0.41021971362E-02 -0.16583942983E-01 -0.13102356966E+00  0.13361386827E+00  0.19840231882E-01 0.  0.
         14    1    1    2    0    0 -0.10087421349E-01  0.27841397497E-02  0.20836933821E-01  0.23317060593E-01  0.00000000000E+00 0. -1.
     999901    1    3    3    0    0  0.59852242130E-02  0.13799803234E-01  0.11018663584E+00  0.88699907114E+00  0.88000000000E+00 0. -1.
        -11    1    4    4    0    0 -0.57959757232E-02 -0.11335900972E-01 -0.95912090704E-01  0.96754773782E-01  0.51100000000E-03 0. -1.
         11    1    4    4    0    0  0.98981728594E-02 -0.52480420118E-02 -0.35111478958E-01  0.36859094489E-01  0.51100000000E-03 0.  1.
</event>
<event>
 8    1  0.1072332E+005  0.1043930E+01  0.7957747E-01            NaN
         13   -1    0    0    0    0  0.00000000000E+00  0.00000000000E+00  0.74505805969E-08  0.10566000000E+00  0.10566000000E+00 0.  1.
     999900   -1    0    0    0    0 -0.00000000000E+00 -0.00000000000E+00 -0.74505805969E-08  0.93827000000E+00  0.93827000000E+00 0. -1.
     999902    2    1    2    0    0  0.70499696506E-02  0.22061310402E-01  0.38426806624E-02  0.10204529967E+01  0.10201828997E+01 0.  0.
     999903    2    3    3    0    0 -0.99962857583E-01 -0.31182228557E-01 -0.72746441985E-01  0.12907624508E+00  0.20092982599E-01 0.  0.
         14    1    1    2    0    0 -0.70499696506E-02 -0.22061310402E-01 -0.38426806624E-02  0.23477003288E-01  0.00000000000E+00 0. -1.
     999901    1    3    3    0    0  0.10701282723E+00  0.53243538959E-01  0.76589122648E-01  0.89137675163E+00  0.88000000000E+00 0.  1.
        -11    1    4    4    0    0 -0.51210614699E-01 -0.97495512832E-02 -0.26208032993E-01  0.58349832240E-01  0.51100000000E-03 0. -1.
         11    1    4    4    0    0 -0.48752242884E-01 -0.21432677274E-01 -0.46538408993E-01  0.70726412845E-01  0.51100000000E-03 0.  1.
</event>
<event>
 8    1  0.1072332E+005  0.1043930E+01  0.7957747E-01            NaN
         13   -1    0    0    0    0  0.00000000000E+00  0.00000000000E+00  0.74505805969E-08  0.10566000000E+00  0.10566000000E+00 0. -1.
     999900   -1    0    0    0    0 -0.00000000000E+00 -0.00000000000E+00 -0.74505805969E-08  0.93827000000E+00  0.93827000000E+00 0.  1.
     999902    2    1    2    0    0 -0.23301323627E-01  0.26710048430E-02  0.12999340247E-01  0.10171145418E+01  0.10167609957E+01 0.  0.
     999903    2    3    3    0    0  0.33944263901E-01  0.11737381890E+00  0.34311708548E-01  0.12757083302E+00  0.12969104800E-01 0.  0.
         14    1    1    2    0    0  0.23301323627E-01 -0.26710048430E-02 -0.12999340247E-01  0.26815458163E-01  0.00000000000E+00 0.  1.
     999901    1    3    3    0    0 -0.57245587528E-01 -0.11470281406E+00 -0.21312368300E-01  0.88954370881E+00  0.88000000000E+00 0.  1.
        -11    1    4    4    0    0  0.14379085257E-01  0.29295702671E-01  0.85960720348E-02  0.33751294245E-01  0.51100000000E-03 0. -1.
         11    1    4    4    0    0  0.19565178644E-01  0.88078116233E-01  0.25715636513E-01  0.93819538779E-01  0.51100000000E-03 0.  1.
</event>
<event>
 8    1  0.1072332E+005  0.1043930E+01  0.7957747E-01            NaN
         13   -1    0    0    0    0  0.00000000000E+00  0.00000000000E+00  0.74505805969E-08  0.10566000000E+00  0.10566000000E+00 0. -1.
     999900   -1    0    0    0    0 -0.00000000000E+00 -0.00000000000E+00 -0.74505805969E-08  0.93827000000E+00  0.93827000000E+00 0. -1.
     999902    2    1    2    0    0  0.22707652367E-01 -0.64924296960E-03 -0.11664633107E-01  0.10183933076E+01  0.10180730850E+01 0.  0.
     999903    2    3    3    0    0  0.15231260636E-01 -0.74495761587E-01  0.10125738202E+00  0.12807842722E+00  0.19220205838E-01 0.  0.
         14    1    1    2    0    0 -0.22707652367E-01  0.64924296960E-03  0.11664633107E-01  0.25536692385E-01  0.00000000000E+00 0.  1.
     999901    1    3    3    0    0  0.74763917306E-02  0.73846518617E-01 -0.11292201512E+00  0.89031488039E+00  0.88000000000E+00 0. -1.
        -11    1    4    4    0    0  0.71564319277E-03 -0.41620171869E-01  0.44839696836E-01  0.61185050339E-01  0.51100000000E-03 0. -1.
         11    1    4    4    0    0  0.14515617443E-01 -0.32875589718E-01  0.56417685181E-01  0.66893376886E-01  0.51100000000E-03 0.  1.
</event>
<event>
 8    1  0.1072332E+005  0.1043930E+01  0.7957747E-01            NaN
         13   -1    0    0    0    0  0.00000000000E+00  0.00000000000E+00  0.74505805969E-08  0.10566000000E+00  0.10566000000E+00 0.  1.
     999900   -1    0    0    0    0 -0.00000000000E+00 -0.00000000000E+00 -0.74505805969E-08  0.93827000000E+00  0.93827000000E+00 0.  1.
     999902    2    1    2    0    0 -0.91370447591E-02  0.17274049211E-01 -0.63602893591E-02  0.10233792909E+01  0.10231729284E+01 0.  0.
     999903    2    3    3    0    0 -0.11973181181E+00  0.27159634327E-01  0.51255650174E-01  0.13453255285E+00  0.19962805519E-01 0.  0.
         14    1    1    2    0    0  0.91370447591E-02 -0.17274049211E-01  0.63602893591E-02  0.20550709083E-01  0.00000000000E+00 0.  1.
     999901    1    3    3    0    0  0.11059476705E+00 -0.98855851159E-02 -0.57615939533E-01  0.88884673807E+00  0.88000000000E+00 0.  1.
        -11    1    4    4    0    0 -0.71058970509E-01  0.15539639595E-01  0.40826230749E-01  0.83414027157E-01  0.51100000000E-03 0. -1.
         11    1    4    4    0    0 -0.48672841302E-01  0.11619994732E-01  0.10429419425E-01  0.51118525688E-01  0.51100000000E-03 0.  1.
</event>
<event>
 8    1  0.1072332E+005  0.1043930E+01  0.7957747E-01            NaN
         13   -1    0    0    0    0  0.00000000000E+00  0.00000000000E+00  0.74505805969E-08  0.10566000000E+00  0.10566000000E+00 0. -1.
     999900   -1    0    0    0    0 -0.00000000000E+00 -0.00000000000E+00 -0.74505805969E-08  0.93827000000E+00  0.93827000000E+00 0. -1.
     999902    2    1    2    0    0  0.30099615029E-02  0.20295806479E-01  0.12126045196E-01  0.10200968172E+01  0.10198183642E+01 0.  0.
     999903    2    3    3    0    0  0.13344457532E-01 -0.12121201712E+00  0.34572676764E-01  0.12844939968E+00  0.20821879309E-01 0.  0.
         14    1    1    2    0    0 -0.30099615029E-02 -0.20295806479E-01 -0.12126045196E-01  0.23833182771E-01  0.00000000000E+00 0.  1.
     999901    1    3    3    0    0 -0.10334496029E-01  0.14150782360E+00 -0.22446631568E-01  0.89164741755E+00  0.88000000000E+00 0.  1.
        -11    1    4    4    0    0 -0.24050230608E-02 -0.66647522234E-01  0.22501444589E-01  0.70386451008E-01  0.51100000000E-03 0.  1.
         11    1    4    4    0    0  0.15749480593E-01 -0.54564494891E-01  0.12071232175E-01  0.58062948675E-01  0.51100000000E-03 0. -1.
</event>
<event>
 8    1  0.1072332E+005  0.1043930E+01  0.7957747E-01            NaN
         13   -1    0    0    0    0  0.00000000000E+00  0.00000000000E+00  0.74505805969E-08  0.10566000000E+00  0.10566000000E+00 0. -1.
     999900   -1    0    0    0    0 -0.00000000000E+00 -0.00000000000E+00 -0.74505805969E-08  0.93827000000E+00  0.93827000000E+00 0. -1.
     999902    2    1    2    0    0 -0.29700111849E-02  0.23978478579E-01 -0.55012532313E-02  0.10191499236E+01  0.10188486220E+01 0.  0.
     999903    2    3    3    0    0 -0.12296660921E+00  0.38780560918E-01 -0.11999704123E-01  0.13085914062E+00  0.18852132492E-01 0.  0.
         14    1    1    2    0    0  0.29700111849E-02 -0.23978478579E-01  0.55012532313E-02  0.24780076443E-01  0.00000000000E+00 0.  1.
     999901    1    3    3    0    0  0.11999659803E+00 -0.14802082339E-01  0.64984508914E-02  0.88829078293E+00  0.88000000000E+00 0.  1.
        -11    1    4    4    0    0 -0.14348708486E-01  0.99342476982E-02  0.21346325797E-02  0.17589556271E-01  0.51100000000E-03 0. -1.
         11    1    4    4    0    0 -0.10861790073E+00  0.28846313220E-01 -0.14134336702E-01  0.11326958435E+00  0.51100000000E-03 0.  1.
</event>
<event>
 8    1  0.1072332E+005  0.1043930E+01  0.7957747E-01            NaN
         13   -1    0    0    0    0  0.00000000000E+00  0.00000000000E+00  0.74505805969E-08  0.10566000000E+00  0.10566000000E+00 0. -1.
     999900   -1    0    0    0    0 -0.00000000000E+00 -0.00000000000E+00 -0.74505805969E-08  0.93827000000E+00  0.93827000000E+00 0. -1.
     999902    2    1    2    0    0 -0.27395207193E-02  0.37411134681E-02 -0.22890119022E-01  0.10205749480E+01  0.10203076821E+01 0.  0.
     999903    2    3    3    0    0  0.10194073175E+00  0.74829717739E-01  0.24960018805E-01  0.13023727018E+00  0.18637182141E-01 0.  0.
         14    1    1    2    0    0  0.27395207193E-02 -0.37411134681E-02  0.22890119022E-01  0.23355051971E-01  0.00000000000E+00 0. -1.
     999901    1    3    3    0    0 -0.10468025247E+00 -0.71088604271E-01 -0.47850137827E-01  0.89033767785E+00  0.88000000000E+00 0. -1.
        -11    1    4    4    0    0  0.54688329112E-01  0.51086847523E-01  0.12095982103E-01  0.75810640644E-01  0.51100000000E-03 0. -1.
         11    1    4    4    0    0  0.47252402636E-01  0.23742870216E-01  0.12864036702E-01  0.54426629532E-01  0.51100000000E-03 0.  1.
</event>
<event>
 8    1  0.1072332E+005  0.1043930E+01  0.7957747E-01            NaN
         13   -1    0    0    0    0  0.00000000000E+00  0.00000000000E+00  0.74505805969E-08  0.10566000000E+00  0.10566000000E+00 0.  1.
     999900   -1    0    0    0    0 -0.00000000000E+00 -0.00000000000E+00 -0.74505805969E-08  0.93827000000E+00  0.93827000000E+00 0. -1.
     999902    2    1    2    0    0 -0.24076113396E-01  0.41883593920E-02  0.28897003177E-02  0.10193220347E+01  0.10190249547E+01 0.  0.
     999903    2    3    3    0    0 -0.37272930551E-01  0.48712235380E-01 -0.11328927788E+00  0.13047216741E+00  0.20648795573E-01 0.  0.
         14    1    1    2    0    0  0.24076113396E-01 -0.41883593920E-02 -0.28897003177E-02  0.24607965349E-01  0.00000000000E+00 0.  1.
     999901    1    3    3    0    0  0.13196817154E-01 -0.44523875988E-01  0.11617897820E+00  0.88884986724E+00  0.88000000000E+00 0.  1.
        -11    1    4    4    0    0 -0.11949137968E-01  0.15624809423E-01 -0.18851273742E-01  0.27249737804E-01  0.51100000000E-03 0.  1.
         11    1    4    4    0    0 -0.25323792583E-01  0.33087425957E-01 -0.94438004140E-01  0.10322242961E+00  0.51100000000E-03 0. -1.
</event>
<event>
 8    1  0.1072332E+005  0.1043930E+01  0.7957747E-01            NaN
         13   -1    0    0    0    0  0.00000000000E+00  0.00000000000E+00  0.74505805969E-08  0.10566000000E+00  0.10566000000E+00 0.  1.
     999900   -1    0    0    0    0 -0.00000000000E+00 -0.00000000000E+00 -0.74505805969E-08  0.93827000000E+00  0.93827000000E+00 0. -1.
     999902    2    1    2    0    0  0.65249392334E-02 -0.23216395635E-01  0.19850770487E-02  0.10197325541E+01  0.10194454205E+01 0.  0.
     999903    2    3    3    0    0 -0.59796207532E-01 -0.65330941868E-01  0.95063527045E-01  0.13134315333E+00  0.19241396805E-01 0.  0.
         14    1    1    2    0    0 -0.65249392334E-02  0.23216395635E-01 -0.19850770487E-02  0.24197445922E-01  0.00000000000E+00 0. -1.
     999901    1    3    3    0    0  0.66321146766E-01  0.42114546233E-01 -0.93078449996E-01  0.88838940075E+00  0.88000000000E+00 0.  1.
        -11    1    4    4    0    0 -0.42185555593E-01 -0.45029468235E-01  0.78191916679E-01  0.99606782225E-01  0.51100000000E-03 0. -1.
         11    1    4    4    0    0 -0.17610651939E-01 -0.20301473633E-01  0.16871610366E-01  0.31736371102E-01  0.51100000000E-03 0.  1.
</event>
<event>
 8    1  0.1072332E+005  0.1043930E+01  0.7957747E-01            NaN
         13   -1    0    0    0    0  0.00000000000E+00  0.00000000000E+00  0.74505805969E-08  0.10566000000E+00  0.10566000000E+00 0.  1.
     999900   -1    0    0    0    0 -0.00000000000E+00 -0.00000000000E+00 -0.74505805969E-08  0.93827000000E+00  0.93827000000E+00 0.  1.
     999902    2    1    2    0    0 -0.17820220160E-01 -0.13601648327E-01  0.95733871809E-02  0.10195534780E+01  0.10192620270E+01 0.  0.
     999903    2    3    3    0    0  0.10888955093E+00  0.27009520838E-01  0.58655075787E-01  0.12819852887E+00  0.20198920051E-01 0.  0.
         14    1    1    2    0    0  0.17820220160E-01  0.13601648327E-01 -0.95733871809E-02  0.24376522022E-01  0.00000000000E+00 0. -1.
     999901    1    3    3    0    0 -0.12670977109E+00 -0.40611169165E-01 -0.49081688606E-01  0.89135494911E+00  0.88000000000E+00 0. -1.
        -11    1    4    4    0    0  0.30223215033E-01 -0.47471859297E-03  0.20645852436E-01  0.36608474818E-01  0.51100000000E-03 0. -1.
         11    1    4    4    0    0  0.78666335893E-01  0.27484239431E-01  0.38009223350E-01  0.91590054048E-01  0.51100000000E-03 0.  1.
</event>
<event>
 8    1  0.1072332E+005  0.1043930E+01  0.7957747E-01            NaN
         13   -1    0    0    0    0  0.00000000000E+00  0.00000000000E+00  0.74505805969E-08  0.10566000000E+00  0.10566000000E+00 0. -1.
     999900   -1    0    0    0    0 -0.00000000000E+00 -0.00000000000E+00 -0.74505805969E-08  0.93827000000E+00  0.93827000000E+00 0. -1.
     999902    2    1    2    0    0 -0.76314282474E-02 -0.40675801818E-02 -0.21505097099E-01  0.10207512790E+01  0.10204880795E+01 0.  0.
     999903    2    3    3    0    0  0.93975809780E-01  0.85786256843E-01 -0.19669065398E-01  0.13035748194E+00  0.20382989882E-01 0.  0.
         14    1    1    2    0    0  0.76314282474E-02  0.40675801818E-02  0.21505097099E-01  0.23178720993E-01  0.00000000000E+00 0. -1.
     999901    1    3    3    0    0 -0.10160723803E+00 -0.89853837025E-01 -0.18360317007E-02  0.89039379707E+00  0.88000000000E+00 0.  1.
        -11    1    4    4    0    0  0.65876551214E-02  0.15034812807E-01 -0.27801916927E-02  0.16656331619E-01  0.51100000000E-03 0.  1.
         11    1    4    4    0    0  0.87388154659E-01  0.70751444036E-01 -0.16888873705E-01  0.11370115032E+00  0.51100000000E-03 0. -1.
</event>
<event>
 8    1  0.1072332E+005  0.1043930E+01  0.7957747E-01            NaN
         13   -1    0    0    0    0  0.00000000000E+00  0.00000000000E+00  0.74505805969E-08  0.10566000000E+00  0.10566000000E+00 0.  1.
     999900   -1    0    0    0    0 -0.00000000000E+00 -0.00000000000E+00 -0.74505805969E-08  0.93827000000E+00  0.93827000000E+00 0.  1.
     999902    2    1    2    0    0  0.13124613348E-01  0.51608869147E-02  0.18580860217E-01  0.10206032215E+01  0.10203366097E+01 0.  0.
     999903    2    3    3    0    0 -0.10246904453E+00 -0.25507098870E-01  0.74454815841E-01  0.13075811249E+00  0.20090973111E-01 0.  0.
         14    1    1    2    0    0 -0.13124613348E-01 -0.51608869147E-02 -0.18580860217E-01  0.23326778510E-01  0.00000000000E+00 0. -1.
     999901    1    3    3    0    0  0.11559365788E+00  0.30667985784E-01 -0.55873955624E-01  0.88984510900E+00  0.88000000000E+00 0. -1.
        -11    1    4    4    0    0 -0.11428873795E-01  0.17481729176E-02  0.32884579492E-02  0.12031223606E-01  0.51100000000E-03 0.  1.
         11    1    4    4    0    0 -0.91040170734E-01 -0.27255271787E-01  0.71166357892E-01  0.11872688888E+00  0.51100000000E-03 0. -1.
</event>
<event>
 8    1  0.1072332E+005  0.1043930E+01  0.7957747E-01            NaN
         13   -1    0    0    0    0  0.00000000000E+00  0.00000000000E+00  0.74505805969E-08  0.10566000000E+00  0.10566000000E+00 0. -1.
     999900   -1    0    0    0    0 -0.00000000000E+00 -0.00000000000E+00 -0.74505805969E-08  0.93827000000E+00  0.93827000000E+00 0. -1.
     999902    2    1    2    0    0  0.21621824880E-01  0.56903643935E-02 -0.69721884932E-02  0.10205100305E+01  0.10202412594E+01 0.  0.
     999903    2    3    3    0    0  0.78157882577E-01 -0.10134541945E+00  0.22986845487E-01  0.13171841908E+00  0.21018996332E-01 0.  0.
         14    1    1    2    0    0 -0.21621824880E-01 -0.56903643935E-02  0.69721884932E-02  0.23419969480E-01  0.00000000000E+00 0. -1.
     999901    1    3    3    0    0 -0.56536057697E-01  0.10703578385E+00 -0.29959033981E-01  0.88879161144E+00  0.88000000000E+00 0.  1.
        -11    1    4    4    0    0  0.78156387375E-02 -0.23053834100E-01  0.63270918683E-02  0.25156643021E-01  0.51100000000E-03 0. -1.
         11    1    4    4    0    0  0.70342243840E-01 -0.78291585355E-01  0.16659753619E-01  0.10656177606E+00  0.51100000000E-03 0.  1.
</event>
<event>
 8    1  0.1072332E+005  0.1043930E+01  0.7957747E-01            NaN
         13   -1    0    0    0    0  0.00000000000E+00  0.00000000000E+00  0.74505805969E-08  0.10566000000E+00  0.10566000000E+00 0.  1.
     999900   -1    0    0    0    0 -0.00000000000E+00 -0.00000000000E+00 -0.74505805969E-08  0.93827000000E+00  0.93827000000E+00 0.  1.
     999902    2    1    2    0    0 -0.18003466357E-01 -0.10762061053E-01  0.12410008031E-01  0.10195588068E+01  0.10192674847E+01 0.  0.
     999903    2    3    3    0    0 -0.67980383077E-01  0.29751615021E-01  0.10746377751E+00  0.13210499434E+00  0.19919211106E-01 0.  0.
         14    1    1    2    0    0  0.18003466357E-01  0.10762061053E-01 -0.12410008031E-01  0.24371193206E-01  0.00000000000E+00 0.  1.
     999901    1    3    3    0    0  0.49976916721E-01 -0.40513676074E-01 -0.95053769483E-01  0.88745381246E+00  0.88000000000E+00 0.  1.
        -11    1    4    4    0    0 -0.54577038866E-01  0.28182355364E-01  0.74998292303E-01  0.96942783613E-01  0.51100000000E-03 0. -1.
         11    1    4    4    0    0 -0.13403344211E-01  0.15692596570E-02  0.32465485211E-01  0.35162210722E-01  0.51100000000E-03 0.  1.
</event>
<event>
 8    1  0.1072332E+005  0.1043930E+01  0.7957747E-01            NaN
         13   -1    0    0    0    0  0.00000000000E+00  0.00000000000E+00  0.74505805969E-08  0.10566000000E+00  0.10566000000E+00 0. -1.
     999900   -1    0    0    0    0 -0.00000000000E+00 -0.00000000000E+00 -0.74505805969E-08  0.93827000000E+00  0.93827000000E+00 0.  1.
     999902    2    1    2    0    0  0.84885174118E-02 -0.11650371985E-01  0.18687939855E-01  0.10203286189E+01  0.10200556187E+01 0.  0.
     999903    2    3    3    0    0 -0.77396448091E-01  0.10116582878E+00  0.14840253780E-02  0.12881322521E+00  0.19128762891E-01 0.  0.
         14    1    1    2    0    0 -0.84885174118E-02  0.11650371985E-01 -0.18687939855E-01  0.23601381130E-01  0.00000000000E+00 0.  1.
     999901    1    3    3    0    0  0.85884965502E-01 -0.11281620076E+00  0.17203914477E-01  0.89151539366E+00  0.88000000000E+00 0. -1.
        -11    1    4    4    0    0 -0.28284555291E-01  0.52369522908E-01 -0.10867640388E-02  0.59531715704E-01  0.51100000000E-03 0.  1.
         11    1    4    4    0    0 -0.49111892799E-01  0.48796305868E-01  0.25707894168E-02  0.69281509509E-01  0.51100000000E-03 0. -1.
</event>
<event>
 8    1  0.1072332E+005  0.1043930E+01  0.7957747E-01            NaN
         13   -1    0    0    0    0  0.00000000000E+00  0.00000000000E+00  0.74505805969E-08  0.10566000000E+00  0.10566000000E+00 0.  1.
     999900   -1    0    0    0    0 -0.00000000000E+00 -0.00000000000E+00 -0.74505805969E-08  0.93827000000E+00  0.93827000000E+00 0. -1.
     999902    2    1    2    0    0 -0.68948404593E-02  0.19519389376E-01 -0.60985394271E-02  0.10223490461E+01  0.10221212426E+01 0.  0.
     999903    2    3    3    0    0 -0.11353849719E+00 -0.14034096226E-01  0.63992000347E-01  0.13251120153E+00  0.19398356175E-01 0.  0.
         14    1    1    2    0    0  0.68948404593E-02 -0.19519389376E-01  0.60985394271E-02  0.21580953865E-01  0.00000000000E+00 0. -1.
     999901    1    3    3    0    0  0.10664365673E+00  0.33553485601E-01 -0.70090539774E-01  0.88983784460E+00  0.88000000000E+00 0.  1.
        -11    1    4    4    0    0 -0.70273495319E-01 -0.17192098809E-01  0.44608158343E-01  0.84994595814E-01  0.51100000000E-03 0. -1.
         11    1    4    4    0    0 -0.43265001874E-01  0.31580025836E-02  0.19383842003E-01  0.47516605721E-01  0.51100000000E-03 0.  1.
</event>
<event>
 8    1  0.1072332E+005  0.1043930E+01  0.7957747E-01            NaN
         13   -1    0    0    0    0  0.00000000000E+00  0.00000000000E+00  0.74505805969E-08  0.10566000000E+00  0.10566000000E+00 0.  1.
     999900   -1    0    0    0    0 -0.00000000000E+00 -0.00000000000E+00 -0.74505805969E-08  0.93827000000E+00  0.93827000000E+00 0. -1.
     999902    2    1    2    0    0 -0.22764079347E-01  0.61255647676E-02  0.24142826840E-02  0.10202328564E+01  0.10199576103E+01 0.  0.
     999903    2    3    3    0    0  0.67422968628E-01 -0.41767643079E-01  0.99288305176E-01  0.12904710744E+00  0.22463207400E-01 0.  0.
         14    1    1    2    0    0  0.22764079347E-01 -0.61255647676E-02 -0.24142826840E-02  0.23697143565E-01  0.00000000000E+00 0. -1.
     999901    1    3    3    0    0 -0.90187047975E-01  0.47893207847E-01 -0.96874022492E-01  0.89118574900E+00  0.88000000000E+00 0. -1.
        -11    1    4    4    0    0  0.32682703758E-01 -0.28663121903E-01  0.39918383732E-01  0.59020946815E-01  0.51100000000E-03 0.  1.
         11    1    4    4    0    0  0.34740264869E-01 -0.13104521176E-01  0.59369921444E-01  0.70026160624E-01  0.51100000000E-03 0. -1.
</event>
<event>
 8    1  0.1072332E+005  0.1043930E+01  0.7957747E-01            NaN
         13   -1    0    0    0    0  0.00000000000E+00  0.00000000000E+00  0.74505805969E-08  0.10566000000E+00  0.10566000000E+00 0. -1.
     999900   -1    0    0    0    0 -0.00000000000E+00 -0.00000000000E+00 -0.74505805969E-08  0.93827000000E+00  0.93827000000E+00 0. -1.
     999902    2    1    2    0    0 -0.86717077785E-02  0.13444049968E-01 -0.17343731401E-01  0.10203345340E+01  0.10200616723E+01 0.  0.
     999903    2    3    3    0    0 -0.11550170261E+00  0.51766081001E-01 -0.35397166987E-01  0.13286219509E+00  0.19468769991E-01 0.  0.
         14    1    1    2    0    0  0.86717077785E-02 -0.13444049968E-01  0.17343731401E-01  0.23595465968E-01  0.00000000000E+00 0.  1.
     999901    1    3    3    0    0  0.10682999483E+00 -0.38322031034E-01  0.18053435586E-01  0.88747233895E+00  0.88000000000E+00 0.  1.
        -11    1    4    4    0    0 -0.18160489063E-01  0.84784946831E-03 -0.57908127447E-02  0.19087085817E-01  0.51100000000E-03 0. -1.
         11    1    4    4    0    0 -0.97341213544E-01  0.50918231533E-01 -0.29606354242E-01  0.11377510927E+00  0.51100000000E-03 0.  1.
</event>
<event>
 8    1  0.1072332E+005  0.1043930E+01  0.7957747E-01            NaN
         13   -1    0    0    0    0  0.00000000000E+00  0.00000000000E+00  0.74505805969E-08  0.10566000000E+00  0.10566000000E+00 0.  1.
     999900   -1    0    0    0    0 -0.00000000000E+00 -0.00000000000E+00 -0.74505805969E-08  0.93827000000E+00  0.93827000000E+00 0.  1.
     999902    2    1    2    0    0  0.14898782723E-01  0.18253576145E-01  0.34260234897E-02  0.10201202456E+01  0.10198423462E+01 0.  0.
     999903    2    3    3    0    0 -0.48052380994E-01 -0.36948957361E-01  0.11228166249E+00  0.12946895643E+00  0.21926745742E-01 0.  0.
         14    1    1    2    0    0 -0.14898782723E-01 -0.18253576145E-01 -0.34260234897E-02  0.23809754422E-01  0.00000000000E+00 0. -1.
     999901    1    3    3    0    0  0.62951163717E-01  0.55202533506E-01 -0.10885563900E+00  0.89065128915E+00  0.88000000000E+00 0.  1.
        -11    1    4    4    0    0 -0.27212914165E-01 -0.14754172631E-01  0.76243474616E-01  0.82289469860E-01  0.51100000000E-03 0. -1.
         11    1    4    4    0    0 -0.20839466829E-01 -0.22194784730E-01  0.36038187872E-01  0.47179486570E-01  0.51100000000E-03 0.  1.
</event>
<event>
 8    1  0.1072332E+005  0.1043930E+01  0.7957747E-01            NaN
         13   -1    0    0    0    0  0.00000000000E+00  0.00000000000E+00  0.74505805969E-08  0.10566000000E+00  0.10566000000E+00 0.  1.
     999900   -1    0    0    0    0 -0.00000000000E+00 -0.00000000000E+00 -0.74505805969E-08  0.93827000000E+00  0.93827000000E+00 0. -1.
     999902    2    1    2    0    0  0.33543212110E-02  0.14012340407E-01  0.18488706584E-01  0.10204900890E+01  0.10202208547E+01 0.  0.
     999903    2    3    3    0    0  0.76050015130E-01 -0.30804299779E-01  0.10163599060E+00  0.13245480484E+00  0.21952017068E-01 0.  0.
         14    1    1    2    0    0 -0.33543212110E-02 -0.14012340407E-01 -0.18488706584E-01  0.23439910956E-01  0.00000000000E+00 0. -1.
     999901    1    3    3    0    0 -0.72695693919E-01  0.44816640186E-01 -0.83147284018E-01  0.88803528420E+00  0.88000000000E+00 0. -1.
        -11    1    4    4    0    0  0.43722727296E-01 -0.60507369995E-02  0.55663847435E-01  0.71042334792E-01  0.51100000000E-03 0.  1.
         11    1    4    4    0    0  0.32327287834E-01 -0.24753562780E-01  0.45972143167E-01  0.61412470047E-01  0.51100000000E-03 0. -1.
</event>
<event>
 8    1  0.1072332E+005  0.1043930E+01  0.7957747E-01            NaN
         13   -1    0    0    0    0  0.00000000000E+00  0.00000000000E+00  0.74505805969E-08  0.10566000000E+00  0.10566000000E+00 0.  1.
     999900   -1    0    0    0    0 -0.00000000000E+00 -0.00000000000E+00 -0.74505805969E-08  0.93827000000E+00  0.93827000000E+00 0. -1.
     999902    2    1    2    0    0 -0.15428860775E-01 -0.18516157363E-01  0.15700923133E-02  0.10197770909E+01  0.10194910260E+01 0.  0.
     999903    2    3    3    0    0  0.85400375309E-01  0.65376108280E-01  0.66685688417E-01  0.12767592626E+00  0.16938166098E-01 0.  0.
         14    1    1    2    0    0  0.15428860775E-01  0.18516157363E-01 -0.15700923133E-02  0.24152909104E-01  0.00000000000E+00 0.  1.
     999901    1    3    3    0    0 -0.10082923608E+00 -0.83892265643E-01 -0.65115596103E-01  0.89210116463E+00  0.88000000000E+00 0. -1.
        -11    1    4    4    0    0  0.28076401268E-01  0.28087016753E-01  0.31950858207E-01  0.50973358526E-01  0.51100000000E-03 0. -1.
         11    1    4    4    0    0  0.57323974041E-01  0.37289091527E-01  0.34734830210E-01  0.76702567737E-01  0.51100000000E-03 0.  1.
</event>
<event>
 8    1  0.1072332E+005  0.1043930E+01  0.7957747E-01            NaN
         13   -1    0    0    0    0  0.00000000000E+00  0.00000000000E+00  0.74505805969E-08  0.10566000000E+00  0.10566000000E+00 0.  1.
     999900   -1    0    0    0    0 -0.00000000000E+00 -0.00000000000E+00 -0.74505805969E-08  0.93827000000E+00  0.93827000000E+00 0.  1.
     999902    2    1    2    0    0  0.14671830404E-01  0.17516417429E-01  0.35450367620E-02  0.10208073969E+01  0.10205454850E+01 0.  0.
     999903    2    3    3    0    0  0.12367796696E-01  0.11596774515E+00 -0.61108885369E-01  0.13295712682E+00  0.18488412317E-01 0.  0.
         14    1    1    2    0    0 -0.14671830404E-01 -0.17516417429E-01 -0.35450367620E-02  0.23122603067E-01  0.00000000000E+00 0. -1.
     999901    1    3    3    0    0  0.23040337084E-02 -0.98451327720E-01  0.64653922131E-01  0.88785027012E+00  0.88000000000E+00 0. -1.
        -11    1    4    4    0    0  0.11226935965E-01  0.29077849444E-01 -0.15423329725E-01  0.34780822881E-01  0.51100000000E-03 0. -1.
         11    1    4    4    0    0  0.11408607303E-02  0.86889895705E-01 -0.45685555643E-01  0.98176303934E-01  0.51100000000E-03 0.  1.
</event>
<event>
 8    1  0.1072332E+005  0.1043930E+01  0.7957747E-01            NaN
         13   -1    0    0    0    0  0.00000000000E+00  0.00000000000E+00  0.74505805969E-08  0.10566000000E+00  0.10566000000E+00 0. -1.
     999900   -1    0    0    0    0 -0.00000000000E+00 -0.00000000000E+00 -0.74505805969E-08  0.93827000000E+00  0.93827000000E+00 0.  1.
     999902    2    1    2    0    0  0.20148981133E-01 -0.83061344808E-02 -0.85855636927E-02  0.10205059693E+01  0.10202371039E+01 0.  0.
     999903    2    3    3    0    0  0.76250449055E-01 -0.61944890225E-01  0.85883684745E-01  0.13205285870E+00  0.20264495532E-01 0.  0.
         14    1    1    2    0    0 -0.20148981133E-01  0.83061344808E-02  0.85855636927E-02  0.23424030708E-01  0.00000000000E+00 0. -1.
     999901    1    3    3    0    0 -0.56101467922E-01  0.53638755745E-01 -0.94469248438E-01  0.88845311059E+00  0.88000000000E+00 0.  1.
        -11    1    4    4    0    0  0.41200656054E-01 -0.20543749931E-01  0.40755404688E-01  0.61488241582E-01  0.51100000000E-03 0.  1.
         11    1    4    4    0    0  0.35049793001E-01 -0.41401140294E-01  0.45128280057E-01  0.70564617118E-01  0.51100000000E-03 0. -1.
</event>
<event>
 8    1  0.1072332E+005  0.1043930E+01  0.7957747E-01            NaN
         13   -1    0    0    0    0  0.00000000000E+00  0.00000000000E+00  0.74505805969E-08  0.10566000000E+00  0.10566000000E+00 0.  1.
     999900   -1    0    0    0    0 -0.00000000000E+00 -0.00000000000E+00 -0.74505805969E-08  0.93827000000E+00  0.93827000000E+00 0. -1.
     999902    2    1    2    0    0  0.20128358631E-01  0.96687029464E-02  0.87245122420E-02  0.10199560193E+01  0.10196742271E+01 0.  0.
     999903    2    3    3    0    0 -0.12455206992E+00 -0.17376911190E-01 -0.71429641488E-02  0.12759080903E+00  0.20327750735E-01 0.  0.
         14    1    1    2    0    0 -0.20128358631E-01 -0.96687029464E-02 -0.87245122420E-02  0.23973980723E-01  0.00000000000E+00 0. -1.
     999901    1    3    3    0    0  0.14468042855E+00  0.27045614137E-01  0.15867476391E-01  0.89236521024E+00  0.88000000000E+00 0.  1.
        -11    1    4    4    0    0 -0.50147690531E-01 -0.15237019062E-01  0.28221560827E-02  0.52489839983E-01  0.51100000000E-03 0.  1.
         11    1    4    4    0    0 -0.74404379384E-01 -0.21398921281E-02 -0.99651202315E-02  0.75100969049E-01  0.51100000000E-03 0. -1.
</event>
<event>
 8    1  0.1072332E+005  0.1043930E+01  0.7957747E-01            NaN
         13   -1    0    0    0    0  0.00000000000E+00  0.00000000000E+00  0.74505805969E-08  0.10566000000E+00  0.10566000000E+00 0. -1.
     999900   -1    0    0    0    0 -0.00000000000E+00 -0.00000000000E+00 -0.74505805969E-08  0.93827000000E+00  0.93827000000E+00 0.  1.
     999902    2    1    2    0    0  0.21056390310E-01 -0.11827617695E-02  0.85794605152E-02  0.10211620919E+01  0.10209082428E+01 0.  0.
     999903    2    3    3    0    0 -0.98062372433E-01  0.51383375434E-01  0.64627292600E-01  0.12981825366E+00  0.20484430091E-01 0.  0.
         14    1    1    2    0    0 -0.21056390310E-01  0.11827617695E-02 -0.85794605152E-02  0.22767908139E-01  0.00000000000E+00 0. -1.
     999901    1    3    3    0    0  0.11911876274E+00 -0.52566137204E-01 -0.56047832085E-01  0.89134383820E+00  0.88000000000E+00 0. -1.
        -11    1    4    4    0    0 -0.39517514546E-01  0.31636479497E-01  0.25495575805E-01  0.56681445796E-01  0.51100000000E-03 0.  1.
         11    1    4    4    0    0 -0.58544857888E-01  0.19746895937E-01  0.39131716795E-01  0.73136807864E-01  0.51100000000E-03 0. -1.
</event>
<event>
 8    1  0.1072332E+005  0.1043930E+01  0.7957747E-01            NaN
         13   -1    0    0    0    0  0.00000000000E+00  0.00000000000E+00  0.74505805969E-08  0.10566000000E+00  0.10566000000E+00 0. -1.
     999900   -1    0    0    0    0 -0.00000000000E+00 -0.00000000000E+00 -0.74505805969E-08  0.93827000000E+00  0.93827000000E+00 0. -1.
     999902    2    1    2    0    0  0.28217745692E-02  0.95021380283E-02 -0.20867580227E-01  0.10208278585E+01  0.10205664151E+01 0.  0.
     999903    2    3    3    0    0 -0.32582905274E-01  0.30912104524E-01 -0.12445043932E+00  0.13378711154E+00  0.19846295472E-01 0.  0.
         14    1    1    2    0    0 -0.28217745692E-02 -0.95021380283E-02  0.20867580227E-01  0.23102141531E-01  0.00000000000E+00 0. -1.
     999901    1    3    3    0    0  0.35404679843E-01 -0.21409966495E-01  0.10358285909E+00  0.88704074693E+00  0.88000000000E+00 0.  1.
        -11    1    4    4    0    0 -0.13645457469E-01  0.11305680275E-01 -0.77437720886E-01  0.79441038847E-01  0.51100000000E-03 0.  1.
         11    1    4    4    0    0 -0.18937447804E-01  0.19606424249E-01 -0.47012718435E-01  0.54346072690E-01  0.51100000000E-03 0. -1.
</event>
<event>
 8    1  0.1072332E+005  0.1043930E+01  0.7957747E-01            NaN
         13   -1    0    0    0    0  0.00000000000E+00  0.00000000000E+00  0.74505805969E-08  0.10566000000E+00  0.10566000000E+00 0. -1.
     999900   -1    0    0    0    0 -0.00000000000E+00 -0.00000000000E+00 -0.74505805969E-08  0.93827000000E+00  0.93827000000E+00 0.  1.
     999902    2    1    2    0    0  0.14607056979E-01 -0.14519512736E-01  0.11401599037E-01  0.10203889970E+01  0.10201174081E+01 0.  0.
     999903    2    3    3    0    0 -0.60164375417E-01 -0.52218259777E-01  0.10297939700E+00  0.13168293998E+00  0.19726676133E-01 0.  0.
         14    1    1    2    0    0 -0.14607056979E-01  0.14519512736E-01 -0.11401599037E-01  0.23541003044E-01  0.00000000000E+00 0.  1.
     999901    1    3    3    0    0  0.74771432397E-01  0.37698747040E-01 -0.91577797963E-01  0.88870605698E+00  0.88000000000E+00 0. -1.
        -11    1    4    4    0    0 -0.43914520763E-01 -0.26673512257E-01  0.71002447982E-01  0.87644567033E-01  0.51100000000E-03 0. -1.
         11    1    4    4    0    0 -0.16249854654E-01 -0.25544747519E-01  0.31976949017E-01  0.44038372944E-01  0.51100000000E-03 0.  1.
</event>
<event>
 8    1  0.1072332E+005  0.1043930E+01  0.7957747E-01            NaN
         13   -1    0    0    0    0  0.00000000000E+00  0.00000000000E+00  0.74505805969E-08  0.10566000000E+00  0.10566000000E+00 0. -1.
     999900   -1    0    0    0    0 -0.00000000000E+00 -0.00000000000E+00 -0.74505805969E-08  0.93827000000E+00  0.93827000000E+00 0.  1.
     999902    2    1    2    0    0 -0.28160368134E-02 -0.10751609135E-01  0.21672960430E-01  0.10195733915E+01  0.10192824223E+01 0.  0.
     999903    2    3    3    0    0 -0.43579939679E-01  0.67189764183E-01  0.10281871183E+00  0.13147363001E+00  0.17319131921E-01 0.  0.
         14    1    1    2    0    0  0.28160368134E-02  0.10751609135E-01 -0.21672960430E-01  0.24356608469E-01  0.00000000000E+00 0.  1.
     999901    1    3    3    0    0  0.40763902865E-01 -0.77941373318E-01 -0.81145751403E-01  0.88809976153E+00  0.88000000000E+00 0.  1.
        -11    1    4    4    0    0 -0.18376410348E-01  0.43614006944E-01  0.56372924730E-01  0.73607348972E-01  0.51100000000E-03 0. -1.
         11    1    4    4    0    0 -0.25203529331E-01  0.23575757239E-01  0.46445787102E-01  0.57866281034E-01  0.51100000000E-03 0.  1.
</event>
<event>
 8    1  0.1072332E+005  0.1043930E+01  0.7957747E-01            NaN
         13   -1    0    0    0    0  0.00000000000E+00  0.00000000000E+00  0.74505805969E-08  0.10566000000E+00  0.10566000000E+00 0. -1.
     999900   -1    0    0    0    0 -0.00000000000E+00 -0.00000000000E+00 -0.74505805969E-08  0.93827000000E+00  0.93827000000E+00 0. -1.
     999902    2    1    2    0    0  0.16920852074E-01 -0.86451042560E-02 -0.15923732820E-01  0.10191385029E+01  0.10188369201E+01 0.  0.
     999903    2    3    3    0    0  0.74615391246E-01 -0.94252296526E-01 -0.51737262738E-01  0.13238044109E+00  0.19921968206E-01 0.  0.
         14    1    1    2    0    0 -0.16920852074E-01  0.86451042560E-02  0.15923732820E-01  0.24791497120E-01  0.00000000000E+00 0. -1.
     999901    1    3    3    0    0 -0.57694539172E-01  0.85607192270E-01  0.35813529918E-01  0.88675806179E+00  0.88000000000E+00 0.  1.
        -11    1    4    4    0    0  0.21192307857E-01 -0.16468846660E-01 -0.17266677878E-01  0.31917645724E-01  0.51100000000E-03 0.  1.
         11    1    4    4    0    0  0.53423083389E-01 -0.77783449865E-01 -0.34470584861E-01  0.10046279537E+00  0.51100000000E-03 0. -1.
</event>
<event>
 8    1  0.1072332E+005  0.1043930E+01  0.7957747E-01            NaN
         13   -1    0    0    0    0  0.00000000000E+00  0.00000000000E+00  0.74505805969E-08  0.10566000000E+00  0.10566000000E+00 0.  1.
     999900   -1    0    0    0    0 -0.00000000000E+00 -0.00000000000E+00 -0.74505805969E-08  0.93827000000E+00  0.93827000000E+00 0.  1.
     999902    2    1    2    0    0  0.64431807590E-02 -0.61637130981E-02  0.22022793270E-01  0.10201705943E+01  0.10198938827E+01 0.  0.
     999903    2    3    3    0    0  0.11465992659E+00 -0.19344855550E-01 -0.54848780365E-01  0.13011787368E+00  0.20028732883E-01 0.  0.
         14    1    1    2    0    0 -0.64431807590E-02  0.61637130981E-02 -0.22022793270E-01  0.23759405735E-01  0.00000000000E+00 0. -1.
     999901    1    3    3    0    0 -0.10821674583E+00  0.13181142452E-01  0.76871573635E-01  0.89005272059E+00  0.88000000000E+00 0. -1.
        -11    1    4    4    0    0  0.26287991127E-01 -0.12665697213E-01 -0.10504418113E-01  0.31017451286E-01  0.51100000000E-03 0.  1.
         11    1    4    4    0    0  0.88371935462E-01 -0.66791583362E-02 -0.44344362251E-01  0.99100422390E-01  0.51100000000E-03 0. -1.
</event>
<event>
 8    1  0.1072332E+005  0.1043930E+01  0.7957747E-01            NaN
         13   -1    0    0    0    0  0.00000000000E+00  0.00000000000E+00  0.74505805969E-08  0.10566000000E+00  0.10566000000E+00 0. -1.
     999900   -1    0    0    0    0 -0.00000000000E+00 -0.00000000000E+00 -0.74505805969E-08  0.93827000000E+00  0.93827000000E+00 0.  1.
     999902    2    1    2    0    0 -0.21450100796E-01  0.69608241576E-02  0.19447799232E-02  0.10212950256E+01  0.10210441652E+01 0.  0.
     999903    2    3    3    0    0  0.10758577592E+00  0.27601756712E-01  0.63356189086E-01  0.12952842679E+00  0.20665200178E-01 0.  0.
         14    1    1    2    0    0  0.21450100796E-01 -0.69608241576E-02 -0.19447799232E-02  0.22634974399E-01  0.00000000000E+00 0.  1.
     999901    1    3    3    0    0 -0.12903587671E+00 -0.20640932554E-01 -0.61411409163E-01  0.89176659881E+00  0.88000000000E+00 0.  1.
        -11    1    4    4    0    0  0.35593828979E-01  0.28227925078E-02  0.11929774085E-01  0.37649295474E-01  0.51100000000E-03 0.  1.
         11    1    4    4    0    0  0.71991946938E-01  0.24778964204E-01  0.51426415001E-01  0.91879131318E-01  0.51100000000E-03 0. -1.
</event>
<event>
 8    1  0.1072332E+005  0.1043930E+01  0.7957747E-01            NaN
         13   -1    0    0    0    0  0.00000000000E+00  0.00000000000E+00  0.74505805969E-08  0.10566000000E+00  0.10566000000E+00 0. -1.
     999900   -1    0    0    0    0 -0.00000000000E+00 -0.00000000000E+00 -0.74505805969E-08  0.93827000000E+00  0.93827000000E+00 0. -1.
     999902    2    1    2    0    0  0.21817899382E-01  0.97444493911E-03 -0.11385917269E-01  0.10193005585E+01  0.10190029535E+01 0.  0.
     999903    2    3    3    0    0 -0.11755854012E+00 -0.36531362718E-01 -0.29721432272E-01  0.12735399698E+00  0.13458313227E-01 0.  0.
         14    1    1    2    0    0 -0.21817899382E-01 -0.97444493911E-03  0.11385917269E-01  0.24629441496E-01  0.00000000000E+00 0. -1.
     999901    1    3    3    0    0  0.13937643950E+00  0.37505807657E-01  0.18335515003E-01  0.89194656152E+00  0.88000000000E+00 0. -1.
        -11    1    4    4    0    0 -0.75807856945E-01 -0.29785209093E-01 -0.17239228507E-01  0.83255281970E-01  0.51100000000E-03 0. -1.
         11    1    4    4    0    0 -0.41750683172E-01 -0.67461536249E-02 -0.12482203764E-01  0.44098715014E-01  0.51100000000E-03 0.  1.
</event>
<event>
 8    1  0.1072332E+005  0.1043930E+01  0.7957747E-01            NaN
         13   -1    0    0    0    0  0.00000000000E+00  0.00000000000E+00  0.74505805969E-08  0.10566000000E+00  0.10566000000E+00 0.  1.
     999900   -1    0    0    0    0 -0.00000000000E+00 -0.00000000000E+00 -0.74505805969E-08  0.93827000000E+00  0.93827000000E+00 0. -1.
     999902    2    1    2    0    0  0.25338719825E-02  0.11643706294E-01  0.20807205234E-01  0.10199521729E+01  0.10196702893E+01 0.  0.
     999903    2    3    3    0    0  0.41497771723E-02  0.10580243797E+00  0.78358588696E-01  0.13305835757E+00  0.18790464776E-01 0.  0.
         14    1    1    2    0    0 -0.25338719825E-02 -0.11643706294E-01 -0.20807205234E-01  0.23977827114E-01  0.00000000000E+00 0. -1.
     999901    1    3    3    0    0 -0.16159051898E-02 -0.94158731678E-01 -0.57551383462E-01  0.88689381531E+00  0.88000000000E+00 0. -1.
        -11    1    4    4    0    0  0.79843012696E-02  0.70179736461E-01  0.60597407126E-01  0.93065844153E-01  0.51100000000E-03 0. -1.
         11    1    4    4    0    0 -0.38345240974E-02  0.35622701510E-01  0.17761181570E-01  0.39992513421E-01  0.51100000000E-03 0.  1.
</event>
<event>
 8    1  0.1072332E+005  0.1043930E+01  0.7957747E-01            NaN
         13   -1    0    0    0    0  0.00000000000E+00  0.00000000000E+00  0.74505805969E-08  0.10566000000E+00  0.10566000000E+00 0.  1.
     999900   -1    0    0    0    0 -0.00000000000E+00 -0.00000000000E+00 -0.74505805969E-08  0.93827000000E+00  0.93827000000E+00 0. -1.
     999902    2    1    2    0    0 -0.20571202259E-01 -0.31447096682E-02  0.12347791818E-01  0.10197322413E+01  0.10194451003E+01 0.  0.
     999903    2    3    3    0    0 -0.60182665838E-01 -0.11495193421E+00  0.11950845567E-01  0.13177386334E+00  0.19637410819E-01 0.  0.
         14    1    1    2    0    0  0.20571202259E-01  0.31447096682E-02 -0.12347791818E-01  0.24197758658E-01  0.00000000000E+00 0. -1.
     999901    1    3    3    0    0  0.39611463579E-01  0.11180722454E+00  0.39694625188E-03  0.88795837801E+00  0.88000000000E+00 0. -1.
        -11    1    4    4    0    0 -0.25136628550E-01 -0.50633200534E-01  0.14911557273E-01  0.58465261074E-01  0.51100000000E-03 0. -1.
         11    1    4    4    0    0 -0.35046037288E-01 -0.64318733672E-01 -0.29607117064E-02  0.73308602262E-01  0.51100000000E-03 0.  1.
</event>
<event>
 8    1  0.1072332E+005  0.1043930E+01  0.7957747E-01            NaN
         13   -1    0    0    0    0  0.00000000000E+00  0.00000000000E+00  0.74505805969E-08  0.10566000000E+00  0.10566000000E+00 0.  1.
     999900   -1    0    0    0    0 -0.00000000000E+00 -0.00000000000E+00 -0.74505805969E-08  0.93827000000E+00  0.93827000000E+00 0.  1.
     999902    2    1    2    0    0  0.17285431526E-01 -0.53601396362E-02  0.15196740693E-01  0.10202982805E+01  0.10200245698E+01 0.  0.
     999903    2    3    3    0    0  0.38237791529E-01  0.48536031745E-02 -0.12185430945E+00  0.12938509039E+00  0.20157944252E-01 0.  0.
         14    1    1    2    0    0 -0.17285431526E-01  0.53601396362E-02 -0.15196740693E-01  0.23631719523E-01  0.00000000000E+00 0. -1.
     999901    1    3    3    0    0 -0.20952360003E-01 -0.10213742811E-01  0.13705105015E+00  0.89091319009E+00  0.88000000000E+00 0. -1.
        -11    1    4    4    0    0  0.22737941493E-01  0.22232695935E-02 -0.99247026949E-01  0.10184395117E+00  0.51100000000E-03 0. -1.
         11    1    4    4    0    0  0.15499850036E-01  0.26303335810E-02 -0.22607282506E-01  0.27541139214E-01  0.51100000000E-03 0.  1.
</event>
<event>
 8    1  0.1072332E+005  0.1043930E+01  0.7957747E-01            NaN
         13   -1    0    0    0    0  0.00000000000E+00  0.00000000000E+00  0.74505805969E-08  0.10566000000E+00  0.10566000000E+00 0. -1.
     999900   -1    0    0    0    0 -0.00000000000E+00 -0.00000000000E+00 -0.74505805969E-08  0.93827000000E+00  0.93827000000E+00 0. -1.
     999902    2    1    2    0    0  0.32775080099E-02 -0.84617520179E-02 -0.20869633944E-01  0.10211729148E+01  0.10209193097E+01 0.  0.
     999903    2    3    3    0    0 -0.24055029238E-01 -0.12632415258E+00  0.20995888582E-01  0.13190842375E+00  0.20556482264E-01 0.  0.
         14    1    1    2    0    0 -0.32775080099E-02  0.84617520179E-02  0.20869633944E-01  0.22757085203E-01  0.00000000000E+00 0. -1.
     999901    1    3    3    0    0  0.27332537248E-01  0.11786240056E+00 -0.41865522527E-01  0.88926449105E+00  0.88000000000E+00 0. -1.
        -11    1    4    4    0    0 -0.62683352094E-02 -0.17607931336E-01 -0.35814319883E-02  0.19037306751E-01  0.51100000000E-03 0. -1.
         11    1    4    4    0    0 -0.17786694028E-01 -0.10871622124E+00  0.24577320570E-01  0.11287111700E+00  0.51100000000E-03 0.  1.
</event>
<event>
 8    1  0.1072332E+005  0.1043930E+01  0.7957747E-01            NaN
         13   -1    0    0    0    0  0.00000000000E+00  0.00000000000E+00  0.74505805969E-08  0.10566000000E+00  0.10566000000E+00 0. -1.
     999900   -1    0    0    0    0 -0.00000000000E+00 -0.00000000000E+00 -0.74505805969E-08  0.93827000000E+00  0.93827000000E+00 0.  1.
     999902    2    1    2    0    0  0.37589995395E-02 -0.32974156666E-02 -0.23207627700E-01  0.10201898018E+01  0.10199135427E+01 0.  0.
     999903    2    3    3    0    0 -0.18091301730E-01  0.89297947257E-01  0.87784017526E-01  0.12813011645E+00  0.20245355649E-01 0.  0.
         14    1    1    2    0    0 -0.37589995395E-02  0.32974156666E-02  0.23207627700E-01  0.23740198211E-01  0.00000000000E+00 0. -1.
     999901    1    3    3    0    0  0.21850301269E-01 -0.92595362924E-01 -0.11099164523E+00  0.89205968534E+00  0.88000000000E+00 0.  1.
        -11    1    4    4    0    0 -0.80164375212E-03  0.12376299853E-01  0.22793873761E-01  0.25954522396E-01  0.51100000000E-03 0. -1.
         11    1    4    4    0    0 -0.17289657978E-01  0.76921647404E-01  0.64990143765E-01  0.10217559405E+00  0.51100000000E-03 0.  1.
</event>
<event>
 8    1  0.1072332E+005  0.1043930E+01  0.7957747E-01            NaN
         13   -1    0    0    0    0  0.00000000000E+00  0.00000000000E+00  0.74505805969E-08  0.10566000000E+00  0.10566000000E+00 0.  1.
     999900   -1    0    0    0    0 -0.00000000000E+00 -0.00000000000E+00 -0.74505805969E-08  0.93827000000E+00  0.93827000000E+00 0. -1.
     999902    2    1    2    0    0 -0.71933369107E-02  0.17898162606E-01 -0.12145905280E-01  0.10211350151E+01  0.10208805551E+01 0.  0.
     999903    2    3    3    0    0 -0.46102403886E-01  0.12347305341E+00  0.12562759380E-01  0.13362699196E+00  0.18092083802E-01 0.  0.
         14    1    1    2    0    0  0.71933369107E-02 -0.17898162606E-01  0.12145905280E-01  0.22794984879E-01  0.00000000000E+00 0.  1.
     999901    1    3    3    0    0  0.38909066975E-01 -0.10557489080E+00 -0.24708664660E-01  0.88750802316E+00  0.88000000000E+00 0. -1.
        -11    1    4    4    0    0 -0.62816122220E-02  0.14143187118E-01 -0.42621869023E-02  0.16059755669E-01  0.51100000000E-03 0.  1.
         11    1    4    4    0    0 -0.39820791664E-01  0.10932986629E+00  0.16824946283E-01  0.11756723629E+00  0.51100000000E-03 0. -1.
</event>
<event>
 8    1  0.1072332E+005  0.1043930E+01  0.7957747E-01            NaN
         13   -1    0    0    0    0  0.00000000000E+00  0.00000000000E+00  0.74505805969E-08  0.10566000000E+00  0.10566000000E+00 0.  1.
     999900   -1    0    0    0    0 -0.00000000000E+00 -0.00000000000E+00 -0.74505805969E-08  0.93827000000E+00  0.93827000000E+00 0. -1.
     999902    2    1    2    0    0 -0.21625525891E-01 -0.15925243250E-01  0.13650608251E-01  0.10138033366E+01  0.10133556086E+01 0.  0.
     999903    2    3    3    0    0 -0.71665932272E-01  0.57230579080E-01 -0.81660740867E-01  0.12423036607E+00  0.18797931377E-01 0.  0.
         14    1    1    2    0    0  0.21625525891E-01  0.15925243250E-01 -0.13650608251E-01  0.30126663411E-01  0.00000000000E+00 0. -1.
     999901    1    3    3    0    0  0.50040406380E-01 -0.73155822330E-01  0.95311349118E-01  0.88957297052E+00  0.88000000000E+00 0.  1.
        -11    1    4    4    0    0 -0.17902102077E-01  0.13398911699E-01 -0.31467944136E-01  0.38607107152E-01  0.51100000000E-03 0.  1.
         11    1    4    4    0    0 -0.53763830195E-01  0.43831667381E-01 -0.50192796731E-01  0.85623258916E-01  0.51100000000E-03 0. -1.
</event>
<event>
 8    1  0.1072332E+005  0.1043930E+01  0.7957747E-01            NaN
         13   -1    0    0    0    0  0.00000000000E+00  0.00000000000E+00  0.74505805969E-08  0.10566000000E+00  0.10566000000E+00 0. -1.
     999900   -1    0    0    0    0 -0.00000000000E+00 -0.00000000000E+00 -0.74505805969E-08  0.93827000000E+00  0.93827000000E+00 0. -1.
     999902    2    1    2    0    0 -0.28884860307E-02  0.12958123749E-01  0.19363682623E-01  0.10204521694E+01  0.10201820532E+01 0.  0.
     999903    2    3    3    0    0  0.49421289767E-01  0.64772056197E-01  0.10364087891E+00  0.13336500234E+00  0.20171983580E-01 0.  0.
         14    1    1    2    0    0  0.28884860307E-02 -0.12958123749E-01 -0.19363682623E-01  0.23477830551E-01  0.00000000000E+00 0.  1.
     999901    1    3    3    0    0 -0.52309775798E-01 -0.51813932447E-01 -0.84277196285E-01  0.88708716711E+00  0.88000000000E+00 0. -1.
        -11    1    4    4    0    0  0.37372055217E-01  0.32680915784E-01  0.61793014663E-01  0.79267588267E-01  0.51100000000E-03 0.  1.
         11    1    4    4    0    0  0.12049234551E-01  0.32091140413E-01  0.41847864245E-01  0.54097414070E-01  0.51100000000E-03 0. -1.
</event>
<event>
 8    1  0.1072332E+005  0.1043930E+01  0.7957747E-01            NaN
         13   -1    0    0    0    0  0.00000000000E+00  0.00000000000E+00  0.74505805969E-08  0.10566000000E+00  0.10566000000E+00 0. -1.
     999900   -1    0    0    0    0 -0.00000000000E+00 -0.00000000000E+00 -0.74505805969E-08  0.93827000000E+00  0.93827000000E+00 0.  1.
     999902    2    1    2    0    0  0.21018660692E-01 -0.16385473800E-03  0.11703234087E-01  0.10198722230E+01  0.10195884339E+01 0.  0.
     999903    2    3    3    0    0 -0.44413392633E-02  0.83899982185E-01  0.98596962227E-01  0.13124099451E+00  0.21069057269E-01 0.  0.
         14    1    1    2    0    0 -0.21018660692E-01  0.16385473800E-03 -0.11703234087E-01  0.24057776991E-01  0.00000000000E+00 0.  1.
     999901    1    3    3    0    0  0.25459999955E-01 -0.84063836923E-01 -0.86893728140E-01  0.88863122850E+00  0.88000000000E+00 0.  1.
        -11    1    4    4    0    0  0.74801299412E-02  0.30116996952E-01  0.42394802223E-01  0.52541090832E-01  0.51100000000E-03 0. -1.
         11    1    4    4    0    0 -0.11921469205E-01  0.53782985233E-01  0.56202160004E-01  0.78699903676E-01  0.51100000000E-03 0.  1.
</event>
<event>
 8    1  0.1150637E+005  0.1043930E+01  0.7957747E-01            NaN
         13   -1    0    0    0    0  0.00000000000E+00  0.00000000000E+00  0.74505805969E-08  0.10566000000E+00  0.10566000000E+00 0. -1.
     999900   -1    0    0    0    0 -0.00000000000E+00 -0.00000000000E+00 -0.74505805969E-08  0.93827000000E+00  0.93827000000E+00 0.  1.
     999902    2    1    2    0    0  0.10199282493E-01 -0.12340924129E-01  0.18180546652E-01  0.10197048881E+01  0.10194170897E+01 0.  0.
     999903    2    3    3    0    0 -0.10688638966E+00  0.65713539116E-01  0.19613846749E-01  0.12852386930E+00  0.19766448286E-01 0.  0.
         14    1    1    2    0    0 -0.10199282493E-01  0.12340924129E-01 -0.18180546652E-01  0.24225111936E-01  0.00000000000E+00 0.  1.
     999901    1    3    3    0    0  0.11708567215E+00 -0.78054463246E-01 -0.14333000967E-02  0.89118101876E+00  0.88000000000E+00 0.  1.
        -11    1    4    4    0    0 -0.62112254389E-01  0.27646424582E-01  0.14598774006E-01  0.69538782424E-01  0.51100000000E-03 0.  1.
         11    1    4    4    0    0 -0.44774135271E-01  0.38067114534E-01  0.50150727425E-02  0.58985086877E-01  0.51100000000E-03 0. -1.
</event>
<event>
 8    1  0.1072332E+005  0.1043930E+01  0.7957747E-01            NaN
         13   -1    0    0    0    0  0.00000000000E+00  0.00000000000E+00  0.74505805969E-08  0.10566000000E+00  0.10566000000E+00 0.  1.
     999900   -1    0    0    0    0 -0.00000000000E+00 -0.00000000000E+00 -0.74505805969E-08  0.93827000000E+00  0.93827000000E+00 0.  1.
     999902    2    1    2    0    0  0.20341676018E-01 -0.54092352835E-02 -0.13215739622E-01  0.10190764412E+01  0.10187733279E+01 0.  0.
     999903    2    3    3    0    0 -0.11739666359E+00 -0.24511511257E-01  0.35645171378E-01  0.12681855488E+00  0.20726234872E-01 0.  0.
         14    1    1    2    0    0 -0.20341676018E-01  0.54092352835E-02  0.13215739622E-01  0.24853558766E-01  0.00000000000E+00 0.  1.
     999901    1    3    3    0    0  0.13773833961E+00  0.19102275973E-01 -0.48860910999E-01  0.89225788636E+00  0.88000000000E+00 0.  1.
        -11    1    4    4    0    0 -0.39111165719E-01 -0.14475877646E-03  0.56906417074E-02  0.39526557693E-01  0.51100000000E-03 0.  1.
         11    1    4    4    0    0 -0.78285497871E-01 -0.24366752480E-01  0.29954529670E-01  0.87291997182E-01  0.51100000000E-03 0. -1.
</event>
<event>
 8    1  0.1072332E+005  0.1043930E+01  0.7957747E-01            NaN
         13   -1    0    0    0    0  0.00000000000E+00  0.00000000000E+00  0.74505805969E-08  0.10566000000E+00  0.10566000000E+00 0.  1.
     999900   -1    0    0    0    0 -0.00000000000E+00 -0.00000000000E+00 -0.74505805969E-08  0.93827000000E+00  0.93827000000E+00 0.  1.
     999902    2    1    2    0    0 -0.11558785425E-01  0.89511979520E-02  0.18398049697E-01  0.10204306873E+01  0.10201600707E+01 0.  0.
     999903    2    3    3    0    0 -0.11423171740E+00 -0.35850768632E-01 -0.48617219121E-01  0.13080155477E+00  0.20279296401E-01 0.  0.
         14    1    1    2    0    0  0.11558785425E-01 -0.89511979520E-02 -0.18398049697E-01  0.23499312712E-01  0.00000000000E+00 0. -1.
     999901    1    3    3    0    0  0.10267293198E+00  0.44801966584E-01  0.67015268818E-01  0.88962913252E+00  0.88000000000E+00 0. -1.
        -11    1    4    4    0    0 -0.27130357031E-01 -0.22364595676E-03 -0.78944066738E-02  0.28261087521E-01  0.51100000000E-03 0.  1.
         11    1    4    4    0    0 -0.87101360373E-01 -0.35627122675E-01 -0.40722812447E-01  0.10254046725E+00  0.51100000000E-03 0. -1.
</event>
<event>
 8    1  0.1072332E+005  0.1043930E+01  0.7957747E-01            NaN
         13   -1    0    0    0    0  0.00000000000E+00  0.00000000000E+00  0.74505805969E-08  0.10566000000E+00  0.10566000000E+00 0. -1.
     999900   -1    0    0    0    0 -0.00000000000E+00 -0.00000000000E+00 -0.74505805969E-08  0.93827000000E+00  0.93827000000E+00 0. -1.
     999902    2    1    2    0    0 -0.76646960211E-02  0.26217564888E-01  0.33775699734E-03  0.10166129293E+01  0.10162458490E+01 0.  0.
     999903    2    3    3    0    0 -0.32027458876E-01 -0.47841305992E-01 -0.11041733288E+00  0.12625067125E+00  0.20801343895E-01 0.  0.
         14    1    1    2    0    0  0.76646960211E-02 -0.26217564888E-01 -0.33775699734E-03  0.27317070735E-01  0.00000000000E+00 0.  1.
     999901    1    3    3    0    0  0.24362762855E-01  0.74058870879E-01  0.11075508988E+00  0.89036225802E+00  0.88000000000E+00 0.  1.
        -11    1    4    4    0    0 -0.26583005499E-02 -0.51673705683E-02 -0.30204074491E-01  0.30762241747E-01  0.51100000000E-03 0.  1.
         11    1    4    4    0    0 -0.29369158326E-01 -0.42673935423E-01 -0.80213258393E-01  0.95488429500E-01  0.51100000000E-03 0. -1.
</event>
<event>
 8    1  0.1072332E+005  0.1043930E+01  0.7957747E-01            NaN
         13   -1    0    0    0    0  0.00000000000E+00  0.00000000000E+00  0.74505805969E-08  0.10566000000E+00  0.10566000000E+00 0.  1.
     999900   -1    0    0    0    0 -0.00000000000E+00 -0.00000000000E+00 -0.74505805969E-08  0.93827000000E+00  0.93827000000E+00 0. -1.
     999902    2    1    2    0    0  0.19895664349E-01 -0.77348618987E-02 -0.98394116890E-02  0.10204251160E+01  0.10201543696E+01 0.  0.
     999903    2    3    3    0    0  0.11641701334E+00 -0.54619484222E-01 -0.26466960255E-01  0.13375098535E+00  0.25546370499E-01 0.  0.
         14    1    1    2    0    0 -0.19895664349E-01  0.77348618987E-02  0.98394116890E-02  0.23504883979E-01  0.00000000000E+00 0.  1.
     999901    1    3    3    0    0 -0.96521348993E-01  0.46884622324E-01  0.16627548566E-01  0.88667413067E+00  0.88000000000E+00 0.  1.
        -11    1    4    4    0    0  0.24111012370E-01 -0.21801517751E-01 -0.12324008003E-01  0.34767648584E-01  0.51100000000E-03 0. -1.
         11    1    4    4    0    0  0.92306000972E-01 -0.32817966471E-01 -0.14142952252E-01  0.98983336770E-01  0.51100000000E-03 0.  1.
</event>
<event>
 8    1  0.1072332E+005  0.1043930E+01  0.7957747E-01            NaN
         13   -1    0    0    0    0  0.00000000000E+00  0.00000000000E+00  0.74505805969E-08  0.10566000000E+00  0.10566000000E+00 0.  1.
     999900   -1    0    0    0    0 -0.00000000000E+00 -0.00000000000E+00 -0.74505805969E-08  0.93827000000E+00  0.93827000000E+00 0. -1.
     999902    2    1    2    0    0 -0.10216651726E-01 -0.19849398369E-01  0.78962778305E-02  0.10202502662E+01  0.10199754291E+01 0.  0.
     999903    2    3    3    0    0 -0.39821090470E-02  0.10194350816E-01 -0.12745841039E+00  0.12937295256E+00  0.19285551423E-01 0.  0.
         14    1    1    2    0    0  0.10216651726E-01  0.19849398369E-01 -0.78962778305E-02  0.23679733776E-01  0.00000000000E+00 0.  1.
     999901    1    3    3    0    0 -0.62345426792E-02 -0.30043749185E-01  0.13535468822E+00  0.89087731367E+00  0.88000000000E+00 0.  1.
        -11    1    4    4    0    0 -0.85718513764E-02  0.10688378115E-02 -0.26039930242E-01  0.27440082695E-01  0.51100000000E-03 0.  1.
         11    1    4    4    0    0  0.45897423295E-02  0.91255130042E-02 -0.10141848014E+00  0.10193286986E+00  0.51100000000E-03 0. -1.
</event>
<event>
 8    1  0.1072332E+005  0.1043930E+01  0.7957747E-01            NaN
         13   -1    0    0    0    0  0.00000000000E+00  0.00000000000E+00  0.74505805969E-08  0.10566000000E+00  0.10566000000E+00 0. -1.
     999900   -1    0    0    0    0 -0.00000000000E+00 -0.00000000000E+00 -0.74505805969E-08  0.93827000000E+00  0.93827000000E+00 0.  1.
     999902    2    1    2    0    0  0.98195658058E-02  0.19289414146E-01 -0.93289327890E-02  0.10203602236E+01  0.10200879627E+01 0.  0.
     999903    2    3    3    0    0  0.10968485169E+00 -0.62790795127E-01  0.24003887771E-01  0.13029207288E+00  0.20649140015E-01 0.  0.
         14    1    1    2    0    0 -0.98195658058E-02 -0.19289414146E-01  0.93289327890E-02  0.23569776360E-01  0.00000000000E+00 0. -1.
     999901    1    3    3    0    0 -0.99865285883E-01  0.82080209272E-01 -0.33332820560E-01  0.89006815076E+00  0.88000000000E+00 0.  1.
        -11    1    4    4    0    0  0.71980417524E-01 -0.29759827694E-01  0.16215952398E-01  0.79561586739E-01  0.51100000000E-03 0. -1.
         11    1    4    4    0    0  0.37704434165E-01 -0.33030967432E-01  0.77879353727E-02  0.50730486136E-01  0.51100000000E-03 0.  1.
</event>
<event>
 8    1  0.1072332E+005  0.1043930E+01  0.7957747E-01            NaN
         13   -1    0    0    0    0  0.00000000000E+00  0.00000000000E+00  0.74505805969E-08  0.10566000000E+00  0.10566000000E+00 0.  1.
     999900   -1    0    0    0    0 -0.00000000000E+00 -0.00000000000E+00 -0.74505805969E-08  0.93827000000E+00  0.93827000000E+00 0.  1.
     999902    2    1    2    0    0 -0.20498342662E-01 -0.11184741223E-01  0.16023735029E-02  0.10205238451E+01  0.10202553946E+01 0.  0.
     999903    2    3    3    0    0 -0.28049820149E-01  0.11594075298E+00  0.47698443603E-01  0.13016281505E+00  0.20932421909E-01 0.  0.
         14    1    1    2    0    0  0.20498342662E-01  0.11184741223E-01 -0.16023735029E-02  0.23406154938E-01  0.00000000000E+00 0. -1.
     999901    1    3    3    0    0  0.75514774876E-02 -0.12712549420E+00 -0.46096070100E-01  0.89036103001E+00  0.88000000000E+00 0. -1.
        -11    1    4    4    0    0 -0.72283300666E-02  0.51893032837E-01  0.30598573491E-01  0.60676761888E-01  0.51100000000E-03 0. -1.
         11    1    4    4    0    0 -0.20821490083E-01  0.64047720144E-01  0.17099870112E-01  0.69486053160E-01  0.51100000000E-03 0.  1.
</event>
<event>
 8    1  0.1072332E+005  0.1043930E+01  0.7957747E-01            NaN
         13   -1    0    0    0    0  0.00000000000E+00  0.00000000000E+00  0.74505805969E-08  0.10566000000E+00  0.10566000000E+00 0. -1.
     999900   -1    0    0    0    0 -0.00000000000E+00 -0.00000000000E+00 -0.74505805969E-08  0.93827000000E+00  0.93827000000E+00 0.  1.
     999902    2    1    2    0    0 -0.98610532774E-02 -0.49123810816E-03  0.21045612936E-01  0.10206835054E+01  0.10204187467E+01 0.  0.
     999903    2    3    3    0    0  0.91514098019E-01  0.63319129256E-01 -0.61492209433E-01  0.12874114382E+00  0.20219990739E-01 0.  0.
         14    1    1    2    0    0  0.98610532774E-02  0.49123810816E-03 -0.21045612936E-01  0.23246494585E-01  0.00000000000E+00 0.  1.
     999901    1    3    3    0    0 -0.10137515130E+00 -0.63810367364E-01  0.82537822370E-01  0.89194236159E+00  0.88000000000E+00 0. -1.
        -11    1    4    4    0    0  0.62919132987E-01  0.31954067908E-01 -0.35904487986E-01  0.79178741656E-01  0.51100000000E-03 0. -1.
         11    1    4    4    0    0  0.28594965032E-01  0.31365061348E-01 -0.25587721447E-01  0.49562402165E-01  0.51100000000E-03 0.  1.
</event>
<event>
 8    1  0.1072332E+005  0.1043930E+01  0.7957747E-01            NaN
         13   -1    0    0    0    0  0.00000000000E+00  0.00000000000E+00  0.74505805969E-08  0.10566000000E+00  0.10566000000E+00 0.  1.
     999900   -1    0    0    0    0 -0.00000000000E+00 -0.00000000000E+00 -0.74505805969E-08  0.93827000000E+00  0.93827000000E+00 0. -1.
     999902    2    1    2    0    0  0.30293240481E-03 -0.21173156955E-01  0.10685359097E-01  0.10202114157E+01  0.10199356653E+01 0.  0.
     999903    2    3    3    0    0 -0.11569993773E+00 -0.25066147661E-01 -0.50512394219E-01  0.13048281308E+00  0.21435372410E-01 0.  0.
         14    1    1    2    0    0 -0.30293240481E-03  0.21173156955E-01 -0.10685359097E-01  0.23718584328E-01  0.00000000000E+00 0.  1.
     999901    1    3    3    0    0  0.11600287014E+00  0.38929907060E-02  0.61197753317E-01  0.88972860259E+00  0.88000000000E+00 0.  1.
        -11    1    4    4    0    0 -0.65913829913E-01 -0.34767820478E-02 -0.26186266475E-01  0.71011989551E-01  0.51100000000E-03 0.  1.
         11    1    4    4    0    0 -0.49786107818E-01 -0.21589365614E-01 -0.24326127745E-01  0.59470823530E-01  0.51100000000E-03 0. -1.
</event>
<event>
 8    1  0.1072332E+005  0.1043930E+01  0.7957747E-01            NaN
         13   -1    0    0    0    0  0.00000000000E+00  0.00000000000E+00  0.74505805969E-08  0.10566000000E+00  0.10566000000E+00 0. -1.
     999900   -1    0    0    0    0 -0.00000000000E+00 -0.00000000000E+00 -0.74505805969E-08  0.93827000000E+00  0.93827000000E+00 0. -1.
     999902    2    1    2    0    0 -0.29230041975E-02  0.23095864964E-01  0.51498188360E-02  0.10200871066E+01  0.10198084239E+01 0.  0.
     999903    2    3    3    0    0 -0.12434213494E+00  0.36372316763E-01  0.10228534737E-01  0.13163639730E+00  0.20966788602E-01 0.  0.
         14    1    1    2    0    0  0.29230041975E-02 -0.23095864964E-01 -0.51498188360E-02  0.23842893407E-01  0.00000000000E+00 0. -1.
     999901    1    3    3    0    0  0.12141913074E+00 -0.13276451799E-01 -0.50787159005E-02  0.88845070929E+00  0.88000000000E+00 0. -1.
        -11    1    4    4    0    0 -0.87329548765E-01  0.16524437266E-01  0.11462449638E-01  0.89616717119E-01  0.51100000000E-03 0.  1.
         11    1    4    4    0    0 -0.37012586174E-01  0.19847879497E-01 -0.12339149018E-02  0.42019680184E-01  0.51100000000E-03 0. -1.
</event>
<event>
 8    1  0.1072332E+005  0.1043930E+01  0.7957747E-01            NaN
         13   -1    0    0    0    0  0.00000000000E+00  0.00000000000E+00  0.74505805969E-08  0.10566000000E+00  0.10566000000E+00 0.  1.
     999900   -1    0    0    0    0 -0.00000000000E+00 -0.00000000000E+00 -0.74505805969E-08  0.93827000000E+00  0.93827000000E+00 0.  1.
     999902    2    1    2    0    0 -0.13787062421E-01  0.14474832144E-01  0.78753774391E-02  0.10224445299E+01  0.10222187590E+01 0.  0.
     999903    2    3    3    0    0 -0.73510052018E-01 -0.44572857283E-01  0.10045135904E+00  0.13361171239E+00  0.19265170661E-01 0.  0.
         14    1    1    2    0    0  0.13787062421E-01 -0.14474832144E-01 -0.78753774391E-02  0.21485470105E-01  0.00000000000E+00 0. -1.
     999901    1    3    3    0    0  0.59722989597E-01  0.59047689427E-01 -0.92575981596E-01  0.88883281751E+00  0.88000000000E+00 0.  1.
        -11    1    4    4    0    0 -0.62907059283E-01 -0.45021417963E-01  0.90456315199E-01  0.11902450279E+00  0.51100000000E-03 0.  1.
         11    1    4    4    0    0 -0.10602992735E-01  0.44856068038E-03  0.99950438364E-02  0.14587209600E-01  0.51100000000E-03 0. -1.
</event>
<event>
 8    1  0.1072332E+005  0.1043930E+01  0.7957747E-01            NaN
         13   -1    0    0    0    0  0.00000000000E+00  0.00000000000E+00  0.74505805969E-08  0.10566000000E+00  0.10566000000E+00 0. -1.
     999900   -1    0    0    0    0 -0.00000000000E+00 -0.00000000000E+00 -0.74505805969E-08  0.93827000000E+00  0.93827000000E+00 0.  1.
     999902    2    1    2    0    0 -0.45378224497E-03  0.23793662368E-01  0.36573311570E-02  0.10198526173E+01  0.10195683600E+01 0.  0.
     999903    2    3    3    0    0 -0.58442383241E-01  0.10772243527E+00 -0.46127772989E-01  0.13256164282E+00  0.20619953660E-01 0.  0.
         14    1    1    2    0    0  0.45378224497E-03 -0.23793662368E-01 -0.36573311570E-02  0.24077382715E-01  0.00000000000E+00 0. -1.
     999901    1    3    3    0    0  0.57988600996E-01 -0.83928772897E-01  0.49785104146E-01  0.88729097446E+00  0.88000000000E+00 0. -1.
        -11    1    4    4    0    0 -0.52527753915E-01  0.82553886412E-01 -0.41523653811E-01  0.10629573858E+00  0.51100000000E-03 0. -1.
         11    1    4    4    0    0 -0.59146293257E-02  0.25168548853E-01 -0.46041191776E-02  0.26265904245E-01  0.51100000000E-03 0.  1.
</event>
<event>
 8    1  0.1072332E+005  0.1043930E+01  0.7957747E-01            NaN
         13   -1    0    0    0    0  0.00000000000E+00  0.00000000000E+00  0.74505805969E-08  0.10566000000E+00  0.10566000000E+00 0. -1.
     999900   -1    0    0    0    0 -0.00000000000E+00 -0.00000000000E+00 -0.74505805969E-08  0.93827000000E+00  0.93827000000E+00 0. -1.
     999902    2    1    2    0    0 -0.72709153158E-02 -0.44774878054E-02  0.21835371621E-01  0.10204843701E+01  0.10202150029E+01 0.  0.
     999903    2    3    3    0    0  0.24946920472E-01  0.92633238942E-01  0.87902991775E-01  0.13209627215E+00  0.22786473045E-01 0.  0.
         14    1    1    2    0    0  0.72709153158E-02  0.44774878054E-02 -0.21835371621E-01  0.23445629879E-01  0.00000000000E+00 0.  1.
     999901    1    3    3    0    0 -0.32217835788E-01 -0.97110726747E-01 -0.66067620153E-01  0.88838809798E+00  0.88000000000E+00 0. -1.
        -11    1    4    4    0    0  0.36755280548E-02  0.20442896266E-01  0.32771922615E-01  0.38803112595E-01  0.51100000000E-03 0.  1.
         11    1    4    4    0    0  0.21271392417E-01  0.72190342677E-01  0.55131069160E-01  0.93293159550E-01  0.51100000000E-03 0. -1.
</event>
<event>
 8    1  0.1072332E+005  0.1043930E+01  0.7957747E-01            NaN
         13   -1    0    0    0    0  0.00000000000E+00  0.00000000000E+00  0.74505805969E-08  0.10566000000E+00  0.10566000000E+00 0. -1.
     999900   -1    0    0    0    0 -0.00000000000E+00 -0.00000000000E+00 -0.74505805969E-08  0.93827000000E+00  0.93827000000E+00 0.  1.
     999902    2    1    2    0    0  0.18785665698E-01  0.18755905703E-01 -0.10279015806E-01  0.10154634688E+01  0.10150643886E+01 0.  0.
     999903    2    3    3    0    0 -0.56420562085E-01 -0.52684696854E-01 -0.96200583994E-01  0.12521504711E+00  0.21570780060E-01 0.  0.
         14    1    1    2    0    0 -0.18785665698E-01 -0.18755905703E-01  0.10279015806E-01  0.28466531232E-01  0.00000000000E+00 0. -1.
     999901    1    3    3    0    0  0.75206227783E-01  0.71440602557E-01  0.85921568189E-01  0.89024842166E+00  0.88000000000E+00 0. -1.
        -11    1    4    4    0    0 -0.22021057864E-01 -0.18664338860E-01 -0.20636319251E-01  0.35488073036E-01  0.51100000000E-03 0.  1.
         11    1    4    4    0    0 -0.34399504220E-01 -0.34020357994E-01 -0.75564264743E-01  0.89726974070E-01  0.51100000000E-03 0. -1.
</event>
<event>
 8    1  0.1072332E+005  0.1043930E+01  0.7957747E-01            NaN
         13   -1    0    0    0    0  0.00000000000E+00  0.00000000000E+00  0.74505805969E-08  0.10566000000E+00  0.10566000000E+00 0.  1.
     999900   -1    0    0    0    0 -0.00000000000E+00 -0.00000000000E+00 -0.74505805969E-08  0.93827000000E+00  0.93827000000E+00 0. -1.
     999902    2    1    2    0    0 -0.17875484167E-02  0.61351566664E-02  0.23250297207E-01  0.10198175178E+01  0.10195324212E+01 0.  0.
     999903    2    3    3    0    0  0.68657839324E-01 -0.51029428116E-01  0.98474374981E-01  0.13196110810E+00  0.19965722828E-01 0.  0.
         14    1    1    2    0    0  0.17875484167E-02 -0.61351566664E-02 -0.23250297207E-01  0.24112482180E-01  0.00000000000E+00 0. -1.
     999901    1    3    3    0    0 -0.70445387741E-01  0.57164584782E-01 -0.75224077775E-01  0.88785640972E+00  0.88000000000E+00 0. -1.
        -11    1    4    4    0    0  0.27958400941E-01 -0.92978430225E-02  0.30417227029E-01  0.42350807421E-01  0.51100000000E-03 0. -1.
         11    1    4    4    0    0  0.40699438383E-01 -0.41731585093E-01  0.68057147953E-01  0.89610300678E-01  0.51100000000E-03 0.  1.
</event>
<event>
 8    1  0.1812877E+005  0.1043930E+01  0.7957747E-01            NaN
         13   -1    0    0    0    0  0.00000000000E+00  0.00000000000E+00  0.74505805969E-08  0.10566000000E+00  0.10566000000E+00 0. -1.
     999900   -1    0    0    0    0 -0.00000000000E+00 -0.00000000000E+00 -0.74505805969E-08  0.93827000000E+00  0.93827000000E+00 0.  1.
     999902    2    1    2    0    0 -0.71816288279E-02  0.18069362528E-01  0.17998509413E-01  0.10174342646E+01  0.10170892088E+01 0.  0.
     999903    2    3    3    0    0  0.75544615067E-01 -0.51997774817E-01 -0.83097579454E-01  0.12503667698E+00  0.17838313442E-01 0.  0.
         14    1    1    2    0    0  0.71816288279E-02 -0.18069362528E-01 -0.17998509413E-01  0.26495735428E-01  0.00000000000E+00 0.  1.
     999901    1    3    3    0    0 -0.82726243895E-01  0.70067137345E-01  0.10109608887E+00  0.89239758760E+00  0.88000000000E+00 0. -1.
        -11    1    4    4    0    0  0.24808718990E-01 -0.26506503845E-01 -0.27292277005E-01  0.45422426060E-01  0.51100000000E-03 0. -1.
         11    1    4    4    0    0  0.50735896077E-01 -0.25491270972E-01 -0.55805302449E-01  0.79614250916E-01  0.51100000000E-03 0.  1.
</event>
<event>
 8    1  0.1072332E+005  0.1043930E+01  0.7957747E-01            NaN
         13   -1    0    0    0    0  0.00000000000E+00  0.00000000000E+00  0.74505805969E-08  0.10566000000E+00  0.10566000000E+00 0.  1.
     999900   -1    0    0    0    0 -0.00000000000E+00 -0.00000000000E+00 -0.74505805969E-08  0.93827000000E+00  0.93827000000E+00 0.  1.
     999902    2    1    2    0    0 -0.59880288737E-02 -0.13165873065E-01  0.17275141475E-01  0.10213994160E+01  0.10211508898E+01 0.  0.
     999903    2    3    3    0    0  0.42523127973E-01  0.39502700846E-01  0.11727882484E+00  0.13284550782E+00  0.22911272450E-01 0.  0.
         14    1    1    2    0    0  0.59880288737E-02  0.13165873065E-01 -0.17275141475E-01  0.22530584021E-01  0.00000000000E+00 0. -1.
     999901    1    3    3    0    0 -0.48511156847E-01 -0.52668573910E-01 -0.10000368337E+00  0.88855390816E+00  0.88000000000E+00 0.  1.
        -11    1    4    4    0    0  0.33949148531E-01  0.16749268389E-01  0.76740929096E-01  0.85571689226E-01  0.51100000000E-03 0.  1.
         11    1    4    4    0    0  0.85739794428E-02  0.22753432457E-01  0.40537895746E-01  0.47273818595E-01  0.51100000000E-03 0. -1.
</event>
<event>
 8    1  0.1072332E+005  0.1043930E+01  0.7957747E-01            NaN
         13   -1    0    0    0    0  0.00000000000E+00  0.00000000000E+00  0.74505805969E-08  0.10566000000E+00  0.10566000000E+00 0. -1.
     999900   -1    0    0    0    0 -0.00000000000E+00 -0.00000000000E+00 -0.74505805969E-08  0.93827000000E+00  0.93827000000E+00 0.  1.
     999902    2    1    2    0    0  0.10265157987E-01  0.16908527301E-01 -0.11899618867E-01  0.10208459645E+01  0.10205849355E+01 0.  0.
     999903    2    3    3    0    0 -0.39479940516E-01 -0.10890561578E+00 -0.54259720029E-01  0.12949970657E+00  0.20173198376E-01 0.  0.
         14    1    1    2    0    0 -0.10265157987E-01 -0.16908527301E-01  0.11899618867E-01  0.23084035462E-01  0.00000000000E+00 0. -1.
     999901    1    3    3    0    0  0.49745098504E-01  0.12581414308E+00  0.42360101162E-01  0.89134625797E+00  0.88000000000E+00 0.  1.
        -11    1    4    4    0    0 -0.15804569087E-01 -0.57357117107E-01 -0.37576836212E-01  0.70369759326E-01  0.51100000000E-03 0. -1.
         11    1    4    4    0    0 -0.23675371429E-01 -0.51548498672E-01 -0.16682883817E-01  0.59129947244E-01  0.51100000000E-03 0.  1.
</event>
<event>
 8    1  0.1072332E+005  0.1043930E+01  0.7957747E-01            NaN
         13   -1    0    0    0    0  0.00000000000E+00  0.00000000000E+00  0.74505805969E-08  0.10566000000E+00  0.10566000000E+00 0.  1.
     999900   -1    0    0    0    0 -0.00000000000E+00 -0.00000000000E+00 -0.74505805969E-08  0.93827000000E+00  0.93827000000E+00 0.  1.
     999902    2    1    2    0    0 -0.77898855458E-02  0.22025486675E-01  0.32757844724E-02  0.10203390029E+01  0.10200662457E+01 0.  0.
     999903    2    3    3    0    0  0.19222442127E-01 -0.85933048766E-01  0.91977207336E-01  0.12890608135E+00  0.20074361432E-01 0.  0.
         14    1    1    2    0    0  0.77898855458E-02 -0.22025486675E-01 -0.32757844724E-02  0.23590997096E-01  0.00000000000E+00 0. -1.
     999901    1    3    3    0    0 -0.27012327673E-01  0.10795853544E+00 -0.88701422864E-01  0.89143292156E+00  0.88000000000E+00 0.  1.
        -11    1    4    4    0    0  0.11361981011E-01 -0.74219744742E-01  0.84097711603E-01  0.11274019399E+00  0.51100000000E-03 0.  1.
         11    1    4    4    0    0  0.78604611162E-02 -0.11713304023E-01  0.78794957334E-02  0.16165887359E-01  0.51100000000E-03 0. -1.
</event>
<event>
 8    1  0.1072332E+005  0.1043930E+01  0.7957747E-01            NaN
         13   -1    0    0    0    0  0.00000000000E+00  0.00000000000E+00  0.74505805969E-08  0.10566000000E+00  0.10566000000E+00 0. -1.
     999900   -1    0    0    0    0 -0.00000000000E+00 -0.00000000000E+00 -0.74505805969E-08  0.93827000000E+00  0.93827000000E+00 0. -1.
     999902    2    1    2    0    0  0.11789485605E-01  0.18752856170E-01  0.64874902628E-02  0.10208486414E+01  0.10205876736E+01 0.  0.
     999903    2    3    3    0    0 -0.18968825879E-01 -0.12023141587E+00  0.37365639191E-01  0.12887545699E+00  0.19931951859E-01 0.  0.
         14    1    1    2    0    0 -0.11789485605E-01 -0.18752856170E-01 -0.64874902628E-02  0.23081358610E-01  0.00000000000E+00 0. -1.
     999901    1    3    3    0    0  0.30758311485E-01  0.13898427204E+00 -0.30878148928E-01  0.89197318440E+00  0.88000000000E+00 0. -1.
        -11    1    4    4    0    0 -0.41744361768E-02 -0.25929569165E-01 -0.26360982016E-03  0.26269737068E-01  0.51100000000E-03 0. -1.
         11    1    4    4    0    0 -0.14794389703E-01 -0.94301846709E-01  0.37629249011E-01  0.10260571993E+00  0.51100000000E-03 0.  1.
</event>
<event>
 8    1  0.1072332E+005  0.1043930E+01  0.7957747E-01            NaN
         13   -1    0    0    0    0  0.00000000000E+00  0.00000000000E+00  0.74505805969E-08  0.10566000000E+00  0.10566000000E+00 0. -1.
     999900   -1    0    0    0    0 -0.00000000000E+00 -0.00000000000E+00 -0.74505805969E-08  0.93827000000E+00  0.93827000000E+00 0. -1.
     999902    2    1    2    0    0 -0.12710513889E-01  0.17631039934E-01  0.91841032966E-02  0.10203342698E+01  0.10200614019E+01 0.  0.
     999903    2    3    3    0    0 -0.64123827597E-01  0.27574386443E-01 -0.10892788130E+00  0.13090038246E+00  0.19935263971E-01 0.  0.
         14    1    1    2    0    0  0.12710513889E-01 -0.17631039934E-01 -0.91841032966E-02  0.23595730246E-01  0.00000000000E+00 0.  1.
     999901    1    3    3    0    0  0.51413313709E-01 -0.99433465082E-02  0.11811198460E+00  0.88943388730E+00  0.88000000000E+00 0.  1.
        -11    1    4    4    0    0 -0.19307150389E-01  0.18351785628E-01 -0.44739072643E-01  0.52071103635E-01  0.51100000000E-03 0. -1.
         11    1    4    4    0    0 -0.44816677208E-01  0.92226008147E-02 -0.64188808657E-01  0.78829278822E-01  0.51100000000E-03 0.  1.
</event>
<event>
 8    1  0.1072332E+005  0.1043930E+01  0.7957747E-01            NaN
         13   -1    0    0    0    0  0.00000000000E+00  0.00000000000E+00  0.74505805969E-08  0.10566000000E+00  0.10566000000E+00 0.  1.
     999900   -1    0    0    0    0 -0.00000000000E+00 -0.00000000000E+00 -0.74505805969E-08  0.93827000000E+00  0.93827000000E+00 0.  1.
     999902    2    1    2    0    0 -0.22381400532E-01 -0.73339147093E-02 -0.19070400814E-03  0.10203768736E+01  0.10201050017E+01 0.  0.
     999903    2    3    3    0    0  0.12221635709E+00  0.30199633906E-01  0.74927302941E-02  0.12775359700E+00  0.20395703241E-01 0.  0.
         14    1    1    2    0    0  0.22381400532E-01  0.73339147093E-02  0.19070400814E-03  0.23553126390E-01  0.00000000000E+00 0.  1.
     999901    1    3    3    0    0 -0.14459775762E+00 -0.37533548616E-01 -0.76834343023E-02  0.89262327661E+00  0.88000000000E+00 0.  1.
        -11    1    4    4    0    0  0.98663857888E-01  0.21567045803E-01 -0.17649026178E-02  0.10101024859E+00  0.51100000000E-03 0.  1.
         11    1    4    4    0    0  0.23552499203E-01  0.86325881039E-02  0.92576329119E-02  0.26743348410E-01  0.51100000000E-03 0. -1.
</event>
<event>
 8    1  0.1072332E+005  0.1043930E+01  0.7957747E-01            NaN
         13   -1    0    0    0    0  0.00000000000E+00  0.00000000000E+00  0.74505805969E-08  0.10566000000E+00  0.10566000000E+00 0. -1.
     999900   -1    0    0    0    0 -0.00000000000E+00 -0.00000000000E+00 -0.74505805969E-08  0.93827000000E+00  0.93827000000E+00 0.  1.
     999902    2    1    2    0    0  0.20660038821E-01 -0.10242709229E-01 -0.91677128967E-02  0.10191147374E+01  0.10188125690E+01 0.  0.
     999903    2    3    3    0    0  0.10203367403E+00 -0.78569517836E-01  0.21591142116E-01  0.13218952726E+00  0.20587713102E-01 0.  0.
         14    1    1    2    0    0 -0.20660038821E-01  0.10242709229E-01  0.91677128967E-02  0.24815262566E-01  0.00000000000E+00 0.  1.
     999901    1    3    3    0    0 -0.81373635206E-01  0.68326808608E-01 -0.30758855012E-01  0.88692521017E+00  0.88000000000E+00 0.  1.
        -11    1    4    4    0    0  0.49988080603E-01 -0.43817588478E-01  0.20612514861E-01  0.69598320039E-01  0.51100000000E-03 0.  1.
         11    1    4    4    0    0  0.52045593425E-01 -0.34751929358E-01  0.97862725499E-03  0.62591207221E-01  0.51100000000E-03 0. -1.
</event>
<event>
 8    1  0.1072332E+005  0.1043930E+01  0.7957747E-01            NaN
         13   -1    0    0    0    0  0.00000000000E+00  0.00000000000E+00  0.74505805969E-08  0.10566000000E+00  0.10566000000E+00 0. -1.
     999900   -1    0    0    0    0 -0.00000000000E+00 -0.00000000000E+00 -0.74505805969E-08  0.93827000000E+00  0.93827000000E+00 0. -1.
     999902    2    1    2    0    0 -0.14172142895E-01 -0.34013061606E-02  0.18096065685E-01  0.10206945506E+01  0.10204300463E+01 0.  0.
     999903    2    3    3    0    0 -0.56540526687E-01  0.80137209093E-01 -0.82971642806E-01  0.12997099906E+00  0.19732299619E-01 0.  0.
         14    1    1    2    0    0  0.14172142895E-01  0.34013061606E-02 -0.18096065685E-01  0.23235449449E-01  0.00000000000E+00 0.  1.
     999901    1    3    3    0    0  0.42368383792E-01 -0.83538515254E-01  0.10106770849E+00  0.89072355149E+00  0.88000000000E+00 0. -1.
        -11    1    4    4    0    0 -0.19994117717E-01  0.24440087923E-01 -0.15598894364E-01  0.35223135399E-01  0.51100000000E-03 0. -1.
         11    1    4    4    0    0 -0.36546408969E-01  0.55697121170E-01 -0.67372748442E-01  0.94747863663E-01  0.51100000000E-03 0.  1.
</event>
<event>
 8    1  0.1072332E+005  0.1043930E+01  0.7957747E-01            NaN
         13   -1    0    0    0    0  0.00000000000E+00  0.00000000000E+00  0.74505805969E-08  0.10566000000E+00  0.10566000000E+00 0. -1.
     999900   -1    0    0    0    0 -0.00000000000E+00 -0.00000000000E+00 -0.74505805969E-08  0.93827000000E+00  0.93827000000E+00 0.  1.
     999902    2    1    2    0    0  0.38244720407E-05 -0.23888489250E-01 -0.26304448959E-02  0.10198971231E+01  0.10196139281E+01 0.  0.
     999903    2    3    3    0    0  0.10674312458E+00  0.40310410723E-02 -0.71921324325E-01  0.13030507930E+00  0.19909617318E-01 0.  0.
         14    1    1    2    0    0 -0.38244720408E-05  0.23888489250E-01  0.26304448959E-02  0.24032876932E-01  0.00000000000E+00 0. -1.
     999901    1    3    3    0    0 -0.10673930011E+00 -0.27919530323E-01  0.69290879429E-01  0.88959204377E+00  0.88000000000E+00 0. -1.
        -11    1    4    4    0    0  0.48273940058E-01  0.54419574319E-03 -0.20840873564E-01  0.52585859028E-01  0.51100000000E-03 0. -1.
         11    1    4    4    0    0  0.58469184522E-01  0.34868453291E-02 -0.51080450760E-01  0.77719220273E-01  0.51100000000E-03 0.  1.
</event>
<event>
 8    1  0.1072332E+005  0.1043930E+01  0.7957747E-01            NaN
         13   -1    0    0    0    0  0.00000000000E+00  0.00000000000E+00  0.74505805969E-08  0.10566000000E+00  0.10566000000E+00 0. -1.
     999900   -1    0    0    0    0 -0.00000000000E+00 -0.00000000000E+00 -0.74505805969E-08  0.93827000000E+00  0.93827000000E+00 0.  1.
     999902    2    1    2    0    0 -0.56275515811E-02 -0.11243061425E-02  0.23249220068E-01  0.10199829828E+01  0.10197018317E+01 0.  0.
     999903    2    3    3    0    0  0.53307107951E-01  0.87022705993E-01 -0.75164486996E-01  0.12817109251E+00  0.19066455722E-01 0.  0.
         14    1    1    2    0    0  0.56275515811E-02  0.11243061425E-02 -0.23249220068E-01  0.23947017244E-01  0.00000000000E+00 0.  1.
     999901    1    3    3    0    0 -0.58934659532E-01 -0.88147012136E-01  0.98413707064E-01  0.89181189024E+00  0.88000000000E+00 0. -1.
        -11    1    4    4    0    0  0.43794564917E-01  0.54954498065E-01 -0.53421629336E-01  0.88272829205E-01  0.51100000000E-03 0. -1.
         11    1    4    4    0    0  0.95125430337E-02  0.32068207928E-01 -0.21742857660E-01  0.39898263307E-01  0.51100000000E-03 0.  1.
</event>
<event>
 8    1  0.1072332E+005  0.1043930E+01  0.7957747E-01            NaN
         13   -1    0    0    0    0  0.00000000000E+00  0.00000000000E+00  0.74505805969E-08  0.10566000000E+00  0.10566000000E+00 0.  1.
     999900   -1    0    0    0    0 -0.00000000000E+00 -0.00000000000E+00 -0.74505805969E-08  0.93827000000E+00  0.93827000000E+00 0. -1.
     999902    2    1    2    0    0  0.15554425552E-01 -0.16976286636E-01  0.76677604136E-02  0.10196621404E+01  0.10193733131E+01 0.  0.
     999903    2    3    3    0    0 -0.10673527707E+00 -0.48006532283E-01  0.52000652701E-01  0.12955930761E+00  0.19608666320E-01 0.  0.
         14    1    1    2    0    0 -0.15554425552E-01  0.16976286636E-01 -0.76677604136E-02  0.24267859650E-01  0.00000000000E+00 0. -1.
     999901    1    3    3    0    0  0.12228970262E+00  0.31030245646E-01 -0.44332892287E-01  0.89010283274E+00  0.88000000000E+00 0.  1.
        -11    1    4    4    0    0 -0.65919587394E-01 -0.37895134345E-01  0.27304556402E-01  0.80791293656E-01  0.51100000000E-03 0.  1.
         11    1    4    4    0    0 -0.40815689674E-01 -0.10111397938E-01  0.24696096298E-01  0.48768013956E-01  0.51100000000E-03 0. -1.
</event>
<event>
 8    1  0.1072332E+005  0.1043930E+01  0.7957747E-01            NaN
         13   -1    0    0    0    0  0.00000000000E+00  0.00000000000E+00  0.74505805969E-08  0.10566000000E+00  0.10566000000E+00 0.  1.
     999900   -1    0    0    0    0 -0.00000000000E+00 -0.00000000000E+00 -0.74505805969E-08  0.93827000000E+00  0.93827000000E+00 0. -1.
     999902    2    1    2    0    0  0.21854865495E-01  0.92358852924E-02 -0.30686831548E-02  0.10200060885E+01  0.10197254862E+01 0.  0.
     999903    2    3    3    0    0 -0.80752426905E-02  0.11429592899E+00  0.60314016577E-01  0.13098933348E+00  0.19790299710E-01 0.  0.
         14    1    1    2    0    0 -0.21854865495E-01 -0.92358852924E-02  0.30686831548E-02  0.23923911454E-01  0.00000000000E+00 0.  1.
     999901    1    3    3    0    0  0.29930108185E-01 -0.10506004370E+00 -0.63382699732E-01  0.88901675506E+00  0.88000000000E+00 0. -1.
        -11    1    4    4    0    0 -0.11811494384E-01  0.97747869787E-01  0.56759409638E-01  0.11364879740E+00  0.51100000000E-03 0.  1.
         11    1    4    4    0    0  0.37362516940E-02  0.16548059202E-01  0.35546069391E-02  0.17340536081E-01  0.51100000000E-03 0. -1.
</event>
<event>
 8    1  0.1072332E+005  0.1043930E+01  0.7957747E-01            NaN
         13   -1    0    0    0    0  0.00000000000E+00  0.00000000000E+00  0.74505805969E-08  0.10566000000E+00  0.10566000000E+00 0.  1.
     999900   -1    0    0    0    0 -0.00000000000E+00 -0.00000000000E+00 -0.74505805969E-08  0.93827000000E+00  0.93827000000E+00 0. -1.
     999902    2    1    2    0    0  0.18975789348E-01 -0.39418992963E-02  0.14305354960E-01  0.10198413651E+01  0.10195568388E+01 0.  0.
     999903    2    3    3    0    0  0.12208514013E-01 -0.11893893905E+00 -0.47599149376E-01  0.13017722462E+00  0.19619168009E-01 0.  0.
         14    1    1    2    0    0 -0.18975789348E-01  0.39418992963E-02 -0.14305354960E-01  0.24088634913E-01  0.00000000000E+00 0. -1.
     999901    1    3    3    0    0  0.67672753348E-02  0.11499703975E+00  0.61904504336E-01  0.88966414046E+00  0.88000000000E+00 0.  1.
        -11    1    4    4    0    0 -0.15739438077E-02 -0.70549057968E-01 -0.23428494435E-01  0.74355916724E-01  0.51100000000E-03 0. -1.
         11    1    4    4    0    0  0.13782457821E-01 -0.48389881080E-01 -0.24170654940E-01  0.55821307901E-01  0.51100000000E-03 0.  1.
</event>
<event>
 8    1  0.1072332E+005  0.1043930E+01  0.7957747E-01            NaN
         13   -1    0    0    0    0  0.00000000000E+00  0.00000000000E+00  0.74505805969E-08  0.10566000000E+00  0.10566000000E+00 0.  1.
     999900   -1    0    0    0    0 -0.00000000000E+00 -0.00000000000E+00 -0.74505805969E-08  0.93827000000E+00  0.93827000000E+00 0. -1.
     999902    2    1    2    0    0  0.19710393228E-01  0.13125237413E-02  0.13224855286E-01  0.10201577658E+01  0.10198807519E+01 0.  0.
     999903    2    3    3    0    0  0.21261011789E-01 -0.86985305572E-01  0.94648763262E-01  0.13199744029E+00  0.21129643850E-01 0.  0.
         14    1    1    2    0    0 -0.19710393228E-01 -0.13125237413E-02 -0.13224855286E-01  0.23772234163E-01  0.00000000000E+00 0. -1.
     999901    1    3    3    0    0 -0.15506185613E-02  0.88297829313E-01 -0.81423907976E-01  0.88816032554E+00  0.88000000000E+00 0. -1.
        -11    1    4    4    0    0  0.11582829577E-01 -0.53968101904E-01  0.72314275346E-01  0.90974356299E-01  0.51100000000E-03 0. -1.
         11    1    4    4    0    0  0.96781822120E-02 -0.33017203668E-01  0.22334487917E-01  0.41023083995E-01  0.51100000000E-03 0.  1.
</event>
<event>
 8    1  0.1072332E+005  0.1043930E+01  0.7957747E-01            NaN
         13   -1    0    0    0    0  0.00000000000E+00  0.00000000000E+00  0.74505805969E-08  0.10566000000E+00  0.10566000000E+00 0. -1.
     999900   -1    0    0    0    0 -0.00000000000E+00 -0.00000000000E+00 -0.74505805969E-08  0.93827000000E+00  0.93827000000E+00 0. -1.
     999902    2    1    2    0    0  0.22793199855E-01  0.36681720734E-02  0.44467804524E-02  0.10204191663E+01  0.10201482812E+01 0.  0.
     999903    2    3    3    0    0  0.65954411912E-02 -0.12821460571E+00 -0.11377286508E-01  0.13030353583E+00  0.19159432128E-01 0.  0.
         14    1    1    2    0    0 -0.22793199855E-01 -0.36681720734E-02 -0.44467804524E-02  0.23510833724E-01  0.00000000000E+00 0.  1.
     999901    1    3    3    0    0  0.16197758664E-01  0.13188277779E+00  0.15824066960E-01  0.89011563044E+00  0.88000000000E+00 0. -1.
        -11    1    4    4    0    0 -0.14211839287E-02 -0.86979110198E-01 -0.14435214900E-01  0.88181755056E-01  0.51100000000E-03 0. -1.
         11    1    4    4    0    0  0.80166251200E-02 -0.41235495517E-01  0.30579283927E-02  0.42121780778E-01  0.51100000000E-03 0.  1.
</event>
<event>
 8    1  0.1072332E+005  0.1043930E+01  0.7957747E-01            NaN
         13   -1    0    0    0    0  0.00000000000E+00  0.00000000000E+00  0.74505805969E-08  0.10566000000E+00  0.10566000000E+00 0.  1.
     999900   -1    0    0    0    0 -0.00000000000E+00 -0.00000000000E+00 -0.74505805969E-08  0.93827000000E+00  0.93827000000E+00 0.  1.
     999902    2    1    2    0    0 -0.91125681675E-04 -0.25148564202E-01  0.38313677158E-02  0.10184910935E+01  0.10181733495E+01 0.  0.
     999903    2    3    3    0    0 -0.43709662721E-01 -0.24670494975E-01 -0.11734316055E+00  0.12911711613E+00  0.19561298852E-01 0.  0.
         14    1    1    2    0    0  0.91125681675E-04  0.25148564202E-01 -0.38313677158E-02  0.25438906500E-01  0.00000000000E+00 0.  1.
     999901    1    3    3    0    0  0.43618537040E-01 -0.47806922711E-03  0.12117452826E+00  0.88937397737E+00  0.88000000000E+00 0. -1.
        -11    1    4    4    0    0 -0.29472638171E-01 -0.15990182999E-01 -0.97973230945E-01  0.10355354874E+00  0.51100000000E-03 0.  1.
         11    1    4    4    0    0 -0.14237024551E-01 -0.86803119758E-02 -0.19369929602E-01  0.25563567393E-01  0.51100000000E-03 0. -1.
</event>
<event>
 8    1  0.1072332E+005  0.1043930E+01  0.7957747E-01            NaN
         13   -1    0    0    0    0  0.00000000000E+00  0.00000000000E+00  0.74505805969E-08  0.10566000000E+00  0.10566000000E+00 0.  1.
     999900   -1    0    0    0    0 -0.00000000000E+00 -0.00000000000E+00 -0.74505805969E-08  0.93827000000E+00  0.93827000000E+00 0.  1.
     999902    2    1    2    0    0 -0.10511927283E-02 -0.11829250134E-01 -0.20899371619E-01  0.10198921153E+01  0.10196088010E+01 0.  0.
     999903    2    3    3    0    0  0.10709211493E+00  0.63137116933E-01  0.27430388134E-01  0.12879689211E+00  0.19524256938E-01 0.  0.
         14    1    1    2    0    0  0.10511927283E-02  0.11829250134E-01  0.20899371619E-01  0.24037884661E-01  0.00000000000E+00 0. -1.
     999901    1    3    3    0    0 -0.10814330766E+00 -0.74966367067E-01 -0.48329759754E-01  0.89109522323E+00  0.88000000000E+00 0. -1.
        -11    1    4    4    0    0  0.73151892671E-01  0.37395585275E-01  0.25994410691E-01  0.86171919484E-01  0.51100000000E-03 0. -1.
         11    1    4    4    0    0  0.33940222261E-01  0.25741531658E-01  0.14359774437E-02  0.42624972627E-01  0.51100000000E-03 0.  1.
</event>
<event>
 8    1  0.1072332E+005  0.1043930E+01  0.7957747E-01            NaN
         13   -1    0    0    0    0  0.00000000000E+00  0.00000000000E+00  0.74505805969E-08  0.10566000000E+00  0.10566000000E+00 0. -1.
     999900   -1    0    0    0    0 -0.00000000000E+00 -0.00000000000E+00 -0.74505805969E-08  0.93827000000E+00  0.93827000000E+00 0.  1.
     999902    2    1    2    0    0  0.39706639907E-02  0.12825526700E-01  0.20193756930E-01  0.10196802964E+01  0.10193919063E+01 0.  0.
     999903    2    3    3    0    0 -0.98432569162E-01  0.82528434114E-01 -0.18464517916E-02  0.13073109182E+00  0.24234188118E-01 0.  0.
         14    1    1    2    0    0 -0.39706639907E-02 -0.12825526700E-01 -0.20193756930E-01  0.24249703639E-01  0.00000000000E+00 0.  1.
     999901    1    3    3    0    0  0.10240323315E+00 -0.69702907414E-01  0.22040208721E-01  0.88894920455E+00  0.88000000000E+00 0. -1.
        -11    1    4    4    0    0 -0.35959667688E-01  0.24352824358E-01 -0.11198423268E-01  0.44853356164E-01  0.51100000000E-03 0. -1.
         11    1    4    4    0    0 -0.62472901474E-01  0.58175609756E-01  0.93519714768E-02  0.85877735651E-01  0.51100000000E-03 0.  1.
</event>
<event>
 8    1  0.1072332E+005  0.1043930E+01  0.7957747E-01            NaN
         13   -1    0    0    0    0  0.00000000000E+00  0.00000000000E+00  0.74505805969E-08  0.10566000000E+00  0.10566000000E+00 0.  1.
     999900   -1    0    0    0    0 -0.00000000000E+00 -0.00000000000E+00 -0.74505805969E-08  0.93827000000E+00  0.93827000000E+00 0. -1.
     999902    2    1    2    0    0  0.11663251761E-01 -0.18998797077E-01  0.84024524669E-02  0.10201059168E+01  0.10198276789E+01 0.  0.
     999903    2    3    3    0    0 -0.64963064210E-01  0.10135973722E+00  0.38991799274E-01  0.12808939387E+00  0.19812530605E-01 0.  0.
         14    1    1    2    0    0 -0.11663251761E-01  0.18998797077E-01 -0.84024524669E-02  0.23824083183E-01  0.00000000000E+00 0. -1.
     999901    1    3    3    0    0  0.76626315972E-01 -0.12035853430E+00 -0.30589346807E-01  0.89201652295E+00  0.88000000000E+00 0.  1.
        -11    1    4    4    0    0 -0.25403352192E-01  0.55714838815E-01  0.24618252249E-01  0.65998432038E-01  0.51100000000E-03 0.  1.
         11    1    4    4    0    0 -0.39559712018E-01  0.45644898409E-01  0.14373547025E-01  0.62090961828E-01  0.51100000000E-03 0. -1.
</event>
<event>
 8    1  0.1072332E+005  0.1043930E+01  0.7957747E-01            NaN
         13   -1    0    0    0    0  0.00000000000E+00  0.00000000000E+00  0.74505805969E-08  0.10566000000E+00  0.10566000000E+00 0. -1.
     999900   -1    0    0    0    0 -0.00000000000E+00 -0.00000000000E+00 -0.74505805969E-08  0.93827000000E+00  0.93827000000E+00 0. -1.
     999902    2    1    2    0    0 -0.32533122709E-02  0.23080318333E-01  0.44565912764E-02  0.10201992954E+01  0.10199232599E+01 0.  0.
     999903    2    3    3    0    0  0.91788302533E-01 -0.13010823789E-01  0.89339632641E-01  0.13028884496E+00  0.19980969538E-01 0.  0.
         14    1    1    2    0    0  0.32533122709E-02 -0.23080318333E-01 -0.44565912764E-02  0.23730704601E-01  0.00000000000E+00 0.  1.
     999901    1    3    3    0    0 -0.95041614804E-01  0.36091142122E-01 -0.84883041365E-01  0.88991045044E+00  0.88000000000E+00 0. -1.
        -11    1    4    4    0    0  0.37462962993E-01 -0.20078110611E-02  0.23714006984E-01  0.44386035526E-01  0.51100000000E-03 0.  1.
         11    1    4    4    0    0  0.54325339540E-01 -0.11003012728E-01  0.65625625657E-01  0.85902809436E-01  0.51100000000E-03 0. -1.
</event>
<event>
 8    1  0.1072332E+005  0.1043930E+01  0.7957747E-01            NaN
         13   -1    0    0    0    0  0.00000000000E+00  0.00000000000E+00  0.74505805969E-08  0.10566000000E+00  0.10566000000E+00 0.  1.
     999900   -1    0    0    0    0 -0.00000000000E+00 -0.00000000000E+00 -0.74505805969E-08  0.93827000000E+00  0.93827000000E+00 0.  1.
     999902    2    1    2    0    0  0.19265701347E-01  0.29015931723E-02  0.13779230115E-01  0.10200667715E+01  0.10197876076E+01 0.  0.
     999903    2    3    3    0    0  0.94358125014E-02 -0.10906874663E+00  0.69301641962E-01  0.13118167099E+00  0.20515534977E-01 0.  0.
         14    1    1    2    0    0 -0.19265701347E-01 -0.29015931723E-02 -0.13779230115E-01  0.23863228488E-01  0.00000000000E+00 0. -1.
     999901    1    3    3    0    0  0.98298888453E-02  0.11197033981E+00 -0.55522411847E-01  0.88888510052E+00  0.88000000000E+00 0. -1.
        -11    1    4    4    0    0  0.47949650287E-02 -0.37314120990E-01  0.35493173256E-01  0.51723899540E-01  0.51100000000E-03 0.  1.
         11    1    4    4    0    0  0.46408474727E-02 -0.71754625644E-01  0.33808468706E-01  0.79457771450E-01  0.51100000000E-03 0. -1.
</event>
<event>
 8    1  0.1072332E+005  0.1043930E+01  0.7957747E-01            NaN
         13   -1    0    0    0    0  0.00000000000E+00  0.00000000000E+00  0.74505805969E-08  0.10566000000E+00  0.10566000000E+00 0. -1.
     999900   -1    0    0    0    0 -0.00000000000E+00 -0.00000000000E+00 -0.74505805969E-08  0.93827000000E+00  0.93827000000E+00 0.  1.
     999902    2    1    2    0    0  0.80025346113E-02 -0.11908886004E-01  0.18180924093E-01  0.10207695137E+01  0.10205067329E+01 0.  0.
     999903    2    3    3    0    0  0.12872942636E+00  0.31546315450E-02 -0.18165544763E-01  0.13165593389E+00  0.20544610007E-01 0.  0.
         14    1    1    2    0    0 -0.80025346113E-02  0.11908886004E-01 -0.18180924093E-01  0.23160486328E-01  0.00000000000E+00 0.  1.
     999901    1    3    3    0    0 -0.12072689175E+00 -0.15063517549E-01  0.36346468856E-01  0.88911357978E+00  0.88000000000E+00 0.  1.
        -11    1    4    4    0    0  0.11493122169E+00  0.93854698642E-05 -0.21923032056E-01  0.11700455659E+00  0.51100000000E-03 0. -1.
         11    1    4    4    0    0  0.13798204677E-01  0.31452460751E-02  0.37574872939E-02  0.14651377305E-01  0.51100000000E-03 0.  1.
</event>
<event>
 8    1  0.1072332E+005  0.1043930E+01  0.7957747E-01            NaN
         13   -1    0    0    0    0  0.00000000000E+00  0.00000000000E+00  0.74505805969E-08  0.10566000000E+00  0.10566000000E+00 0.  1.
     999900   -1    0    0    0    0 -0.00000000000E+00 -0.00000000000E+00 -0.74505805969E-08  0.93827000000E+00  0.93827000000E+00 0.  1.
     999902    2    1    2    0    0  0.68530201812E-02 -0.16138400453E-01  0.16935702963E-01  0.10195531690E+01  0.10192617105E+01 0.  0.
     999903    2    3    3    0    0  0.51780660897E-01 -0.97582127239E-01  0.71096867303E-01  0.13299521531E+00  0.20723280504E-01 0.  0.
         14    1    1    2    0    0 -0.68530201812E-02  0.16138400453E-01 -0.16935702963E-01  0.24376831001E-01  0.00000000000E+00 0. -1.
     999901    1    3    3    0    0 -0.44927640716E-01  0.81443726785E-01 -0.54161164340E-01  0.88655795369E+00  0.88000000000E+00 0.  1.
        -11    1    4    4    0    0  0.21195745680E-01 -0.46446528805E-01  0.21227399772E-01  0.55293790746E-01  0.51100000000E-03 0.  1.
         11    1    4    4    0    0  0.30584915217E-01 -0.51135598434E-01  0.49869467530E-01  0.77701424561E-01  0.51100000000E-03 0. -1.
</event>
<event>
 8    1  0.1072332E+005  0.1043930E+01  0.7957747E-01            NaN
         13   -1    0    0    0    0  0.00000000000E+00  0.00000000000E+00  0.74505805969E-08  0.10566000000E+00  0.10566000000E+00 0. -1.
     999900   -1    0    0    0    0 -0.00000000000E+00 -0.00000000000E+00 -0.74505805969E-08  0.93827000000E+00  0.93827000000E+00 0.  1.
     999902    2    1    2    0    0  0.29429921229E-02  0.23546329336E-01  0.34794078771E-02  0.10199467328E+01  0.10196647197E+01 0.  0.
     999903    2    3    3    0    0 -0.21649307461E-01  0.42239680478E-01  0.12130730224E+00  0.13155625822E+00  0.18403922968E-01 0.  0.
         14    1    1    2    0    0 -0.29429921229E-02 -0.23546329336E-01 -0.34794078771E-02  0.23983267229E-01  0.00000000000E+00 0. -1.
     999901    1    3    3    0    0  0.24592299584E-01 -0.18693351142E-01 -0.11782789436E+00  0.88839047455E+00  0.88000000000E+00 0.  1.
        -11    1    4    4    0    0 -0.16540142443E-01  0.12965798882E-01  0.55525931784E-01  0.59372371303E-01  0.51100000000E-03 0. -1.
         11    1    4    4    0    0 -0.51091650181E-02  0.29273881596E-01  0.65781370456E-01  0.72183886921E-01  0.51100000000E-03 0.  1.
</event>
<event>
 8    1  0.1072332E+005  0.1043930E+01  0.7957747E-01            NaN
         13   -1    0    0    0    0  0.00000000000E+00  0.00000000000E+00  0.74505805969E-08  0.10566000000E+00  0.10566000000E+00 0. -1.
     999900   -1    0    0    0    0 -0.00000000000E+00 -0.00000000000E+00 -0.74505805969E-08  0.93827000000E+00  0.93827000000E+00 0. -1.
     999902    2    1    2    0    0  0.22585215474E-01  0.68288750704E-02 -0.63113690845E-02  0.10195054453E+01  0.10192128306E+01 0.  0.
     999903    2    3    3    0    0  0.12361290659E+00  0.14171535335E-01  0.40866023320E-01  0.13243937370E+00  0.19727461942E-01 0.  0.
         14    1    1    2    0    0 -0.22585215474E-01 -0.68288750704E-02  0.63113690845E-02  0.24424554704E-01  0.00000000000E+00 0. -1.
     999901    1    3    3    0    0 -0.10102769111E+00 -0.73426602649E-02 -0.47177392404E-01  0.88706607160E+00  0.88000000000E+00 0.  1.
        -11    1    4    4    0    0  0.46729559245E-01  0.88901610836E-02  0.25065258936E-01  0.53770019508E-01  0.51100000000E-03 0. -1.
         11    1    4    4    0    0  0.76883347340E-01  0.52813742517E-02  0.15800764384E-01  0.78669354188E-01  0.51100000000E-03 0.  1.
</event>
<event>
 8    1  0.1072332E+005  0.1043930E+01  0.7957747E-01            NaN
         13   -1    0    0    0    0  0.00000000000E+00  0.00000000000E+00  0.74505805969E-08  0.10566000000E+00  0.10566000000E+00 0.  1.
     999900   -1    0    0    0    0 -0.00000000000E+00 -0.00000000000E+00 -0.74505805969E-08  0.93827000000E+00  0.93827000000E+00 0.  1.
     999902    2    1    2    0    0  0.21928329265E-02 -0.81151893896E-02  0.19280862400E-01  0.10228963016E+01  0.10226800219E+01 0.  0.
     999903    2    3    3    0    0  0.43747286939E-01 -0.58580687090E-01 -0.10742211428E+00  0.13142157763E+00  0.19662106113E-01 0.  0.
         14    1    1    2    0    0 -0.21928329265E-02  0.81151893896E-02 -0.19280862400E-01  0.21033698437E-01  0.00000000000E+00 0. -1.
     999901    1    3    3    0    0 -0.41554454012E-01  0.50465497700E-01  0.12670297668E+00  0.89147472393E+00  0.88000000000E+00 0. -1.
        -11    1    4    4    0    0  0.27183847947E-01 -0.28247265873E-01 -0.42168362672E-01  0.57578655333E-01  0.51100000000E-03 0.  1.
         11    1    4    4    0    0  0.16563438992E-01 -0.30333421217E-01 -0.65253751607E-01  0.73842922300E-01  0.51100000000E-03 0. -1.
</event>
<event>
 8    1  0.1072332E+005  0.1043930E+01  0.7957747E-01            NaN
         13   -1    0    0    0    0  0.00000000000E+00  0.00000000000E+00  0.74505805969E-08  0.10566000000E+00  0.10566000000E+00 0.  1.
     999900   -1    0    0    0    0 -0.00000000000E+00 -0.00000000000E+00 -0.74505805969E-08  0.93827000000E+00  0.93827000000E+00 0. -1.
     999902    2    1    2    0    0  0.13423353692E-01 -0.84369842720E-02 -0.18023722135E-01  0.10199253403E+01  0.10196428179E+01 0.  0.
     999903    2    3    3    0    0 -0.22097180851E-01 -0.39291828238E-01  0.11805792101E+00  0.12822362819E+00  0.21713888299E-01 0.  0.
         14    1    1    2    0    0 -0.13423353692E-01  0.84369842720E-02  0.18023722135E-01  0.24004659705E-01  0.00000000000E+00 0.  1.
     999901    1    3    3    0    0  0.35520534543E-01  0.30854843966E-01 -0.13608164315E+00  0.89170171211E+00  0.88000000000E+00 0. -1.
        -11    1    4    4    0    0  0.70606527234E-03 -0.87610873919E-02  0.44681300307E-01  0.45540475389E-01  0.51100000000E-03 0. -1.
         11    1    4    4    0    0 -0.22803246123E-01 -0.30530740847E-01  0.73376620703E-01  0.82683152801E-01  0.51100000000E-03 0.  1.
</event>
<event>
 8    1  0.1072332E+005  0.1043930E+01  0.7957747E-01            NaN
         13   -1    0    0    0    0  0.00000000000E+00  0.00000000000E+00  0.74505805969E-08  0.10566000000E+00  0.10566000000E+00 0. -1.
     999900   -1    0    0    0    0 -0.00000000000E+00 -0.00000000000E+00 -0.74505805969E-08  0.93827000000E+00  0.93827000000E+00 0.  1.
     999902    2    1    2    0    0  0.20151985894E-01  0.77367849433E-02  0.11934169533E-01  0.10192645428E+01  0.10189660561E+01 0.  0.
     999903    2    3    3    0    0  0.56996554948E-01 -0.93662062987E-01  0.68573110369E-01  0.13086867481E+00  0.20078577196E-01 0.  0.
         14    1    1    2    0    0 -0.20151985894E-01 -0.77367849433E-02 -0.11934169533E-01  0.24665457206E-01  0.00000000000E+00 0.  1.
     999901    1    3    3    0    0 -0.36844569054E-01  0.10139884793E+00 -0.56638940835E-01  0.88839586798E+00  0.88000000000E+00 0.  1.
        -11    1    4    4    0    0  0.25670515730E-01 -0.47198037157E-01  0.22222386447E-01  0.58144008029E-01  0.51100000000E-03 0.  1.
         11    1    4    4    0    0  0.31326039219E-01 -0.46464025830E-01  0.46350723922E-01  0.72724666782E-01  0.51100000000E-03 0. -1.
</event>
<event>
 8    1  0.1072332E+005  0.1043930E+01  0.7957747E-01            NaN
         13   -1    0    0    0    0  0.00000000000E+00  0.00000000000E+00  0.74505805969E-08  0.10566000000E+00  0.10566000000E+00 0. -1.
     999900   -1    0    0    0    0 -0.00000000000E+00 -0.00000000000E+00 -0.74505805969E-08  0.93827000000E+00  0.93827000000E+00 0.  1.
     999902    2    1    2    0    0 -0.12785251317E-01  0.36045819225E-02 -0.18631059474E-01  0.10210483034E+01  0.10207918817E+01 0.  0.
     999903    2    3    3    0    0  0.20153771197E-01  0.81981430064E-01  0.96312744942E-01  0.12951031335E+00  0.19226207569E-01 0.  0.
         14    1    1    2    0    0  0.12785251317E-01 -0.36045819225E-02  0.18631059474E-01  0.22881696598E-01  0.00000000000E+00 0. -1.
     999901    1    3    3    0    0 -0.32939022514E-01 -0.78376848142E-01 -0.11494380442E+00  0.89153799005E+00  0.88000000000E+00 0.  1.
        -11    1    4    4    0    0  0.10314483288E-01  0.55197487360E-01  0.50427470685E-01  0.75474115411E-01  0.51100000000E-03 0. -1.
         11    1    4    4    0    0  0.98392879094E-02  0.26783942705E-01  0.45885274257E-01  0.54036197942E-01  0.51100000000E-03 0.  1.
</event>
<event>
 8    1  0.1072332E+005  0.1043930E+01  0.7957747E-01            NaN
         13   -1    0    0    0    0  0.00000000000E+00  0.00000000000E+00  0.74505805969E-08  0.10566000000E+00  0.10566000000E+00 0.  1.
     999900   -1    0    0    0    0 -0.00000000000E+00 -0.00000000000E+00 -0.74505805969E-08  0.93827000000E+00  0.93827000000E+00 0.  1.
     999902    2    1    2    0    0 -0.30668111494E-02  0.16403170058E-01 -0.17734623967E-01  0.10195786919E+01  0.10192878508E+01 0.  0.
     999903    2    3    3    0    0  0.68809148063E-02  0.67451664042E-01  0.10821304361E+00  0.12909134166E+00  0.18906023170E-01 0.  0.
         14    1    1    2    0    0  0.30668111494E-02 -0.16403170058E-01  0.17734623967E-01  0.24351308093E-01  0.00000000000E+00 0.  1.
     999901    1    3    3    0    0 -0.99477259557E-02 -0.51048493984E-01 -0.12594766758E+00  0.89048735025E+00  0.88000000000E+00 0.  1.
        -11    1    4    4    0    0 -0.12803605884E-03  0.46868405373E-01  0.86357684422E-01  0.98257694840E-01  0.51100000000E-03 0. -1.
         11    1    4    4    0    0  0.70089508651E-02  0.20583258669E-01  0.21855359189E-01  0.30833646816E-01  0.51100000000E-03 0.  1.
</event>
<event>
 8    1  0.1072332E+005  0.1043930E+01  0.7957747E-01            NaN
         13   -1    0    0    0    0  0.00000000000E+00  0.00000000000E+00  0.74505805969E-08  0.10566000000E+00  0.10566000000E+00 0. -1.
     999900   -1    0    0    0    0 -0.00000000000E+00 -0.00000000000E+00 -0.74505805969E-08  0.93827000000E+00  0.93827000000E+00 0.  1.
     999902    2    1    2    0    0 -0.13942164016E-01 -0.96096504668E-02  0.15265905401E-01  0.10211313775E+01  0.10208768354E+01 0.  0.
     999903    2    3    3    0    0  0.11091644533E+00 -0.60483125372E-01  0.27497741939E-01  0.13077897503E+00  0.19655742179E-01 0.  0.
         14    1    1    2    0    0  0.13942164016E-01  0.96096504668E-02 -0.15265905401E-01  0.22798622486E-01  0.00000000000E+00 0.  1.
     999901    1    3    3    0    0 -0.12485860934E+00  0.50873474905E-01 -0.12231836537E-01  0.89035240248E+00  0.88000000000E+00 0.  1.
        -11    1    4    4    0    0  0.63292364056E-01 -0.32297517538E-01  0.56579096898E-02  0.71283420582E-01  0.51100000000E-03 0.  1.
         11    1    4    4    0    0  0.47624081271E-01 -0.28185607834E-01  0.21839832249E-01  0.59495554452E-01  0.51100000000E-03 0. -1.
</event>
<event>
 8    1  0.1072332E+005  0.1043930E+01  0.7957747E-01            NaN
         13   -1    0    0    0    0  0.00000000000E+00  0.00000000000E+00  0.74505805969E-08  0.10566000000E+00  0.10566000000E+00 0. -1.
     999900   -1    0    0    0    0 -0.00000000000E+00 -0.00000000000E+00 -0.74505805969E-08  0.93827000000E+00  0.93827000000E+00 0. -1.
     999902    2    1    2    0    0 -0.18573118893E-01  0.13486805948E-01  0.27140324318E-02  0.10208167862E+01  0.10205550893E+01 0.  0.
     999903    2    3    3    0    0 -0.29326083473E-01  0.50349661982E-01 -0.11674897858E+00  0.13191526893E+00  0.19396044535E-01 0.  0.
         14    1    1    2    0    0  0.18573118893E-01 -0.13486805948E-01 -0.27140324318E-02  0.23113213800E-01  0.00000000000E+00 0. -1.
     999901    1    3    3    0    0  0.10752964579E-01 -0.36862856034E-01  0.11946301101E+00  0.88890151727E+00  0.88000000000E+00 0.  1.
        -11    1    4    4    0    0 -0.23071638416E-01  0.48523208425E-01 -0.94293374775E-01  0.10852789458E+00  0.51100000000E-03 0.  1.
         11    1    4    4    0    0 -0.62544450570E-02  0.18264535570E-02 -0.22455603808E-01  0.23387374349E-01  0.51100000000E-03 0. -1.
</event>
<event>
 8    1  0.1072332E+005  0.1043930E+01  0.7957747E-01            NaN
         13   -1    0    0    0    0  0.00000000000E+00  0.00000000000E+00  0.74505805969E-08  0.10566000000E+00  0.10566000000E+00 0. -1.
     999900   -1    0    0    0    0 -0.00000000000E+00 -0.00000000000E+00 -0.74505805969E-08  0.93827000000E+00  0.93827000000E+00 0. -1.
     999902    2    1    2    0    0  0.10550459173E-01 -0.13965135612E-01  0.15873578923E-01  0.10203014641E+01  0.10200278280E+01 0.  0.
     999903    2    3    3    0    0  0.53176577127E-01  0.11118362504E+00  0.36859429312E-01  0.13017809953E+00  0.19954278630E-01 0.  0.
         14    1    1    2    0    0 -0.10550459173E-01  0.13965135612E-01 -0.15873578923E-01  0.23628535910E-01  0.00000000000E+00 0.  1.
     999901    1    3    3    0    0 -0.42626117954E-01 -0.12514876065E+00 -0.20985850389E-01  0.89012336456E+00  0.88000000000E+00 0. -1.
        -11    1    4    4    0    0  0.42604697047E-01  0.70949020886E-01  0.19056026636E-01  0.84925361626E-01  0.51100000000E-03 0.  1.
         11    1    4    4    0    0  0.10571880081E-01  0.40234604152E-01  0.17803402675E-01  0.45252737901E-01  0.51100000000E-03 0. -1.
</event>
<event>
 8    1  0.1072332E+005  0.1043930E+01  0.7957747E-01            NaN
         13   -1    0    0    0    0  0.00000000000E+00  0.00000000000E+00  0.74505805969E-08  0.10566000000E+00  0.10566000000E+00 0. -1.
     999900   -1    0    0    0    0 -0.00000000000E+00 -0.00000000000E+00 -0.74505805969E-08  0.93827000000E+00  0.93827000000E+00 0.  1.
     999902    2    1    2    0    0  0.10508470551E-01 -0.22226883687E-01 -0.10940671707E-02  0.10193198538E+01  0.10190227206E+01 0.  0.
     999903    2    3    3    0    0  0.98041016663E-01  0.78614992454E-01 -0.20982182493E-01  0.12902407840E+00  0.20361798488E-01 0.  0.
         14    1    1    2    0    0 -0.10508470551E-01  0.22226883687E-01  0.10940671707E-02  0.24610146174E-01  0.00000000000E+00 0.  1.
     999901    1    3    3    0    0 -0.87532546112E-01 -0.10084187614E+00  0.19888115322E-01  0.89029577543E+00  0.88000000000E+00 0.  1.
        -11    1    4    4    0    0  0.91711693103E-01  0.71497084061E-01 -0.13843810109E-01  0.11711011861E+00  0.51100000000E-03 0.  1.
         11    1    4    4    0    0  0.63293235605E-02  0.71179083926E-02 -0.71383723832E-02  0.11913959791E-01  0.51100000000E-03 0. -1.
</event>
<event>
 8    1  0.1072332E+005  0.1043930E+01  0.7957747E-01            NaN
         13   -1    0    0    0    0  0.00000000000E+00  0.00000000000E+00  0.74505805969E-08  0.10566000000E+00  0.10566000000E+00 0.  1.
     999900   -1    0    0    0    0 -0.00000000000E+00 -0.00000000000E+00 -0.74505805969E-08  0.93827000000E+00  0.93827000000E+00 0. -1.
     999902    2    1    2    0    0  0.11528635255E-01  0.20600054382E-01  0.45765816778E-02  0.10198838616E+01  0.10196003503E+01 0.  0.
     999903    2    3    3    0    0  0.84448810696E-01  0.98470645683E-01 -0.21366772699E-01  0.13306130968E+00  0.20511057267E-01 0.  0.
         14    1    1    2    0    0 -0.11528635255E-01 -0.20600054382E-01 -0.45765816778E-02  0.24046138385E-01  0.00000000000E+00 0. -1.
     999901    1    3    3    0    0 -0.72920175441E-01 -0.77870591301E-01  0.25943354377E-01  0.88682255193E+00  0.88000000000E+00 0.  1.
        -11    1    4    4    0    0  0.37624574149E-01  0.48313613179E-01 -0.20027932447E-01  0.64429752424E-01  0.51100000000E-03 0.  1.
         11    1    4    4    0    0  0.46824236547E-01  0.50157032505E-01 -0.13388402521E-02  0.68631557261E-01  0.51100000000E-03 0. -1.
</event>
<event>
 8    1  0.1072332E+005  0.1043930E+01  0.7957747E-01            NaN
         13   -1    0    0    0    0  0.00000000000E+00  0.00000000000E+00  0.74505805969E-08  0.10566000000E+00  0.10566000000E+00 0. -1.
     999900   -1    0    0    0    0 -0.00000000000E+00 -0.00000000000E+00 -0.74505805969E-08  0.93827000000E+00  0.93827000000E+00 0.  1.
     999902    2    1    2    0    0 -0.11616784034E-01  0.78741986122E-02  0.19594658431E-01  0.10198280641E+01  0.10195432198E+01 0.  0.
     999903    2    3    3    0    0 -0.10724934484E+00  0.48398852216E-01 -0.53447393139E-01  0.13071447432E+00  0.19615786975E-01 0.  0.
         14    1    1    2    0    0  0.11616784034E-01 -0.78741986122E-02 -0.19594658431E-01  0.24101935899E-01  0.00000000000E+00 0.  1.
     999901    1    3    3    0    0  0.95632560807E-01 -0.40524653604E-01  0.73042051569E-01  0.88911358978E+00  0.88000000000E+00 0.  1.
        -11    1    4    4    0    0 -0.11836279032E-01  0.44311802141E-04 -0.90077560242E-02  0.14882884614E-01  0.51100000000E-03 0.  1.
         11    1    4    4    0    0 -0.95413065809E-01  0.48354540414E-01 -0.44439637115E-01  0.11583158971E+00  0.51100000000E-03 0. -1.
</event>
<event>
 8    1  0.1072332E+005  0.1043930E+01  0.7957747E-01            NaN
         13   -1    0    0    0    0  0.00000000000E+00  0.00000000000E+00  0.74505805969E-08  0.10566000000E+00  0.10566000000E+00 0.  1.
     999900   -1    0    0    0    0 -0.00000000000E+00 -0.00000000000E+00 -0.74505805969E-08  0.93827000000E+00  0.93827000000E+00 0. -1.
     999902    2    1    2    0    0 -0.63828341555E-02  0.19898719427E-01  0.79477314628E-02  0.10215723158E+01  0.10213276313E+01 0.  0.
     999903    2    3    3    0    0 -0.53814904291E-01 -0.89593998607E-01  0.76773845423E-01  0.13085603633E+00  0.17491437688E-01 0.  0.
         14    1    1    2    0    0  0.63828341555E-02 -0.19898719427E-01 -0.79477314628E-02  0.22357684185E-01  0.00000000000E+00 0.  1.
     999901    1    3    3    0    0  0.47432070135E-01  0.10949271803E+00 -0.68826113960E-01  0.89071627949E+00  0.88000000000E+00 0. -1.
        -11    1    4    4    0    0 -0.38411562059E-01 -0.47405334505E-01  0.42541243218E-01  0.74382338864E-01  0.51100000000E-03 0.  1.
         11    1    4    4    0    0 -0.15403342232E-01 -0.42188664102E-01  0.34232602205E-01  0.56473697465E-01  0.51100000000E-03 0. -1.
</event>
<event>
 8    1  0.1072332E+005  0.1043930E+01  0.7957747E-01            NaN
         13   -1    0    0    0    0  0.00000000000E+00  0.00000000000E+00  0.74505805969E-08  0.10566000000E+00  0.10566000000E+00 0.  1.
     999900   -1    0    0    0    0 -0.00000000000E+00 -0.00000000000E+00 -0.74505805969E-08  0.93827000000E+00  0.93827000000E+00 0.  1.
     999902    2    1    2    0    0 -0.65313535784E-02  0.53134770974E-02 -0.20570518333E-01  0.10217030379E+01  0.10214612376E+01 0.  0.
     999903    2    3    3    0    0 -0.60395750781E-01  0.10607335758E+00 -0.50907152525E-01  0.13379862969E+00  0.20281302374E-01 0.  0.
         14    1    1    2    0    0  0.65313535784E-02 -0.53134770974E-02  0.20570518333E-01  0.22226962071E-01  0.00000000000E+00 0.  1.
     999901    1    3    3    0    0  0.53864397203E-01 -0.10075988049E+00  0.30336634193E-01  0.88790440824E+00  0.88000000000E+00 0.  1.
        -11    1    4    4    0    0 -0.29811985992E-01  0.71306572885E-01 -0.34891026153E-01  0.84799921417E-01  0.51100000000E-03 0.  1.
         11    1    4    4    0    0 -0.30583764790E-01  0.34766784700E-01 -0.16016126372E-01  0.48998708269E-01  0.51100000000E-03 0. -1.
</event>
<event>
 8    1  0.1072332E+005  0.1043930E+01  0.7957747E-01            NaN
         13   -1    0    0    0    0  0.00000000000E+00  0.00000000000E+00  0.74505805969E-08  0.10566000000E+00  0.10566000000E+00 0.  1.
     999900   -1    0    0    0    0 -0.00000000000E+00 -0.00000000000E+00 -0.74505805969E-08  0.93827000000E+00  0.93827000000E+00 0. -1.
     999902    2    1    2    0    0 -0.11303105416E-01  0.20372245596E-01  0.54804366606E-02  0.10199962630E+01  0.10197154273E+01 0.  0.
     999903    2    3    3    0    0 -0.11768818682E+00  0.29887257528E-01 -0.47628294790E-01  0.13194848364E+00  0.19954708495E-01 0.  0.
         14    1    1    2    0    0  0.11303105416E-01 -0.20372245596E-01 -0.54804366606E-02  0.23933737039E-01  0.00000000000E+00 0. -1.
     999901    1    3    3    0    0  0.10638508140E+00 -0.95150119317E-02  0.53108731451E-01  0.88804777932E+00  0.88000000000E+00 0.  1.
        -11    1    4    4    0    0 -0.43258874316E-01  0.20260041130E-01 -0.14607838725E-01  0.49954474744E-01  0.51100000000E-03 0. -1.
         11    1    4    4    0    0 -0.74429312504E-01  0.96272163975E-02 -0.33020456065E-01  0.81994008898E-01  0.51100000000E-03 0.  1.
</event>
<event>
 8    1  0.1072332E+005  0.1043930E+01  0.7957747E-01            NaN
         13   -1    0    0    0    0  0.00000000000E+00  0.00000000000E+00  0.74505805969E-08  0.10566000000E+00  0.10566000000E+00 0.  1.
     999900   -1    0    0    0    0 -0.00000000000E+00 -0.00000000000E+00 -0.74505805969E-08  0.93827000000E+00  0.93827000000E+00 0. -1.
     999902    2    1    2    0    0  0.12136029302E-01  0.60116666881E-02 -0.21288540259E-01  0.10186985654E+01  0.10183860476E+01 0.  0.
     999903    2    3    3    0    0  0.69979405084E-01  0.57038904930E-01  0.89373540297E-01  0.12842010831E+00  0.18802678016E-01 0.  0.
         14    1    1    2    0    0 -0.12136029302E-01 -0.60116666881E-02  0.21288540259E-01  0.25231434559E-01  0.00000000000E+00 0.  1.
     999901    1    3    3    0    0 -0.57843375783E-01 -0.51027238242E-01 -0.11066208056E+00  0.89027845713E+00  0.88000000000E+00 0.  1.
        -11    1    4    4    0    0  0.43249391124E-01  0.29555589262E-01  0.62743573990E-01  0.81737750687E-01  0.51100000000E-03 0. -1.
         11    1    4    4    0    0  0.26730013961E-01  0.27483315668E-01  0.26629966306E-01  0.46682357620E-01  0.51100000000E-03 0.  1.
</event>
<event>
 8    1  0.1072332E+005  0.1043930E+01  0.7957747E-01            NaN
         13   -1    0    0    0    0  0.00000000000E+00  0.00000000000E+00  0.74505805969E-08  0.10566000000E+00  0.10566000000E+00 0.  1.
     999900   -1    0    0    0    0 -0.00000000000E+00 -0.00000000000E+00 -0.74505805969E-08  0.93827000000E+00  0.93827000000E+00 0. -1.
     999902    2    1    2    0    0  0.11985975357E-01 -0.21819499711E-02  0.19946222971E-01  0.10205574451E+01  0.10202897738E+01 0.  0.
     999903    2    3    3    0    0 -0.10348968871E+00 -0.14952073965E-01  0.76549430117E-01  0.13111850504E+00  0.19964141081E-01 0.  0.
         14    1    1    2    0    0 -0.11985975357E-01  0.21819499711E-02 -0.19946222971E-01  0.23372554883E-01  0.00000000000E+00 0. -1.
     999901    1    3    3    0    0  0.11547566407E+00  0.12770123994E-01 -0.56603207146E-01  0.88943894007E+00  0.88000000000E+00 0. -1.
        -11    1    4    4    0    0 -0.99644640059E-01 -0.11112443701E-01  0.75616971776E-01  0.12558156011E+00  0.51100000000E-03 0. -1.
         11    1    4    4    0    0 -0.38450486492E-02 -0.38396302643E-02  0.93245834175E-03  0.55369449375E-02  0.51100000000E-03 0.  1.
</event>
<event>
 8    1  0.1072332E+005  0.1043930E+01  0.7957747E-01            NaN
         13   -1    0    0    0    0  0.00000000000E+00  0.00000000000E+00  0.74505805969E-08  0.10566000000E+00  0.10566000000E+00 0.  1.
     999900   -1    0    0    0    0 -0.00000000000E+00 -0.00000000000E+00 -0.74505805969E-08  0.93827000000E+00  0.93827000000E+00 0.  1.
     999902    2    1    2    0    0 -0.84622052586E-02 -0.49142815277E-02  0.21674050652E-01  0.10201492609E+01  0.10198720464E+01 0.  0.
     999903    2    3    3    0    0 -0.38637316732E-01 -0.11943223103E+00  0.35935738910E-01  0.13210179940E+00  0.20065094629E-01 0.  0.
         14    1    1    2    0    0  0.84622052586E-02  0.49142815277E-02 -0.21674050652E-01  0.23780739106E-01  0.00000000000E+00 0. -1.
     999901    1    3    3    0    0  0.30175111474E-01  0.11451794950E+00 -0.14261688258E-01  0.88804746149E+00  0.88000000000E+00 0.  1.
        -11    1    4    4    0    0 -0.31163906617E-01 -0.83430029388E-01  0.33822294151E-01  0.95267872769E-01  0.51100000000E-03 0.  1.
         11    1    4    4    0    0 -0.74734101151E-02 -0.36002201638E-01  0.21134447583E-02  0.36833926634E-01  0.51100000000E-03 0. -1.
</event>
<event>
 8    1  0.1072332E+005  0.1043930E+01  0.7957747E-01            NaN
         13   -1    0    0    0    0  0.00000000000E+00  0.00000000000E+00  0.74505805969E-08  0.10566000000E+00  0.10566000000E+00 0. -1.
     999900   -1    0    0    0    0 -0.00000000000E+00 -0.00000000000E+00 -0.74505805969E-08  0.93827000000E+00  0.93827000000E+00 0. -1.
     999902    2    1    2    0    0 -0.10640939523E-01  0.13506779695E-01  0.16161681296E-01  0.10203320629E+01  0.10200591434E+01 0.  0.
     999903    2    3    3    0    0 -0.76253647792E-01  0.68600045168E-01 -0.78432899557E-01  0.13112543334E+00  0.22838006393E-01 0.  0.
         14    1    1    2    0    0  0.10640939523E-01 -0.13506779695E-01 -0.16161681296E-01  0.23597937070E-01  0.00000000000E+00 0.  1.
     999901    1    3    3    0    0  0.65612708268E-01 -0.55093265473E-01  0.94594580853E-01  0.88920662959E+00  0.88000000000E+00 0.  1.
        -11    1    4    4    0    0 -0.59022311208E-01  0.43745200849E-01 -0.45532952296E-01  0.86433712656E-01  0.51100000000E-03 0.  1.
         11    1    4    4    0    0 -0.17231336584E-01  0.24854844319E-01 -0.32899947261E-01  0.44691720680E-01  0.51100000000E-03 0. -1.
</event>
<event>
 8    1  0.1072332E+005  0.1043930E+01  0.7957747E-01            NaN
         13   -1    0    0    0    0  0.00000000000E+00  0.00000000000E+00  0.74505805969E-08  0.10566000000E+00  0.10566000000E+00 0. -1.
     999900   -1    0    0    0    0 -0.00000000000E+00 -0.00000000000E+00 -0.74505805969E-08  0.93827000000E+00  0.93827000000E+00 0.  1.
     999902    2    1    2    0    0  0.15348564234E-02  0.53434127312E-02 -0.22054211620E-01  0.10211858558E+01  0.10209325424E+01 0.  0.
     999903    2    3    3    0    0  0.12587668432E+00 -0.31342272618E-01  0.36941309640E-02  0.13131524343E+00  0.20069101760E-01 0.  0.
         14    1    1    2    0    0 -0.15348564234E-02 -0.53434127312E-02  0.22054211620E-01  0.22744144170E-01  0.00000000000E+00 0. -1.
     999901    1    3    3    0    0 -0.12434182789E+00  0.36685685349E-01 -0.25748342584E-01  0.88987061240E+00  0.88000000000E+00 0.  1.
        -11    1    4    4    0    0  0.31499664671E-01 -0.10747935501E-01  0.92754585227E-02  0.34554916347E-01  0.51100000000E-03 0. -1.
         11    1    4    4    0    0  0.94377019645E-01 -0.20594337117E-01 -0.55813275587E-02  0.96760327080E-01  0.51100000000E-03 0.  1.
</event>
<event>
 8    1  0.1072332E+005  0.1043930E+01  0.7957747E-01            NaN
         13   -1    0    0    0    0  0.00000000000E+00  0.00000000000E+00  0.74505805969E-08  0.10566000000E+00  0.10566000000E+00 0. -1.
     999900   -1    0    0    0    0 -0.00000000000E+00 -0.00000000000E+00 -0.74505805969E-08  0.93827000000E+00  0.93827000000E+00 0.  1.
     999902    2    1    2    0    0 -0.14525119526E-01  0.44333258901E-02 -0.16653339220E-01  0.10213918727E+01  0.10211431782E+01 0.  0.
     999903    2    3    3    0    0  0.43198544893E-01  0.60872001942E-01 -0.10817745572E+00  0.13296967041E+00  0.20175639330E-01 0.  0.
         14    1    1    2    0    0  0.14525119526E-01 -0.44333258901E-02  0.16653339220E-01  0.22538127315E-01  0.00000000000E+00 0. -1.
     999901    1    3    3    0    0 -0.57723664419E-01 -0.56438676052E-01  0.91524116501E-01  0.88842220227E+00  0.88000000000E+00 0.  1.
        -11    1    4    4    0    0  0.32738506210E-01  0.45019541720E-01 -0.63652111339E-01  0.84560163934E-01  0.51100000000E-03 0. -1.
         11    1    4    4    0    0  0.10460038683E-01  0.15852460222E-01 -0.44525344381E-01  0.48409506480E-01  0.51100000000E-03 0.  1.
</event>
<event>
 8    1  0.1072332E+005  0.1043930E+01  0.7957747E-01            NaN
         13   -1    0    0    0    0  0.00000000000E+00  0.00000000000E+00  0.74505805969E-08  0.10566000000E+00  0.10566000000E+00 0.  1.
     999900   -1    0    0    0    0 -0.00000000000E+00 -0.00000000000E+00 -0.74505805969E-08  0.93827000000E+00  0.93827000000E+00 0.  1.
     999902    2    1    2    0    0 -0.55822032606E-02  0.21133228643E-01 -0.71465417058E-02  0.10209333175E+01  0.10206742827E+01 0.  0.
     999903    2    3    3    0    0 -0.11779291777E+00  0.55818006079E-01  0.14353483536E-01  0.13286995869E+00  0.21391169976E-01 0.  0.
         14    1    1    2    0    0  0.55822032606E-02 -0.21133228643E-01  0.71465417058E-02  0.22996682467E-01  0.00000000000E+00 0.  1.
     999901    1    3    3    0    0  0.11221071451E+00 -0.34684777436E-01 -0.21500025242E-01  0.88806335884E+00  0.88000000000E+00 0.  1.
        -11    1    4    4    0    0 -0.99055404775E-01  0.46138217743E-01  0.39455460361E-02  0.10934595011E+00  0.51100000000E-03 0.  1.
         11    1    4    4    0    0 -0.18737512995E-01  0.96797883360E-02  0.10407937500E-01  0.23524008576E-01  0.51100000000E-03 0. -1.
</event>
<event>
 8    1  0.1072332E+005  0.1043930E+01  0.7957747E-01            NaN
         13   -1    0    0    0    0  0.00000000000E+00  0.00000000000E+00  0.74505805969E-08  0.10566000000E+00  0.10566000000E+00 0. -1.
     999900   -1    0    0    0    0 -0.00000000000E+00 -0.00000000000E+00 -0.74505805969E-08  0.93827000000E+00  0.93827000000E+00 0. -1.
     999902    2    1    2    0    0  0.68614588201E-02  0.31355079465E-02 -0.21489294717E-01  0.10211549958E+01  0.10209009867E+01 0.  0.
     999903    2    3    3    0    0 -0.93412955408E-02  0.11589446618E-01  0.12632710128E+00  0.12863962608E+00  0.19184415649E-01 0.  0.
         14    1    1    2    0    0 -0.68614588201E-02 -0.31355079465E-02  0.21489294717E-01  0.22775004164E-01  0.00000000000E+00 0. -1.
     999901    1    3    3    0    0  0.16202754361E-01 -0.84539386715E-02 -0.14781639600E+00  0.89251536976E+00  0.88000000000E+00 0. -1.
        -11    1    4    4    0    0 -0.70697844084E-02  0.84153809642E-02  0.25961103629E-01  0.28196462739E-01  0.51100000000E-03 0.  1.
         11    1    4    4    0    0 -0.22715111325E-02  0.31740656538E-02  0.10036599765E+00  0.10044316334E+00  0.51100000000E-03 0. -1.
</event>
<event>
 8    1  0.1072332E+005  0.1043930E+01  0.7957747E-01            NaN
         13   -1    0    0    0    0  0.00000000000E+00  0.00000000000E+00  0.74505805969E-08  0.10566000000E+00  0.10566000000E+00 0. -1.
     999900   -1    0    0    0    0 -0.00000000000E+00 -0.00000000000E+00 -0.74505805969E-08  0.93827000000E+00  0.93827000000E+00 0. -1.
     999902    2    1    2    0    0  0.15736408465E-02  0.23852771923E-01  0.82808574652E-02  0.10186317061E+01  0.10183175089E+01 0.  0.
     999903    2    3    3    0    0 -0.27746292355E-01 -0.72713670385E-01  0.10009162080E+00  0.12811839765E+00  0.18408059704E-01 0.  0.
         14    1    1    2    0    0 -0.15736408465E-02 -0.23852771923E-01 -0.82808574652E-02  0.25298293901E-01  0.00000000000E+00 0.  1.
     999901    1    3    3    0    0  0.29319933202E-01  0.96566442308E-01 -0.91810763332E-01  0.89051330845E+00  0.88000000000E+00 0. -1.
        -11    1    4    4    0    0 -0.27906307977E-01 -0.52377946858E-01  0.69679568148E-01  0.91529856769E-01  0.51100000000E-03 0.  1.
         11    1    4    4    0    0  0.16001562168E-03 -0.20335723527E-01  0.30412052649E-01  0.36588540880E-01  0.51100000000E-03 0. -1.
</event>
<event>
 8    1  0.1072332E+005  0.1043930E+01  0.7957747E-01            NaN
         13   -1    0    0    0    0  0.00000000000E+00  0.00000000000E+00  0.74505805969E-08  0.10566000000E+00  0.10566000000E+00 0.  1.
     999900   -1    0    0    0    0 -0.00000000000E+00 -0.00000000000E+00 -0.74505805969E-08  0.93827000000E+00  0.93827000000E+00 0. -1.
     999902    2    1    2    0    0  0.19677114844E-01  0.73930534656E-02  0.10889521194E-01  0.10202566445E+01  0.10199819572E+01 0.  0.
     999903    2    3    3    0    0 -0.14960257536E-02 -0.52677732875E-02 -0.12744425993E+00  0.12910860215E+00  0.19924964998E-01 0.  0.
         14    1    1    2    0    0 -0.19677114844E-01 -0.73930534656E-02 -0.10889521194E-01  0.23673355486E-01  0.00000000000E+00 0.  1.
     999901    1    3    3    0    0  0.21173140598E-01  0.12660826753E-01  0.13833378112E+00  0.89114804237E+00  0.88000000000E+00 0.  1.
        -11    1    4    4    0    0  0.91955129305E-02 -0.31523385857E-02 -0.62841215373E-01  0.63590676731E-01  0.51100000000E-03 0.  1.
         11    1    4    4    0    0 -0.10691538684E-01 -0.21154347018E-02 -0.64603044558E-01  0.65517925414E-01  0.51100000000E-03 0. -1.
</event>
<event>
 8    1  0.1072332E+005  0.1043930E+01  0.7957747E-01            NaN
         13   -1    0    0    0    0  0.00000000000E+00  0.00000000000E+00  0.74505805969E-08  0.10566000000E+00  0.10566000000E+00 0. -1.
     999900   -1    0    0    0    0 -0.00000000000E+00 -0.00000000000E+00 -0.74505805969E-08  0.93827000000E+00  0.93827000000E+00 0. -1.
     999902    2    1    2    0    0  0.15400295298E-01  0.11620860262E-02 -0.18684717954E-01  0.10196887495E+01  0.10194005629E+01 0.  0.
     999903    2    3    3    0    0 -0.10587340197E+00 -0.64084312564E-02  0.67131060648E-01  0.12720403244E+00  0.20592263847E-01 0.  0.
         14    1    1    2    0    0 -0.15400295298E-01 -0.11620860262E-02  0.18684717954E-01  0.24241250468E-01  0.00000000000E+00 0. -1.
     999901    1    3    3    0    0  0.12127369727E+00  0.75705172826E-02 -0.85815778602E-01  0.89248471709E+00  0.88000000000E+00 0. -1.
        -11    1    4    4    0    0 -0.31273945551E-01  0.34024240914E-02  0.29267672258E-01  0.42970849659E-01  0.51100000000E-03 0. -1.
         11    1    4    4    0    0 -0.74599456418E-01 -0.98108553479E-02  0.37863388390E-01  0.84233182784E-01  0.51100000000E-03 0.  1.
</event>
<event>
 8    1  0.1072332E+005  0.1043930E+01  0.7957747E-01            NaN
         13   -1    0    0    0    0  0.00000000000E+00  0.00000000000E+00  0.74505805969E-08  0.10566000000E+00  0.10566000000E+00 0.  1.
     999900   -1    0    0    0    0 -0.00000000000E+00 -0.00000000000E+00 -0.74505805969E-08  0.93827000000E+00  0.93827000000E+00 0.  1.
     999902    2    1    2    0    0 -0.21267170093E-01 -0.11053647334E-01 -0.20467731485E-02  0.10198745448E+01  0.10195908112E+01 0.  0.
     999903    2    3    3    0    0  0.11464084578E+00  0.12490598903E-01 -0.50598999756E-01  0.12780804562E+00  0.21819696710E-01 0.  0.
         14    1    1    2    0    0  0.21267170093E-01  0.11053647334E-01  0.20467731485E-02  0.24055455171E-01  0.00000000000E+00 0.  1.
     999901    1    3    3    0    0 -0.13590801588E+00 -0.23544246238E-01  0.48552226607E-01  0.89206649921E+00  0.88000000000E+00 0. -1.
        -11    1    4    4    0    0  0.57818719825E-01 -0.59601386897E-03 -0.15969948977E-01  0.59988832178E-01  0.51100000000E-03 0. -1.
         11    1    4    4    0    0  0.56822125959E-01  0.13086612772E-01 -0.34629050779E-01  0.67819213437E-01  0.51100000000E-03 0.  1.
</event>
<event>
 8    1  0.1072332E+005  0.1043930E+01  0.7957747E-01            NaN
         13   -1    0    0    0    0  0.00000000000E+00  0.00000000000E+00  0.74505805969E-08  0.10566000000E+00  0.10566000000E+00 0.  1.
     999900   -1    0    0    0    0 -0.00000000000E+00 -0.00000000000E+00 -0.74505805969E-08  0.93827000000E+00  0.93827000000E+00 0.  1.
     999902    2    1    2    0    0  0.12188060995E-01 -0.10558982175E-01  0.18568923563E-01  0.10193363858E+01  0.10190396566E+01 0.  0.
     999903    2    3    3    0    0  0.12169003625E+00 -0.31190241752E-01  0.35776759096E-01  0.13214280997E+00  0.20011237638E-01 0.  0.
         14    1    1    2    0    0 -0.12188060995E-01  0.10558982175E-01 -0.18568923563E-01  0.24593614165E-01  0.00000000000E+00 0. -1.
     999901    1    3    3    0    0 -0.10950197526E+00  0.20631259577E-01 -0.17207835533E-01  0.88719357587E+00  0.88000000000E+00 0. -1.
        -11    1    4    4    0    0  0.87505572997E-01 -0.15009011221E-01  0.30885920679E-01  0.94003707058E-01  0.51100000000E-03 0.  1.
         11    1    4    4    0    0  0.34184463253E-01 -0.16181230531E-01  0.48908384165E-02  0.38139102910E-01  0.51100000000E-03 0. -1.
</event>
<event>
 8    1  0.1072332E+005  0.1043930E+01  0.7957747E-01            NaN
         13   -1    0    0    0    0  0.00000000000E+00  0.00000000000E+00  0.74505805969E-08  0.10566000000E+00  0.10566000000E+00 0. -1.
     999900   -1    0    0    0    0 -0.00000000000E+00 -0.00000000000E+00 -0.74505805969E-08  0.93827000000E+00  0.93827000000E+00 0. -1.
     999902    2    1    2    0    0  0.22633131976E-01 -0.42252086836E-03  0.65084311921E-02  0.10203758737E+01  0.10201039785E+01 0.  0.
     999903    2    3    3    0    0 -0.15559958786E-01  0.10116303032E+00  0.79121085123E-01  0.13074059235E+00  0.18891409579E-01 0.  0.
         14    1    1    2    0    0 -0.22633131976E-01  0.42252086836E-03 -0.65084311921E-02  0.23554126252E-01  0.00000000000E+00 0.  1.
     999901    1    3    3    0    0  0.38193090762E-01 -0.10158555119E+00 -0.72612653930E-01  0.88963528140E+00  0.88000000000E+00 0. -1.
        -11    1    4    4    0    0 -0.14166980579E-02  0.30303654015E-01  0.33914487792E-01  0.45505736817E-01  0.51100000000E-03 0. -1.
         11    1    4    4    0    0 -0.14143260728E-01  0.70859376309E-01  0.45206597330E-01  0.85234855535E-01  0.51100000000E-03 0.  1.
</event>
<event>
 8    1  0.1072332E+005  0.1043930E+01  0.7957747E-01            NaN
         13   -1    0    0    0    0  0.00000000000E+00  0.00000000000E+00  0.74505805969E-08  0.10566000000E+00  0.10566000000E+00 0. -1.
     999900   -1    0    0    0    0 -0.00000000000E+00 -0.00000000000E+00 -0.74505805969E-08  0.93827000000E+00  0.93827000000E+00 0.  1.
     999902    2    1    2    0    0 -0.40993872393E-03 -0.18231871790E-01  0.15023452541E-01  0.10203021917E+01  0.10200285727E+01 0.  0.
     999903    2    3    3    0    0 -0.63772975627E-01  0.82354858178E-01  0.75463876767E-01  0.13025409774E+00  0.20543081424E-01 0.  0.
         14    1    1    2    0    0  0.40993872393E-03  0.18231871790E-01 -0.15023452541E-01  0.23627808299E-01  0.00000000000E+00 0.  1.
     999901    1    3    3    0    0  0.63363036903E-01 -0.10058672997E+00 -0.60440424226E-01  0.89004809397E+00  0.88000000000E+00 0.  1.
        -11    1    4    4    0    0 -0.27808415830E-01  0.51073442536E-01  0.46652631815E-01  0.74555574572E-01  0.51100000000E-03 0.  1.
         11    1    4    4    0    0 -0.35964559797E-01  0.31281415642E-01  0.28811244952E-01  0.55698523163E-01  0.51100000000E-03 0. -1.
</event>
<event>
 8    1  0.1072332E+005  0.1043930E+01  0.7957747E-01            NaN
         13   -1    0    0    0    0  0.00000000000E+00  0.00000000000E+00  0.74505805969E-08  0.10566000000E+00  0.10566000000E+00 0.  1.
     999900   -1    0    0    0    0 -0.00000000000E+00 -0.00000000000E+00 -0.74505805969E-08  0.93827000000E+00  0.93827000000E+00 0.  1.
     999902    2    1    2    0    0 -0.21434696480E-01  0.10627544930E-01  0.12954196056E-01  0.10167233442E+01  0.10163592655E+01 0.  0.
     999903    2    3    3    0    0 -0.10491487356E+00 -0.54643597595E-01 -0.45822709144E-01  0.12841934973E+00  0.19968857246E-01 0.  0.
         14    1    1    2    0    0  0.21434696480E-01 -0.10627544930E-01 -0.12954196056E-01  0.27206655801E-01  0.00000000000E+00 0. -1.
     999901    1    3    3    0    0  0.83480177075E-01  0.65271142525E-01  0.58776905200E-01  0.88830399447E+00  0.88000000000E+00 0. -1.
        -11    1    4    4    0    0 -0.23307883142E-01 -0.21307164556E-01 -0.15613611339E-01  0.35232068603E-01  0.51100000000E-03 0.  1.
         11    1    4    4    0    0 -0.81606990414E-01 -0.33336433038E-01 -0.30209097804E-01  0.93187281124E-01  0.51100000000E-03 0. -1.
</event>
<event>
 8    1  0.1072332E+005  0.1043930E+01  0.7957747E-01            NaN
         13   -1    0    0    0    0  0.00000000000E+00  0.00000000000E+00  0.74505805969E-08  0.10566000000E+00  0.10566000000E+00 0. -1.
     999900   -1    0    0    0    0 -0.00000000000E+00 -0.00000000000E+00 -0.74505805969E-08  0.93827000000E+00  0.93827000000E+00 0.  1.
     999902    2    1    2    0    0  0.19090001875E-02  0.12259373540E-01  0.19417538797E-01  0.10208870546E+01  0.10206269646E+01 0.  0.
     999903    2    3    3    0    0  0.87906665052E-01  0.46774576616E-01 -0.81396370323E-01  0.13029717035E+00  0.20893556906E-01 0.  0.
         14    1    1    2    0    0 -0.19090001875E-02 -0.12259373540E-01 -0.19417538797E-01  0.23042945433E-01  0.00000000000E+00 0.  1.
     999901    1    3    3    0    0 -0.85997664865E-01 -0.34515203076E-01  0.10081390912E+00  0.89058988422E+00  0.88000000000E+00 0.  1.
        -11    1    4    4    0    0  0.48047037022E-01  0.34426233025E-01 -0.39052451218E-01  0.70845171706E-01  0.51100000000E-03 0.  1.
         11    1    4    4    0    0  0.39859628030E-01  0.12348343591E-01 -0.42343919105E-01  0.59451998640E-01  0.51100000000E-03 0. -1.
</event>
<event>
 8    1  0.1072332E+005  0.1043930E+01  0.7957747E-01            NaN
         13   -1    0    0    0    0  0.00000000000E+00  0.00000000000E+00  0.74505805969E-08  0.10566000000E+00  0.10566000000E+00 0.  1.
     999900   -1    0    0    0    0 -0.00000000000E+00 -0.00000000000E+00 -0.74505805969E-08  0.93827000000E+00  0.93827000000E+00 0. -1.
     999902    2    1    2    0    0  0.81604153514E-03  0.10568336444E-01  0.20958659725E-01  0.10204433852E+01  0.10201730644E+01 0.  0.
     999903    2    3    3    0    0 -0.78945290380E-01  0.11772148024E-01 -0.99049894520E-01  0.12872292879E+00  0.19691837102E-01 0.  0.
         14    1    1    2    0    0 -0.81604153514E-03 -0.10568336444E-01 -0.20958659725E-01  0.23486614836E-01  0.00000000000E+00 0. -1.
     999901    1    3    3    0    0  0.79761331916E-01 -0.12038115800E-02  0.12000855425E+00  0.89172045638E+00  0.88000000000E+00 0. -1.
        -11    1    4    4    0    0 -0.26397702616E-01 -0.50223598472E-02 -0.28668665162E-01  0.39296517467E-01  0.51100000000E-03 0. -1.
         11    1    4    4    0    0 -0.52547587764E-01  0.16794507871E-01 -0.70381229358E-01  0.89426411319E-01  0.51100000000E-03 0.  1.
</event>
<event>
 8    1  0.1072332E+005  0.1043930E+01  0.7957747E-01            NaN
         13   -1    0    0    0    0  0.00000000000E+00  0.00000000000E+00  0.74505805969E-08  0.10566000000E+00  0.10566000000E+00 0. -1.
     999900   -1    0    0    0    0 -0.00000000000E+00 -0.00000000000E+00 -0.74505805969E-08  0.93827000000E+00  0.93827000000E+00 0. -1.
     999902    2    1    2    0    0  0.50711071460E-02 -0.21081381200E-01  0.78153160155E-02  0.10208817913E+01  0.10206215811E+01 0.  0.
     999903    2    3    3    0    0 -0.94309117428E-01 -0.72325264132E-01  0.55143481657E-01  0.13254496336E+00  0.20055180885E-01 0.  0.
         14    1    1    2    0    0 -0.50711071460E-02  0.21081381200E-01 -0.78153160155E-02  0.23048208724E-01  0.00000000000E+00 0. -1.
     999901    1    3    3    0    0  0.99380224574E-01  0.51243882932E-01 -0.47328165641E-01  0.88833682792E+00  0.88000000000E+00 0. -1.
        -11    1    4    4    0    0 -0.26178177097E-01 -0.23545535616E-01  0.26206498585E-01  0.43894542857E-01  0.51100000000E-03 0. -1.
         11    1    4    4    0    0 -0.68130940331E-01 -0.48779728516E-01  0.28936983071E-01  0.88650420500E-01  0.51100000000E-03 0.  1.
</event>
<event>
 8    1  0.1072332E+005  0.1043930E+01  0.7957747E-01            NaN
         13   -1    0    0    0    0  0.00000000000E+00  0.00000000000E+00  0.74505805969E-08  0.10566000000E+00  0.10566000000E+00 0.  1.
     999900   -1    0    0    0    0 -0.00000000000E+00 -0.00000000000E+00 -0.74505805969E-08  0.93827000000E+00  0.93827000000E+00 0. -1.
     999902    2    1    2    0    0  0.74271688544E-02 -0.18894457329E-01  0.10139906528E-01  0.10212368059E+01  0.10209846388E+01 0.  0.
     999903    2    3    3    0    0 -0.80879480794E-01  0.58924069717E-01 -0.78667977772E-01  0.12896967781E+00  0.20760314586E-01 0.  0.
         14    1    1    2    0    0 -0.74271688544E-02  0.18894457329E-01 -0.10139906528E-01  0.22693194120E-01  0.00000000000E+00 0.  1.
     999901    1    3    3    0    0  0.88306649649E-01 -0.77818527046E-01  0.88807884300E-01  0.89226712807E+00  0.88000000000E+00 0.  1.
        -11    1    4    4    0    0 -0.41548398162E-01  0.27393547528E-01 -0.51841321972E-01  0.71864174808E-01  0.51100000000E-03 0. -1.
         11    1    4    4    0    0 -0.39331082632E-01  0.31530522189E-01 -0.26826655800E-01  0.57105503001E-01  0.51100000000E-03 0.  1.
</event>
<event>
 8    1  0.1072332E+005  0.1043930E+01  0.7957747E-01            NaN
         13   -1    0    0    0    0  0.00000000000E+00  0.00000000000E+00  0.74505805969E-08  0.10566000000E+00  0.10566000000E+00 0.  1.
     999900   -1    0    0    0    0 -0.00000000000E+00 -0.00000000000E+00 -0.74505805969E-08  0.93827000000E+00  0.93827000000E+00 0.  1.
     999902    2    1    2    0    0  0.76678359231E-02 -0.22741259523E-01 -0.27020271391E-02  0.10197791917E+01  0.10194931771E+01 0.  0.
     999903    2    3    3    0    0 -0.17884751403E-01 -0.90978072086E-01  0.91407165893E-01  0.13176695216E+00  0.20257980430E-01 0.  0.
         14    1    1    2    0    0 -0.76678359231E-02  0.22741259523E-01  0.27020271391E-02  0.24150808332E-01  0.00000000000E+00 0. -1.
     999901    1    3    3    0    0  0.25552587326E-01  0.68236812563E-01 -0.94109193032E-01  0.88801223951E+00  0.88000000000E+00 0.  1.
        -11    1    4    4    0    0 -0.67857606508E-02 -0.75751648501E-01  0.73052575878E-01  0.10545756854E+00  0.51100000000E-03 0.  1.
         11    1    4    4    0    0 -0.11098990752E-01 -0.15226423585E-01  0.18354590015E-01  0.26309383621E-01  0.51100000000E-03 0. -1.
</event>
<event>
 8    1  0.1072332E+005  0.1043930E+01  0.7957747E-01            NaN
         13   -1    0    0    0    0  0.00000000000E+00  0.00000000000E+00  0.74505805969E-08  0.10566000000E+00  0.10566000000E+00 0.  1.
     999900   -1    0    0    0    0 -0.00000000000E+00 -0.00000000000E+00 -0.74505805969E-08  0.93827000000E+00  0.93827000000E+00 0. -1.
     999902    2    1    2    0    0  0.11874144954E-02 -0.14807519945E-01  0.18003956283E-01  0.10205887266E+01  0.10203217796E+01 0.  0.
     999903    2    3    3    0    0 -0.14010831444E-01  0.11016795559E+00  0.65240547648E-01  0.13037462221E+00  0.20197307303E-01 0.  0.
         14    1    1    2    0    0 -0.11874144954E-02  0.14807519945E-01 -0.18003956283E-01  0.23341273358E-01  0.00000000000E+00 0. -1.
     999901    1    3    3    0    0  0.15198245939E-01 -0.12497547554E+00 -0.47236591364E-01  0.89021410443E+00  0.88000000000E+00 0. -1.
        -11    1    4    4    0    0 -0.17512152572E-01  0.84422245925E-01  0.43933691216E-01  0.96768907401E-01  0.51100000000E-03 0. -1.
         11    1    4    4    0    0  0.35013211283E-02  0.25745709667E-01  0.21306856432E-01  0.33605714810E-01  0.51100000000E-03 0.  1.
</event>
<event>
 8    1  0.1072332E+005  0.1043930E+01  0.7957747E-01            NaN
         13   -1    0    0    0    0  0.00000000000E+00  0.00000000000E+00  0.74505805969E-08  0.10566000000E+00  0.10566000000E+00 0.  1.
     999900   -1    0    0    0    0 -0.00000000000E+00 -0.00000000000E+00 -0.74505805969E-08  0.93827000000E+00  0.93827000000E+00 0.  1.
     999902    2    1    2    0    0 -0.90145341621E-02  0.63647588516E-02 -0.19810394225E-01  0.10212534989E+01  0.10210017068E+01 0.  0.
     999903    2    3    3    0    0 -0.13170949604E-01  0.70683022003E-01  0.10627576620E+00  0.12993322282E+00  0.20458259885E-01 0.  0.
         14    1    1    2    0    0  0.90145341621E-02 -0.63647588516E-02  0.19810394225E-01  0.22676501070E-01  0.00000000000E+00 0.  1.
     999901    1    3    3    0    0  0.41564154423E-02 -0.64318263152E-01 -0.12608616042E+00  0.89132027612E+00  0.88000000000E+00 0.  1.
        -11    1    4    4    0    0 -0.17072710900E-01  0.65958428605E-01  0.92852793279E-01  0.11516898064E+00  0.51100000000E-03 0. -1.
         11    1    4    4    0    0  0.39017612958E-02  0.47245933976E-02  0.13422972917E-01  0.14764242172E-01  0.51100000000E-03 0.  1.
</event>
<event>
 8    1  0.1072332E+005  0.1043930E+01  0.7957747E-01            NaN
         13   -1    0    0    0    0  0.00000000000E+00  0.00000000000E+00  0.74505805969E-08  0.10566000000E+00  0.10566000000E+00 0.  1.
     999900   -1    0    0    0    0 -0.00000000000E+00 -0.00000000000E+00 -0.74505805969E-08  0.93827000000E+00  0.93827000000E+00 0.  1.
     999902    2    1    2    0    0 -0.10284089406E-01 -0.75582001590E-02  0.21124874062E-01  0.10192490521E+01  0.10189501858E+01 0.  0.
     999903    2    3    3    0    0 -0.11281132293E+00 -0.47248498335E-01  0.44941663396E-01  0.13208819137E+00  0.21649988786E-01 0.  0.
         14    1    1    2    0    0  0.10284089406E-01  0.75582001590E-02 -0.21124874062E-01  0.24680947889E-01  0.00000000000E+00 0. -1.
     999901    1    3    3    0    0  0.10252723352E+00  0.39690298176E-01 -0.23816789335E-01  0.88716086074E+00  0.88000000000E+00 0.  1.
        -11    1    4    4    0    0 -0.21046317225E-01 -0.17283058307E-03  0.84579290594E-02  0.22688654083E-01  0.51100000000E-03 0.  1.
         11    1    4    4    0    0 -0.91765005702E-01 -0.47075667752E-01  0.36483734337E-01  0.10939953728E+00  0.51100000000E-03 0. -1.
</event>
<event>
 8    1  0.1072332E+005  0.1043930E+01  0.7957747E-01            NaN
         13   -1    0    0    0    0  0.00000000000E+00  0.00000000000E+00  0.74505805969E-08  0.10566000000E+00  0.10566000000E+00 0.  1.
     999900   -1    0    0    0    0 -0.00000000000E+00 -0.00000000000E+00 -0.74505805969E-08  0.93827000000E+00  0.93827000000E+00 0. -1.
     999902    2    1    2    0    0 -0.10035295314E-01  0.59047442953E-03  0.23354144666E-01  0.10185041886E+01  0.10181867758E+01 0.  0.
     999903    2    3    3    0    0 -0.11886491948E+00  0.43034916107E-01 -0.21216259707E-01  0.12966678015E+00  0.19556868618E-01 0.  0.
         14    1    1    2    0    0  0.10035295314E-01 -0.59047442953E-03 -0.23354144666E-01  0.25425811397E-01  0.00000000000E+00 0. -1.
     999901    1    3    3    0    0  0.10882962417E+00 -0.42444441678E-01  0.44570404374E-01  0.88883740846E+00  0.88000000000E+00 0.  1.
        -11    1    4    4    0    0 -0.30911892887E-01  0.63252726170E-02 -0.12568474236E-01  0.33967364648E-01  0.51100000000E-03 0. -1.
         11    1    4    4    0    0 -0.87953026594E-01  0.36709643490E-01 -0.86477854715E-02  0.95699415499E-01  0.51100000000E-03 0.  1.
</event>
<event>
 8    1  0.1072332E+005  0.1043930E+01  0.7957747E-01            NaN
         13   -1    0    0    0    0  0.00000000000E+00  0.00000000000E+00  0.74505805969E-08  0.10566000000E+00  0.10566000000E+00 0. -1.
     999900   -1    0    0    0    0 -0.00000000000E+00 -0.00000000000E+00 -0.74505805969E-08  0.93827000000E+00  0.93827000000E+00 0. -1.
     999902    2    1    2    0    0  0.10770779291E-03  0.23694422779E-01  0.12475515712E-02  0.10202025126E+01  0.10199265528E+01 0.  0.
     999903    2    3    3    0    0  0.87217644755E-02 -0.12407955892E+00  0.20891697312E-01  0.12762352784E+00  0.19480649969E-01 0.  0.
         14    1    1    2    0    0 -0.10770779291E-03 -0.23694422779E-01 -0.12475515712E-02  0.23727487367E-01  0.00000000000E+00 0.  1.
     999901    1    3    3    0    0 -0.86140566826E-02  0.14777398170E+00 -0.19644145741E-01  0.89257898480E+00  0.88000000000E+00 0.  1.
        -11    1    4    4    0    0 -0.44584666549E-02 -0.67558299260E-01  0.80924078033E-02  0.68189074703E-01  0.51100000000E-03 0. -1.
         11    1    4    4    0    0  0.13180231130E-01 -0.56521259660E-01  0.12799289508E-01  0.59434453132E-01  0.51100000000E-03 0.  1.
</event>
<event>
 7    1  0.1072332E+005  0.1043930E+01  0.7957747E-01            NaN
         13   -1    0    0    0    0  0.00000000000E+00  0.00000000000E+00  0.74505805969E-08  0.10566000000E+00  0.10566000000E+00 0.  1.
     999900   -1    0    0    0    0 -0.00000000000E+00 -0.00000000000E+00 -0.74505805969E-08  0.93827000000E+00  0.93827000000E+00 0. -1.
     999903    2    1    2    0    0 -0.76174765804E-01  0.60417109429E-01 -0.64698842977E-01  0.11841871281E+00  0.19601765358E-01 0.  0.
         14    1    1    2    0    0 -0.98814499901E-02 -0.20043827992E-01  0.32962278928E-01  0.39823484611E-01  0.00000000000E+00 0. -1.
     999901    1    1    2    0    0  0.86056215794E-01 -0.40373281436E-01  0.31736564050E-01  0.88568780257E+00  0.88000000000E+00 0.  1.
        -11    1    3    3    0    0 -0.59452133297E-01  0.56396721345E-01 -0.54517800064E-01  0.98425596146E-01  0.51100000000E-03 0.  1.
         11    1    3    3    0    0 -0.16722632507E-01  0.40203880837E-02 -0.10181042914E-01  0.19993116668E-01  0.51100000000E-03 0. -1.
</event>
<event>
 8    1  0.1072332E+005  0.1043930E+01  0.7957747E-01            NaN
         13   -1    0    0    0    0  0.00000000000E+00  0.00000000000E+00  0.74505805969E-08  0.10566000000E+00  0.10566000000E+00 0. -1.
     999900   -1    0    0    0    0 -0.00000000000E+00 -0.00000000000E+00 -0.74505805969E-08  0.93827000000E+00  0.93827000000E+00 0. -1.
     999902    2    1    2    0    0 -0.14525563322E-01 -0.18245465890E-01 -0.10187582939E-02  0.10205863310E+01  0.10203193285E+01 0.  0.
     999903    2    3    3    0    0  0.44792102542E-01 -0.11215084640E+00 -0.50300360094E-01  0.13223646619E+00  0.19292795742E-01 0.  0.
         14    1    1    2    0    0  0.14525563322E-01  0.18245465890E-01  0.10187582939E-02  0.23343669030E-01  0.00000000000E+00 0. -1.
     999901    1    3    3    0    0 -0.59317665864E-01  0.93905380509E-01  0.49281601800E-01  0.88834986478E+00  0.88000000000E+00 0.  1.
        -11    1    4    4    0    0  0.14534126115E-01 -0.16628897692E-01 -0.86802007468E-02  0.23735375842E-01  0.51100000000E-03 0.  1.
         11    1    4    4    0    0  0.30257976427E-01 -0.95521948707E-01 -0.41620159347E-01  0.10850109035E+00  0.51100000000E-03 0. -1.
</event>
<event>
 8    1  0.1072332E+005  0.1043930E+01  0.7957747E-01            NaN
         13   -1    0    0    0    0  0.00000000000E+00  0.00000000000E+00  0.74505805969E-08  0.10566000000E+00  0.10566000000E+00 0. -1.
     999900   -1    0    0    0    0 -0.00000000000E+00 -0.00000000000E+00 -0.74505805969E-08  0.93827000000E+00  0.93827000000E+00 0. -1.
     999902    2    1    2    0    0  0.10752899861E-01 -0.30254646987E-02 -0.20015368043E-01  0.10210085417E+01  0.10207512180E+01 0.  0.
     999903    2    3    3    0    0  0.16332133737E-01  0.37324634987E-01 -0.12698118368E+00  0.13359604230E+00  0.79884003400E-02 0.  0.
         14    1    1    2    0    0 -0.10752899861E-01  0.30254646987E-02  0.20015368043E-01  0.22921458286E-01  0.00000000000E+00 0. -1.
     999901    1    3    3    0    0 -0.55792338758E-02 -0.40350099686E-01  0.10696581564E+00  0.88741249941E+00  0.88000000000E+00 0.  1.
        -11    1    4    4    0    0  0.98600503125E-02  0.24067661891E-01 -0.68291253456E-01  0.73078241363E-01  0.51100000000E-03 0. -1.
         11    1    4    4    0    0  0.64720834245E-02  0.13256973096E-01 -0.58689930227E-01  0.60517800940E-01  0.51100000000E-03 0.  1.
</event>
<event>
 8    1  0.1072332E+005  0.1043930E+01  0.7957747E-01            NaN
         13   -1    0    0    0    0  0.00000000000E+00  0.00000000000E+00  0.74505805969E-08  0.10566000000E+00  0.10566000000E+00 0. -1.
     999900   -1    0    0    0    0 -0.00000000000E+00 -0.00000000000E+00 -0.74505805969E-08  0.93827000000E+00  0.93827000000E+00 0.  1.
     999902    2    1    2    0    0 -0.93061480350E-02 -0.86417786874E-02  0.18556601127E-01  0.10214437336E+01  0.10211961951E+01 0.  0.
     999903    2    3    3    0    0 -0.32622549234E-02 -0.89967503578E-01  0.97889304066E-01  0.13411962152E+00  0.17348285737E-01 0.  0.
         14    1    1    2    0    0  0.93061480350E-02  0.86417786874E-02 -0.18556601127E-01  0.22486266375E-01  0.00000000000E+00 0.  1.
     999901    1    3    3    0    0 -0.60438931116E-02  0.81325724890E-01 -0.79332702939E-01  0.88732411211E+00  0.88000000000E+00 0.  1.
        -11    1    4    4    0    0 -0.78565101416E-02 -0.44999551897E-01  0.40386441071E-01  0.60975488239E-01  0.51100000000E-03 0. -1.
         11    1    4    4    0    0  0.45942552182E-02 -0.44967951680E-01  0.57502862995E-01  0.73144133277E-01  0.51100000000E-03 0.  1.
</event>
<event>
 8    1  0.1072332E+005  0.1043930E+01  0.7957747E-01            NaN
         13   -1    0    0    0    0  0.00000000000E+00  0.00000000000E+00  0.74505805969E-08  0.10566000000E+00  0.10566000000E+00 0.  1.
     999900   -1    0    0    0    0 -0.00000000000E+00 -0.00000000000E+00 -0.74505805969E-08  0.93827000000E+00  0.93827000000E+00 0. -1.
     999902    2    1    2    0    0 -0.11040601976E-01  0.18713265147E-01 -0.92907346103E-02  0.10202995338E+01  0.10200258525E+01 0.  0.
     999903    2    3    3    0    0  0.62682075788E-01  0.11347809883E-01 -0.11280340974E+00  0.13114029210E+00  0.20380175375E-01 0.  0.
         14    1    1    2    0    0  0.11040601976E-01 -0.18713265147E-01  0.92907346103E-02  0.23630466226E-01  0.00000000000E+00 0.  1.
     999901    1    3    3    0    0 -0.73722677764E-01  0.73654552642E-02  0.10351267513E+00  0.88915924168E+00  0.88000000000E+00 0.  1.
        -11    1    4    4    0    0  0.11066419568E-01  0.69276575030E-02 -0.37713311393E-01  0.39912567667E-01  0.51100000000E-03 0.  1.
         11    1    4    4    0    0  0.51615656220E-01  0.44201523803E-02 -0.75090098345E-01  0.91227724430E-01  0.51100000000E-03 0. -1.
</event>
<event>
 8    1  0.1072332E+005  0.1043930E+01  0.7957747E-01            NaN
         13   -1    0    0    0    0  0.00000000000E+00  0.00000000000E+00  0.74505805969E-08  0.10566000000E+00  0.10566000000E+00 0. -1.
     999900   -1    0    0    0    0 -0.00000000000E+00 -0.00000000000E+00 -0.74505805969E-08  0.93827000000E+00  0.93827000000E+00 0.  1.
     999902    2    1    2    0    0 -0.72984835356E-02  0.86686213960E-02  0.19315763572E-01  0.10215355457E+01  0.10212900468E+01 0.  0.
     999903    2    3    3    0    0  0.74177384466E-01  0.63831143630E-01 -0.83236004300E-01  0.13013323140E+00  0.20729839378E-01 0.  0.
         14    1    1    2    0    0  0.72984835356E-02 -0.86686213960E-02 -0.19315763572E-01  0.22394454251E-01  0.00000000000E+00 0.  1.
     999901    1    3    3    0    0 -0.81475868001E-01 -0.55162522234E-01  0.10255176787E+00  0.89140231434E+00  0.88000000000E+00 0. -1.
        -11    1    4    4    0    0  0.27116539248E-01  0.28195208246E-01 -0.45783899030E-01  0.60222113881E-01  0.51100000000E-03 0.  1.
         11    1    4    4    0    0  0.47060845218E-01  0.35635935384E-01 -0.37452105269E-01  0.69911117524E-01  0.51100000000E-03 0. -1.
</event>
<event>
 8    1  0.1072332E+005  0.1043930E+01  0.7957747E-01            NaN
         13   -1    0    0    0    0  0.00000000000E+00  0.00000000000E+00  0.74505805969E-08  0.10566000000E+00  0.10566000000E+00 0. -1.
     999900   -1    0    0    0    0 -0.00000000000E+00 -0.00000000000E+00 -0.74505805969E-08  0.93827000000E+00  0.93827000000E+00 0.  1.
     999902    2    1    2    0    0  0.21782495111E-01  0.13772374305E-02  0.60423286392E-02  0.10212830662E+01  0.10210319376E+01 0.  0.
     999903    2    3    3    0    0 -0.71789906263E-01  0.46231892850E-01  0.96350530034E-01  0.13059608095E+00  0.21925628023E-01 0.  0.
         14    1    1    2    0    0 -0.21782495111E-01 -0.13772374305E-02 -0.60423286392E-02  0.22646933823E-01  0.00000000000E+00 0. -1.
     999901    1    3    3    0    0  0.93572401374E-01 -0.44854655419E-01 -0.90308201395E-01  0.89068698523E+00  0.88000000000E+00 0.  1.
        -11    1    4    4    0    0 -0.81647093786E-02 -0.17993134255E-02  0.10645522633E-01  0.13545784627E-01  0.51100000000E-03 0. -1.
         11    1    4    4    0    0 -0.63625196885E-01  0.48031206275E-01  0.85705007401E-01  0.11705029632E+00  0.51100000000E-03 0.  1.
</event>
<event>
 8    1  0.1072332E+005  0.1043930E+01  0.7957747E-01            NaN
         13   -1    0    0    0    0  0.00000000000E+00  0.00000000000E+00  0.74505805969E-08  0.10566000000E+00  0.10566000000E+00 0. -1.
     999900   -1    0    0    0    0 -0.00000000000E+00 -0.00000000000E+00 -0.74505805969E-08  0.93827000000E+00  0.93827000000E+00 0.  1.
     999902    2    1    2    0    0 -0.37158723933E-02 -0.61661316285E-02 -0.23883817548E-01  0.10189847474E+01  0.10186793655E+01 0.  0.
     999903    2    3    3    0    0  0.42023291578E-01  0.47117534134E-01 -0.11302308798E+00  0.13169841836E+00  0.24170972760E-01 0.  0.
         14    1    1    2    0    0  0.37158723933E-02  0.61661316285E-02  0.23883817548E-01  0.24945252606E-01  0.00000000000E+00 0. -1.
     999901    1    3    3    0    0 -0.45739163972E-01 -0.53283665763E-01  0.89139270431E-01  0.88728632903E+00  0.88000000000E+00 0. -1.
        -11    1    4    4    0    0  0.29734142798E-01  0.25248989476E-01 -0.88016556813E-01  0.96274638985E-01  0.51100000000E-03 0. -1.
         11    1    4    4    0    0  0.12289148781E-01  0.21868544659E-01 -0.25006531166E-01  0.35423779375E-01  0.51100000000E-03 0.  1.
</event>
<event>
 8    1  0.1072332E+005  0.1043930E+01  0.7957747E-01            NaN
         13   -1    0    0    0    0  0.00000000000E+00  0.00000000000E+00  0.74505805969E-08  0.10566000000E+00  0.10566000000E+00 0.  1.
     999900   -1    0    0    0    0 -0.00000000000E+00 -0.00000000000E+00 -0.74505805969E-08  0.93827000000E+00  0.93827000000E+00 0. -1.
     999902    2    1    2    0    0  0.18629168456E-01  0.91266751279E-02  0.11056702730E-01  0.10204227077E+01  0.10201519052E+01 0.  0.
     999903    2    3    3    0    0  0.16764332541E-01 -0.87715168780E-01 -0.91263125673E-01  0.12921500596E+00  0.19813277835E-01 0.  0.
         14    1    1    2    0    0 -0.18629168456E-01 -0.91266751279E-02 -0.11056702730E-01  0.23507292305E-01  0.00000000000E+00 0. -1.
     999901    1    3    3    0    0  0.18648359148E-02  0.96841843908E-01  0.10231982840E+00  0.89120770173E+00  0.88000000000E+00 0. -1.
        -11    1    4    4    0    0  0.87653284503E-02 -0.77567463834E-01 -0.73309559884E-01  0.10708919236E+00  0.51100000000E-03 0. -1.
         11    1    4    4    0    0  0.79990040905E-02 -0.10147704946E-01 -0.17953565789E-01  0.22125813604E-01  0.51100000000E-03 0.  1.
</event>
<event>
 8    1  0.1072332E+005  0.1043930E+01  0.7957747E-01            NaN
         13   -1    0    0    0    0  0.00000000000E+00  0.00000000000E+00  0.74505805969E-08  0.10566000000E+00  0.10566000000E+00 0. -1.
     999900   -1    0    0    0    0 -0.00000000000E+00 -0.00000000000E+00 -0.74505805969E-08  0.93827000000E+00  0.93827000000E+00 0.  1.
     999902    2    1    2    0    0 -0.21967236535E-01  0.33483095859E-02  0.92595004560E-02  0.10198570067E+01  0.10195728542E+01 0.  0.
     999903    2    3    3    0    0  0.76809704449E-01  0.61727264881E-01 -0.79178276456E-01  0.12801272271E+00  0.20200786751E-01 0.  0.
         14    1    1    2    0    0  0.21967236535E-01 -0.33483095859E-02 -0.92595004560E-02  0.24072993307E-01  0.00000000000E+00 0.  1.
     999901    1    3    3    0    0 -0.98776940984E-01 -0.58378955295E-01  0.88437776912E-01  0.89184428398E+00  0.88000000000E+00 0. -1.
        -11    1    4    4    0    0  0.40919342221E-01  0.20255598098E-01 -0.33441058795E-01  0.56597238063E-01  0.51100000000E-03 0.  1.
         11    1    4    4    0    0  0.35890362228E-01  0.41471666783E-01 -0.45737217661E-01  0.71415484644E-01  0.51100000000E-03 0. -1.
</event>
<event>
 8    1  0.1072332E+005  0.1043930E+01  0.7957747E-01            NaN
         13   -1    0    0    0    0  0.00000000000E+00  0.00000000000E+00  0.74505805969E-08  0.10566000000E+00  0.10566000000E+00 0.  1.
     999900   -1    0    0    0    0 -0.00000000000E+00 -0.00000000000E+00 -0.74505805969E-08  0.93827000000E+00  0.93827000000E+00 0.  1.
     999902    2    1    2    0    0 -0.12972240597E-01  0.18143986196E-01 -0.83985081107E-02  0.10200968676E+01  0.10198184157E+01 0.  0.
     999903    2    3    3    0    0 -0.14562484264E-01 -0.75074517856E-01 -0.10267635134E+00  0.13016398806E+00  0.23494286181E-01 0.  0.
         14    1    1    2    0    0  0.12972240597E-01 -0.18143986196E-01  0.83985081107E-02  0.23833132393E-01  0.00000000000E+00 0. -1.
     999901    1    3    3    0    0  0.15902436665E-02  0.93218504052E-01  0.94277843234E-01  0.88993287955E+00  0.88000000000E+00 0. -1.
        -11    1    4    4    0    0 -0.57636623182E-02 -0.44452209659E-02 -0.35077053718E-02  0.80959811468E-02  0.51100000000E-03 0. -1.
         11    1    4    4    0    0 -0.87988219454E-02 -0.70629296890E-01 -0.99168645973E-01  0.12206800691E+00  0.51100000000E-03 0.  1.
</event>
<event>
 8    1  0.1072332E+005  0.1043930E+01  0.7957747E-01            NaN
         13   -1    0    0    0    0  0.00000000000E+00  0.00000000000E+00  0.74505805969E-08  0.10566000000E+00  0.10566000000E+00 0.  1.
     999900   -1    0    0    0    0 -0.00000000000E+00 -0.00000000000E+00 -0.74505805969E-08  0.93827000000E+00  0.93827000000E+00 0. -1.
     999902    2    1    2    0    0  0.26221206346E-01  0.10917932303E-01 -0.20218756083E-02  0.10154547320E+01  0.10150554033E+01 0.  0.
     999903    2    3    3    0    0 -0.97884506831E-01  0.73618911136E-01  0.95672208115E-02  0.12446205639E+00  0.19953721786E-01 0.  0.
         14    1    1    2    0    0 -0.26221206346E-01 -0.10917932303E-01  0.20218756083E-02  0.28475268022E-01  0.00000000000E+00 0.  1.
     999901    1    3    3    0    0  0.12410571318E+00 -0.62700978834E-01 -0.11589096420E-01  0.89099267558E+00  0.88000000000E+00 0. -1.
        -11    1    4    4    0    0 -0.67309631327E-01  0.38863076377E-01  0.38931327680E-02  0.77822508175E-01  0.51100000000E-03 0.  1.
         11    1    4    4    0    0 -0.30574875504E-01  0.34755834759E-01  0.56740880435E-02  0.46639548218E-01  0.51100000000E-03 0. -1.
</event>
<event>
 8    1  0.1072332E+005  0.1043930E+01  0.7957747E-01            NaN
         13   -1    0    0    0    0  0.00000000000E+00  0.00000000000E+00  0.74505805969E-08  0.10566000000E+00  0.10566000000E+00 0.  1.
     999900   -1    0    0    0    0 -0.00000000000E+00 -0.00000000000E+00 -0.74505805969E-08  0.93827000000E+00  0.93827000000E+00 0.  1.
     999902    2    1    2    0    0 -0.55810558644E-02 -0.23075026985E-01  0.30512076229E-02  0.10199943587E+01  0.10197134779E+01 0.  0.
     999903    2    3    3    0    0  0.87625470260E-01 -0.81929569892E-01 -0.49592854950E-01  0.13155600350E+00  0.21374127647E-01 0.  0.
         14    1    1    2    0    0  0.55810558644E-02  0.23075026985E-01 -0.30512076229E-02  0.23935641267E-01  0.00000000000E+00 0.  1.
     999901    1    3    3    0    0 -0.93206526125E-01  0.58854542907E-01  0.52644062573E-01  0.88843835524E+00  0.88000000000E+00 0.  1.
        -11    1    4    4    0    0  0.50340728629E-01 -0.34658075986E-01 -0.31066525428E-01  0.68562098226E-01  0.51100000000E-03 0. -1.
         11    1    4    4    0    0  0.37284741631E-01 -0.47271493906E-01 -0.18526329522E-01  0.62993905270E-01  0.51100000000E-03 0.  1.
</event>
<event>
 8    1  0.1072332E+005  0.1043930E+01  0.7957747E-01            NaN
         13   -1    0    0    0    0  0.00000000000E+00  0.00000000000E+00  0.74505805969E-08  0.10566000000E+00  0.10566000000E+00 0. -1.
     999900   -1    0    0    0    0 -0.00000000000E+00 -0.00000000000E+00 -0.74505805969E-08  0.93827000000E+00  0.93827000000E+00 0. -1.
     999902    2    1    2    0    0  0.16833784723E-01  0.16312589649E-01 -0.26683275333E-02  0.10203376949E+01  0.10200649071E+01 0.  0.
     999903    2    3    3    0    0  0.91462616485E-01  0.77255627844E-01 -0.55240230410E-01  0.13351904295E+00  0.21024022607E-01 0.  0.
         14    1    1    2    0    0 -0.16833784723E-01 -0.16312589649E-01  0.26683275333E-02  0.23592305122E-01  0.00000000000E+00 0.  1.
     999901    1    3    3    0    0 -0.74628831762E-01 -0.60943038196E-01  0.52571902877E-01  0.88681865193E+00  0.88000000000E+00 0. -1.
        -11    1    4    4    0    0  0.40739906660E-01  0.36616976895E-01 -0.13990585354E-01  0.56537957083E-01  0.51100000000E-03 0. -1.
         11    1    4    4    0    0  0.50722709825E-01  0.40638650949E-01 -0.41249645056E-01  0.76981085867E-01  0.51100000000E-03 0.  1.
</event>
<event>
 8    1  0.1072332E+005  0.1043930E+01  0.7957747E-01            NaN
         13   -1    0    0    0    0  0.00000000000E+00  0.00000000000E+00  0.74505805969E-08  0.10566000000E+00  0.10566000000E+00 0.  1.
     999900   -1    0    0    0    0 -0.00000000000E+00 -0.00000000000E+00 -0.74505805969E-08  0.93827000000E+00  0.93827000000E+00 0. -1.
     999902    2    1    2    0    0  0.30319238899E-02 -0.18202412794E-01 -0.13940560116E-01  0.10208029680E+01  0.10205409545E+01 0.  0.
     999903    2    3    3    0    0 -0.10646550500E+00  0.61734138294E-01 -0.31587845486E-01  0.13024641962E+00  0.28641408043E-01 0.  0.
         14    1    1    2    0    0 -0.30319238899E-02  0.18202412794E-01  0.13940560116E-01  0.23127032026E-01  0.00000000000E+00 0.  1.
     999901    1    3    3    0    0  0.10949742889E+00 -0.79936551088E-01  0.17647285371E-01  0.89055654835E+00  0.88000000000E+00 0. -1.
        -11    1    4    4    0    0 -0.26712092567E-01  0.12986200368E-01  0.45079035501E-02  0.30045958210E-01  0.51100000000E-03 0. -1.
         11    1    4    4    0    0 -0.79753412437E-01  0.48747937927E-01 -0.36095749037E-01  0.10020046141E+00  0.51100000000E-03 0.  1.
</event>
<event>
 8    1  0.1072332E+005  0.1043930E+01  0.7957747E-01            NaN
         13   -1    0    0    0    0  0.00000000000E+00  0.00000000000E+00  0.74505805969E-08  0.10566000000E+00  0.10566000000E+00 0. -1.
     999900   -1    0    0    0    0 -0.00000000000E+00 -0.00000000000E+00 -0.74505805969E-08  0.93827000000E+00  0.93827000000E+00 0. -1.
     999902    2    1    2    0    0  0.12005229628E-01  0.41742832995E-03 -0.19845635344E-01  0.10207319607E+01  0.10204683173E+01 0.  0.
     999903    2    3    3    0    0 -0.98899707408E-01 -0.47855519699E-01  0.63601354723E-01  0.12854723616E+00  0.20197938259E-01 0.  0.
         14    1    1    2    0    0 -0.12005229628E-01 -0.41742832995E-03  0.19845635344E-01  0.23198039293E-01  0.00000000000E+00 0. -1.
     999901    1    3    3    0    0  0.11090493704E+00  0.48272948029E-01 -0.83446990067E-01  0.89218472455E+00  0.88000000000E+00 0. -1.
        -11    1    4    4    0    0 -0.32765771525E-01 -0.26705508970E-01  0.24417405528E-01  0.48818549822E-01  0.51100000000E-03 0.  1.
         11    1    4    4    0    0 -0.66133935883E-01 -0.21150010729E-01  0.39183949195E-01  0.79728686335E-01  0.51100000000E-03 0. -1.
</event>
<event>
 8    1  0.1072332E+005  0.1043930E+01  0.7957747E-01            NaN
         13   -1    0    0    0    0  0.00000000000E+00  0.00000000000E+00  0.74505805969E-08  0.10566000000E+00  0.10566000000E+00 0. -1.
     999900   -1    0    0    0    0 -0.00000000000E+00 -0.00000000000E+00 -0.74505805969E-08  0.93827000000E+00  0.93827000000E+00 0.  1.
     999902    2    1    2    0    0  0.19830338407E-03 -0.10210138698E-01 -0.21516600440E-01  0.10201129819E+01  0.10198349109E+01 0.  0.
     999903    2    3    3    0    0 -0.41061791669E-01 -0.10712920185E+00  0.58313697402E-01  0.13024300449E+00  0.20000407287E-01 0.  0.
         14    1    1    2    0    0 -0.19830338407E-03  0.10210138698E-01  0.21516600440E-01  0.23817018095E-01  0.00000000000E+00 0.  1.
     999901    1    3    3    0    0  0.41260095053E-01  0.96919063148E-01 -0.79830297842E-01  0.88986997741E+00  0.88000000000E+00 0.  1.
        -11    1    4    4    0    0 -0.76056435378E-02 -0.21526664039E-01  0.31579057883E-02  0.23053775575E-01  0.51100000000E-03 0.  1.
         11    1    4    4    0    0 -0.33456148131E-01 -0.85602537806E-01  0.55155791613E-01  0.10718922892E+00  0.51100000000E-03 0. -1.
</event>
<event>
 8    1  0.1072332E+005  0.1043930E+01  0.7957747E-01            NaN
         13   -1    0    0    0    0  0.00000000000E+00  0.00000000000E+00  0.74505805969E-08  0.10566000000E+00  0.10566000000E+00 0.  1.
     999900   -1    0    0    0    0 -0.00000000000E+00 -0.00000000000E+00 -0.74505805969E-08  0.93827000000E+00  0.93827000000E+00 0.  1.
     999902    2    1    2    0    0  0.95972820484E-02 -0.13470619710E-01 -0.22599357341E-01  0.10159247082E+01  0.10155386336E+01 0.  0.
     999903    2    3    3    0    0 -0.12140094066E-01 -0.12166730135E+00  0.30297358289E-01  0.12745574531E+00  0.19409353234E-01 0.  0.
         14    1    1    2    0    0 -0.95972820484E-02  0.13470619710E-01  0.22599357341E-01  0.28005291827E-01  0.00000000000E+00 0.  1.
     999901    1    3    3    0    0  0.21737376115E-01  0.10819668164E+00 -0.52896715629E-01  0.88846896286E+00  0.88000000000E+00 0.  1.
        -11    1    4    4    0    0  0.31499259515E-02 -0.64188779578E-01  0.13841045091E-01  0.65741593436E-01  0.51100000000E-03 0.  1.
         11    1    4    4    0    0 -0.15290020018E-01 -0.57478521771E-01  0.16456313197E-01  0.61714151879E-01  0.51100000000E-03 0. -1.
</event>
<event>
 8    1  0.1072332E+005  0.1043930E+01  0.7957747E-01            NaN
         13   -1    0    0    0    0  0.00000000000E+00  0.00000000000E+00  0.74505805969E-08  0.10566000000E+00  0.10566000000E+00 0. -1.
     999900   -1    0    0    0    0 -0.00000000000E+00 -0.00000000000E+00 -0.74505805969E-08  0.93827000000E+00  0.93827000000E+00 0. -1.
     999902    2    1    2    0    0  0.10190519131E-02  0.81747357688E-02  0.22005145202E-01  0.10204333792E+01  0.10201628254E+01 0.  0.
     999903    2    3    3    0    0  0.29770020058E-01 -0.12210361348E+00  0.28006714204E-01  0.13035749187E+00  0.20326168511E-01 0.  0.
         14    1    1    2    0    0 -0.10190519131E-02 -0.81747357688E-02 -0.22005145202E-01  0.23496620759E-01  0.00000000000E+00 0.  1.
     999901    1    3    3    0    0 -0.28750968145E-01  0.13027834925E+00 -0.60015690017E-02  0.89007588737E+00  0.88000000000E+00 0.  1.
        -11    1    4    4    0    0  0.32675300747E-01 -0.10561876793E+00  0.24810159756E-01  0.11330844879E+00  0.51100000000E-03 0. -1.
         11    1    4    4    0    0 -0.29052806890E-02 -0.16484845548E-01  0.31965544486E-02  0.17049043081E-01  0.51100000000E-03 0.  1.
</event>
<event>
 8    1  0.1072332E+005  0.1043930E+01  0.7957747E-01            NaN
         13   -1    0    0    0    0  0.00000000000E+00  0.00000000000E+00  0.74505805969E-08  0.10566000000E+00  0.10566000000E+00 0. -1.
     999900   -1    0    0    0    0 -0.00000000000E+00 -0.00000000000E+00 -0.74505805969E-08  0.93827000000E+00  0.93827000000E+00 0.  1.
     999902    2    1    2    0    0 -0.13734219686E-01  0.13006744399E-02 -0.19240396351E-01  0.10202548359E+01  0.10199801061E+01 0.  0.
     999903    2    3    3    0    0  0.67213193556E-01 -0.52244871640E-01  0.93370513407E-01  0.12778588616E+00  0.19079830380E-01 0.  0.
         14    1    1    2    0    0  0.13734219686E-01 -0.13006744399E-02  0.19240396351E-01  0.23675164120E-01  0.00000000000E+00 0. -1.
     999901    1    3    3    0    0 -0.80947413242E-01  0.53545546080E-01 -0.11261090976E+00  0.89246894972E+00  0.88000000000E+00 0.  1.
        -11    1    4    4    0    0  0.28672802853E-01 -0.31721287020E-01  0.54903148252E-01  0.69591569049E-01  0.51100000000E-03 0. -1.
         11    1    4    4    0    0  0.38540390703E-01 -0.20523584620E-01  0.38467365155E-01  0.58194317112E-01  0.51100000000E-03 0.  1.
</event>
<event>
 8    1  0.1072332E+005  0.1043930E+01  0.7957747E-01            NaN
         13   -1    0    0    0    0  0.00000000000E+00  0.00000000000E+00  0.74505805969E-08  0.10566000000E+00  0.10566000000E+00 0.  1.
     999900   -1    0    0    0    0 -0.00000000000E+00 -0.00000000000E+00 -0.74505805969E-08  0.93827000000E+00  0.93827000000E+00 0. -1.
     999902    2    1    2    0    0  0.20127056999E-01  0.10632191361E-01 -0.16645103722E-02  0.10211064921E+01  0.10208513877E+01 0.  0.
     999903    2    3    3    0    0  0.12405446819E+00 -0.19801746936E-01  0.38080040756E-01  0.13357803583E+00  0.24726137877E-01 0.  0.
         14    1    1    2    0    0 -0.20127056999E-01 -0.10632191361E-01  0.16645103722E-02  0.22823507867E-01  0.00000000000E+00 0. -1.
     999901    1    3    3    0    0 -0.10392741119E+00  0.30433938296E-01 -0.39744551128E-01  0.88752845630E+00  0.88000000000E+00 0. -1.
        -11    1    4    4    0    0  0.72620366733E-01 -0.22977062273E-01  0.27398477971E-01  0.80948136305E-01  0.51100000000E-03 0.  1.
         11    1    4    4    0    0  0.51434101454E-01  0.31753153369E-02  0.10681562785E-01  0.52629899529E-01  0.51100000000E-03 0. -1.
</event>
<event>
 7    1  0.1072332E+005  0.1043930E+01  0.7957747E-01            NaN
         13   -1    0    0    0    0  0.00000000000E+00  0.00000000000E+00  0.74505805969E-08  0.10566000000E+00  0.10566000000E+00 0.  1.
     999900   -1    0    0    0    0 -0.00000000000E+00 -0.00000000000E+00 -0.74505805969E-08  0.93827000000E+00  0.93827000000E+00 0.  1.
     999903    2    1    2    0    0  0.13254696906E-01  0.71434657952E-01 -0.84181208948E-01  0.11286914754E+00  0.19348673843E-01 0.  0.
         14    1    1    2    0    0  0.36851793973E-02 -0.19517819355E-02 -0.39340361506E-01  0.39560763938E-01  0.00000000000E+00 0. -1.
     999901    1    1    2    0    0 -0.16939876303E-01 -0.69482876017E-01  0.12352157045E+00  0.89150008852E+00  0.88000000000E+00 0. -1.
        -11    1    3    3    0    0  0.17111894409E-01  0.40940975290E-01 -0.52096977068E-01  0.68434907237E-01  0.51100000000E-03 0.  1.
         11    1    3    3    0    0 -0.38571975032E-02  0.30493682662E-01 -0.32084231880E-01  0.44434240302E-01  0.51100000000E-03 0. -1.
</event>
<event>
 8    1  0.1072332E+005  0.1043930E+01  0.7957747E-01            NaN
         13   -1    0    0    0    0  0.00000000000E+00  0.00000000000E+00  0.74505805969E-08  0.10566000000E+00  0.10566000000E+00 0.  1.
     999900   -1    0    0    0    0 -0.00000000000E+00 -0.00000000000E+00 -0.74505805969E-08  0.93827000000E+00  0.93827000000E+00 0.  1.
     999902    2    1    2    0    0  0.54463560194E-02  0.23530186721E-01 -0.52947488007E-02  0.10192041664E+01  0.10189041986E+01 0.  0.
     999903    2    3    3    0    0  0.43547708506E-04 -0.10624583759E+00  0.66286653513E-01  0.12679456093E+00  0.19868576865E-01 0.  0.
         14    1    1    2    0    0 -0.54463560194E-02 -0.23530186721E-01  0.52947488007E-02  0.24725833573E-01  0.00000000000E+00 0.  1.
     999901    1    3    3    0    0  0.54028083109E-02  0.12977602431E+00 -0.71581402313E-01  0.89240960550E+00  0.88000000000E+00 0.  1.
        -11    1    4    4    0    0 -0.80688394128E-02 -0.82831441478E-01  0.49032608711E-01  0.96595091515E-01  0.51100000000E-03 0.  1.
         11    1    4    4    0    0  0.81123871213E-02 -0.23414396110E-01  0.17254044801E-01  0.30199469416E-01  0.51100000000E-03 0. -1.
</event>
<event>
 8    1  0.1072332E+005  0.1043930E+01  0.7957747E-01            NaN
         13   -1    0    0    0    0  0.00000000000E+00  0.00000000000E+00  0.74505805969E-08  0.10566000000E+00  0.10566000000E+00 0.  1.
     999900   -1    0    0    0    0 -0.00000000000E+00 -0.00000000000E+00 -0.74505805969E-08  0.93827000000E+00  0.93827000000E+00 0. -1.
     999902    2    1    2    0    0  0.16637210563E-01  0.17042886427E-01 -0.33031168940E-02  0.10198848896E+01  0.10196014029E+01 0.  0.
     999903    2    3    3    0    0  0.19047548888E-01  0.11946291328E+00  0.49918641472E-01  0.13234433999E+00  0.19721987544E-01 0.  0.
         14    1    1    2    0    0 -0.16637210563E-01 -0.17042886427E-01  0.33031168940E-02  0.24045110403E-01  0.00000000000E+00 0. -1.
     999901    1    3    3    0    0 -0.24103383256E-02 -0.10242002686E+00 -0.53221758366E-01  0.88754054961E+00  0.88000000000E+00 0. -1.
        -11    1    4    4    0    0  0.13174229407E-01  0.36921689304E-01  0.99601713740E-02  0.40450433822E-01  0.51100000000E-03 0.  1.
         11    1    4    4    0    0  0.58733194811E-02  0.82541223978E-01  0.39958470097E-01  0.91893906169E-01  0.51100000000E-03 0. -1.
</event>
<event>
 8    1  0.1072332E+005  0.1043930E+01  0.7957747E-01            NaN
         13   -1    0    0    0    0  0.00000000000E+00  0.00000000000E+00  0.74505805969E-08  0.10566000000E+00  0.10566000000E+00 0.  1.
     999900   -1    0    0    0    0 -0.00000000000E+00 -0.00000000000E+00 -0.74505805969E-08  0.93827000000E+00  0.93827000000E+00 0. -1.
     999902    2    1    2    0    0 -0.26892706761E-02  0.12821591968E-03 -0.22671967490E-01  0.10210987336E+01  0.10208434537E+01 0.  0.
     999903    2    3    3    0    0  0.36662822659E-01  0.79260171015E-01 -0.98707826040E-01  0.13340965212E+00  0.20701765222E-01 0.  0.
         14    1    1    2    0    0  0.26892706761E-02 -0.12821591968E-03  0.22671967490E-01  0.22831266412E-01  0.00000000000E+00 0.  1.
     999901    1    3    3    0    0 -0.39352093335E-01 -0.79131955095E-01  0.76035858550E-01  0.88768908147E+00  0.88000000000E+00 0.  1.
        -11    1    4    4    0    0  0.20862603539E-01  0.24318153273E-01 -0.28650124527E-01  0.42985015545E-01  0.51100000000E-03 0. -1.
         11    1    4    4    0    0  0.15800219120E-01  0.54942017742E-01 -0.70057701514E-01  0.90424636578E-01  0.51100000000E-03 0.  1.
</event>
<event>
 8    1  0.1072332E+005  0.1043930E+01  0.7957747E-01            NaN
         13   -1    0    0    0    0  0.00000000000E+00  0.00000000000E+00  0.74505805969E-08  0.10566000000E+00  0.10566000000E+00 0.  1.
     999900   -1    0    0    0    0 -0.00000000000E+00 -0.00000000000E+00 -0.74505805969E-08  0.93827000000E+00  0.93827000000E+00 0. -1.
     999902    2    1    2    0    0  0.21807340008E-01  0.14866731050E-03 -0.10037823595E-01  0.10199229160E+01  0.10196403358E+01 0.  0.
     999903    2    3    3    0    0  0.92840535363E-01  0.90133620162E-01  0.17343596707E-01  0.13206439755E+00  0.19919092959E-01 0.  0.
         14    1    1    2    0    0 -0.21807340008E-01 -0.14866731050E-03  0.10037823595E-01  0.24007084011E-01  0.00000000000E+00 0. -1.
     999901    1    3    3    0    0 -0.71033195354E-01 -0.89984952851E-01 -0.27381420302E-01  0.88785851844E+00  0.88000000000E+00 0. -1.
        -11    1    4    4    0    0  0.65171633213E-01  0.50048160071E-01  0.12413308381E-01  0.83105423699E-01  0.51100000000E-03 0.  1.
         11    1    4    4    0    0  0.27668902149E-01  0.40085460091E-01  0.49302883260E-02  0.48958973854E-01  0.51100000000E-03 0. -1.
</event>
<event>
 8    1  0.1072332E+005  0.1043930E+01  0.7957747E-01            NaN
         13   -1    0    0    0    0  0.00000000000E+00  0.00000000000E+00  0.74505805969E-08  0.10566000000E+00  0.10566000000E+00 0. -1.
     999900   -1    0    0    0    0 -0.00000000000E+00 -0.00000000000E+00 -0.74505805969E-08  0.93827000000E+00  0.93827000000E+00 0.  1.
     999902    2    1    2    0    0 -0.61286109458E-02  0.21696726125E-01  0.70052797191E-02  0.10203210665E+01  0.10200478896E+01 0.  0.
     999903    2    3    3    0    0 -0.59235624437E-02  0.89417863584E-01 -0.94765335567E-01  0.13187103829E+00  0.19464300522E-01 0.  0.
         14    1    1    2    0    0  0.61286109458E-02 -0.21696726125E-01 -0.70052797191E-02  0.23608933492E-01  0.00000000000E+00 0. -1.
     999901    1    3    3    0    0 -0.20504850208E-03 -0.67721137459E-01  0.10177061529E+00  0.88845002822E+00  0.88000000000E+00 0. -1.
        -11    1    4    4    0    0 -0.39318516372E-02  0.23498465322E-01 -0.38000981703E-01  0.44855022697E-01  0.51100000000E-03 0.  1.
         11    1    4    4    0    0 -0.19917108066E-02  0.65919398262E-01 -0.56764353865E-01  0.87016015594E-01  0.51100000000E-03 0. -1.
</event>
<event>
 8    1  0.1072332E+005  0.1043930E+01  0.7957747E-01            NaN
         13   -1    0    0    0    0  0.00000000000E+00  0.00000000000E+00  0.74505805969E-08  0.10566000000E+00  0.10566000000E+00 0.  1.
     999900   -1    0    0    0    0 -0.00000000000E+00 -0.00000000000E+00 -0.74505805969E-08  0.93827000000E+00  0.93827000000E+00 0.  1.
     999902    2    1    2    0    0  0.11926929249E-02  0.21280548033E-01  0.63147979515E-02  0.10217002696E+01  0.10214584083E+01 0.  0.
     999903    2    3    3    0    0 -0.90056865901E-01  0.67051455323E-03 -0.93180239243E-01  0.13116643088E+00  0.20282675309E-01 0.  0.
         14    1    1    2    0    0 -0.11926929249E-02 -0.21280548033E-01 -0.63147979515E-02  0.22229730412E-01  0.00000000000E+00 0.  1.
     999901    1    3    3    0    0  0.91249558826E-01  0.20610033480E-01  0.99495037194E-01  0.89053383871E+00  0.88000000000E+00 0. -1.
        -11    1    4    4    0    0 -0.16948291389E-01  0.81483314911E-02 -0.19814856926E-01  0.27322693189E-01  0.51100000000E-03 0.  1.
         11    1    4    4    0    0 -0.73108574512E-01 -0.74778169378E-02 -0.73365382317E-01  0.10384373769E+00  0.51100000000E-03 0. -1.
</event>
<event>
 8    1  0.1072332E+005  0.1043930E+01  0.7957747E-01            NaN
         13   -1    0    0    0    0  0.00000000000E+00  0.00000000000E+00  0.74505805969E-08  0.10566000000E+00  0.10566000000E+00 0. -1.
     999900   -1    0    0    0    0 -0.00000000000E+00 -0.00000000000E+00 -0.74505805969E-08  0.93827000000E+00  0.93827000000E+00 0. -1.
     999902    2    1    2    0    0  0.18089086641E-01 -0.13583555806E-01  0.66823435918E-02  0.10203422540E+01  0.10200695729E+01 0.  0.
     999903    2    3    3    0    0  0.10922765871E+00 -0.47802713716E-01 -0.54981835694E-01  0.13282906478E+00  0.20119078729E-01 0.  0.
         14    1    1    2    0    0 -0.18089086641E-01  0.13583555806E-01 -0.66823435918E-02  0.23587745965E-01  0.00000000000E+00 0. -1.
     999901    1    3    3    0    0 -0.91138572070E-01  0.34219157910E-01  0.61664179286E-01  0.88751318925E+00  0.88000000000E+00 0.  1.
        -11    1    4    4    0    0  0.18529173103E-01 -0.14763334709E-01 -0.16674725491E-01  0.28975746734E-01  0.51100000000E-03 0.  1.
         11    1    4    4    0    0  0.90698485608E-01 -0.33039379007E-01 -0.38307110203E-01  0.10385331805E+00  0.51100000000E-03 0. -1.
</event>
<event>
 8    1  0.1072332E+005  0.1043930E+01  0.7957747E-01            NaN
         13   -1    0    0    0    0  0.00000000000E+00  0.00000000000E+00  0.74505805969E-08  0.10566000000E+00  0.10566000000E+00 0. -1.
     999900   -1    0    0    0    0 -0.00000000000E+00 -0.00000000000E+00 -0.74505805969E-08  0.93827000000E+00  0.93827000000E+00 0.  1.
     999902    2    1    2    0    0  0.43845532340E-02 -0.15667305000E-01  0.18626575254E-01  0.10191986826E+01  0.10188985801E+01 0.  0.
     999903    2    3    3    0    0  0.93054263996E-01 -0.26068794187E-01 -0.82743193397E-01  0.12889180375E+00  0.20687748621E-01 0.  0.
         14    1    1    2    0    0 -0.43845532340E-02  0.15667305000E-01 -0.18626575254E-01  0.24731317367E-01  0.00000000000E+00 0.  1.
     999901    1    3    3    0    0 -0.88669710762E-01  0.10401489187E-01  0.10136976865E+00  0.89030687888E+00  0.88000000000E+00 0. -1.
        -11    1    4    4    0    0  0.70328370937E-01 -0.14019357939E-01 -0.50837056717E-01  0.87905003340E-01  0.51100000000E-03 0.  1.
         11    1    4    4    0    0  0.22725893059E-01 -0.12049436248E-01 -0.31906136680E-01  0.40986800413E-01  0.51100000000E-03 0. -1.
</event>
<event>
 8    1  0.1072332E+005  0.1043930E+01  0.7957747E-01            NaN
         13   -1    0    0    0    0  0.00000000000E+00  0.00000000000E+00  0.74505805969E-08  0.10566000000E+00  0.10566000000E+00 0. -1.
     999900   -1    0    0    0    0 -0.00000000000E+00 -0.00000000000E+00 -0.74505805969E-08  0.93827000000E+00  0.93827000000E+00 0.  1.
     999902    2    1    2    0    0  0.58407384035E-02  0.20567304640E-01 -0.10492140092E-01  0.10201137608E+01  0.10198357082E+01 0.  0.
     999903    2    3    3    0    0 -0.99853662333E-01 -0.74690716466E-01 -0.21540226522E-01  0.12861644890E+00  0.22994620285E-01 0.  0.
         14    1    1    2    0    0 -0.58407384035E-02 -0.20567304640E-01  0.10492140092E-01  0.23816239186E-01  0.00000000000E+00 0. -1.
     999901    1    3    3    0    0  0.10569440074E+00  0.95258021106E-01  0.11048086430E-01  0.89149731191E+00  0.88000000000E+00 0. -1.
        -11    1    4    4    0    0 -0.62948213045E-01 -0.42260732430E-01 -0.23114831318E-02  0.75855461941E-01  0.51100000000E-03 0.  1.
         11    1    4    4    0    0 -0.36905449289E-01 -0.32429984036E-01 -0.19228743390E-01  0.52760986961E-01  0.51100000000E-03 0. -1.
</event>
<event>
 8    1  0.1072332E+005  0.1043930E+01  0.7957747E-01            NaN
         13   -1    0    0    0    0  0.00000000000E+00  0.00000000000E+00  0.74505805969E-08  0.10566000000E+00  0.10566000000E+00 0.  1.
     999900   -1    0    0    0    0 -0.00000000000E+00 -0.00000000000E+00 -0.74505805969E-08  0.93827000000E+00  0.93827000000E+00 0.  1.
     999902    2    1    2    0    0  0.49864234843E-03 -0.20452920336E-01 -0.11321524179E-01  0.10205473675E+01  0.10202794626E+01 0.  0.
     999903    2    3    3    0    0 -0.85435709524E-01  0.42071551873E-01  0.84680421337E-01  0.12896989130E+00  0.19828846825E-01 0.  0.
         14    1    1    2    0    0 -0.49864234843E-03  0.20452920336E-01  0.11321524179E-01  0.23382632533E-01  0.00000000000E+00 0.  1.
     999901    1    3    3    0    0  0.85934351873E-01 -0.62524472209E-01 -0.96001945516E-01  0.89157747616E+00  0.88000000000E+00 0.  1.
        -11    1    4    4    0    0 -0.24477445517E-01  0.11455796557E-01  0.36654707537E-01  0.45543488222E-01  0.51100000000E-03 0. -1.
         11    1    4    4    0    0 -0.60958264007E-01  0.30615755316E-01  0.48025713800E-01  0.83426403083E-01  0.51100000000E-03 0.  1.
</event>
<event>
 8    1  0.1072332E+005  0.1043930E+01  0.7957747E-01            NaN
         13   -1    0    0    0    0  0.00000000000E+00  0.00000000000E+00  0.74505805969E-08  0.10566000000E+00  0.10566000000E+00 0.  1.
     999900   -1    0    0    0    0 -0.00000000000E+00 -0.00000000000E+00 -0.74505805969E-08  0.93827000000E+00  0.93827000000E+00 0.  1.
     999902    2    1    2    0    0 -0.14126681621E-01 -0.14356112252E-02 -0.19314179368E-01  0.10199578988E+01  0.10196761513E+01 0.  0.
     999903    2    3    3    0    0  0.28371435015E-01 -0.11717334314E+00  0.42051375164E-01  0.12924636084E+00  0.20044275197E-01 0.  0.
         14    1    1    2    0    0  0.14126681621E-01  0.14356112252E-02  0.19314179368E-01  0.23972101240E-01  0.00000000000E+00 0.  1.
     999901    1    3    3    0    0 -0.42498116636E-01  0.11573773192E+00 -0.61365554532E-01  0.89071153792E+00  0.88000000000E+00 0.  1.
        -11    1    4    4    0    0  0.16153988288E-01 -0.66385289135E-01  0.13263195385E-01  0.69599794713E-01  0.51100000000E-03 0.  1.
         11    1    4    4    0    0  0.12217446727E-01 -0.50788054008E-01  0.28788179778E-01  0.59646566124E-01  0.51100000000E-03 0. -1.
</event>
<event>
 8    1  0.1072332E+005  0.1043930E+01  0.7957747E-01            NaN
         13   -1    0    0    0    0  0.00000000000E+00  0.00000000000E+00  0.74505805969E-08  0.10566000000E+00  0.10566000000E+00 0. -1.
     999900   -1    0    0    0    0 -0.00000000000E+00 -0.00000000000E+00 -0.74505805969E-08  0.93827000000E+00  0.93827000000E+00 0. -1.
     999902    2    1    2    0    0 -0.21896423941E-01 -0.25616693818E-03 -0.98393157487E-02  0.10199231023E+01  0.10196405266E+01 0.  0.
     999903    2    3    3    0    0  0.34211486516E-01  0.11741377041E+00 -0.38954996770E-01  0.12984331113E+00  0.19630954646E-01 0.  0.
         14    1    1    2    0    0  0.21896423941E-01  0.25616693818E-03  0.98393157487E-02  0.24006897703E-01  0.00000000000E+00 0.  1.
     999901    1    3    3    0    0 -0.56107910457E-01 -0.11766993734E+00  0.29115681021E-01  0.89007979117E+00  0.88000000000E+00 0. -1.
        -11    1    4    4    0    0  0.15311446176E-01  0.26285064152E-01 -0.53369255853E-02  0.30888329142E-01  0.51100000000E-03 0.  1.
         11    1    4    4    0    0  0.18900040340E-01  0.91128706253E-01 -0.33618071184E-01  0.98954981984E-01  0.51100000000E-03 0. -1.
</event>
<event>
 8    1  0.1072332E+005  0.1043930E+01  0.7957747E-01            NaN
         13   -1    0    0    0    0  0.00000000000E+00  0.00000000000E+00  0.74505805969E-08  0.10566000000E+00  0.10566000000E+00 0. -1.
     999900   -1    0    0    0    0 -0.00000000000E+00 -0.00000000000E+00 -0.74505805969E-08  0.93827000000E+00  0.93827000000E+00 0.  1.
     999902    2    1    2    0    0 -0.15162681623E-01  0.13691075473E-01 -0.23128177861E-02  0.10233702921E+01  0.10231637470E+01 0.  0.
     999903    2    3    3    0    0  0.58873395623E-01 -0.23357099760E-01 -0.11459788581E+00  0.13238104162E+00  0.19504715494E-01 0.  0.
         14    1    1    2    0    0  0.15162681623E-01 -0.13691075473E-01  0.23128177861E-02  0.20559707871E-01  0.00000000000E+00 0. -1.
     999901    1    3    3    0    0 -0.74036077246E-01  0.37048175234E-01  0.11228506803E+00  0.89098925051E+00  0.88000000000E+00 0. -1.
        -11    1    4    4    0    0  0.24422430286E-01 -0.75583693522E-03 -0.34151608246E-01  0.41995474249E-01  0.51100000000E-03 0.  1.
         11    1    4    4    0    0  0.34450965337E-01 -0.22601262825E-01 -0.80446277565E-01  0.90385567371E-01  0.51100000000E-03 0. -1.
</event>
<event>
 8    1  0.1072332E+005  0.1043930E+01  0.7957747E-01            NaN
         13   -1    0    0    0    0  0.00000000000E+00  0.00000000000E+00  0.74505805969E-08  0.10566000000E+00  0.10566000000E+00 0. -1.
     999900   -1    0    0    0    0 -0.00000000000E+00 -0.00000000000E+00 -0.74505805969E-08  0.93827000000E+00  0.93827000000E+00 0.  1.
     999902    2    1    2    0    0  0.55982088113E-02  0.61258430406E-02  0.21281281702E-01  0.10210879588E+01  0.10208324352E+01 0.  0.
     999903    2    3    3    0    0 -0.70036904273E-01 -0.84628901670E-01  0.70394666365E-01  0.13183590311E+00  0.18922931523E-01 0.  0.
         14    1    1    2    0    0 -0.55982088113E-02 -0.61258430406E-02 -0.21281281702E-01  0.22842041190E-01  0.00000000000E+00 0.  1.
     999901    1    3    3    0    0  0.75635113084E-01  0.90754744711E-01 -0.49113384663E-01  0.88925205570E+00  0.88000000000E+00 0.  1.
        -11    1    4    4    0    0 -0.65460031220E-01 -0.68747427414E-01  0.59540740608E-01  0.11205617063E+00  0.51100000000E-03 0. -1.
         11    1    4    4    0    0 -0.45768730529E-02 -0.15881474256E-01  0.10853925757E-01  0.19779732476E-01  0.51100000000E-03 0.  1.
</event>
<event>
 8    1  0.1072332E+005  0.1043930E+01  0.7957747E-01            NaN
         13   -1    0    0    0    0  0.00000000000E+00  0.00000000000E+00  0.74505805969E-08  0.10566000000E+00  0.10566000000E+00 0. -1.
     999900   -1    0    0    0    0 -0.00000000000E+00 -0.00000000000E+00 -0.74505805969E-08  0.93827000000E+00  0.93827000000E+00 0.  1.
     999902    2    1    2    0    0 -0.10212109252E-01  0.59189376085E-02 -0.19648193808E-01  0.10210089940E+01  0.10207516805E+01 0.  0.
     999903    2    3    3    0    0 -0.59801318319E-01 -0.96236950800E-01 -0.65778575879E-01  0.13251424027E+00  0.19886036747E-01 0.  0.
         14    1    1    2    0    0  0.10212109252E-01 -0.59189376085E-02  0.19648193808E-01  0.22921006036E-01  0.00000000000E+00 0. -1.
     999901    1    3    3    0    0  0.49589209067E-01  0.10215588841E+00  0.46130382071E-01  0.88849475369E+00  0.88000000000E+00 0. -1.
        -11    1    4    4    0    0 -0.33859217877E-01 -0.66187570721E-01 -0.50967720245E-01  0.90139951083E-01  0.51100000000E-03 0. -1.
         11    1    4    4    0    0 -0.25942100442E-01 -0.30049380078E-01 -0.14810855634E-01  0.42374289186E-01  0.51100000000E-03 0.  1.
</event>
<event>
 8    1  0.1072332E+005  0.1043930E+01  0.7957747E-01            NaN
         13   -1    0    0    0    0  0.00000000000E+00  0.00000000000E+00  0.74505805969E-08  0.10566000000E+00  0.10566000000E+00 0.  1.
     999900   -1    0    0    0    0 -0.00000000000E+00 -0.00000000000E+00 -0.74505805969E-08  0.93827000000E+00  0.93827000000E+00 0.  1.
     999902    2    1    2    0    0 -0.19743789638E-01 -0.10852686428E-01  0.27655864638E-02  0.10212309582E+01  0.10209786596E+01 0.  0.
     999903    2    3    3    0    0  0.29579272609E-01 -0.25382912889E-01 -0.12325723119E+00  0.13076723486E+00  0.19710378884E-01 0.  0.
         14    1    1    2    0    0  0.19743789638E-01  0.10852686428E-01 -0.27655864638E-02  0.22699041840E-01  0.00000000000E+00 0.  1.
     999901    1    3    3    0    0 -0.49323062248E-01  0.14530226461E-01  0.12602281766E+00  0.89046372330E+00  0.88000000000E+00 0. -1.
        -11    1    4    4    0    0  0.33245959418E-02 -0.14271065408E-01 -0.32938594742E-01  0.36054519698E-01  0.51100000000E-03 0.  1.
         11    1    4    4    0    0  0.26254676668E-01 -0.11111847481E-01 -0.90318636450E-01  0.94712715158E-01  0.51100000000E-03 0. -1.
</event>
<event>
 8    1  0.1072332E+005  0.1043930E+01  0.7957747E-01            NaN
         13   -1    0    0    0    0  0.00000000000E+00  0.00000000000E+00  0.74505805969E-08  0.10566000000E+00  0.10566000000E+00 0. -1.
     999900   -1    0    0    0    0 -0.00000000000E+00 -0.00000000000E+00 -0.74505805969E-08  0.93827000000E+00  0.93827000000E+00 0. -1.
     999902    2    1    2    0    0 -0.42918258669E-02  0.68929584797E-02  0.16528721863E-01  0.10255144823E+01  0.10253491221E+01 0.  0.
     999903    2    3    3    0    0 -0.10217397977E+00 -0.43472852828E-01  0.76704116586E-01  0.13661701401E+00  0.21243256363E-01 0.  0.
         14    1    1    2    0    0  0.42918258669E-02 -0.68929584797E-02 -0.16528721863E-01  0.18415517703E-01  0.00000000000E+00 0.  1.
     999901    1    3    3    0    0  0.97882153899E-01  0.50365811308E-01 -0.60175394723E-01  0.88889746829E+00  0.88000000000E+00 0. -1.
        -11    1    4    4    0    0 -0.74584281406E-01 -0.28345528506E-01  0.65437452026E-01  0.10319207948E+00  0.51100000000E-03 0. -1.
         11    1    4    4    0    0 -0.27589698360E-01 -0.15127324322E-01  0.11266664560E-01  0.33424934525E-01  0.51100000000E-03 0.  1.
</event>
<event>
 8    1  0.1072332E+005  0.1043930E+01  0.7957747E-01            NaN
         13   -1    0    0    0    0  0.00000000000E+00  0.00000000000E+00  0.74505805969E-08  0.10566000000E+00  0.10566000000E+00 0.  1.
     999900   -1    0    0    0    0 -0.00000000000E+00 -0.00000000000E+00 -0.74505805969E-08  0.93827000000E+00  0.93827000000E+00 0. -1.
     999902    2    1    2    0    0  0.81282261437E-03  0.79557350817E-02 -0.22746694019E-01  0.10198184573E+01  0.10195333832E+01 0.  0.
     999903    2    3    3    0    0  0.79293140484E-01  0.91337884657E-01 -0.49462872350E-01  0.13199781252E+00  0.18623519199E-01 0.  0.
         14    1    1    2    0    0 -0.81282261437E-03 -0.79557350817E-02  0.22746694019E-01  0.24111542674E-01  0.00000000000E+00 0.  1.
     999901    1    3    3    0    0 -0.78480317870E-01 -0.83382149575E-01  0.26716178331E-01  0.88782064481E+00  0.88000000000E+00 0.  1.
        -11    1    4    4    0    0  0.50802685196E-01  0.60521823659E-01 -0.41584068262E-01  0.89293335789E-01  0.51100000000E-03 0.  1.
         11    1    4    4    0    0  0.28490455289E-01  0.30816060998E-01 -0.78788040884E-02  0.42704476731E-01  0.51100000000E-03 0. -1.
</event>
<event>
 8    1  0.1072332E+005  0.1043930E+01  0.7957747E-01            NaN
         13   -1    0    0    0    0  0.00000000000E+00  0.00000000000E+00  0.74505805969E-08  0.10566000000E+00  0.10566000000E+00 0. -1.
     999900   -1    0    0    0    0 -0.00000000000E+00 -0.00000000000E+00 -0.74505805969E-08  0.93827000000E+00  0.93827000000E+00 0.  1.
     999902    2    1    2    0    0  0.11225291621E-01  0.20551454616E-01 -0.45113668095E-04  0.10205126668E+01  0.10202439569E+01 0.  0.
     999903    2    3    3    0    0 -0.66906866877E-01 -0.10712275454E+00 -0.72824469285E-02  0.12784379378E+00  0.18417062730E-01 0.  0.
         14    1    1    2    0    0 -0.11225291621E-01 -0.20551454616E-01  0.45113668095E-04  0.23417333197E-01  0.00000000000E+00 0.  1.
     999901    1    3    3    0    0  0.78132158499E-01  0.12767420915E+00  0.72373332604E-02  0.89266887302E+00  0.88000000000E+00 0. -1.
        -11    1    4    4    0    0 -0.35717163040E-01 -0.64113698024E-01  0.41012005586E-02  0.73507570882E-01  0.51100000000E-03 0. -1.
         11    1    4    4    0    0 -0.31189703838E-01 -0.43009056512E-01 -0.11383647487E-01  0.54336222896E-01  0.51100000000E-03 0.  1.
</event>
<event>
 8    1  0.1072332E+005  0.1043930E+01  0.7957747E-01            NaN
         13   -1    0    0    0    0  0.00000000000E+00  0.00000000000E+00  0.74505805969E-08  0.10566000000E+00  0.10566000000E+00 0.  1.
     999900   -1    0    0    0    0 -0.00000000000E+00 -0.00000000000E+00 -0.74505805969E-08  0.93827000000E+00  0.93827000000E+00 0. -1.
     999902    2    1    2    0    0  0.13047913552E-02  0.20234680152E-01  0.12270776965E-01  0.10202294361E+01  0.10199541095E+01 0.  0.
     999903    2    3    3    0    0  0.84597096369E-01  0.57561152244E-01  0.82350472422E-01  0.13273744330E+00  0.19174816381E-01 0.  0.
         14    1    1    2    0    0 -0.13047913552E-02 -0.20234680152E-01 -0.12270776965E-01  0.23700563889E-01  0.00000000000E+00 0. -1.
     999901    1    3    3    0    0 -0.83292305014E-01 -0.37326472092E-01 -0.70079695458E-01  0.88749199281E+00  0.88000000000E+00 0. -1.
        -11    1    4    4    0    0  0.62820376128E-01  0.33032356740E-01  0.61077746531E-01  0.93639139739E-01  0.51100000000E-03 0. -1.
         11    1    4    4    0    0  0.21776720241E-01  0.24528795504E-01  0.21272725891E-01  0.39098303559E-01  0.51100000000E-03 0.  1.
</event>
<event>
 8    1  0.1072332E+005  0.1043930E+01  0.7957747E-01            NaN
         13   -1    0    0    0    0  0.00000000000E+00  0.00000000000E+00  0.74505805969E-08  0.10566000000E+00  0.10566000000E+00 0. -1.
     999900   -1    0    0    0    0 -0.00000000000E+00 -0.00000000000E+00 -0.74505805969E-08  0.93827000000E+00  0.93827000000E+00 0. -1.
     999902    2    1    2    0    0 -0.22286431314E-01  0.70122829081E-02 -0.74733981652E-02  0.10194002464E+01  0.10191050748E+01 0.  0.
     999903    2    3    3    0    0 -0.26060509587E-01  0.72457420795E-01  0.10292508152E+00  0.13008301724E+00  0.19969751594E-01 0.  0.
         14    1    1    2    0    0  0.22286431314E-01 -0.70122829081E-02  0.74733981652E-02  0.24529753615E-01  0.00000000000E+00 0. -1.
     999901    1    3    3    0    0  0.37740782733E-02 -0.65445137887E-01 -0.11039847969E+00  0.88931722915E+00  0.88000000000E+00 0. -1.
        -11    1    4    4    0    0 -0.24312117025E-01  0.46758976893E-01  0.78712304271E-01  0.94727867700E-01  0.51100000000E-03 0. -1.
         11    1    4    4    0    0 -0.17483925615E-02  0.25698443902E-01  0.24212777254E-01  0.35355149538E-01  0.51100000000E-03 0.  1.
</event>
<event>
 8    1  0.1072332E+005  0.1043930E+01  0.7957747E-01            NaN
         13   -1    0    0    0    0  0.00000000000E+00  0.00000000000E+00  0.74505805969E-08  0.10566000000E+00  0.10566000000E+00 0.  1.
     999900   -1    0    0    0    0 -0.00000000000E+00 -0.00000000000E+00 -0.74505805969E-08  0.93827000000E+00  0.93827000000E+00 0.  1.
     999902    2    1    2    0    0  0.14043469089E-01 -0.17478867088E-01 -0.78498863477E-02  0.10201739369E+01  0.10198973041E+01 0.  0.
     999903    2    3    3    0    0 -0.11114314483E+00 -0.63460638279E-01  0.10315316929E-01  0.12994026746E+00  0.19950340596E-01 0.  0.
         14    1    1    2    0    0 -0.14043469089E-01  0.17478867088E-01  0.78498863477E-02  0.23756063108E-01  0.00000000000E+00 0. -1.
     999901    1    3    3    0    0  0.12518661392E+00  0.45981771191E-01 -0.18165203276E-01  0.89023366944E+00  0.88000000000E+00 0.  1.
        -11    1    4    4    0    0 -0.66619160220E-01 -0.49046150103E-01  0.67348775883E-02  0.83001548452E-01  0.51100000000E-03 0. -1.
         11    1    4    4    0    0 -0.44523984610E-01 -0.14414488177E-01  0.35804393404E-02  0.46938719005E-01  0.51100000000E-03 0.  1.
</event>
<event>
 8    1  0.1072332E+005  0.1043930E+01  0.7957747E-01            NaN
         13   -1    0    0    0    0  0.00000000000E+00  0.00000000000E+00  0.74505805969E-08  0.10566000000E+00  0.10566000000E+00 0.  1.
     999900   -1    0    0    0    0 -0.00000000000E+00 -0.00000000000E+00 -0.74505805969E-08  0.93827000000E+00  0.93827000000E+00 0. -1.
     999902    2    1    2    0    0 -0.13040920871E-02  0.11486928808E-01 -0.21569566203E-01  0.10194576406E+01  0.10191638654E+01 0.  0.
     999903    2    3    3    0    0 -0.36020251497E-01 -0.91924636016E-01 -0.83005704569E-01  0.13059681763E+00  0.20444670710E-01 0.  0.
         14    1    1    2    0    0  0.13040920871E-02 -0.11486928808E-01  0.21569566203E-01  0.24472359424E-01  0.00000000000E+00 0.  1.
     999901    1    3    3    0    0  0.34716159410E-01  0.10341156482E+00  0.61436138366E-01  0.88886082294E+00  0.88000000000E+00 0.  1.
        -11    1    4    4    0    0 -0.20351790946E-01 -0.33503267037E-01 -0.23299358004E-01  0.45604665346E-01  0.51100000000E-03 0.  1.
         11    1    4    4    0    0 -0.15668460551E-01 -0.58421368979E-01 -0.59706346565E-01  0.84992152288E-01  0.51100000000E-03 0. -1.
</event>
<event>
 8    1  0.1072332E+005  0.1043930E+01  0.7957747E-01            NaN
         13   -1    0    0    0    0  0.00000000000E+00  0.00000000000E+00  0.74505805969E-08  0.10566000000E+00  0.10566000000E+00 0.  1.
     999900   -1    0    0    0    0 -0.00000000000E+00 -0.00000000000E+00 -0.74505805969E-08  0.93827000000E+00  0.93827000000E+00 0. -1.
     999902    2    1    2    0    0 -0.20146334251E-01  0.12384060489E-01 -0.20433527499E-02  0.10201936349E+01  0.10199174661E+01 0.  0.
     999903    2    3    3    0    0 -0.11459739808E+00 -0.33211052347E-01  0.50457195698E-01  0.13241200332E+00  0.27412996553E-01 0.  0.
         14    1    1    2    0    0  0.20146334251E-01 -0.12384060489E-01  0.20433527499E-02  0.23736365105E-01  0.00000000000E+00 0. -1.
     999901    1    3    3    0    0  0.94451063832E-01  0.45595112836E-01 -0.52500548448E-01  0.88778163157E+00  0.88000000000E+00 0. -1.
        -11    1    4    4    0    0 -0.87154282992E-01 -0.19677232196E-01  0.48697401036E-01  0.10175834363E+00  0.51100000000E-03 0.  1.
         11    1    4    4    0    0 -0.27443115092E-01 -0.13533820151E-01  0.17597946618E-02  0.30653659685E-01  0.51100000000E-03 0. -1.
</event>
<event>
 8    1  0.1072332E+005  0.1043930E+01  0.7957747E-01            NaN
         13   -1    0    0    0    0  0.00000000000E+00  0.00000000000E+00  0.74505805969E-08  0.10566000000E+00  0.10566000000E+00 0.  1.
     999900   -1    0    0    0    0 -0.00000000000E+00 -0.00000000000E+00 -0.74505805969E-08  0.93827000000E+00  0.93827000000E+00 0.  1.
     999902    2    1    2    0    0  0.19915353893E-01 -0.77406495915E-02 -0.25112475137E-02  0.10224161593E+01  0.10221897855E+01 0.  0.
     999903    2    3    3    0    0  0.88488520865E-01  0.19923263616E-01 -0.97540577382E-01  0.13421677581E+00  0.16517382234E-01 0.  0.
         14    1    1    2    0    0 -0.19915353893E-01  0.77406495915E-02  0.25112475137E-02  0.21513840681E-01  0.00000000000E+00 0. -1.
     999901    1    3    3    0    0 -0.68573166972E-01 -0.27663913207E-01  0.95029329869E-01  0.88819938350E+00  0.88000000000E+00 0. -1.
        -11    1    4    4    0    0  0.41788271705E-01  0.17238012003E-01 -0.43433308351E-01  0.62690685953E-01  0.51100000000E-03 0. -1.
         11    1    4    4    0    0  0.46700249160E-01  0.26852516127E-02 -0.54107269031E-01  0.71526089861E-01  0.51100000000E-03 0.  1.
</event>
<event>
 8    1  0.1072332E+005  0.1043930E+01  0.7957747E-01            NaN
         13   -1    0    0    0    0  0.00000000000E+00  0.00000000000E+00  0.74505805969E-08  0.10566000000E+00  0.10566000000E+00 0.  1.
     999900   -1    0    0    0    0 -0.00000000000E+00 -0.00000000000E+00 -0.74505805969E-08  0.93827000000E+00  0.93827000000E+00 0.  1.
     999902    2    1    2    0    0 -0.18271355967E-01 -0.10395479516E-02 -0.14785843341E-01  0.10204024784E+01  0.10201312041E+01 0.  0.
     999903    2    3    3    0    0  0.84942987759E-01  0.73026905827E-01 -0.62905214976E-01  0.12997869489E+00  0.19727009685E-01 0.  0.
         14    1    1    2    0    0  0.18271355967E-01  0.10395479516E-02  0.14785843341E-01  0.23527521589E-01  0.00000000000E+00 0.  1.
     999901    1    3    3    0    0 -0.10321434373E+00 -0.74066453779E-01  0.48119371635E-01  0.89042378352E+00  0.88000000000E+00 0. -1.
        -11    1    4    4    0    0  0.19367566580E-01  0.27942884753E-01 -0.22026783611E-01  0.40513550336E-01  0.51100000000E-03 0.  1.
         11    1    4    4    0    0  0.65575421179E-01  0.45084021074E-01 -0.40878431365E-01  0.89465144558E-01  0.51100000000E-03 0. -1.
</event>
<event>
 8    1  0.1072332E+005  0.1043930E+01  0.7957747E-01            NaN
         13   -1    0    0    0    0  0.00000000000E+00  0.00000000000E+00  0.74505805969E-08  0.10566000000E+00  0.10566000000E+00 0.  1.
     999900   -1    0    0    0    0 -0.00000000000E+00 -0.00000000000E+00 -0.74505805969E-08  0.93827000000E+00  0.93827000000E+00 0. -1.
     999902    2    1    2    0    0  0.16754164899E-01  0.42768021172E-02 -0.15430491406E-01  0.10207547299E+01  0.10204916097E+01 0.  0.
     999903    2    3    3    0    0 -0.11133300035E+00 -0.58490045753E-01  0.18257428933E-01  0.12863317147E+00  0.19925779080E-01 0.  0.
         14    1    1    2    0    0 -0.16754164899E-01 -0.42768021172E-02  0.15430491406E-01  0.23175270071E-01  0.00000000000E+00 0.  1.
     999901    1    3    3    0    0  0.12808716525E+00  0.62766847870E-01 -0.33687920339E-01  0.89212155846E+00  0.88000000000E+00 0.  1.
        -11    1    4    4    0    0 -0.50364402649E-01 -0.15401042220E-01  0.71946301980E-02  0.53158150648E-01  0.51100000000E-03 0.  1.
         11    1    4    4    0    0 -0.60968597700E-01 -0.43089003533E-01  0.11062798735E-01  0.75475020821E-01  0.51100000000E-03 0. -1.
</event>
<event>
 8    1  0.1072332E+005  0.1043930E+01  0.7957747E-01            NaN
         13   -1    0    0    0    0  0.00000000000E+00  0.00000000000E+00  0.74505805969E-08  0.10566000000E+00  0.10566000000E+00 0. -1.
     999900   -1    0    0    0    0 -0.00000000000E+00 -0.00000000000E+00 -0.74505805969E-08  0.93827000000E+00  0.93827000000E+00 0. -1.
     999902    2    1    2    0    0 -0.66751286376E-02  0.14496777113E-01  0.10529822140E-01  0.10248095648E+01  0.10246311790E+01 0.  0.
     999903    2    3    3    0    0 -0.88138051921E-01 -0.31132233371E-01 -0.93675339923E-01  0.13375573348E+00  0.19442087769E-01 0.  0.
         14    1    1    2    0    0  0.66751286376E-02 -0.14496777113E-01 -0.10529822140E-01  0.19120435227E-01  0.00000000000E+00 0.  1.
     999901    1    3    3    0    0  0.81462923284E-01  0.45629010484E-01  0.10420516206E+00  0.89105383130E+00  0.88000000000E+00 0.  1.
        -11    1    4    4    0    0 -0.16557421866E-01 -0.14432575651E-01 -0.21506046697E-01  0.30744408017E-01  0.51100000000E-03 0. -1.
         11    1    4    4    0    0 -0.71580630056E-01 -0.16699657720E-01 -0.72169293226E-01  0.10301132546E+00  0.51100000000E-03 0.  1.
</event>
<event>
 8    1  0.1072332E+005  0.1043930E+01  0.7957747E-01            NaN
         13   -1    0    0    0    0  0.00000000000E+00  0.00000000000E+00  0.74505805969E-08  0.10566000000E+00  0.10566000000E+00 0.  1.
     999900   -1    0    0    0    0 -0.00000000000E+00 -0.00000000000E+00 -0.74505805969E-08  0.93827000000E+00  0.93827000000E+00 0.  1.
     999902    2    1    2    0    0 -0.17818985012E-01  0.40107733715E-02  0.14743745185E-01  0.10204570251E+01  0.10201870218E+01 0.  0.
     999903    2    3    3    0    0  0.11800433515E+00 -0.29333053796E-01  0.38492198426E-01  0.12909639427E+00  0.19969439547E-01 0.  0.
         14    1    1    2    0    0  0.17818985012E-01 -0.40107733715E-02 -0.14743745185E-01  0.23472974928E-01  0.00000000000E+00 0. -1.
     999901    1    3    3    0    0 -0.13582332016E+00  0.33343827168E-01 -0.23748453241E-01  0.89136063080E+00  0.88000000000E+00 0.  1.
        -11    1    4    4    0    0  0.78152751114E-01 -0.96587074120E-02  0.23261483209E-01  0.82112732616E-01  0.51100000000E-03 0.  1.
         11    1    4    4    0    0  0.39851584033E-01 -0.19674346384E-01  0.15230715217E-01  0.46983661656E-01  0.51100000000E-03 0. -1.
</event>
<event>
 8    1  0.1072332E+005  0.1043930E+01  0.7957747E-01            NaN
         13   -1    0    0    0    0  0.00000000000E+00  0.00000000000E+00  0.74505805969E-08  0.10566000000E+00  0.10566000000E+00 0.  1.
     999900   -1    0    0    0    0 -0.00000000000E+00 -0.00000000000E+00 -0.74505805969E-08  0.93827000000E+00  0.93827000000E+00 0. -1.
     999902    2    1    2    0    0 -0.16302087155E-01  0.14403423727E-01  0.97013301202E-02  0.10201112581E+01  0.10198331463E+01 0.  0.
     999903    2    3    3    0    0 -0.13812868251E-01  0.10965410270E+00 -0.68606772878E-01  0.13151064641E+00  0.19322092743E-01 0.  0.
         14    1    1    2    0    0  0.16302087155E-01 -0.14403423727E-01 -0.97013301202E-02  0.23818741922E-01  0.00000000000E+00 0. -1.
     999901    1    3    3    0    0 -0.24892189034E-02 -0.95250678970E-01  0.78308102998E-01  0.88860061166E+00  0.88000000000E+00 0.  1.
        -11    1    4    4    0    0 -0.54444397327E-02  0.90624045915E-01 -0.50221718671E-01  0.10375375545E+00  0.51100000000E-03 0. -1.
         11    1    4    4    0    0 -0.83684285186E-02  0.19030056781E-01 -0.18385054207E-01  0.27756890967E-01  0.51100000000E-03 0.  1.
</event>
<event>
 8    1  0.1072332E+005  0.1043930E+01  0.7957747E-01            NaN
         13   -1    0    0    0    0  0.00000000000E+00  0.00000000000E+00  0.74505805969E-08  0.10566000000E+00  0.10566000000E+00 0.  1.
     999900   -1    0    0    0    0 -0.00000000000E+00 -0.00000000000E+00 -0.74505805969E-08  0.93827000000E+00  0.93827000000E+00 0.  1.
     999902    2    1    2    0    0 -0.13748131030E-01 -0.19313131725E-01  0.17950493480E-02  0.10201554261E+01  0.10198783569E+01 0.  0.
     999903    2    3    3    0    0  0.64499010641E-01  0.10849997706E+00 -0.67679372196E-02  0.12744487348E+00  0.16248797039E-01 0.  0.
         14    1    1    2    0    0  0.13748131030E-01  0.19313131725E-01 -0.17950493480E-02  0.23774573940E-01  0.00000000000E+00 0.  1.
     999901    1    3    3    0    0 -0.78247141671E-01 -0.12781310879E+00  0.85629865676E-02  0.89271055258E+00  0.88000000000E+00 0. -1.
        -11    1    4    4    0    0  0.22393770552E-01  0.53234141456E-01 -0.16814408442E-02  0.57779262200E-01  0.51100000000E-03 0. -1.
         11    1    4    4    0    0  0.42105240089E-01  0.55265835605E-01 -0.50864963754E-02  0.69665611275E-01  0.51100000000E-03 0.  1.
</event>
<event>
 8    1  0.1072332E+005  0.1043930E+01  0.7957747E-01            NaN
         13   -1    0    0    0    0  0.00000000000E+00  0.00000000000E+00  0.74505805969E-08  0.10566000000E+00  0.10566000000E+00 0. -1.
     999900   -1    0    0    0    0 -0.00000000000E+00 -0.00000000000E+00 -0.74505805969E-08  0.93827000000E+00  0.93827000000E+00 0. -1.
     999902    2    1    2    0    0  0.14892943891E-01 -0.15480944406E-02 -0.18989676212E-01  0.10197472752E+01  0.10194604952E+01 0.  0.
     999903    2    3    3    0    0 -0.10217399923E+00 -0.74900964721E-01 -0.16469458579E-01  0.12896578450E+00  0.17642275129E-01 0.  0.
         14    1    1    2    0    0 -0.14892943891E-01  0.15480944406E-02  0.18989676212E-01  0.24182724759E-01  0.00000000000E+00 0. -1.
     999901    1    3    3    0    0  0.11706694312E+00  0.73352870281E-01 -0.25202176324E-02  0.89078149074E+00  0.88000000000E+00 0. -1.
        -11    1    4    4    0    0 -0.68366041441E-01 -0.43692653090E-01 -0.37345409166E-02  0.81222973801E-01  0.51100000000E-03 0. -1.
         11    1    4    4    0    0 -0.33807957786E-01 -0.31208311632E-01 -0.12734917663E-01  0.47742810699E-01  0.51100000000E-03 0.  1.
</event>
<event>
 8    1  0.1072332E+005  0.1043930E+01  0.7957747E-01            NaN
         13   -1    0    0    0    0  0.00000000000E+00  0.00000000000E+00  0.74505805969E-08  0.10566000000E+00  0.10566000000E+00 0.  1.
     999900   -1    0    0    0    0 -0.00000000000E+00 -0.00000000000E+00 -0.74505805969E-08  0.93827000000E+00  0.93827000000E+00 0. -1.
     999902    2    1    2    0    0  0.16942607857E-02  0.23158652241E-01  0.57080876693E-02  0.10200181628E+01  0.10197378469E+01 0.  0.
     999903    2    3    3    0    0 -0.95637985927E-01  0.69029008842E-01  0.55645635449E-01  0.13205903393E+00  0.20773138551E-01 0.  0.
         14    1    1    2    0    0 -0.16942607857E-02 -0.23158652241E-01 -0.57080876693E-02  0.23911837196E-01  0.00000000000E+00 0. -1.
     999901    1    3    3    0    0  0.97332246713E-01 -0.45870356601E-01 -0.49937547780E-01  0.88795912887E+00  0.88000000000E+00 0. -1.
        -11    1    4    4    0    0 -0.18099276769E-01  0.19835135193E-01  0.54411324308E-02  0.27402252660E-01  0.51100000000E-03 0.  1.
         11    1    4    4    0    0 -0.77538709158E-01  0.49193873649E-01  0.50204503018E-01  0.10465678127E+00  0.51100000000E-03 0. -1.
</event>
<event>
 8    1  0.1072332E+005  0.1043930E+01  0.7957747E-01            NaN
         13   -1    0    0    0    0  0.00000000000E+00  0.00000000000E+00  0.74505805969E-08  0.10566000000E+00  0.10566000000E+00 0.  1.
     999900   -1    0    0    0    0 -0.00000000000E+00 -0.00000000000E+00 -0.74505805969E-08  0.93827000000E+00  0.93827000000E+00 0. -1.
     999902    2    1    2    0    0 -0.17313635510E-02 -0.23332965148E-01  0.10173027552E-02  0.10205107817E+01  0.10202420280E+01 0.  0.
     999903    2    3    3    0    0  0.93225175747E-01  0.66812548411E-01 -0.55776743207E-01  0.12901287274E+00  0.19453180496E-01 0.  0.
         14    1    1    2    0    0  0.17313635510E-02  0.23332965148E-01 -0.10173027552E-02  0.23419218331E-01  0.00000000000E+00 0. -1.
     999901    1    3    3    0    0 -0.94956539298E-01 -0.90145513559E-01  0.56794045963E-01  0.89149790893E+00  0.88000000000E+00 0.  1.
        -11    1    4    4    0    0  0.17647081311E-01  0.11187590834E-01 -0.23632791837E-02  0.21033969596E-01  0.51100000000E-03 0.  1.
         11    1    4    4    0    0  0.75578094435E-01  0.55624957577E-01 -0.53413464024E-01  0.10797890314E+00  0.51100000000E-03 0. -1.
</event>
<event>
 8    1  0.1072332E+005  0.1043930E+01  0.7957747E-01            NaN
         13   -1    0    0    0    0  0.00000000000E+00  0.00000000000E+00  0.74505805969E-08  0.10566000000E+00  0.10566000000E+00 0.  1.
     999900   -1    0    0    0    0 -0.00000000000E+00 -0.00000000000E+00 -0.74505805969E-08  0.93827000000E+00  0.93827000000E+00 0. -1.
     999902    2    1    2    0    0  0.19358862299E-01 -0.44721669290E-02  0.11827049193E-01  0.10208076100E+01  0.10205457029E+01 0.  0.
     999903    2    3    3    0    0 -0.69656329479E-01 -0.99384984756E-01  0.43973821549E-01  0.13065843019E+00  0.20212594238E-01 0.  0.
         14    1    1    2    0    0 -0.19358862299E-01  0.44721669290E-02 -0.11827049193E-01  0.23122389996E-01  0.00000000000E+00 0.  1.
     999901    1    3    3    0    0  0.89015191778E-01  0.94912817827E-01 -0.32146772356E-01  0.89014917982E+00  0.88000000000E+00 0. -1.
        -11    1    4    4    0    0 -0.69944405825E-01 -0.93104536376E-01  0.39672815624E-01  0.12302385143E+00  0.51100000000E-03 0.  1.
         11    1    4    4    0    0  0.28807634597E-03 -0.62804483804E-02  0.43010059249E-02  0.76345787576E-02  0.51100000000E-03 0. -1.
</event>
<event>
 8    1  0.1072332E+005  0.1043930E+01  0.7957747E-01            NaN
         13   -1    0    0    0    0  0.00000000000E+00  0.00000000000E+00  0.74505805969E-08  0.10566000000E+00  0.10566000000E+00 0. -1.
     999900   -1    0    0    0    0 -0.00000000000E+00 -0.00000000000E+00 -0.74505805969E-08  0.93827000000E+00  0.93827000000E+00 0.  1.
     999902    2    1    2    0    0 -0.56662324999E-02 -0.14214468294E-01 -0.15687934537E-01  0.10220149689E+01  0.10217799802E+01 0.  0.
     999903    2    3    3    0    0  0.10005264883E+00  0.16322152932E-01  0.78828170175E-01  0.13013927060E+00  0.21104599636E-01 0.  0.
         14    1    1    2    0    0  0.56662324999E-02  0.14214468294E-01  0.15687934537E-01  0.21915031135E-01  0.00000000000E+00 0. -1.
     999901    1    3    3    0    0 -0.10571888133E+00 -0.30536621225E-01 -0.94516104712E-01  0.89187569826E+00  0.88000000000E+00 0.  1.
        -11    1    4    4    0    0  0.73774600416E-01  0.29182512170E-02  0.52500056447E-01  0.90596494991E-01  0.51100000000E-03 0. -1.
         11    1    4    4    0    0  0.26278048410E-01  0.13403901715E-01  0.26328113728E-01  0.39542775610E-01  0.51100000000E-03 0.  1.
</event>
<event>
 8    1  0.1072332E+005  0.1043930E+01  0.7957747E-01            NaN
         13   -1    0    0    0    0  0.00000000000E+00  0.00000000000E+00  0.74505805969E-08  0.10566000000E+00  0.10566000000E+00 0. -1.
     999900   -1    0    0    0    0 -0.00000000000E+00 -0.00000000000E+00 -0.74505805969E-08  0.93827000000E+00  0.93827000000E+00 0. -1.
     999902    2    1    2    0    0  0.23552372523E-01 -0.29637074754E-02 -0.54987351348E-03  0.10201855233E+01  0.10199091635E+01 0.  0.
     999903    2    3    3    0    0  0.95925267477E-01  0.60042074000E-01  0.66537566628E-01  0.13243088993E+00  0.17435172615E-01 0.  0.
         14    1    1    2    0    0 -0.23552372523E-01  0.29637074754E-02  0.54987351348E-03  0.23744476712E-01  0.00000000000E+00 0. -1.
     999901    1    3    3    0    0 -0.72372894955E-01 -0.63005781476E-01 -0.67087440141E-01  0.88775463336E+00  0.88000000000E+00 0. -1.
        -11    1    4    4    0    0  0.26658646190E-01  0.87585375051E-02  0.20187305235E-01  0.34571430540E-01  0.51100000000E-03 0.  1.
         11    1    4    4    0    0  0.69266621287E-01  0.51283536495E-01  0.46350261393E-01  0.97859459390E-01  0.51100000000E-03 0. -1.
</event>
<event>
 8    1  0.1072332E+005  0.1043930E+01  0.7957747E-01            NaN
         13   -1    0    0    0    0  0.00000000000E+00  0.00000000000E+00  0.74505805969E-08  0.10566000000E+00  0.10566000000E+00 0.  1.
     999900   -1    0    0    0    0 -0.00000000000E+00 -0.00000000000E+00 -0.74505805969E-08  0.93827000000E+00  0.93827000000E+00 0.  1.
     999902    2    1    2    0    0  0.17095829023E-01  0.10320187592E-01 -0.12807155862E-01  0.10202066595E+01  0.10199307973E+01 0.  0.
     999903    2    3    3    0    0 -0.90710299974E-01  0.68263577792E-01  0.56641795008E-01  0.12902611963E+00  0.23477053269E-01 0.  0.
         14    1    1    2    0    0 -0.17095829023E-01 -0.10320187592E-01  0.12807155862E-01  0.23723340473E-01  0.00000000000E+00 0.  1.
     999901    1    3    3    0    0  0.10780612900E+00 -0.57943390200E-01 -0.69448950870E-01  0.89118053990E+00  0.88000000000E+00 0. -1.
        -11    1    4    4    0    0 -0.43358722406E-01  0.37398302248E-01  0.40841300546E-01  0.70334093944E-01  0.51100000000E-03 0. -1.
         11    1    4    4    0    0 -0.47351577568E-01  0.30865275544E-01  0.15800494462E-01  0.58692025684E-01  0.51100000000E-03 0.  1.
</event>
<event>
 8    1  0.1072332E+005  0.1043930E+01  0.7957747E-01            NaN
         13   -1    0    0    0    0  0.00000000000E+00  0.00000000000E+00  0.74505805969E-08  0.10566000000E+00  0.10566000000E+00 0. -1.
     999900   -1    0    0    0    0 -0.00000000000E+00 -0.00000000000E+00 -0.74505805969E-08  0.93827000000E+00  0.93827000000E+00 0.  1.
     999902    2    1    2    0    0 -0.61675887242E-02 -0.22039673245E-01 -0.41883135489E-02  0.10206635366E+01  0.10203983177E+01 0.  0.
     999903    2    3    3    0    0  0.57625781071E-01 -0.10504118539E+00  0.53301592230E-01  0.13259600861E+00  0.19653510954E-01 0.  0.
         14    1    1    2    0    0  0.61675887242E-02  0.22039673245E-01  0.41883135489E-02  0.23266463371E-01  0.00000000000E+00 0. -1.
     999901    1    3    3    0    0 -0.63793369795E-01  0.83001512150E-01 -0.57489905778E-01  0.88806752802E+00  0.88000000000E+00 0.  1.
        -11    1    4    4    0    0  0.32098121209E-01 -0.75663016690E-01  0.40452321411E-01  0.91606947926E-01  0.51100000000E-03 0.  1.
         11    1    4    4    0    0  0.25527659862E-01 -0.29378168705E-01  0.12849270819E-01  0.40989060688E-01  0.51100000000E-03 0. -1.
</event>
<event>
 8    1  0.1072332E+005  0.1043930E+01  0.7957747E-01            NaN
         13   -1    0    0    0    0  0.00000000000E+00  0.00000000000E+00  0.74505805969E-08  0.10566000000E+00  0.10566000000E+00 0. -1.
     999900   -1    0    0    0    0 -0.00000000000E+00 -0.00000000000E+00 -0.74505805969E-08  0.93827000000E+00  0.93827000000E+00 0.  1.
     999902    2    1    2    0    0  0.47570741891E-02 -0.57036761280E-02  0.25021076124E-01  0.10178298865E+01  0.10174951901E+01 0.  0.
     999903    2    3    3    0    0  0.17416790022E-01 -0.77125710093E-01 -0.95921927732E-01  0.12660119218E+00  0.23981782848E-01 0.  0.
         14    1    1    2    0    0 -0.47570741891E-02  0.57036761280E-02 -0.25021076124E-01  0.26100113536E-01  0.00000000000E+00 0.  1.
     999901    1    3    3    0    0 -0.12659715833E-01  0.71422033965E-01  0.12094300386E+00  0.89122869429E+00  0.88000000000E+00 0. -1.
        -11    1    4    4    0    0  0.12684771180E-01 -0.26557803661E-01 -0.21301428650E-01  0.36335001565E-01  0.51100000000E-03 0.  1.
         11    1    4    4    0    0  0.47320188421E-02 -0.50567906432E-01 -0.74620499081E-01  0.90266190611E-01  0.51100000000E-03 0. -1.
</event>
<event>
 8    1  0.1072332E+005  0.1043930E+01  0.7957747E-01            NaN
         13   -1    0    0    0    0  0.00000000000E+00  0.00000000000E+00  0.74505805969E-08  0.10566000000E+00  0.10566000000E+00 0.  1.
     999900   -1    0    0    0    0 -0.00000000000E+00 -0.00000000000E+00 -0.74505805969E-08  0.93827000000E+00  0.93827000000E+00 0.  1.
     999902    2    1    2    0    0 -0.20483123785E-01 -0.54627217226E-02  0.78957878478E-02  0.10213082593E+01  0.10210576954E+01 0.  0.
     999903    2    3    3    0    0 -0.42230161266E-01  0.93404880543E-01  0.81461835886E-01  0.13245523437E+00  0.20012500524E-01 0.  0.
         14    1    1    2    0    0  0.20483123785E-01  0.54627217226E-02 -0.78957878478E-02  0.22621740745E-01  0.00000000000E+00 0. -1.
     999901    1    3    3    0    0  0.21747037482E-01 -0.98867602266E-01 -0.73566048038E-01  0.88885302488E+00  0.88000000000E+00 0.  1.
        -11    1    4    4    0    0 -0.24359245230E-01  0.58644068910E-01  0.38017207198E-01  0.74013977130E-01  0.51100000000E-03 0. -1.
         11    1    4    4    0    0 -0.17870916036E-01  0.34760811633E-01  0.43444628688E-01  0.58441257243E-01  0.51100000000E-03 0.  1.
</event>
<event>
 8    1  0.1072332E+005  0.1043930E+01  0.7957747E-01            NaN
         13   -1    0    0    0    0  0.00000000000E+00  0.00000000000E+00  0.74505805969E-08  0.10566000000E+00  0.10566000000E+00 0. -1.
     999900   -1    0    0    0    0 -0.00000000000E+00 -0.00000000000E+00 -0.74505805969E-08  0.93827000000E+00  0.93827000000E+00 0.  1.
     999902    2    1    2    0    0 -0.13061635987E-01  0.17616124060E-01 -0.92696608668E-02  0.10201211618E+01  0.10198432841E+01 0.  0.
     999903    2    3    3    0    0 -0.47049473558E-01 -0.10736543147E+00 -0.51694887748E-01  0.12962946497E+00  0.19759755427E-01 0.  0.
         14    1    1    2    0    0  0.13061635987E-01 -0.17616124060E-01  0.92696608668E-02  0.23808838152E-01  0.00000000000E+00 0. -1.
     999901    1    3    3    0    0  0.33987837571E-01  0.12498155553E+00  0.42425226881E-01  0.89049169687E+00  0.88000000000E+00 0. -1.
        -11    1    4    4    0    0 -0.26812341794E-01 -0.37925134242E-01 -0.17680365639E-01  0.49699838328E-01  0.51100000000E-03 0. -1.
         11    1    4    4    0    0 -0.20237131764E-01 -0.69440297224E-01 -0.34014522109E-01  0.79929626647E-01  0.51100000000E-03 0.  1.
</event>
<event>
 8    1  0.1072332E+005  0.1043930E+01  0.7957747E-01            NaN
         13   -1    0    0    0    0  0.00000000000E+00  0.00000000000E+00  0.74505805969E-08  0.10566000000E+00  0.10566000000E+00 0.  1.
     999900   -1    0    0    0    0 -0.00000000000E+00 -0.00000000000E+00 -0.74505805969E-08  0.93827000000E+00  0.93827000000E+00 0.  1.
     999902    2    1    2    0    0 -0.41525456148E-02  0.52671311189E-02  0.23799758635E-01  0.10192031964E+01  0.10189032048E+01 0.  0.
     999903    2    3    3    0    0 -0.13734806269E-01 -0.69302975327E-01  0.10941757412E+00  0.13185719239E+00  0.20556419152E-01 0.  0.
         14    1    1    2    0    0  0.41525456148E-02 -0.52671311189E-02 -0.23799758635E-01  0.24726803602E-01  0.00000000000E+00 0. -1.
     999901    1    3    3    0    0  0.95822606537E-02  0.74570106446E-01 -0.85617815481E-01  0.88734600400E+00  0.88000000000E+00 0.  1.
        -11    1    4    4    0    0 -0.16655483311E-01 -0.39755545320E-01  0.73978266521E-01  0.85620987769E-01  0.51100000000E-03 0. -1.
         11    1    4    4    0    0  0.29206770425E-02 -0.29547430007E-01  0.35439307594E-01  0.46236204625E-01  0.51100000000E-03 0.  1.
</event>
<event>
 8    1  0.1072332E+005  0.1043930E+01  0.7957747E-01            NaN
         13   -1    0    0    0    0  0.00000000000E+00  0.00000000000E+00  0.74505805969E-08  0.10566000000E+00  0.10566000000E+00 0.  1.
     999900   -1    0    0    0    0 -0.00000000000E+00 -0.00000000000E+00 -0.74505805969E-08  0.93827000000E+00  0.93827000000E+00 0. -1.
     999902    2    1    2    0    0 -0.12829935042E-01 -0.24409688042E-01 -0.25808987245E-02  0.10162334092E+01  0.10158559154E+01 0.  0.
     999903    2    3    3    0    0 -0.23940560930E-01 -0.12658432208E+00  0.19294710971E-02  0.13024049429E+00  0.19029514952E-01 0.  0.
         14    1    1    2    0    0  0.12829935042E-01  0.24409688042E-01  0.25808987245E-02  0.27696590796E-01  0.00000000000E+00 0.  1.
     999901    1    3    3    0    0  0.11110625888E-01  0.10217463404E+00 -0.45103698216E-02  0.88599291492E+00  0.88000000000E+00 0.  1.
        -11    1    4    4    0    0 -0.19022890851E-01 -0.53717313687E-01 -0.27628391344E-02  0.57055364052E-01  0.51100000000E-03 0.  1.
         11    1    4    4    0    0 -0.49176700793E-02 -0.72867008392E-01  0.46923102314E-02  0.73185130234E-01  0.51100000000E-03 0. -1.
</event>
<event>
 8    1  0.1072332E+005  0.1043930E+01  0.7957747E-01            NaN
         13   -1    0    0    0    0  0.00000000000E+00  0.00000000000E+00  0.74505805969E-08  0.10566000000E+00  0.10566000000E+00 0.  1.
     999900   -1    0    0    0    0 -0.00000000000E+00 -0.00000000000E+00 -0.74505805969E-08  0.93827000000E+00  0.93827000000E+00 0.  1.
     999902    2    1    2    0    0 -0.41960184764E-02 -0.15136695493E-01 -0.20234030263E-01  0.10183147291E+01  0.10179925076E+01 0.  0.
     999903    2    3    3    0    0 -0.59844272271E-01 -0.92487872226E-01 -0.69290608919E-01  0.13181234300E+00  0.20927538073E-01 0.  0.
         14    1    1    2    0    0  0.41960184764E-02  0.15136695493E-01  0.20234030263E-01  0.25615270879E-01  0.00000000000E+00 0.  1.
     999901    1    3    3    0    0  0.55648253795E-01  0.77351176733E-01  0.49056578656E-01  0.88650238612E+00  0.88000000000E+00 0. -1.
        -11    1    4    4    0    0 -0.27715155633E-01 -0.27623115587E-01 -0.30980722513E-01  0.49912249548E-01  0.51100000000E-03 0.  1.
         11    1    4    4    0    0 -0.32129116638E-01 -0.64864756639E-01 -0.38309886406E-01  0.81900093451E-01  0.51100000000E-03 0. -1.
</event>
<event>
 8    1  0.1072332E+005  0.1043930E+01  0.7957747E-01            NaN
         13   -1    0    0    0    0  0.00000000000E+00  0.00000000000E+00  0.74505805969E-08  0.10566000000E+00  0.10566000000E+00 0. -1.
     999900   -1    0    0    0    0 -0.00000000000E+00 -0.00000000000E+00 -0.74505805969E-08  0.93827000000E+00  0.93827000000E+00 0.  1.
     999902    2    1    2    0    0 -0.21101141878E-01  0.86980506374E-02 -0.52260093169E-02  0.10205157854E+01  0.10202471479E+01 0.  0.
     999903    2    3    3    0    0 -0.45079799348E-01 -0.48622973234E-01 -0.11260223354E+00  0.13181430044E+00  0.17302166548E-01 0.  0.
         14    1    1    2    0    0  0.21101141878E-01 -0.86980506374E-02  0.52260093169E-02  0.23414214632E-01  0.00000000000E+00 0.  1.
     999901    1    3    3    0    0  0.23978657470E-01  0.57321023871E-01  0.10737622422E+00  0.88870148493E+00  0.88000000000E+00 0. -1.
        -11    1    4    4    0    0 -0.11534530090E-01 -0.10469040570E-01 -0.42263145858E-01  0.45045319554E-01  0.51100000000E-03 0.  1.
         11    1    4    4    0    0 -0.33545269258E-01 -0.38153932664E-01 -0.70339087677E-01  0.86768980883E-01  0.51100000000E-03 0. -1.
</event>
<event>
 8    1  0.1072332E+005  0.1043930E+01  0.7957747E-01            NaN
         13   -1    0    0    0    0  0.00000000000E+00  0.00000000000E+00  0.74505805969E-08  0.10566000000E+00  0.10566000000E+00 0.  1.
     999900   -1    0    0    0    0 -0.00000000000E+00 -0.00000000000E+00 -0.74505805969E-08  0.93827000000E+00  0.93827000000E+00 0. -1.
     999902    2    1    2    0    0  0.10408470228E-01 -0.21287907600E-01  0.85721380895E-03  0.10202182713E+01  0.10199426822E+01 0.  0.
     999903    2    3    3    0    0 -0.84542699582E-01 -0.93181085478E-01 -0.33068136289E-01  0.13154775696E+00  0.19522499346E-01 0.  0.
         14    1    1    2    0    0 -0.10408470228E-01  0.21287907600E-01 -0.85721380895E-03  0.23711728700E-01  0.00000000000E+00 0. -1.
     999901    1    3    3    0    0  0.94951169810E-01  0.71893177878E-01  0.33925350098E-01  0.88867051434E+00  0.88000000000E+00 0.  1.
        -11    1    4    4    0    0 -0.21773947102E-01 -0.14723224379E-01 -0.19511825771E-02  0.26361834970E-01  0.51100000000E-03 0.  1.
         11    1    4    4    0    0 -0.62768752479E-01 -0.78457861099E-01 -0.31116953711E-01  0.10518592199E+00  0.51100000000E-03 0. -1.
</event>
<event>
 8    1  0.1072332E+005  0.1043930E+01  0.7957747E-01            NaN
         13   -1    0    0    0    0  0.00000000000E+00  0.00000000000E+00  0.74505805969E-08  0.10566000000E+00  0.10566000000E+00 0. -1.
     999900   -1    0    0    0    0 -0.00000000000E+00 -0.00000000000E+00 -0.74505805969E-08  0.93827000000E+00  0.93827000000E+00 0.  1.
     999902    2    1    2    0    0 -0.11779598208E-01  0.18792258793E-01  0.10568135647E-01  0.10193618618E+01  0.10190657544E+01 0.  0.
     999903    2    3    3    0    0  0.10251651232E+00 -0.35709334790E-01 -0.62828909245E-01  0.12727377712E+00  0.21595152617E-01 0.  0.
         14    1    1    2    0    0  0.11779598208E-01 -0.18792258793E-01 -0.10568135647E-01  0.24568138219E-01  0.00000000000E+00 0.  1.
     999901    1    3    3    0    0 -0.11429611053E+00  0.54501593583E-01  0.73397044892E-01  0.89208808466E+00  0.88000000000E+00 0.  1.
        -11    1    4    4    0    0  0.19578743953E-01 -0.95783397293E-02 -0.22794186846E-01  0.31542160384E-01  0.51100000000E-03 0.  1.
         11    1    4    4    0    0  0.82937768371E-01 -0.26130995061E-01 -0.40034722399E-01  0.95731616740E-01  0.51100000000E-03 0. -1.
</event>
<event>
 8    1  0.1072332E+005  0.1043930E+01  0.7957747E-01            NaN
         13   -1    0    0    0    0  0.00000000000E+00  0.00000000000E+00  0.74505805969E-08  0.10566000000E+00  0.10566000000E+00 0.  1.
     999900   -1    0    0    0    0 -0.00000000000E+00 -0.00000000000E+00 -0.74505805969E-08  0.93827000000E+00  0.93827000000E+00 0.  1.
     999902    2    1    2    0    0 -0.10222114819E-01  0.21750642256E-01  0.17025461518E-02  0.10198368322E+01  0.10195521976E+01 0.  0.
     999903    2    3    3    0    0  0.57843915693E-01  0.33749519911E-01  0.11003755972E+00  0.13050369288E+00  0.20928464551E-01 0.  0.
         14    1    1    2    0    0  0.10222114819E-01 -0.21750642256E-01 -0.17025461518E-02  0.24093167772E-01  0.00000000000E+00 0.  1.
     999901    1    3    3    0    0 -0.68066030512E-01 -0.11998877655E-01 -0.10833501357E+00  0.88933313935E+00  0.88000000000E+00 0.  1.
        -11    1    4    4    0    0  0.24382367932E-01  0.10015296491E-01  0.26215315516E-01  0.37179428699E-01  0.51100000000E-03 0. -1.
         11    1    4    4    0    0  0.33461547761E-01  0.23734223420E-01  0.83822244209E-01  0.93324264182E-01  0.51100000000E-03 0.  1.
</event>
<event>
 8    1  0.1072332E+005  0.1043930E+01  0.7957747E-01            NaN
         13   -1    0    0    0    0  0.00000000000E+00  0.00000000000E+00  0.74505805969E-08  0.10566000000E+00  0.10566000000E+00 0. -1.
     999900   -1    0    0    0    0 -0.00000000000E+00 -0.00000000000E+00 -0.74505805969E-08  0.93827000000E+00  0.93827000000E+00 0.  1.
     999902    2    1    2    0    0  0.11942964641E-01 -0.17877246438E-01  0.92110892296E-02  0.10205403760E+01  0.10202723090E+01 0.  0.
     999903    2    3    3    0    0  0.10497648190E+00 -0.26492614286E-01  0.74651117866E-01  0.13317807277E+00  0.21016405603E-01 0.  0.
         14    1    1    2    0    0 -0.11942964641E-01  0.17877246438E-01 -0.92110892296E-02  0.23389623969E-01  0.00000000000E+00 0. -1.
     999901    1    3    3    0    0 -0.93033517262E-01  0.86153678479E-02 -0.65440028636E-01  0.88736230326E+00  0.88000000000E+00 0.  1.
        -11    1    4    4    0    0  0.16096319026E-01  0.40056348207E-03  0.19031886145E-01  0.24934428979E-01  0.51100000000E-03 0. -1.
         11    1    4    4    0    0  0.88880162876E-01 -0.26893177768E-01  0.55619231721E-01  0.10824364379E+00  0.51100000000E-03 0.  1.
</event>
<event>
 8    1  0.1072332E+005  0.1043930E+01  0.7957747E-01            NaN
         13   -1    0    0    0    0  0.00000000000E+00  0.00000000000E+00  0.74505805969E-08  0.10566000000E+00  0.10566000000E+00 0.  1.
     999900   -1    0    0    0    0 -0.00000000000E+00 -0.00000000000E+00 -0.74505805969E-08  0.93827000000E+00  0.93827000000E+00 0. -1.
     999902    2    1    2    0    0 -0.11149631791E-01  0.24685278514E-02  0.21187578002E-01  0.10198609040E+01  0.10195768447E+01 0.  0.
     999903    2    3    3    0    0 -0.11306400846E+00  0.22200521033E-01 -0.57404307717E-01  0.13028090413E+00  0.20038121025E-01 0.  0.
         14    1    1    2    0    0  0.11149631791E-01 -0.24685278514E-02 -0.21187578002E-01  0.24069095962E-01  0.00000000000E+00 0. -1.
     999901    1    3    3    0    0  0.10191437667E+00 -0.19731993182E-01  0.78591885719E-01  0.88957999990E+00  0.88000000000E+00 0.  1.
        -11    1    4    4    0    0 -0.56497576029E-01  0.22023730339E-02 -0.22409350388E-01  0.60821596903E-01  0.51100000000E-03 0.  1.
         11    1    4    4    0    0 -0.56566432433E-01  0.19998147999E-01 -0.34994957329E-01  0.69459307232E-01  0.51100000000E-03 0. -1.
</event>
<event>
 8    1  0.1072332E+005  0.1043930E+01  0.7957747E-01            NaN
         13   -1    0    0    0    0  0.00000000000E+00  0.00000000000E+00  0.74505805969E-08  0.10566000000E+00  0.10566000000E+00 0. -1.
     999900   -1    0    0    0    0 -0.00000000000E+00 -0.00000000000E+00 -0.74505805969E-08  0.93827000000E+00  0.93827000000E+00 0.  1.
     999902    2    1    2    0    0 -0.80314084386E-02  0.11147671299E-01  0.19443784436E-01  0.10201217063E+01  0.10198438414E+01 0.  0.
     999903    2    3    3    0    0 -0.73452515039E-01  0.69750173761E-02 -0.10407390047E+00  0.12908076967E+00  0.19660760572E-01 0.  0.
         14    1    1    2    0    0  0.80314084386E-02 -0.11147671299E-01 -0.19443784436E-01  0.23808293725E-01  0.00000000000E+00 0.  1.
     999901    1    3    3    0    0  0.65421106600E-01  0.41726539226E-02  0.12351768490E+00  0.89104093661E+00  0.88000000000E+00 0.  1.
        -11    1    4    4    0    0 -0.12796334393E-01 -0.10558976373E-02 -0.32317843734E-01  0.34778804441E-01  0.51100000000E-03 0. -1.
         11    1    4    4    0    0 -0.60656180646E-01  0.80309150134E-02 -0.71756056732E-01  0.94301965225E-01  0.51100000000E-03 0.  1.
</event>
<event>
 8    1  0.1072332E+005  0.1043930E+01  0.7957747E-01            NaN
         13   -1    0    0    0    0  0.00000000000E+00  0.00000000000E+00  0.74505805969E-08  0.10566000000E+00  0.10566000000E+00 0.  1.
     999900   -1    0    0    0    0 -0.00000000000E+00 -0.00000000000E+00 -0.74505805969E-08  0.93827000000E+00  0.93827000000E+00 0. -1.
     999902    2    1    2    0    0  0.15286460527E-01 -0.17504892270E-01 -0.52279581220E-02  0.10201092386E+01  0.10198310791E+01 0.  0.
     999903    2    3    3    0    0 -0.11325793393E-02 -0.12918681895E+00 -0.22473201793E-01  0.13273117030E+00  0.20542683487E-01 0.  0.
         14    1    1    2    0    0 -0.15286460527E-01  0.17504892270E-01  0.52279581220E-02  0.23820761426E-01  0.00000000000E+00 0.  1.
     999901    1    3    3    0    0  0.16419039866E-01  0.11168192668E+00  0.17245243671E-01  0.88737806827E+00  0.88000000000E+00 0. -1.
        -11    1    4    4    0    0 -0.10708679735E-01 -0.72529886155E-01 -0.11094066867E-01  0.74152543099E-01  0.51100000000E-03 0. -1.
         11    1    4    4    0    0  0.95761003958E-02 -0.56656932795E-01 -0.11379134926E-01  0.58578627205E-01  0.51100000000E-03 0.  1.
</event>
<event>
 8    1  0.1072332E+005  0.1043930E+01  0.7957747E-01            NaN
         13   -1    0    0    0    0  0.00000000000E+00  0.00000000000E+00  0.74505805969E-08  0.10566000000E+00  0.10566000000E+00 0.  1.
     999900   -1    0    0    0    0 -0.00000000000E+00 -0.00000000000E+00 -0.74505805969E-08  0.93827000000E+00  0.93827000000E+00 0. -1.
     999902    2    1    2    0    0 -0.70859812370E-02  0.19193808750E-01 -0.12432646180E-01  0.10199887361E+01  0.10197077217E+01 0.  0.
     999903    2    3    3    0    0  0.10143058736E+00 -0.68074879894E-01  0.31997046738E-01  0.12793174956E+00  0.20502883261E-01 0.  0.
         14    1    1    2    0    0  0.70859812370E-02 -0.19193808750E-01  0.12432646180E-01  0.23941263865E-01  0.00000000000E+00 0.  1.
     999901    1    3    3    0    0 -0.10851656860E+00  0.87268688644E-01 -0.44429692918E-01  0.89205698657E+00  0.88000000000E+00 0. -1.
        -11    1    4    4    0    0  0.21802529206E-01 -0.13625103644E-01  0.15615386422E-01  0.30084799205E-01  0.51100000000E-03 0.  1.
         11    1    4    4    0    0  0.79628058153E-01 -0.54449776250E-01  0.16381660316E-01  0.97846950359E-01  0.51100000000E-03 0. -1.
</event>
<event>
 8    1  0.1072332E+005  0.1043930E+01  0.7957747E-01            NaN
         13   -1    0    0    0    0  0.00000000000E+00  0.00000000000E+00  0.74505805969E-08  0.10566000000E+00  0.10566000000E+00 0.  1.
     999900   -1    0    0    0    0 -0.00000000000E+00 -0.00000000000E+00 -0.74505805969E-08  0.93827000000E+00  0.93827000000E+00 0. -1.
     999902    2    1    2    0    0 -0.19222419342E-01  0.11656929878E-01  0.88921503704E-02  0.10197544802E+01  0.10194678730E+01 0.  0.
     999903    2    3    3    0    0 -0.67871696995E-01 -0.78113533006E-01 -0.75735588031E-01  0.12981777327E+00  0.20210978984E-01 0.  0.
         14    1    1    2    0    0  0.19222419342E-01 -0.11656929878E-01 -0.88921503704E-02  0.24175519804E-01  0.00000000000E+00 0.  1.
     999901    1    3    3    0    0  0.48649277652E-01  0.89770462884E-01  0.84627738402E-01  0.88993670692E+00  0.88000000000E+00 0.  1.
        -11    1    4    4    0    0 -0.93647786968E-02 -0.23840790501E-01 -0.19243125090E-01  0.32041244607E-01  0.51100000000E-03 0.  1.
         11    1    4    4    0    0 -0.58506918298E-01 -0.54272742505E-01 -0.56492462941E-01  0.97776528666E-01  0.51100000000E-03 0. -1.
</event>
<event>
 8    1  0.1072332E+005  0.1043930E+01  0.7957747E-01            NaN
         13   -1    0    0    0    0  0.00000000000E+00  0.00000000000E+00  0.74505805969E-08  0.10566000000E+00  0.10566000000E+00 0. -1.
     999900   -1    0    0    0    0 -0.00000000000E+00 -0.00000000000E+00 -0.74505805969E-08  0.93827000000E+00  0.93827000000E+00 0. -1.
     999902    2    1    2    0    0 -0.66236241615E-02  0.12874870898E-01 -0.18074477834E-01  0.10207713850E+01  0.10205086472E+01 0.  0.
     999903    2    3    3    0    0  0.78405778981E-01 -0.31941167869E-01 -0.99389561246E-01  0.13181097000E+00  0.18114705206E-01 0.  0.
         14    1    1    2    0    0  0.66236241615E-02 -0.12874870898E-01  0.18074477834E-01  0.23158614956E-01  0.00000000000E+00 0. -1.
     999901    1    3    3    0    0 -0.85029403142E-01  0.44816038767E-01  0.81315083412E-01  0.88896041505E+00  0.88000000000E+00 0.  1.
        -11    1    4    4    0    0  0.40853181578E-01 -0.86328407937E-02 -0.40439099898E-01  0.58129943289E-01  0.51100000000E-03 0.  1.
         11    1    4    4    0    0  0.37552597403E-01 -0.23308327076E-01 -0.58950461348E-01  0.73681026709E-01  0.51100000000E-03 0. -1.
</event>
<event>
 8    1  0.1072332E+005  0.1043930E+01  0.7957747E-01            NaN
         13   -1    0    0    0    0  0.00000000000E+00  0.00000000000E+00  0.74505805969E-08  0.10566000000E+00  0.10566000000E+00 0. -1.
     999900   -1    0    0    0    0 -0.00000000000E+00 -0.00000000000E+00 -0.74505805969E-08  0.93827000000E+00  0.93827000000E+00 0. -1.
     999902    2    1    2    0    0  0.56620926921E-02  0.21773560076E-01  0.86392858458E-02  0.10198305296E+01  0.10195457443E+01 0.  0.
     999903    2    3    3    0    0 -0.30548390772E-01  0.10672754539E+00  0.70165432273E-01  0.13286162069E+00  0.20125835241E-01 0.  0.
         14    1    1    2    0    0 -0.56620926921E-02 -0.21773560076E-01 -0.86392858458E-02  0.24099470367E-01  0.00000000000E+00 0.  1.
     999901    1    3    3    0    0  0.36210483464E-01 -0.84953985310E-01 -0.61526146427E-01  0.88696890894E+00  0.88000000000E+00 0. -1.
        -11    1    4    4    0    0 -0.19430417144E-01  0.66675883215E-01  0.55074326379E-01  0.88637785735E-01  0.51100000000E-03 0.  1.
         11    1    4    4    0    0 -0.11117973628E-01  0.40051662171E-01  0.15091105894E-01  0.44223834957E-01  0.51100000000E-03 0. -1.
</event>
<event>
 8    1  0.1072332E+005  0.1043930E+01  0.7957747E-01            NaN
         13   -1    0    0    0    0  0.00000000000E+00  0.00000000000E+00  0.74505805969E-08  0.10566000000E+00  0.10566000000E+00 0. -1.
     999900   -1    0    0    0    0 -0.00000000000E+00 -0.00000000000E+00 -0.74505805969E-08  0.93827000000E+00  0.93827000000E+00 0.  1.
     999902    2    1    2    0    0  0.13880337856E-01  0.55629973882E-02 -0.19240753110E-01  0.10195616332E+01  0.10192703796E+01 0.  0.
     999903    2    3    3    0    0  0.94613881537E-01  0.29126270136E-01  0.81599493602E-01  0.12981903660E+00  0.19858970663E-01 0.  0.
         14    1    1    2    0    0 -0.13880337856E-01 -0.55629973882E-02  0.19240753110E-01  0.24368366773E-01  0.00000000000E+00 0. -1.
     999901    1    3    3    0    0 -0.80733543682E-01 -0.23563272748E-01 -0.10084024671E+00  0.88974259663E+00  0.88000000000E+00 0.  1.
        -11    1    4    4    0    0  0.65776611749E-01  0.13101861963E-01  0.46294265693E-01  0.81496267381E-01  0.51100000000E-03 0. -1.
         11    1    4    4    0    0  0.28837269789E-01  0.16024408173E-01  0.35305227909E-01  0.48322769218E-01  0.51100000000E-03 0.  1.
</event>
<event>
 8    1  0.1072332E+005  0.1043930E+01  0.7957747E-01            NaN
         13   -1    0    0    0    0  0.00000000000E+00  0.00000000000E+00  0.74505805969E-08  0.10566000000E+00  0.10566000000E+00 0. -1.
     999900   -1    0    0    0    0 -0.00000000000E+00 -0.00000000000E+00 -0.74505805969E-08  0.93827000000E+00  0.93827000000E+00 0. -1.
     999902    2    1    2    0    0 -0.22710131558E-01 -0.24368556209E-01 -0.70441105328E-02  0.10098830310E+01  0.10093089419E+01 0.  0.
     999903    2    3    3    0    0  0.88246710837E-01 -0.11817809370E-01  0.76390862181E-01  0.11891146195E+00  0.19422393447E-01 0.  0.
         14    1    1    2    0    0  0.22710131558E-01  0.24368556209E-01  0.70441105328E-02  0.34046969032E-01  0.00000000000E+00 0. -1.
     999901    1    3    3    0    0 -0.11095684239E+00 -0.12550746839E-01 -0.83434972714E-01  0.89097156901E+00  0.88000000000E+00 0. -1.
        -11    1    4    4    0    0  0.35324722287E-01 -0.83789077652E-02  0.19814038866E-01  0.41363019198E-01  0.51100000000E-03 0.  1.
         11    1    4    4    0    0  0.52921988551E-01 -0.34389016045E-02  0.56576823315E-01  0.77548442755E-01  0.51100000000E-03 0. -1.
</event>
<event>
 8    1  0.1072332E+005  0.1043930E+01  0.7957747E-01            NaN
         13   -1    0    0    0    0  0.00000000000E+00  0.00000000000E+00  0.74505805969E-08  0.10566000000E+00  0.10566000000E+00 0.  1.
     999900   -1    0    0    0    0 -0.00000000000E+00 -0.00000000000E+00 -0.74505805969E-08  0.93827000000E+00  0.93827000000E+00 0. -1.
     999902    2    1    2    0    0 -0.89327962544E-02  0.17278179590E-01  0.12674079400E-01  0.10207144314E+01  0.10204503848E+01 0.  0.
     999903    2    3    3    0    0  0.38134537800E-01  0.15657865813E-01  0.12417076909E+00  0.13242986481E+00  0.20490911681E-01 0.  0.
         14    1    1    2    0    0  0.89327962544E-02 -0.17278179590E-01 -0.12674079400E-01  0.23215568645E-01  0.00000000000E+00 0. -1.
     999901    1    3    3    0    0 -0.47067334054E-01  0.16203137773E-02 -0.11149668969E+00  0.88828456655E+00  0.88000000000E+00 0. -1.
        -11    1    4    4    0    0  0.25762288063E-01  0.28143095708E-02  0.52207331171E-01  0.58287926482E-01  0.51100000000E-03 0. -1.
         11    1    4    4    0    0  0.12372249736E-01  0.12843556242E-01  0.71963437921E-01  0.74141938327E-01  0.51100000000E-03 0.  1.
</event>
<event>
 8    1  0.1072332E+005  0.1043930E+01  0.7957747E-01            NaN
         13   -1    0    0    0    0  0.00000000000E+00  0.00000000000E+00  0.74505805969E-08  0.10566000000E+00  0.10566000000E+00 0.  1.
     999900   -1    0    0    0    0 -0.00000000000E+00 -0.00000000000E+00 -0.74505805969E-08  0.93827000000E+00  0.93827000000E+00 0. -1.
     999902    2    1    2    0    0 -0.52359765746E-02 -0.51626099669E-02  0.22954180348E-01  0.10198268386E+01  0.10195419650E+01 0.  0.
     999903    2    3    3    0    0 -0.20131503172E-02 -0.57159633437E-01  0.11611927481E+00  0.13337672053E+00  0.32161889401E-01 0.  0.
         14    1    1    2    0    0  0.52359765746E-02  0.51626099669E-02 -0.22954180348E-01  0.24103161365E-01  0.00000000000E+00 0. -1.
     999901    1    3    3    0    0 -0.32228262574E-02  0.51997023470E-01 -0.93165094457E-01  0.88645011810E+00  0.88000000000E+00 0. -1.
        -11    1    4    4    0    0  0.74829308504E-02 -0.19330204740E-01  0.69834261341E-01  0.72847348939E-01  0.51100000000E-03 0. -1.
         11    1    4    4    0    0 -0.94960811676E-02 -0.37829428697E-01  0.46285013464E-01  0.60529371593E-01  0.51100000000E-03 0.  1.
</event>
<event>
 8    1  0.1072332E+005  0.1043930E+01  0.7957747E-01            NaN
         13   -1    0    0    0    0  0.00000000000E+00  0.00000000000E+00  0.74505805969E-08  0.10566000000E+00  0.10566000000E+00 0.  1.
     999900   -1    0    0    0    0 -0.00000000000E+00 -0.00000000000E+00 -0.74505805969E-08  0.93827000000E+00  0.93827000000E+00 0.  1.
     999902    2    1    2    0    0 -0.22702384538E-01 -0.71690053156E-02  0.37863582554E-02  0.10198233742E+01  0.10195384176E+01 0.  0.
     999903    2    3    3    0    0 -0.31312674339E-01 -0.68312884847E-01 -0.10491321942E+00  0.13098800735E+00  0.22448622427E-01 0.  0.
         14    1    1    2    0    0  0.22702384538E-01  0.71690053156E-02 -0.37863582554E-02  0.24106625848E-01  0.00000000000E+00 0.  1.
     999901    1    3    3    0    0  0.86102898007E-02  0.61143879532E-01  0.10869957768E+00  0.88883536680E+00  0.88000000000E+00 0. -1.
        -11    1    4    4    0    0 -0.26812623789E-01 -0.31635372096E-01 -0.55597813885E-01  0.69362032784E-01  0.51100000000E-03 0.  1.
         11    1    4    4    0    0 -0.45000505493E-02 -0.36677512752E-01 -0.49315405538E-01  0.61625974564E-01  0.51100000000E-03 0. -1.
</event>
<event>
 8    1  0.1072332E+005  0.1043930E+01  0.7957747E-01            NaN
         13   -1    0    0    0    0  0.00000000000E+00  0.00000000000E+00  0.74505805969E-08  0.10566000000E+00  0.10566000000E+00 0.  1.
     999900   -1    0    0    0    0 -0.00000000000E+00 -0.00000000000E+00 -0.74505805969E-08  0.93827000000E+00  0.93827000000E+00 0.  1.
     999902    2    1    2    0    0  0.35956669648E-02 -0.15570517209E-01  0.17234136274E-01  0.10204271219E+01  0.10201564222E+01 0.  0.
     999903    2    3    3    0    0 -0.66602469907E-01  0.92808180858E-01 -0.54440621429E-01  0.12812056496E+00  0.20046208444E-01 0.  0.
         14    1    1    2    0    0 -0.35956669648E-02  0.15570517209E-01 -0.17234136274E-01  0.23502878126E-01  0.00000000000E+00 0. -1.
     999901    1    3    3    0    0  0.70198136872E-01 -0.10837869807E+00  0.71674757703E-01  0.89230655691E+00  0.88000000000E+00 0. -1.
        -11    1    4    4    0    0 -0.29287685375E-01  0.27251027562E-01 -0.24802115185E-01  0.47072211085E-01  0.51100000000E-03 0.  1.
         11    1    4    4    0    0 -0.37314784532E-01  0.65557153296E-01 -0.29638506244E-01  0.81048353878E-01  0.51100000000E-03 0. -1.
</event>
<event>
 8    1  0.1072332E+005  0.1043930E+01  0.7957747E-01            NaN
         13   -1    0    0    0    0  0.00000000000E+00  0.00000000000E+00  0.74505805969E-08  0.10566000000E+00  0.10566000000E+00 0. -1.
     999900   -1    0    0    0    0 -0.00000000000E+00 -0.00000000000E+00 -0.74505805969E-08  0.93827000000E+00  0.93827000000E+00 0. -1.
     999902    2    1    2    0    0  0.20034576573E-01 -0.91402018561E-02 -0.69056826378E-03  0.10218981042E+01  0.10216605752E+01 0.  0.
     999903    2    3    3    0    0 -0.25721957119E-01 -0.94991705454E-01  0.86068635287E-01  0.13229633910E+00  0.20235320037E-01 0.  0.
         14    1    1    2    0    0 -0.20034576573E-01  0.91402018561E-02  0.69056826378E-03  0.22031895809E-01  0.00000000000E+00 0.  1.
     999901    1    3    3    0    0  0.45756533691E-01  0.85851503598E-01 -0.86759203551E-01  0.88960176509E+00  0.88000000000E+00 0. -1.
        -11    1    4    4    0    0  0.30172007310E-02 -0.12226624125E-01  0.14110237209E-01  0.18919665770E-01  0.51100000000E-03 0.  1.
         11    1    4    4    0    0 -0.28739157850E-01 -0.82765081329E-01  0.71958398078E-01  0.11337667333E+00  0.51100000000E-03 0. -1.
</event>
<event>
 8    1  0.1072332E+005  0.1043930E+01  0.7957747E-01            NaN
         13   -1    0    0    0    0  0.00000000000E+00  0.00000000000E+00  0.74505805969E-08  0.10566000000E+00  0.10566000000E+00 0.  1.
     999900   -1    0    0    0    0 -0.00000000000E+00 -0.00000000000E+00 -0.74505805969E-08  0.93827000000E+00  0.93827000000E+00 0.  1.
     999902    2    1    2    0    0  0.52696281558E-03  0.23820746102E-01 -0.44942129936E-02  0.10196832768E+01  0.10193949585E+01 0.  0.
     999903    2    3    3    0    0 -0.79355108702E-01 -0.72200054122E-01  0.67202096302E-01  0.12797620597E+00  0.18753838427E-01 0.  0.
         14    1    1    2    0    0 -0.52696281558E-03 -0.23820746102E-01  0.44942129936E-02  0.24246723183E-01  0.00000000000E+00 0.  1.
     999901    1    3    3    0    0  0.79882071518E-01  0.96020800224E-01 -0.71696309296E-01  0.89170707084E+00  0.88000000000E+00 0.  1.
        -11    1    4    4    0    0 -0.13386370469E-01 -0.43162543166E-02  0.11243007391E-01  0.18013642104E-01  0.51100000000E-03 0.  1.
         11    1    4    4    0    0 -0.65968738233E-01 -0.67883799805E-01  0.55959088911E-01  0.10996256387E+00  0.51100000000E-03 0. -1.
</event>
<event>
 8    1  0.1072332E+005  0.1043930E+01  0.7957747E-01            NaN
         13   -1    0    0    0    0  0.00000000000E+00  0.00000000000E+00  0.74505805969E-08  0.10566000000E+00  0.10566000000E+00 0.  1.
     999900   -1    0    0    0    0 -0.00000000000E+00 -0.00000000000E+00 -0.74505805969E-08  0.93827000000E+00  0.93827000000E+00 0. -1.
     999902    2    1    2    0    0 -0.52568215047E-02  0.21804357659E-01  0.59267307040E-03  0.10214930785E+01  0.10212466372E+01 0.  0.
     999903    2    3    3    0    0  0.34182524662E-01  0.10683102852E+00 -0.70061062650E-01  0.13369977645E+00  0.19640877694E-01 0.  0.
         14    1    1    2    0    0  0.52568215047E-02 -0.21804357659E-01 -0.59267307040E-03  0.22436921505E-01  0.00000000000E+00 0. -1.
     999901    1    3    3    0    0 -0.39439346167E-01 -0.85026670861E-01  0.70653735721E-01  0.88779330204E+00  0.88000000000E+00 0.  1.
        -11    1    4    4    0    0  0.61022854563E-02  0.19582910199E-01 -0.22453658267E-01  0.30416379637E-01  0.51100000000E-03 0. -1.
         11    1    4    4    0    0  0.28080239206E-01  0.87248118321E-01 -0.47607404383E-01  0.10328339681E+00  0.51100000000E-03 0.  1.
</event>
<event>
 8    1  0.1072332E+005  0.1043930E+01  0.7957747E-01            NaN
         13   -1    0    0    0    0  0.00000000000E+00  0.00000000000E+00  0.74505805969E-08  0.10566000000E+00  0.10566000000E+00 0. -1.
     999900   -1    0    0    0    0 -0.00000000000E+00 -0.00000000000E+00 -0.74505805969E-08  0.93827000000E+00  0.93827000000E+00 0. -1.
     999902    2    1    2    0    0  0.37844807174E-02 -0.14725314595E-01 -0.17931709094E-01  0.10204203557E+01  0.10201494983E+01 0.  0.
     999903    2    3    3    0    0  0.23027723603E-01  0.10972094326E+00  0.58311930448E-01  0.12819265715E+00  0.21543320767E-01 0.  0.
         14    1    1    2    0    0 -0.37844807174E-02  0.14725314595E-01  0.17931709094E-01  0.23509644303E-01  0.00000000000E+00 0. -1.
     999901    1    3    3    0    0 -0.19243242886E-01 -0.12444625785E+00 -0.76243639541E-01  0.89222769855E+00  0.88000000000E+00 0. -1.
        -11    1    4    4    0    0  0.17791814594E-01  0.71999126379E-01  0.27141947111E-01  0.78977017416E-01  0.51100000000E-03 0.  1.
         11    1    4    4    0    0  0.52359090090E-02  0.37721816880E-01  0.31169983336E-01  0.49215639730E-01  0.51100000000E-03 0. -1.
</event>
<event>
 8    1  0.1072332E+005  0.1043930E+01  0.7957747E-01            NaN
         13   -1    0    0    0    0  0.00000000000E+00  0.00000000000E+00  0.74505805969E-08  0.10566000000E+00  0.10566000000E+00 0. -1.
     999900   -1    0    0    0    0 -0.00000000000E+00 -0.00000000000E+00 -0.74505805969E-08  0.93827000000E+00  0.93827000000E+00 0. -1.
     999902    2    1    2    0    0 -0.76145247757E-02  0.22386369358E-01 -0.50477898392E-02  0.10197512758E+01  0.10194645918E+01 0.  0.
     999903    2    3    3    0    0 -0.51431290745E-01 -0.10926269712E+00  0.37130462743E-01  0.12788223237E+00  0.19790892894E-01 0.  0.
         14    1    1    2    0    0  0.76145247757E-02 -0.22386369358E-01  0.50477898392E-02  0.24178724177E-01  0.00000000000E+00 0. -1.
     999901    1    3    3    0    0  0.43816765969E-01  0.13164906648E+00 -0.42178252583E-01  0.89186904346E+00  0.88000000000E+00 0.  1.
        -11    1    4    4    0    0 -0.14182000528E-01 -0.20895135012E-01  0.61356714466E-03  0.25266052161E-01  0.51100000000E-03 0. -1.
         11    1    4    4    0    0 -0.37249290217E-01 -0.88367562109E-01  0.36516895599E-01  0.10261618021E+00  0.51100000000E-03 0.  1.
</event>
<event>
 8    1  0.1072332E+005  0.1043930E+01  0.7957747E-01            NaN
         13   -1    0    0    0    0  0.00000000000E+00  0.00000000000E+00  0.74505805969E-08  0.10566000000E+00  0.10566000000E+00 0. -1.
     999900   -1    0    0    0    0 -0.00000000000E+00 -0.00000000000E+00 -0.74505805969E-08  0.93827000000E+00  0.93827000000E+00 0. -1.
     999902    2    1    2    0    0 -0.18966995371E-01  0.71527122906E-02  0.11476420061E-01  0.10206358715E+01  0.10203700141E+01 0.  0.
     999903    2    3    3    0    0  0.45623203659E-01  0.24537929533E-01  0.11930994231E+00  0.13153396049E+00  0.19563581729E-01 0.  0.
         14    1    1    2    0    0  0.18966995371E-01 -0.71527122906E-02 -0.11476420061E-01  0.23294128529E-01  0.00000000000E+00 0. -1.
     999901    1    3    3    0    0 -0.64590199030E-01 -0.17385217242E-01 -0.10783352225E+00  0.88910191098E+00  0.88000000000E+00 0. -1.
        -11    1    4    4    0    0  0.20823848479E-01  0.15558559118E-01  0.37930889662E-01  0.45986029823E-01  0.51100000000E-03 0.  1.
         11    1    4    4    0    0  0.24799355180E-01  0.89793704148E-02  0.81379052649E-01  0.85547930667E-01  0.51100000000E-03 0. -1.
</event>
<event>
 8    1  0.1072332E+005  0.1043930E+01  0.7957747E-01            NaN
         13   -1    0    0    0    0  0.00000000000E+00  0.00000000000E+00  0.74505805969E-08  0.10566000000E+00  0.10566000000E+00 0.  1.
     999900   -1    0    0    0    0 -0.00000000000E+00 -0.00000000000E+00 -0.74505805969E-08  0.93827000000E+00  0.93827000000E+00 0.  1.
     999902    2    1    2    0    0  0.15973423898E-01  0.18629774478E-01 -0.20369842523E-02  0.10193054579E+01  0.10190079727E+01 0.  0.
     999903    2    3    3    0    0 -0.21649643101E-01  0.12631267922E+00 -0.22619634913E-01  0.13170490099E+00  0.20271484482E-01 0.  0.
         14    1    1    2    0    0 -0.15973423898E-01 -0.18629774478E-01  0.20369842523E-02  0.24624542086E-01  0.00000000000E+00 0. -1.
     999901    1    3    3    0    0  0.37623066999E-01 -0.10768290474E+00  0.20582650660E-01  0.88760055692E+00  0.88000000000E+00 0. -1.
        -11    1    4    4    0    0 -0.16426119726E-01  0.44355037088E-01 -0.38239173876E-02  0.47455981599E-01  0.51100000000E-03 0.  1.
         11    1    4    4    0    0 -0.52235233747E-02  0.81957642131E-01 -0.18795717525E-01  0.84248919391E-01  0.51100000000E-03 0. -1.
</event>
<event>
 8    1  0.1072332E+005  0.1043930E+01  0.7957747E-01            NaN
         13   -1    0    0    0    0  0.00000000000E+00  0.00000000000E+00  0.74505805969E-08  0.10566000000E+00  0.10566000000E+00 0.  1.
     999900   -1    0    0    0    0 -0.00000000000E+00 -0.00000000000E+00 -0.74505805969E-08  0.93827000000E+00  0.93827000000E+00 0.  1.
     999902    2    1    2    0    0 -0.20934931941E-01 -0.25083996363E-02  0.10080960252E-01  0.10205593089E+01  0.10202916807E+01 0.  0.
     999903    2    3    3    0    0  0.11873521227E-01 -0.11429372646E+00 -0.58061666422E-01  0.13026959678E+00  0.19873960930E-01 0.  0.
         14    1    1    2    0    0  0.20934931941E-01  0.25083996363E-02 -0.10080960252E-01  0.23370691126E-01  0.00000000000E+00 0.  1.
     999901    1    3    3    0    0 -0.32808453168E-01  0.11178532682E+00  0.68142626674E-01  0.89028971210E+00  0.88000000000E+00 0. -1.
        -11    1    4    4    0    0  0.86752140762E-02 -0.43911583892E-01 -0.12913482808E-01  0.46588686378E-01  0.51100000000E-03 0. -1.
         11    1    4    4    0    0  0.31983071513E-02 -0.70382142567E-01 -0.45148183614E-01  0.83680910401E-01  0.51100000000E-03 0.  1.
</event>
<event>
 8    1  0.1072332E+005  0.1043930E+01  0.7957747E-01            NaN
         13   -1    0    0    0    0  0.00000000000E+00  0.00000000000E+00  0.74505805969E-08  0.10566000000E+00  0.10566000000E+00 0.  1.
     999900   -1    0    0    0    0 -0.00000000000E+00 -0.00000000000E+00 -0.74505805969E-08  0.93827000000E+00  0.93827000000E+00 0. -1.
     999902    2    1    2    0    0  0.70339336751E-02 -0.23959548493E-02  0.22274355518E-01  0.10204488642E+01  0.10201786710E+01 0.  0.
     999903    2    3    3    0    0  0.12350133164E+00  0.30580704863E-01  0.29710658126E-01  0.13213168358E+00  0.19705333611E-01 0.  0.
         14    1    1    2    0    0 -0.70339336751E-02  0.23959548493E-02 -0.22274355518E-01  0.23481135755E-01  0.00000000000E+00 0. -1.
     999901    1    3    3    0    0 -0.11646739796E+00 -0.32976659712E-01 -0.74363026076E-02  0.88831718067E+00  0.88000000000E+00 0. -1.
        -11    1    4    4    0    0  0.57260981037E-01  0.88863459370E-02  0.22072928897E-01  0.62010179846E-01  0.51100000000E-03 0. -1.
         11    1    4    4    0    0  0.66240350599E-01  0.21694358926E-01  0.76377292295E-02  0.70121503731E-01  0.51100000000E-03 0.  1.
</event>
<event>
 8    1  0.1072332E+005  0.1043930E+01  0.7957747E-01            NaN
         13   -1    0    0    0    0  0.00000000000E+00  0.00000000000E+00  0.74505805969E-08  0.10566000000E+00  0.10566000000E+00 0. -1.
     999900   -1    0    0    0    0 -0.00000000000E+00 -0.00000000000E+00 -0.74505805969E-08  0.93827000000E+00  0.93827000000E+00 0.  1.
     999902    2    1    2    0    0 -0.14673491806E-01  0.12415068192E-01  0.14870943727E-01  0.10196279374E+01  0.10193382856E+01 0.  0.
     999903    2    3    3    0    0  0.90888231952E-01  0.51247438157E-01 -0.72176996809E-01  0.12820852183E+00  0.18464440855E-01 0.  0.
         14    1    1    2    0    0  0.14673491806E-01 -0.12415068192E-01 -0.14870943727E-01  0.24302062615E-01  0.00000000000E+00 0.  1.
     999901    1    3    3    0    0 -0.10556172376E+00 -0.38832369965E-01  0.87047940536E-01  0.89141941556E+00  0.88000000000E+00 0. -1.
        -11    1    4    4    0    0  0.90734339258E-01  0.48454388621E-01 -0.68603109736E-01  0.12364140036E+00  0.51100000000E-03 0.  1.
         11    1    4    4    0    0  0.15389269372E-03  0.27930495358E-02 -0.35738870730E-02  0.45671214655E-02  0.51100000000E-03 0. -1.
</event>
<event>
 8    1  0.1072332E+005  0.1043930E+01  0.7957747E-01            NaN
         13   -1    0    0    0    0  0.00000000000E+00  0.00000000000E+00  0.74505805969E-08  0.10566000000E+00  0.10566000000E+00 0. -1.
     999900   -1    0    0    0    0 -0.00000000000E+00 -0.00000000000E+00 -0.74505805969E-08  0.93827000000E+00  0.93827000000E+00 0. -1.
     999902    2    1    2    0    0 -0.13276871510E-02  0.22195764599E-01 -0.90363429918E-02  0.10199285373E+01  0.10196460910E+01 0.  0.
     999903    2    3    3    0    0 -0.69024608979E-01  0.98579755706E-01 -0.52844356924E-01  0.13294684105E+00  0.19999290131E-01 0.  0.
         14    1    1    2    0    0  0.13276871510E-02 -0.22195764599E-01  0.90363429918E-02  0.24001462746E-01  0.00000000000E+00 0.  1.
     999901    1    3    3    0    0  0.67696921828E-01 -0.76383991107E-01  0.43808013933E-01  0.88698169621E+00  0.88000000000E+00 0.  1.
        -11    1    4    4    0    0 -0.68358629195E-01  0.93444555040E-01 -0.46568662715E-01  0.12479458530E+00  0.51100000000E-03 0.  1.
         11    1    4    4    0    0 -0.66597978382E-03  0.51352006652E-02 -0.62756942090E-02  0.81522557461E-02  0.51100000000E-03 0. -1.
</event>
<event>
 8    1  0.1072332E+005  0.1043930E+01  0.7957747E-01            NaN
         13   -1    0    0    0    0  0.00000000000E+00  0.00000000000E+00  0.74505805969E-08  0.10566000000E+00  0.10566000000E+00 0.  1.
     999900   -1    0    0    0    0 -0.00000000000E+00 -0.00000000000E+00 -0.74505805969E-08  0.93827000000E+00  0.93827000000E+00 0. -1.
     999902    2    1    2    0    0 -0.98905018711E-02  0.22046508941E-02  0.21307243971E-01  0.10203359084E+01  0.10200630788E+01 0.  0.
     999903    2    3    3    0    0  0.12517928752E+00 -0.25129202520E-01 -0.31828058824E-02  0.12927432237E+00  0.20009730867E-01 0.  0.
         14    1    1    2    0    0  0.98905018711E-02 -0.22046508941E-02 -0.21307243971E-01  0.23594091601E-01  0.00000000000E+00 0. -1.
     999901    1    3    3    0    0 -0.13506978939E+00  0.27333853414E-01  0.24490049853E-01  0.89106158603E+00  0.88000000000E+00 0.  1.
        -11    1    4    4    0    0  0.33017594784E-01 -0.10255136511E-01 -0.90260820147E-02  0.35735985613E-01  0.51100000000E-03 0.  1.
         11    1    4    4    0    0  0.92161692733E-01 -0.14874066008E-01  0.58432761323E-02  0.93538336761E-01  0.51100000000E-03 0. -1.
</event>
<event>
 8    1  0.1072332E+005  0.1043930E+01  0.7957747E-01            NaN
         13   -1    0    0    0    0  0.00000000000E+00  0.00000000000E+00  0.74505805969E-08  0.10566000000E+00  0.10566000000E+00 0. -1.
     999900   -1    0    0    0    0 -0.00000000000E+00 -0.00000000000E+00 -0.74505805969E-08  0.93827000000E+00  0.93827000000E+00 0.  1.
     999902    2    1    2    0    0  0.80150886762E-02  0.22355430614E-01  0.53226490138E-02  0.10195920149E+01  0.10193014958E+01 0.  0.
     999903    2    3    3    0    0 -0.12212152120E+00 -0.18060554149E-01 -0.27587998535E-01  0.12849600452E+00  0.22589288577E-01 0.  0.
         14    1    1    2    0    0 -0.80150886762E-02 -0.22355430614E-01 -0.53226490138E-02  0.24337985063E-01  0.00000000000E+00 0.  1.
     999901    1    3    3    0    0  0.13013660988E+00  0.40415984762E-01  0.32910647549E-01  0.89109601041E+00  0.88000000000E+00 0. -1.
        -11    1    4    4    0    0 -0.50215894488E-01 -0.14983639938E-01 -0.20122423956E-01  0.56136606522E-01  0.51100000000E-03 0. -1.
         11    1    4    4    0    0 -0.71905626714E-01 -0.30769142112E-02 -0.74655745790E-02  0.72359398000E-01  0.51100000000E-03 0.  1.
</event>
<event>
 8    1  0.1072332E+005  0.1043930E+01  0.7957747E-01            NaN
         13   -1    0    0    0    0  0.00000000000E+00  0.00000000000E+00  0.74505805969E-08  0.10566000000E+00  0.10566000000E+00 0.  1.
     999900   -1    0    0    0    0 -0.00000000000E+00 -0.00000000000E+00 -0.74505805969E-08  0.93827000000E+00  0.93827000000E+00 0. -1.
     999902    2    1    2    0    0  0.86221370231E-02 -0.22891471286E-02  0.22047161722E-01  0.10201464178E+01  0.10198691362E+01 0.  0.
     999903    2    3    3    0    0 -0.61883231285E-01 -0.71517126186E-01 -0.83862596306E-01  0.12830540234E+00  0.22025157392E-01 0.  0.
         14    1    1    2    0    0 -0.86221370231E-02  0.22891471286E-02 -0.22047161722E-01  0.23783582182E-01  0.00000000000E+00 0. -1.
     999901    1    3    3    0    0  0.70505368308E-01  0.69227979057E-01  0.10590975803E+00  0.89184101548E+00  0.88000000000E+00 0.  1.
        -11    1    4    4    0    0 -0.15499516874E-01 -0.10521985184E-01 -0.27071979599E-01  0.32925679886E-01  0.51100000000E-03 0.  1.
         11    1    4    4    0    0 -0.46383714410E-01 -0.60995141001E-01 -0.56790616707E-01  0.95379722453E-01  0.51100000000E-03 0. -1.
</event>
<event>
 8    1  0.1072332E+005  0.1043930E+01  0.7957747E-01            NaN
         13   -1    0    0    0    0  0.00000000000E+00  0.00000000000E+00  0.74505805969E-08  0.10566000000E+00  0.10566000000E+00 0.  1.
     999900   -1    0    0    0    0 -0.00000000000E+00 -0.00000000000E+00 -0.74505805969E-08  0.93827000000E+00  0.93827000000E+00 0.  1.
     999902    2    1    2    0    0 -0.16401967708E-01 -0.12582047315E-01  0.12393165294E-01  0.10198276556E+01  0.10195428015E+01 0.  0.
     999903    2    3    3    0    0 -0.67375738506E-01  0.68781738835E-01 -0.84163884971E-01  0.12935494128E+00  0.19460821237E-01 0.  0.
         14    1    1    2    0    0  0.16401967708E-01  0.12582047315E-01 -0.12393165294E-01  0.24102344395E-01  0.00000000000E+00 0. -1.
     999901    1    3    3    0    0  0.50973770798E-01 -0.81363786150E-01  0.96557050264E-01  0.89047271433E+00  0.88000000000E+00 0.  1.
        -11    1    4    4    0    0 -0.23128123014E-01  0.11503470603E-01 -0.23095167250E-01  0.34653827803E-01  0.51100000000E-03 0. -1.
         11    1    4    4    0    0 -0.44247615492E-01  0.57278268232E-01 -0.61068717721E-01  0.94701113475E-01  0.51100000000E-03 0.  1.
</event>
<event>
 8    1  0.1072332E+005  0.1043930E+01  0.7957747E-01            NaN
         13   -1    0    0    0    0  0.00000000000E+00  0.00000000000E+00  0.74505805969E-08  0.10566000000E+00  0.10566000000E+00 0. -1.
     999900   -1    0    0    0    0 -0.00000000000E+00 -0.00000000000E+00 -0.74505805969E-08  0.93827000000E+00  0.93827000000E+00 0.  1.
     999902    2    1    2    0    0  0.59155530178E-02 -0.23389463920E-01  0.66048882909E-02  0.10189162970E+01  0.10186092160E+01 0.  0.
     999903    2    3    3    0    0 -0.51322498176E-01 -0.48657031242E-01  0.10814114319E+00  0.13087110920E+00  0.20766195249E-01 0.  0.
         14    1    1    2    0    0 -0.59155530178E-02  0.23389463920E-01 -0.66048882909E-02  0.25013703030E-01  0.00000000000E+00 0.  1.
     999901    1    3    3    0    0  0.57238051194E-01  0.25267567322E-01 -0.10153625490E+00  0.88804518777E+00  0.88000000000E+00 0.  1.
        -11    1    4    4    0    0 -0.42718127479E-01 -0.30016138995E-01  0.67508765063E-01  0.85343432652E-01  0.51100000000E-03 0.  1.
         11    1    4    4    0    0 -0.86043706975E-02 -0.18640892247E-01  0.40632378124E-01  0.45527676548E-01  0.51100000000E-03 0. -1.
</event>
<event>
 8    1  0.1072332E+005  0.1043930E+01  0.7957747E-01            NaN
         13   -1    0    0    0    0  0.00000000000E+00  0.00000000000E+00  0.74505805969E-08  0.10566000000E+00  0.10566000000E+00 0. -1.
     999900   -1    0    0    0    0 -0.00000000000E+00 -0.00000000000E+00 -0.74505805969E-08  0.93827000000E+00  0.93827000000E+00 0.  1.
     999902    2    1    2    0    0 -0.20896930136E-01 -0.75274097718E-04  0.89461087616E-02  0.10211985192E+01  0.10209454910E+01 0.  0.
     999903    2    3    3    0    0 -0.71282220496E-01 -0.37573930661E-01 -0.10320674232E+00  0.13185995113E+00  0.15571121587E-01 0.  0.
         14    1    1    2    0    0  0.20896930136E-01  0.75274097718E-04 -0.89461087616E-02  0.22731480754E-01  0.00000000000E+00 0.  1.
     999901    1    3    3    0    0  0.50385290360E-01  0.37498656563E-01  0.11215285108E+00  0.88933856811E+00  0.88000000000E+00 0. -1.
        -11    1    4    4    0    0 -0.27459921052E-01 -0.14771544292E-01 -0.52517366220E-01  0.61078479521E-01  0.51100000000E-03 0.  1.
         11    1    4    4    0    0 -0.43822299444E-01 -0.22802386369E-01 -0.50689376103E-01  0.70781471611E-01  0.51100000000E-03 0. -1.
</event>
<event>
 8    1  0.1072332E+005  0.1043930E+01  0.7957747E-01            NaN
         13   -1    0    0    0    0  0.00000000000E+00  0.00000000000E+00  0.74505805969E-08  0.10566000000E+00  0.10566000000E+00 0.  1.
     999900   -1    0    0    0    0 -0.00000000000E+00 -0.00000000000E+00 -0.74505805969E-08  0.93827000000E+00  0.93827000000E+00 0.  1.
     999902    2    1    2    0    0 -0.20561203682E-01 -0.10288915152E-01 -0.85734779186E-02  0.10193916750E+01  0.10190962946E+01 0.  0.
     999903    2    3    3    0    0 -0.42041425093E-01 -0.11766417434E+00 -0.37911447115E-01  0.13211969714E+00  0.20149372247E-01 0.  0.
         14    1    1    2    0    0  0.20561203682E-01  0.10288915152E-01  0.85734779186E-02  0.24538325034E-01  0.00000000000E+00 0.  1.
     999901    1    3    3    0    0  0.21480221411E-01  0.10737525919E+00  0.29337969196E-01  0.88727197783E+00  0.88000000000E+00 0. -1.
        -11    1    4    4    0    0 -0.28470016299E-01 -0.81597641493E-01 -0.35733798192E-01  0.93519422472E-01  0.51100000000E-03 0. -1.
         11    1    4    4    0    0 -0.13571408794E-01 -0.36066532852E-01 -0.21776489226E-02  0.38600274668E-01  0.51100000000E-03 0.  1.
</event>
<event>
 8    1  0.1072332E+005  0.1043930E+01  0.7957747E-01            NaN
         13   -1    0    0    0    0  0.00000000000E+00  0.00000000000E+00  0.74505805969E-08  0.10566000000E+00  0.10566000000E+00 0. -1.
     999900   -1    0    0    0    0 -0.00000000000E+00 -0.00000000000E+00 -0.74505805969E-08  0.93827000000E+00  0.93827000000E+00 0. -1.
     999902    2    1    2    0    0 -0.44922901167E-02  0.17902026041E-01  0.14308865583E-01  0.10205760530E+01  0.10203088126E+01 0.  0.
     999903    2    3    3    0    0 -0.99786015992E-01 -0.80067656017E-01 -0.93507814736E-02  0.12971201639E+00  0.19227364749E-01 0.  0.
         14    1    1    2    0    0  0.44922901167E-02 -0.17902026041E-01 -0.14308865583E-01  0.23353947014E-01  0.00000000000E+00 0.  1.
     999901    1    3    3    0    0  0.95293725875E-01  0.97969682058E-01  0.23659647057E-01  0.89086403659E+00  0.88000000000E+00 0.  1.
        -11    1    4    4    0    0 -0.72445751128E-01 -0.48729685426E-01 -0.11501199677E-01  0.88065361029E-01  0.51100000000E-03 0.  1.
         11    1    4    4    0    0 -0.27340264864E-01 -0.31337970591E-01  0.21504182037E-02  0.41646655365E-01  0.51100000000E-03 0. -1.
</event>
<event>
 8    1  0.1072332E+005  0.1043930E+01  0.7957747E-01            NaN
         13   -1    0    0    0    0  0.00000000000E+00  0.00000000000E+00  0.74505805969E-08  0.10566000000E+00  0.10566000000E+00 0.  1.
     999900   -1    0    0    0    0 -0.00000000000E+00 -0.00000000000E+00 -0.74505805969E-08  0.93827000000E+00  0.93827000000E+00 0.  1.
     999902    2    1    2    0    0 -0.21625196373E-01  0.85859250465E-02 -0.53001300183E-02  0.10200666682E+01  0.10197875019E+01 0.  0.
     999903    2    3    3    0    0 -0.14177826442E-01  0.91368527662E-01 -0.92105819358E-01  0.13189796219E+00  0.19088526912E-01 0.  0.
         14    1    1    2    0    0  0.21625196373E-01 -0.85859250465E-02  0.53001300183E-02  0.23863331815E-01  0.00000000000E+00 0. -1.
     999901    1    3    3    0    0 -0.74473699316E-02 -0.82782602615E-01  0.86805689340E-01  0.88816870600E+00  0.88000000000E+00 0. -1.
        -11    1    4    4    0    0 -0.15530093615E-01  0.40133014324E-01 -0.45357584872E-01  0.62525309058E-01  0.51100000000E-03 0.  1.
         11    1    4    4    0    0  0.13522671731E-02  0.51235513338E-01 -0.46748234486E-01  0.69372653128E-01  0.51100000000E-03 0. -1.
</event>
<event>
 8    1  0.1072332E+005  0.1043930E+01  0.7957747E-01            NaN
         13   -1    0    0    0    0  0.00000000000E+00  0.00000000000E+00  0.74505805969E-08  0.10566000000E+00  0.10566000000E+00 0.  1.
     999900   -1    0    0    0    0 -0.00000000000E+00 -0.00000000000E+00 -0.74505805969E-08  0.93827000000E+00  0.93827000000E+00 0.  1.
     999902    2    1    2    0    0  0.27486017654E-02 -0.16517621746E-01 -0.16859285035E-01  0.10201682212E+01  0.10198914537E+01 0.  0.
     999903    2    3    3    0    0 -0.25347591674E-01  0.12270628852E+00 -0.21893510677E-01  0.12876593452E+00  0.20050098187E-01 0.  0.
         14    1    1    2    0    0 -0.27486017654E-02  0.16517621746E-01  0.16859285035E-01  0.23761778799E-01  0.00000000000E+00 0.  1.
     999901    1    3    3    0    0  0.28096193440E-01 -0.13922391026E+00  0.50342256421E-02  0.89140228668E+00  0.88000000000E+00 0.  1.
        -11    1    4    4    0    0 -0.20254452048E-01  0.98754714932E-01 -0.93390892687E-02  0.10124335167E+00  0.51100000000E-03 0.  1.
         11    1    4    4    0    0 -0.50931396267E-02  0.23951573586E-01 -0.12554421409E-01  0.27522582844E-01  0.51100000000E-03 0. -1.
</event>
<event>
 8    1  0.1072332E+005  0.1043930E+01  0.7957747E-01            NaN
         13   -1    0    0    0    0  0.00000000000E+00  0.00000000000E+00  0.74505805969E-08  0.10566000000E+00  0.10566000000E+00 0. -1.
     999900   -1    0    0    0    0 -0.00000000000E+00 -0.00000000000E+00 -0.74505805969E-08  0.93827000000E+00  0.93827000000E+00 0.  1.
     999902    2    1    2    0    0 -0.10488294346E-02  0.89348268007E-03  0.23097149271E-01  0.10207917922E+01  0.10205295226E+01 0.  0.
     999903    2    3    3    0    0  0.57050795112E-01  0.69881061498E-01  0.95991773279E-01  0.13318350102E+00  0.19628255875E-01 0.  0.
         14    1    1    2    0    0  0.10488294346E-02 -0.89348268007E-03 -0.23097149271E-01  0.23138207773E-01  0.00000000000E+00 0.  1.
     999901    1    3    3    0    0 -0.58099624547E-01 -0.68987578818E-01 -0.72894624008E-01  0.88760829120E+00  0.88000000000E+00 0.  1.
        -11    1    4    4    0    0  0.34948184642E-01  0.46767156161E-01  0.48376390738E-01  0.75822680030E-01  0.51100000000E-03 0.  1.
         11    1    4    4    0    0  0.22102610470E-01  0.23113905338E-01  0.47615382541E-01  0.57360820994E-01  0.51100000000E-03 0. -1.
</event>
<event>
 8    1  0.1072332E+005  0.1043930E+01  0.7957747E-01            NaN
         13   -1    0    0    0    0  0.00000000000E+00  0.00000000000E+00  0.74505805969E-08  0.10566000000E+00  0.10566000000E+00 0.  1.
     999900   -1    0    0    0    0 -0.00000000000E+00 -0.00000000000E+00 -0.74505805969E-08  0.93827000000E+00  0.93827000000E+00 0. -1.
     999902    2    1    2    0    0  0.17975806494E-01 -0.15764166909E-01  0.13363608832E-02  0.10199837177E+01  0.10197025840E+01 0.  0.
     999903    2    3    3    0    0  0.12736672325E+00 -0.21934350988E-01  0.23100182600E-01  0.13292221597E+00  0.20767742272E-01 0.  0.
         14    1    1    2    0    0 -0.17975806494E-01  0.15764166909E-01 -0.13363608832E-02  0.23946282339E-01  0.00000000000E+00 0.  1.
     999901    1    3    3    0    0 -0.10939091675E+00  0.61701840787E-02 -0.21763821717E-01  0.88706150169E+00  0.88000000000E+00 0. -1.
        -11    1    4    4    0    0  0.48684175277E-01  0.14843354703E-02  0.61612886751E-02  0.49097604558E-01  0.51100000000E-03 0.  1.
         11    1    4    4    0    0  0.78682547970E-01 -0.23418686458E-01  0.16938893925E-01  0.83824611415E-01  0.51100000000E-03 0. -1.
</event>
<event>
 8    1  0.1072332E+005  0.1043930E+01  0.7957747E-01            NaN
         13   -1    0    0    0    0  0.00000000000E+00  0.00000000000E+00  0.74505805969E-08  0.10566000000E+00  0.10566000000E+00 0.  1.
     999900   -1    0    0    0    0 -0.00000000000E+00 -0.00000000000E+00 -0.74505805969E-08  0.93827000000E+00  0.93827000000E+00 0.  1.
     999902    2    1    2    0    0  0.72921530193E-02  0.14349457366E-01 -0.16232103298E-01  0.10210703500E+01  0.10208144278E+01 0.  0.
     999903    2    3    3    0    0  0.16638087040E-01 -0.11788005564E-01 -0.13011930609E+00  0.13329740128E+00  0.20527551121E-01 0.  0.
         14    1    1    2    0    0 -0.72921530193E-02 -0.14349457366E-01  0.16232103298E-01  0.22859650037E-01  0.00000000000E+00 0.  1.
     999901    1    3    3    0    0 -0.93459340204E-02  0.26137462930E-01  0.11388720279E+00  0.88777294868E+00  0.88000000000E+00 0. -1.
        -11    1    4    4    0    0  0.11426017699E-01 -0.56400568079E-02 -0.26975983335E-01  0.29838379969E-01  0.51100000000E-03 0.  1.
         11    1    4    4    0    0  0.52120693408E-02 -0.61479487564E-02 -0.10314332276E+00  0.10345902131E+00  0.51100000000E-03 0. -1.
</event>
<event>
 8    1  0.1431191E+005  0.1043930E+01  0.7957747E-01            NaN
         13   -1    0    0    0    0  0.00000000000E+00  0.00000000000E+00  0.74505805969E-08  0.10566000000E+00  0.10566000000E+00 0. -1.
     999900   -1    0    0    0    0 -0.00000000000E+00 -0.00000000000E+00 -0.74505805969E-08  0.93827000000E+00  0.93827000000E+00 0. -1.
     999902    2    1    2    0    0  0.17696728475E-01 -0.83673496439E-02  0.17342643280E-01  0.10177774855E+01  0.10174414263E+01 0.  0.
     999903    2    3    3    0    0 -0.11965763202E+00  0.42950660158E-02  0.37638732863E-01  0.12680134195E+00  0.18041885091E-01 0.  0.
         14    1    1    2    0    0 -0.17696728475E-01  0.83673496439E-02 -0.17342643280E-01  0.26152514501E-01  0.00000000000E+00 0. -1.
     999901    1    3    3    0    0  0.13735436049E+00 -0.12662415660E-01 -0.20296089583E-01  0.89097614355E+00  0.88000000000E+00 0. -1.
        -11    1    4    4    0    0 -0.58335705753E-01  0.39557283269E-02  0.27606062159E-01  0.64661102228E-01  0.51100000000E-03 0.  1.
         11    1    4    4    0    0 -0.61321926263E-01  0.33933768890E-03  0.10032670704E-01  0.62140239725E-01  0.51100000000E-03 0. -1.
</event>
<event>
 8    1  0.1072332E+005  0.1043930E+01  0.7957747E-01            NaN
         13   -1    0    0    0    0  0.00000000000E+00  0.00000000000E+00  0.74505805969E-08  0.10566000000E+00  0.10566000000E+00 0. -1.
     999900   -1    0    0    0    0 -0.00000000000E+00 -0.00000000000E+00 -0.74505805969E-08  0.93827000000E+00  0.93827000000E+00 0. -1.
     999902    2    1    2    0    0 -0.22139379507E-01  0.66014618178E-02 -0.42283873590E-02  0.10204436064E+01  0.10201732908E+01 0.  0.
     999903    2    3    3    0    0 -0.57362690518E-01  0.67740163373E-01  0.95575276290E-01  0.13199586248E+00  0.20225386910E-01 0.  0.
         14    1    1    2    0    0  0.22139379507E-01 -0.66014618178E-02  0.42283873590E-02  0.23486393566E-01  0.00000000000E+00 0.  1.
     999901    1    3    3    0    0  0.35223311011E-01 -0.61138701555E-01 -0.99803663649E-01  0.88844774396E+00  0.88000000000E+00 0.  1.
        -11    1    4    4    0    0 -0.71007108185E-02  0.18860674136E-01  0.14635786490E-01  0.24912095259E-01  0.51100000000E-03 0.  1.
         11    1    4    4    0    0 -0.50261979699E-01  0.48879489236E-01  0.80939489801E-01  0.10708376722E+00  0.51100000000E-03 0. -1.
</event>
<event>
 8    1  0.1072332E+005  0.1043930E+01  0.7957747E-01            NaN
         13   -1    0    0    0    0  0.00000000000E+00  0.00000000000E+00  0.74505805969E-08  0.10566000000E+00  0.10566000000E+00 0. -1.
     999900   -1    0    0    0    0 -0.00000000000E+00 -0.00000000000E+00 -0.74505805969E-08  0.93827000000E+00  0.93827000000E+00 0.  1.
     999902    2    1    2    0    0  0.60494530751E-02 -0.60285532444E-02  0.21649697495E-01  0.10206566518E+01  0.10203912740E+01 0.  0.
     999903    2    3    3    0    0 -0.73070973002E-02  0.77854843573E-02 -0.12598757850E+00  0.12815119500E+00  0.20877054532E-01 0.  0.
         14    1    1    2    0    0 -0.60494530751E-02  0.60285532444E-02 -0.21649697495E-01  0.23273348241E-01  0.00000000000E+00 0.  1.
     999901    1    3    3    0    0  0.13356550375E-01 -0.13814037602E-01  0.14763727600E+00  0.89250545675E+00  0.88000000000E+00 0. -1.
        -11    1    4    4    0    0 -0.34093838339E-02 -0.26212886933E-02 -0.97086408027E-01  0.97182955281E-01  0.51100000000E-03 0.  1.
         11    1    4    4    0    0 -0.38977134663E-02  0.10406773051E-01 -0.28901170478E-01  0.30968239724E-01  0.51100000000E-03 0. -1.
</event>
<event>
 8    1  0.1072332E+005  0.1043930E+01  0.7957747E-01            NaN
         13   -1    0    0    0    0  0.00000000000E+00  0.00000000000E+00  0.74505805969E-08  0.10566000000E+00  0.10566000000E+00 0.  1.
     999900   -1    0    0    0    0 -0.00000000000E+00 -0.00000000000E+00 -0.74505805969E-08  0.93827000000E+00  0.93827000000E+00 0.  1.
     999902    2    1    2    0    0  0.24613401937E-01  0.61460831132E-02 -0.11260242407E-02  0.10185358703E+01  0.10182192580E+01 0.  0.
     999903    2    3    3    0    0  0.49935018964E-01 -0.59381970806E-01  0.10199088874E+00  0.12973431321E+00  0.20226864916E-01 0.  0.
         14    1    1    2    0    0 -0.24613401937E-01 -0.61460831132E-02  0.11260242407E-02  0.25394129698E-01  0.00000000000E+00 0.  1.
     999901    1    3    3    0    0 -0.25321617027E-01  0.65528053919E-01 -0.10311691298E+00  0.88880155709E+00  0.88000000000E+00 0.  1.
        -11    1    4    4    0    0  0.81810194192E-02 -0.22706381684E-01  0.37520232287E-01  0.44615443512E-01  0.51100000000E-03 0.  1.
         11    1    4    4    0    0  0.41753999545E-01 -0.36675589123E-01  0.64470656449E-01  0.85118869702E-01  0.51100000000E-03 0. -1.
</event>
<event>
 8    1  0.1072332E+005  0.1043930E+01  0.7957747E-01            NaN
         13   -1    0    0    0    0  0.00000000000E+00  0.00000000000E+00  0.74505805969E-08  0.10566000000E+00  0.10566000000E+00 0. -1.
     999900   -1    0    0    0    0 -0.00000000000E+00 -0.00000000000E+00 -0.74505805969E-08  0.93827000000E+00  0.93827000000E+00 0.  1.
     999902    2    1    2    0    0  0.10661972993E-01 -0.15546730716E-01 -0.14444515316E-01  0.10201808416E+01  0.10199043715E+01 0.  0.
     999903    2    3    3    0    0  0.45769883252E-01  0.10301714809E+00 -0.62070312867E-01  0.13026052191E+00  0.20190711113E-01 0.  0.
         14    1    1    2    0    0 -0.10661972993E-01  0.15546730716E-01  0.14444515316E-01  0.23749158444E-01  0.00000000000E+00 0. -1.
     999901    1    3    3    0    0 -0.35107910259E-01 -0.11856387881E+00  0.47625797551E-01  0.88992031964E+00  0.88000000000E+00 0. -1.
        -11    1    4    4    0    0  0.78083307187E-02  0.38418510530E-01 -0.16317478014E-01  0.42467319078E-01  0.51100000000E-03 0. -1.
         11    1    4    4    0    0  0.37961552534E-01  0.64598637565E-01 -0.45752834853E-01  0.87793202835E-01  0.51100000000E-03 0.  1.
</event>
<event>
 8    1  0.1072332E+005  0.1043930E+01  0.7957747E-01            NaN
         13   -1    0    0    0    0  0.00000000000E+00  0.00000000000E+00  0.74505805969E-08  0.10566000000E+00  0.10566000000E+00 0. -1.
     999900   -1    0    0    0    0 -0.00000000000E+00 -0.00000000000E+00 -0.74505805969E-08  0.93827000000E+00  0.93827000000E+00 0.  1.
     999902    2    1    2    0    0  0.69427501836E-02 -0.22478833052E-01  0.61762951498E-02  0.10196062187E+01  0.10193160427E+01 0.  0.
     999903    2    3    3    0    0  0.99542332108E-01  0.32474600687E-01  0.75196316211E-01  0.13036028771E+00  0.19391829957E-01 0.  0.
         14    1    1    2    0    0 -0.69427501836E-02  0.22478833052E-01 -0.61762951498E-02  0.24323781311E-01  0.00000000000E+00 0.  1.
     999901    1    3    3    0    0 -0.92599581925E-01 -0.54953433740E-01 -0.69020021061E-01  0.88924593098E+00  0.88000000000E+00 0. -1.
        -11    1    4    4    0    0  0.37651832815E-01  0.73169694856E-02  0.37522916562E-01  0.53660310706E-01  0.51100000000E-03 0.  1.
         11    1    4    4    0    0  0.61890499293E-01  0.25157631202E-01  0.37673399649E-01  0.76699977005E-01  0.51100000000E-03 0. -1.
</event>
<event>
 8    1  0.1072332E+005  0.1043930E+01  0.7957747E-01            NaN
         13   -1    0    0    0    0  0.00000000000E+00  0.00000000000E+00  0.74505805969E-08  0.10566000000E+00  0.10566000000E+00 0.  1.
     999900   -1    0    0    0    0 -0.00000000000E+00 -0.00000000000E+00 -0.74505805969E-08  0.93827000000E+00  0.93827000000E+00 0. -1.
     999902    2    1    2    0    0 -0.80203522315E-03  0.64858030401E-02  0.22769929364E-01  0.10202407918E+01  0.10199657321E+01 0.  0.
     999903    2    3    3    0    0 -0.36428811473E-01  0.12109424226E+00 -0.27294642133E-01  0.13068426025E+00  0.18506879078E-01 0.  0.
         14    1    1    2    0    0  0.80203522315E-03 -0.64858030401E-02 -0.22769929364E-01  0.23689208193E-01  0.00000000000E+00 0. -1.
     999901    1    3    3    0    0  0.35626776250E-01 -0.11460843922E+00  0.50064571496E-01  0.88955653156E+00  0.88000000000E+00 0. -1.
        -11    1    4    4    0    0 -0.24249152612E-01  0.85814344213E-01 -0.10633149244E-01  0.89807839629E-01  0.51100000000E-03 0.  1.
         11    1    4    4    0    0 -0.12179658861E-01  0.35279898045E-01 -0.16661492888E-01  0.40876420616E-01  0.51100000000E-03 0. -1.
</event>
<event>
 8    1  0.1072332E+005  0.1043930E+01  0.7957747E-01            NaN
         13   -1    0    0    0    0  0.00000000000E+00  0.00000000000E+00  0.74505805969E-08  0.10566000000E+00  0.10566000000E+00 0. -1.
     999900   -1    0    0    0    0 -0.00000000000E+00 -0.00000000000E+00 -0.74505805969E-08  0.93827000000E+00  0.93827000000E+00 0.  1.
     999902    2    1    2    0    0 -0.13949556159E-01  0.65062435424E-02  0.19321101267E-01  0.10192272415E+01  0.10189278402E+01 0.  0.
     999903    2    3    3    0    0 -0.10467548111E+00  0.76754046951E-01  0.70145869935E-02  0.13169279282E+00  0.21110357219E-01 0.  0.
         14    1    1    2    0    0  0.13949556159E-01 -0.65062435424E-02 -0.19321101267E-01  0.24702758474E-01  0.00000000000E+00 0.  1.
     999901    1    3    3    0    0  0.90725924950E-01 -0.70247803408E-01  0.12306514273E-01  0.88753444870E+00  0.88000000000E+00 0. -1.
        -11    1    4    4    0    0 -0.13485561346E-01  0.74035232040E-02 -0.57203698644E-02  0.16421214116E-01  0.51100000000E-03 0. -1.
         11    1    4    4    0    0 -0.91189919763E-01  0.69350523747E-01  0.12734956858E-01  0.11527157871E+00  0.51100000000E-03 0.  1.
</event>
<event>
 8    1  0.1072332E+005  0.1043930E+01  0.7957747E-01            NaN
         13   -1    0    0    0    0  0.00000000000E+00  0.00000000000E+00  0.74505805969E-08  0.10566000000E+00  0.10566000000E+00 0. -1.
     999900   -1    0    0    0    0 -0.00000000000E+00 -0.00000000000E+00 -0.74505805969E-08  0.93827000000E+00  0.93827000000E+00 0. -1.
     999902    2    1    2    0    0  0.10490081451E-01  0.20839925729E-01  0.31849774423E-02  0.10203824227E+01  0.10201106804E+01 0.  0.
     999903    2    3    3    0    0  0.10324011251E-01 -0.11573632964E+00  0.50863599255E-01  0.12857170735E+00  0.21026055185E-01 0.  0.
         14    1    1    2    0    0 -0.10490081451E-01 -0.20839925729E-01 -0.31849774423E-02  0.23547577255E-01  0.00000000000E+00 0.  1.
     999901    1    3    3    0    0  0.16607019959E-03  0.13657625537E+00 -0.47678621813E-01  0.89181071539E+00  0.88000000000E+00 0. -1.
        -11    1    4    4    0    0  0.31469946431E-02 -0.10124883701E+00  0.39154896971E-01  0.10860293573E+00  0.51100000000E-03 0.  1.
         11    1    4    4    0    0  0.71770166082E-02 -0.14487492624E-01  0.11708702284E-01  0.19968771622E-01  0.51100000000E-03 0. -1.
</event>
<event>
 8    1  0.1072332E+005  0.1043930E+01  0.7957747E-01            NaN
         13   -1    0    0    0    0  0.00000000000E+00  0.00000000000E+00  0.74505805969E-08  0.10566000000E+00  0.10566000000E+00 0. -1.
     999900   -1    0    0    0    0 -0.00000000000E+00 -0.00000000000E+00 -0.74505805969E-08  0.93827000000E+00  0.93827000000E+00 0. -1.
     999902    2    1    2    0    0  0.35746933910E-02 -0.24363098008E-01  0.75760656944E-02  0.10181669305E+01  0.10178409319E+01 0.  0.
     999903    2    3    3    0    0  0.24306344937E-01  0.94784650941E-01 -0.76753218138E-01  0.12590160252E+00  0.19627240343E-01 0.  0.
         14    1    1    2    0    0 -0.35746933910E-02  0.24363098008E-01 -0.75760656944E-02  0.25763069475E-01  0.00000000000E+00 0. -1.
     999901    1    3    3    0    0 -0.20731651546E-01 -0.11914774895E+00  0.84329283832E-01  0.89226532801E+00  0.88000000000E+00 0.  1.
        -11    1    4    4    0    0  0.19831262346E-01  0.47141672018E-01 -0.47579660013E-01  0.69854859350E-01  0.51100000000E-03 0. -1.
         11    1    4    4    0    0  0.44750825904E-02  0.47642978923E-01 -0.29173558124E-01  0.56046743166E-01  0.51100000000E-03 0.  1.
</event>
<event>
 8    1  0.1072332E+005  0.1043930E+01  0.7957747E-01            NaN
         13   -1    0    0    0    0  0.00000000000E+00  0.00000000000E+00  0.74505805969E-08  0.10566000000E+00  0.10566000000E+00 0.  1.
     999900   -1    0    0    0    0 -0.00000000000E+00 -0.00000000000E+00 -0.74505805969E-08  0.93827000000E+00  0.93827000000E+00 0.  1.
     999902    2    1    2    0    0  0.86754412272E-02  0.22073484413E-01  0.19651416536E-02  0.10201316014E+01  0.10198539701E+01 0.  0.
     999903    2    3    3    0    0 -0.55085418366E-01 -0.96496584711E-01 -0.59142757000E-01  0.12779843279E+00  0.22103835431E-01 0.  0.
         14    1    1    2    0    0 -0.86754412272E-02 -0.22073484413E-01 -0.19651416536E-02  0.23798398609E-01  0.00000000000E+00 0.  1.
     999901    1    3    3    0    0  0.63760859593E-01  0.11857006912E+00  0.61107898653E-01  0.89233316860E+00  0.88000000000E+00 0. -1.
        -11    1    4    4    0    0 -0.10940133756E-01 -0.37590838349E-01 -0.26457225663E-01  0.47254667126E-01  0.51100000000E-03 0.  1.
         11    1    4    4    0    0 -0.44145284609E-01 -0.58905746362E-01 -0.32685531337E-01  0.80543765664E-01  0.51100000000E-03 0. -1.
</event>
<event>
 8    1  0.1072332E+005  0.1043930E+01  0.7957747E-01            NaN
         13   -1    0    0    0    0  0.00000000000E+00  0.00000000000E+00  0.74505805969E-08  0.10566000000E+00  0.10566000000E+00 0. -1.
     999900   -1    0    0    0    0 -0.00000000000E+00 -0.00000000000E+00 -0.74505805969E-08  0.93827000000E+00  0.93827000000E+00 0.  1.
     999902    2    1    2    0    0 -0.21676941370E-01 -0.29433675865E-02  0.84759747378E-02  0.10204694939E+01  0.10201997807E+01 0.  0.
     999903    2    3    3    0    0  0.95948762839E-01 -0.79152790377E-01 -0.25929814580E-01  0.12871423555E+00  0.20583241583E-01 0.  0.
         14    1    1    2    0    0  0.21676941370E-01  0.29433675865E-02 -0.84759747378E-02  0.23460506125E-01  0.00000000000E+00 0. -1.
     999901    1    3    3    0    0 -0.11762570421E+00  0.76209422791E-01  0.34405789318E-01  0.89175525833E+00  0.88000000000E+00 0. -1.
        -11    1    4    4    0    0  0.28895944734E-01 -0.34267824406E-01 -0.15086037207E-01  0.47298087183E-01  0.51100000000E-03 0.  1.
         11    1    4    4    0    0  0.67052818105E-01 -0.44884965971E-01 -0.10843777373E-01  0.81416148366E-01  0.51100000000E-03 0. -1.
</event>
<event>
 8    1  0.1072332E+005  0.1043930E+01  0.7957747E-01            NaN
         13   -1    0    0    0    0  0.00000000000E+00  0.00000000000E+00  0.74505805969E-08  0.10566000000E+00  0.10566000000E+00 0. -1.
     999900   -1    0    0    0    0 -0.00000000000E+00 -0.00000000000E+00 -0.74505805969E-08  0.93827000000E+00  0.93827000000E+00 0. -1.
     999902    2    1    2    0    0  0.10623552730E-01  0.21981449451E-01  0.28794484804E-02  0.10193467696E+01  0.10190502939E+01 0.  0.
     999903    2    3    3    0    0  0.34840291923E-01 -0.56068787508E-01 -0.10842297333E+00  0.12857939311E+00  0.20483269089E-01 0.  0.
         14    1    1    2    0    0 -0.10623552730E-01 -0.21981449451E-01 -0.28794484804E-02  0.24583230384E-01  0.00000000000E+00 0.  1.
     999901    1    3    3    0    0 -0.24216739193E-01  0.78050236959E-01  0.11130242181E+00  0.89076737651E+00  0.88000000000E+00 0.  1.
        -11    1    4    4    0    0  0.79570664509E-02 -0.32121231836E-01 -0.53237299062E-01  0.62686199227E-01  0.51100000000E-03 0. -1.
         11    1    4    4    0    0  0.26883225472E-01 -0.23947555672E-01 -0.55185674269E-01  0.65893193882E-01  0.51100000000E-03 0.  1.
</event>
<event>
 8    1  0.1072332E+005  0.1043930E+01  0.7957747E-01            NaN
         13   -1    0    0    0    0  0.00000000000E+00  0.00000000000E+00  0.74505805969E-08  0.10566000000E+00  0.10566000000E+00 0. -1.
     999900   -1    0    0    0    0 -0.00000000000E+00 -0.00000000000E+00 -0.74505805969E-08  0.93827000000E+00  0.93827000000E+00 0. -1.
     999902    2    1    2    0    0 -0.32135396303E-03 -0.21202075777E-01  0.14418106783E-01  0.10182879820E+01  0.10179650785E+01 0.  0.
     999903    2    3    3    0    0  0.32403359720E-01 -0.76989050465E-02 -0.12088435031E+00  0.12724365232E+00  0.21648788531E-01 0.  0.
         14    1    1    2    0    0  0.32135396303E-03  0.21202075777E-01 -0.14418106783E-01  0.25642018033E-01  0.00000000000E+00 0. -1.
     999901    1    3    3    0    0 -0.32724713683E-01 -0.13503170730E-01  0.13530245709E+00  0.89104432965E+00  0.88000000000E+00 0.  1.
        -11    1    4    4    0    0  0.17188133819E-02 -0.79736103031E-02 -0.37770962720E-01  0.38645045303E-01  0.51100000000E-03 0.  1.
         11    1    4    4    0    0  0.30684546338E-01  0.27470525655E-03 -0.83113387591E-01  0.88598607014E-01  0.51100000000E-03 0. -1.
</event>
<event>
 7    1  0.1072332E+005  0.1043930E+01  0.7957747E-01            NaN
         13   -1    0    0    0    0  0.00000000000E+00  0.00000000000E+00  0.74505805969E-08  0.10566000000E+00  0.10566000000E+00 0.  1.
     999900   -1    0    0    0    0 -0.00000000000E+00 -0.00000000000E+00 -0.74505805969E-08  0.93827000000E+00  0.93827000000E+00 0. -1.
     999902    2    1    2    0    0 -0.30325291027E-02  0.47410973321E-02 -0.22263254402E-01  0.10209664042E+01  0.10207081227E+01 0.  0.
         14    1    1    2    0    0  0.30325291027E-02 -0.47410973321E-02  0.22263254402E-01  0.22963595826E-01  0.00000000000E+00 0.  1.
     999901    1    3    3    0    0 -0.93765801359E-01 -0.77484478884E-01 -0.50966331411E-01  0.88982775688E+00  0.88000000000E+00 0.  1.
        -11    1    3    3    0    0  0.59875836325E-01  0.30145138163E-01  0.20141819231E-01  0.69998565224E-01  0.51100000000E-03 0.  1.
         11    1    3    3    0    0  0.30857435931E-01  0.52080438054E-01  0.85612577781E-02  0.61140082073E-01  0.51100000000E-03 0. -1.
</event>
<event>
 8    1  0.1072332E+005  0.1043930E+01  0.7957747E-01            NaN
         13   -1    0    0    0    0  0.00000000000E+00  0.00000000000E+00  0.74505805969E-08  0.10566000000E+00  0.10566000000E+00 0.  1.
     999900   -1    0    0    0    0 -0.00000000000E+00 -0.00000000000E+00 -0.74505805969E-08  0.93827000000E+00  0.93827000000E+00 0.  1.
     999902    2    1    2    0    0 -0.18487690040E-01  0.13221940482E-01 -0.72066328015E-02  0.10200857145E+01  0.10198069989E+01 0.  0.
     999903    2    3    3    0    0  0.82076273972E-01  0.92617650018E-01 -0.35884067713E-01  0.13034463713E+00  0.19685382088E-01 0.  0.
         14    1    1    2    0    0  0.18487690040E-01 -0.13221940482E-01  0.72066328015E-02  0.23844285468E-01  0.00000000000E+00 0.  1.
     999901    1    3    3    0    0 -0.10056396401E+00 -0.79395709536E-01  0.28677434911E-01  0.88974107741E+00  0.88000000000E+00 0. -1.
        -11    1    4    4    0    0  0.17315367737E-01  0.32366684141E-01 -0.77234095332E-02  0.37514482244E-01  0.51100000000E-03 0. -1.
         11    1    4    4    0    0  0.64760906235E-01  0.60250965876E-01 -0.28160658180E-01  0.92830154882E-01  0.51100000000E-03 0.  1.
</event>
<event>
 8    1  0.1072332E+005  0.1043930E+01  0.7957747E-01            NaN
         13   -1    0    0    0    0  0.00000000000E+00  0.00000000000E+00  0.74505805969E-08  0.10566000000E+00  0.10566000000E+00 0. -1.
     999900   -1    0    0    0    0 -0.00000000000E+00 -0.00000000000E+00 -0.74505805969E-08  0.93827000000E+00  0.93827000000E+00 0. -1.
     999902    2    1    2    0    0 -0.20606042828E-01 -0.40076316585E-02  0.55166965152E-02  0.10222250685E+01  0.10219946118E+01 0.  0.
     999903    2    3    3    0    0 -0.45292967560E-01  0.11678710949E+00 -0.39315937088E-01  0.13249995430E+00  0.17883319755E-01 0.  0.
         14    1    1    2    0    0  0.20606042828E-01  0.40076316585E-02 -0.55166965152E-02  0.21704931536E-01  0.00000000000E+00 0. -1.
     999901    1    3    3    0    0  0.24686924731E-01 -0.12079474115E+00  0.44832633603E-01  0.88972511417E+00  0.88000000000E+00 0.  1.
        -11    1    4    4    0    0 -0.14178636352E-01  0.49805333057E-01 -0.23969896585E-01  0.57065068063E-01  0.51100000000E-03 0. -1.
         11    1    4    4    0    0 -0.31114331208E-01  0.66981776436E-01 -0.15346040503E-01  0.75434886235E-01  0.51100000000E-03 0.  1.
</event>
<event>
 8    1  0.1072332E+005  0.1043930E+01  0.7957747E-01            NaN
         13   -1    0    0    0    0  0.00000000000E+00  0.00000000000E+00  0.74505805969E-08  0.10566000000E+00  0.10566000000E+00 0.  1.
     999900   -1    0    0    0    0 -0.00000000000E+00 -0.00000000000E+00 -0.74505805969E-08  0.93827000000E+00  0.93827000000E+00 0.  1.
     999902    2    1    2    0    0 -0.10805507567E-01 -0.11054655799E-01  0.17748968779E-01  0.10203930014E+01  0.10201215060E+01 0.  0.
     999903    2    3    3    0    0 -0.63189875690E-01 -0.10907684227E+00  0.39143762435E-01  0.13314432814E+00  0.17448784190E-01 0.  0.
         14    1    1    2    0    0  0.10805507567E-01  0.11054655799E-01 -0.17748968779E-01  0.23536998563E-01  0.00000000000E+00 0. -1.
     999901    1    3    3    0    0  0.52384368123E-01  0.98022186472E-01 -0.21394793656E-01  0.88724867329E+00  0.88000000000E+00 0.  1.
        -11    1    4    4    0    0 -0.31998209958E-01 -0.58753189647E-01  0.29650840173E-01  0.73179615865E-01  0.51100000000E-03 0.  1.
         11    1    4    4    0    0 -0.31191665733E-01 -0.50323652625E-01  0.94929222623E-02  0.59964712279E-01  0.51100000000E-03 0. -1.
</event>
<event>
 8    1  0.1072332E+005  0.1043930E+01  0.7957747E-01            NaN
         13   -1    0    0    0    0  0.00000000000E+00  0.00000000000E+00  0.74505805969E-08  0.10566000000E+00  0.10566000000E+00 0.  1.
     999900   -1    0    0    0    0 -0.00000000000E+00 -0.00000000000E+00 -0.74505805969E-08  0.93827000000E+00  0.93827000000E+00 0. -1.
     999902    2    1    2    0    0  0.15050318424E-01 -0.12967262990E-01  0.14189879654E-01  0.10195165881E+01  0.10192242436E+01 0.  0.
     999903    2    3    3    0    0  0.10869952227E-01 -0.12186787535E+00  0.46263317096E-01  0.13221420213E+00  0.19244891064E-01 0.  0.
         14    1    1    2    0    0 -0.15050318424E-01  0.12967262990E-01 -0.14189879654E-01  0.24413411861E-01  0.00000000000E+00 0. -1.
     999901    1    3    3    0    0  0.41803661970E-02  0.10890061236E+00 -0.32073437441E-01  0.88730238601E+00  0.88000000000E+00 0.  1.
        -11    1    4    4    0    0 -0.33499025868E-02 -0.40623020375E-01  0.21550811053E-01  0.46110196375E-01  0.51100000000E-03 0. -1.
         11    1    4    4    0    0  0.14219854814E-01 -0.81244854973E-01  0.24712506042E-01  0.86104005751E-01  0.51100000000E-03 0.  1.
</event>
<event>
 8    1  0.1072332E+005  0.1043930E+01  0.7957747E-01            NaN
         13   -1    0    0    0    0  0.00000000000E+00  0.00000000000E+00  0.74505805969E-08  0.10566000000E+00  0.10566000000E+00 0.  1.
     999900   -1    0    0    0    0 -0.00000000000E+00 -0.00000000000E+00 -0.74505805969E-08  0.93827000000E+00  0.93827000000E+00 0.  1.
     999902    2    1    2    0    0  0.13003247499E-01 -0.18738186496E-01 -0.50074587660E-02  0.10205787961E+01  0.10203116193E+01 0.  0.
     999903    2    3    3    0    0  0.45627568015E-01 -0.11747488525E+00 -0.39579923619E-01  0.13378201147E+00  0.21185669964E-01 0.  0.
         14    1    1    2    0    0 -0.13003247499E-01  0.18738186496E-01  0.50074587660E-02  0.23351203866E-01  0.00000000000E+00 0.  1.
     999901    1    3    3    0    0 -0.32624320516E-01  0.98736698751E-01  0.34572464853E-01  0.88679678467E+00  0.88000000000E+00 0. -1.
        -11    1    4    4    0    0  0.36592707398E-01 -0.65520167583E-01 -0.23993351666E-01  0.78789978043E-01  0.51100000000E-03 0. -1.
         11    1    4    4    0    0  0.90348606164E-02 -0.51954717664E-01 -0.15586571953E-01  0.54992033424E-01  0.51100000000E-03 0.  1.
</event>
<event>
 8    1  0.1072332E+005  0.1043930E+01  0.7957747E-01            NaN
         13   -1    0    0    0    0  0.00000000000E+00  0.00000000000E+00  0.74505805969E-08  0.10566000000E+00  0.10566000000E+00 0. -1.
     999900   -1    0    0    0    0 -0.00000000000E+00 -0.00000000000E+00 -0.74505805969E-08  0.93827000000E+00  0.93827000000E+00 0. -1.
     999902    2    1    2    0    0 -0.48760853156E-02 -0.75603868268E-03  0.22975305126E-01  0.10204307990E+01  0.10201601850E+01 0.  0.
     999903    2    3    3    0    0  0.33292798619E-01 -0.75241717665E-01  0.10293383768E+00  0.13285074795E+00  0.16858818865E-01 0.  0.
         14    1    1    2    0    0  0.48760853156E-02  0.75603868268E-03 -0.22975305126E-01  0.23499201010E-01  0.00000000000E+00 0.  1.
     999901    1    3    3    0    0 -0.38168883935E-01  0.74485678982E-01 -0.79958532559E-01  0.88758005104E+00  0.88000000000E+00 0. -1.
        -11    1    4    4    0    0  0.26787932510E-01 -0.68551422569E-01  0.97068694972E-01  0.12181741882E+00  0.51100000000E-03 0.  1.
         11    1    4    4    0    0  0.65048661099E-02 -0.66902950961E-02  0.58651427123E-02  0.11033329127E-01  0.51100000000E-03 0. -1.
</event>
<event>
 8    1  0.1072332E+005  0.1043930E+01  0.7957747E-01            NaN
         13   -1    0    0    0    0  0.00000000000E+00  0.00000000000E+00  0.74505805969E-08  0.10566000000E+00  0.10566000000E+00 0. -1.
     999900   -1    0    0    0    0 -0.00000000000E+00 -0.00000000000E+00 -0.74505805969E-08  0.93827000000E+00  0.93827000000E+00 0.  1.
     999902    2    1    2    0    0 -0.22192569020E-01  0.87155181095E-02  0.20530542029E-02  0.10199991536E+01  0.10197183866E+01 0.  0.
     999903    2    3    3    0    0  0.62595457567E-01  0.11171596452E+00 -0.85154472945E-02  0.12988129929E+00  0.19949712464E-01 0.  0.
         14    1    1    2    0    0  0.22192569020E-01 -0.87155181095E-02 -0.20530542029E-02  0.23930846353E-01  0.00000000000E+00 0.  1.
     999901    1    3    3    0    0 -0.84788026586E-01 -0.10300044641E+00  0.10568501497E-01  0.89011785435E+00  0.88000000000E+00 0. -1.
        -11    1    4    4    0    0  0.81745114055E-02  0.31816299320E-01 -0.40752468593E-02  0.33105411900E-01  0.51100000000E-03 0.  1.
         11    1    4    4    0    0  0.54420946161E-01  0.79899665200E-01 -0.44402004353E-02  0.96775887394E-01  0.51100000000E-03 0. -1.
</event>
<event>
 8    1  0.1072332E+005  0.1043930E+01  0.7957747E-01            NaN
         13   -1    0    0    0    0  0.00000000000E+00  0.00000000000E+00  0.74505805969E-08  0.10566000000E+00  0.10566000000E+00 0.  1.
     999900   -1    0    0    0    0 -0.00000000000E+00 -0.00000000000E+00 -0.74505805969E-08  0.93827000000E+00  0.93827000000E+00 0.  1.
     999902    2    1    2    0    0 -0.15805287522E-01  0.12032969030E-01  0.85390079790E-02  0.10223079253E+01  0.10220792435E+01 0.  0.
     999903    2    3    3    0    0 -0.27107181170E-01 -0.42409644239E-01  0.12192056629E+00  0.13329324110E+00  0.19211622617E-01 0.  0.
         14    1    1    2    0    0  0.15805287522E-01 -0.12032969030E-01 -0.85390079790E-02  0.21622074706E-01  0.00000000000E+00 0. -1.
     999901    1    3    3    0    0  0.11301893648E-01  0.54442613269E-01 -0.11338155831E+00  0.88901468419E+00  0.88000000000E+00 0.  1.
        -11    1    4    4    0    0 -0.43586462659E-03 -0.13307914858E-01  0.20393028497E-01  0.24360363464E-01  0.51100000000E-03 0.  1.
         11    1    4    4    0    0 -0.26671316543E-01 -0.29101729381E-01  0.10152753780E+00  0.10893287764E+00  0.51100000000E-03 0. -1.
</event>
<event>
 8    1  0.1072332E+005  0.1043930E+01  0.7957747E-01            NaN
         13   -1    0    0    0    0  0.00000000000E+00  0.00000000000E+00  0.74505805969E-08  0.10566000000E+00  0.10566000000E+00 0. -1.
     999900   -1    0    0    0    0 -0.00000000000E+00 -0.00000000000E+00 -0.74505805969E-08  0.93827000000E+00  0.93827000000E+00 0.  1.
     999902    2    1    2    0    0 -0.93494181254E-02  0.21554510861E-01 -0.41026031195E-02  0.10200796350E+01  0.10198007756E+01 0.  0.
     999903    2    3    3    0    0 -0.31984150579E-01  0.71579050555E-01 -0.10498885942E+00  0.13261536959E+00  0.20435980103E-01 0.  0.
         14    1    1    2    0    0  0.93494181254E-02 -0.21554510861E-01  0.41026031195E-02  0.23850364989E-01  0.00000000000E+00 0. -1.
     999901    1    3    3    0    0  0.22634732454E-01 -0.50024539693E-01  0.10088625630E+00  0.88746426542E+00  0.88000000000E+00 0. -1.
        -11    1    4    4    0    0 -0.53725740489E-02  0.34341144630E-01 -0.38228492850E-01  0.51670664336E-01  0.51100000000E-03 0.  1.
         11    1    4    4    0    0 -0.26611576530E-01  0.37237905925E-01 -0.66760366572E-01  0.80944705256E-01  0.51100000000E-03 0. -1.
</event>
<event>
 8    1  0.1072332E+005  0.1043930E+01  0.7957747E-01            NaN
         13   -1    0    0    0    0  0.00000000000E+00  0.00000000000E+00  0.74505805969E-08  0.10566000000E+00  0.10566000000E+00 0. -1.
     999900   -1    0    0    0    0 -0.00000000000E+00 -0.00000000000E+00 -0.74505805969E-08  0.93827000000E+00  0.93827000000E+00 0. -1.
     999902    2    1    2    0    0  0.71137174167E-02  0.91773604583E-03 -0.22954703084E-01  0.10198807670E+01  0.10195971819E+01 0.  0.
     999903    2    3    3    0    0  0.62454076992E-01  0.34107928872E-02  0.10998381630E+00  0.12817374073E+00  0.20492016136E-01 0.  0.
         14    1    1    2    0    0 -0.71137174167E-02 -0.91773604583E-03  0.22954703084E-01  0.24049233015E-01  0.00000000000E+00 0. -1.
     999901    1    3    3    0    0 -0.55340359576E-01 -0.24930568413E-02 -0.13293851938E+00  0.89170702625E+00  0.88000000000E+00 0. -1.
        -11    1    4    4    0    0  0.43618624350E-01 -0.45408439715E-02  0.61344127873E-01  0.75409328333E-01  0.51100000000E-03 0.  1.
         11    1    4    4    0    0  0.18835452642E-01  0.79516368587E-02  0.48639688425E-01  0.52764412401E-01  0.51100000000E-03 0. -1.
</event>
<event>
 8    1  0.1072332E+005  0.1043930E+01  0.7957747E-01            NaN
         13   -1    0    0    0    0  0.00000000000E+00  0.00000000000E+00  0.74505805969E-08  0.10566000000E+00  0.10566000000E+00 0.  1.
     999900   -1    0    0    0    0 -0.00000000000E+00 -0.00000000000E+00 -0.74505805969E-08  0.93827000000E+00  0.93827000000E+00 0. -1.
     999902    2    1    2    0    0  0.12347867504E-01 -0.15111420517E-01  0.12851963807E-01  0.10205634034E+01  0.10202958701E+01 0.  0.
     999903    2    3    3    0    0  0.72426002141E-01  0.99284791758E-01 -0.36850475438E-01  0.12974007183E+00  0.19275192285E-01 0.  0.
         14    1    1    2    0    0 -0.12347867504E-01  0.15111420517E-01 -0.12851963807E-01  0.23366596578E-01  0.00000000000E+00 0. -1.
     999901    1    3    3    0    0 -0.60078134637E-01 -0.11439621227E+00  0.49702439245E-01  0.89082333159E+00  0.88000000000E+00 0.  1.
        -11    1    4    4    0    0  0.20838663542E-01  0.15852107539E-01 -0.55149089759E-02  0.26762185144E-01  0.51100000000E-03 0. -1.
         11    1    4    4    0    0  0.51587338599E-01  0.83432684218E-01 -0.31335566462E-01  0.10297788669E+00  0.51100000000E-03 0.  1.
</event>
<event>
 8    1  0.1072332E+005  0.1043930E+01  0.7957747E-01            NaN
         13   -1    0    0    0    0  0.00000000000E+00  0.00000000000E+00  0.74505805969E-08  0.10566000000E+00  0.10566000000E+00 0.  1.
     999900   -1    0    0    0    0 -0.00000000000E+00 -0.00000000000E+00 -0.74505805969E-08  0.93827000000E+00  0.93827000000E+00 0. -1.
     999902    2    1    2    0    0  0.20143607575E-01  0.13190920700E-01  0.37263606188E-02  0.10195650440E+01  0.10192738729E+01 0.  0.
     999903    2    3    3    0    0 -0.92131616375E-01 -0.85745371588E-01  0.30729869782E-02  0.12693155670E+00  0.16176320720E-01 0.  0.
         14    1    1    2    0    0 -0.20143607575E-01 -0.13190920700E-01 -0.37263606188E-02  0.24364955951E-01  0.00000000000E+00 0.  1.
     999901    1    3    3    0    0  0.11227522395E+00  0.98936292288E-01  0.65337364060E-03  0.89263348735E+00  0.88000000000E+00 0. -1.
        -11    1    4    4    0    0 -0.67797828440E-01 -0.53112309317E-01  0.38786019925E-02  0.86213500199E-01  0.51100000000E-03 0.  1.
         11    1    4    4    0    0 -0.24333787935E-01 -0.32633062271E-01 -0.80561501437E-03  0.40718056498E-01  0.51100000000E-03 0. -1.
</event>
<event>
 8    1  0.1072332E+005  0.1043930E+01  0.7957747E-01            NaN
         13   -1    0    0    0    0  0.00000000000E+00  0.00000000000E+00  0.74505805969E-08  0.10566000000E+00  0.10566000000E+00 0.  1.
     999900   -1    0    0    0    0 -0.00000000000E+00 -0.00000000000E+00 -0.74505805969E-08  0.93827000000E+00  0.93827000000E+00 0. -1.
     999902    2    1    2    0    0  0.44644066202E-02  0.22678645526E-01  0.44043622971E-02  0.10204002253E+01  0.10201288985E+01 0.  0.
     999903    2    3    3    0    0  0.88245052154E-01 -0.12820645185E-01  0.94154309778E-01  0.13116771957E+00  0.19707319312E-01 0.  0.
         14    1    1    2    0    0 -0.44644066202E-02 -0.22678645526E-01 -0.44043622971E-02  0.23529774683E-01  0.00000000000E+00 0.  1.
     999901    1    3    3    0    0 -0.83780645534E-01  0.35499290711E-01 -0.89749947481E-01  0.88923250575E+00  0.88000000000E+00 0. -1.
        -11    1    4    4    0    0  0.27890988602E-01  0.30831346634E-02  0.37762030687E-01  0.47049389445E-01  0.51100000000E-03 0. -1.
         11    1    4    4    0    0  0.60354063552E-01 -0.15903779849E-01  0.56392279091E-01  0.84118330124E-01  0.51100000000E-03 0.  1.
</event>
<event>
 8    1  0.1072332E+005  0.1043930E+01  0.7957747E-01            NaN
         13   -1    0    0    0    0  0.00000000000E+00  0.00000000000E+00  0.74505805969E-08  0.10566000000E+00  0.10566000000E+00 0. -1.
     999900   -1    0    0    0    0 -0.00000000000E+00 -0.00000000000E+00 -0.74505805969E-08  0.93827000000E+00  0.93827000000E+00 0. -1.
     999902    2    1    2    0    0 -0.30285477625E-02  0.74240889968E-02 -0.21848047316E-01  0.10206571323E+01  0.10203917656E+01 0.  0.
     999903    2    3    3    0    0 -0.19921180187E-01  0.12863560209E+00  0.38921066203E-02  0.13181510615E+00  0.20398582564E-01 0.  0.
         14    1    1    2    0    0  0.30285477625E-02 -0.74240889968E-02  0.21848047316E-01  0.23272867689E-01  0.00000000000E+00 0. -1.
     999901    1    3    3    0    0  0.16892632424E-01 -0.12121151310E+00 -0.25740153936E-01  0.88884202616E+00  0.88000000000E+00 0. -1.
        -11    1    4    4    0    0  0.13922203217E-02  0.46030643260E-01  0.62131964759E-02  0.46471747631E-01  0.51100000000E-03 0. -1.
         11    1    4    4    0    0 -0.21313400508E-01  0.82604958833E-01 -0.23210898556E-02  0.85343358524E-01  0.51100000000E-03 0.  1.
</event>
<event>
 8    1  0.1072332E+005  0.1043930E+01  0.7957747E-01            NaN
         13   -1    0    0    0    0  0.00000000000E+00  0.00000000000E+00  0.74505805969E-08  0.10566000000E+00  0.10566000000E+00 0. -1.
     999900   -1    0    0    0    0 -0.00000000000E+00 -0.00000000000E+00 -0.74505805969E-08  0.93827000000E+00  0.93827000000E+00 0. -1.
     999902    2    1    2    0    0  0.62766698289E-02 -0.21275529722E-01 -0.72714474684E-02  0.10205865063E+01  0.10203195079E+01 0.  0.
     999903    2    3    3    0    0 -0.11293198025E+00  0.30163110332E-01  0.51333122917E-01  0.12913200293E+00  0.19404620153E-01 0.  0.
         14    1    1    2    0    0 -0.62766698289E-02  0.21275529722E-01  0.72714474684E-02  0.23343493684E-01  0.00000000000E+00 0. -1.
     999901    1    3    3    0    0  0.11920865008E+00 -0.51438640054E-01 -0.58604570386E-01  0.89145450339E+00  0.88000000000E+00 0. -1.
        -11    1    4    4    0    0 -0.29634630550E-01  0.33763377151E-02  0.21169116334E-01  0.36578731410E-01  0.51100000000E-03 0.  1.
         11    1    4    4    0    0 -0.83297349700E-01  0.26786772617E-01  0.30164006584E-01  0.92553271516E-01  0.51100000000E-03 0. -1.
</event>
<event>
 7    1  0.1072332E+005  0.1043930E+01  0.7957747E-01            NaN
         13   -1    0    0    0    0  0.00000000000E+00  0.00000000000E+00  0.74505805969E-08  0.10566000000E+00  0.10566000000E+00 0. -1.
     999900   -1    0    0    0    0 -0.00000000000E+00 -0.00000000000E+00 -0.74505805969E-08  0.93827000000E+00  0.93827000000E+00 0. -1.
     999903    2    1    2    0    0  0.84224714013E-01  0.31967773894E-01  0.57221990531E-01  0.10916828133E+00  0.22969902703E-01 0.  0.
         14    1    1    2    0    0  0.22085960921E-01  0.21178623493E-01  0.29554490983E-01  0.42541646655E-01  0.00000000000E+00 0. -1.
     999901    1    1    2    0    0 -0.10631067493E+00 -0.53146397386E-01 -0.86776481514E-01  0.89222007201E+00  0.88000000000E+00 0. -1.
        -11    1    3    3    0    0  0.29036183544E-01  0.85499058326E-02  0.72740357743E-02  0.31134764524E-01  0.51100000000E-03 0.  1.
         11    1    3    3    0    0  0.55188530470E-01  0.23417868061E-01  0.49947954757E-01  0.78033516807E-01  0.51100000000E-03 0. -1.
</event>
<event>
 8    1  0.1072332E+005  0.1043930E+01  0.7957747E-01            NaN
         13   -1    0    0    0    0  0.00000000000E+00  0.00000000000E+00  0.74505805969E-08  0.10566000000E+00  0.10566000000E+00 0.  1.
     999900   -1    0    0    0    0 -0.00000000000E+00 -0.00000000000E+00 -0.74505805969E-08  0.93827000000E+00  0.93827000000E+00 0.  1.
     999902    2    1    2    0    0  0.74537628398E-02 -0.22434642787E-01  0.15995083236E-02  0.10202354816E+01  0.10199602971E+01 0.  0.
     999903    2    3    3    0    0 -0.77461686784E-01 -0.10575928083E+00  0.42759483680E-02  0.13222602653E+00  0.16736186990E-01 0.  0.
         14    1    1    2    0    0 -0.74537628398E-02  0.22434642787E-01 -0.15995083236E-02  0.23694518445E-01  0.00000000000E+00 0. -1.
     999901    1    3    3    0    0  0.84915449624E-01  0.83324638044E-01 -0.26764400445E-02  0.88800945503E+00  0.88000000000E+00 0. -1.
        -11    1    4    4    0    0 -0.42874855084E-01 -0.52599286396E-01 -0.53691342927E-02  0.68073686927E-01  0.51100000000E-03 0. -1.
         11    1    4    4    0    0 -0.34586831700E-01 -0.53159994436E-01  0.96450826607E-02  0.64152339599E-01  0.51100000000E-03 0.  1.
</event>
<event>
 8    1  0.1072332E+005  0.1043930E+01  0.7957747E-01            NaN
         13   -1    0    0    0    0  0.00000000000E+00  0.00000000000E+00  0.74505805969E-08  0.10566000000E+00  0.10566000000E+00 0.  1.
     999900   -1    0    0    0    0 -0.00000000000E+00 -0.00000000000E+00 -0.74505805969E-08  0.93827000000E+00  0.93827000000E+00 0. -1.
     999902    2    1    2    0    0  0.23624904320E-02 -0.19573311609E-01  0.10817162241E-01  0.10214420724E+01  0.10211944969E+01 0.  0.
     999903    2    3    3    0    0 -0.65320237131E-01 -0.82933227085E-01 -0.76876612959E-01  0.13223701804E+00  0.20783690425E-01 0.  0.
         14    1    1    2    0    0 -0.23624904320E-02  0.19573311609E-01 -0.10817162241E-01  0.22487927591E-01  0.00000000000E+00 0. -1.
     999901    1    3    3    0    0  0.67682727563E-01  0.63359915476E-01  0.87693775199E-01  0.88920505436E+00  0.88000000000E+00 0.  1.
        -11    1    4    4    0    0 -0.30368453109E-01 -0.46434607869E-01 -0.51427124755E-01  0.75653327976E-01  0.51100000000E-03 0.  1.
         11    1    4    4    0    0 -0.34951784022E-01 -0.36498619215E-01 -0.25449488204E-01  0.56583690069E-01  0.51100000000E-03 0. -1.
</event>
<event>
 8    1  0.1072332E+005  0.1043930E+01  0.7957747E-01            NaN
         13   -1    0    0    0    0  0.00000000000E+00  0.00000000000E+00  0.74505805969E-08  0.10566000000E+00  0.10566000000E+00 0. -1.
     999900   -1    0    0    0    0 -0.00000000000E+00 -0.00000000000E+00 -0.74505805969E-08  0.93827000000E+00  0.93827000000E+00 0.  1.
     999902    2    1    2    0    0  0.57383164613E-02  0.19371643210E-01 -0.12979571007E-01  0.10199162935E+01  0.10196335556E+01 0.  0.
     999903    2    3    3    0    0  0.10333275772E-02  0.13038266399E+00  0.12212287748E-01  0.13257182070E+00  0.20626217251E-01 0.  0.
         14    1    1    2    0    0 -0.57383164613E-02 -0.19371643210E-01  0.12979571007E-01  0.24013706503E-01  0.00000000000E+00 0. -1.
     999901    1    3    3    0    0  0.47049888840E-02 -0.11101102078E+00 -0.25191858755E-01  0.88734447280E+00  0.88000000000E+00 0.  1.
        -11    1    4    4    0    0  0.10234700708E-02  0.75252927258E-01 -0.31882755197E-02  0.75329123012E-01  0.51100000000E-03 0. -1.
         11    1    4    4    0    0  0.98575064245E-05  0.55129736728E-01  0.15400563267E-01  0.57242697690E-01  0.51100000000E-03 0.  1.
</event>
<event>
 8    1  0.1072332E+005  0.1043930E+01  0.7957747E-01            NaN
         13   -1    0    0    0    0  0.00000000000E+00  0.00000000000E+00  0.74505805969E-08  0.10566000000E+00  0.10566000000E+00 0.  1.
     999900   -1    0    0    0    0 -0.00000000000E+00 -0.00000000000E+00 -0.74505805969E-08  0.93827000000E+00  0.93827000000E+00 0. -1.
     999902    2    1    2    0    0  0.11415450113E-01 -0.19226172223E-01  0.90287286754E-02  0.10198161836E+01  0.10195310550E+01 0.  0.
     999903    2    3    3    0    0 -0.11636509982E+00 -0.32735590731E-01  0.43840827043E-01  0.12980368059E+00  0.17734768776E-01 0.  0.
         14    1    1    2    0    0 -0.11415450113E-01  0.19226172223E-01 -0.90287286754E-02  0.24113816395E-01  0.00000000000E+00 0. -1.
     999901    1    3    3    0    0  0.12778054993E+00  0.13509418508E-01 -0.34812098368E-01  0.89001250301E+00  0.88000000000E+00 0.  1.
        -11    1    4    4    0    0 -0.22849221889E-01 -0.11958375746E-01  0.42258527887E-02  0.26138260160E-01  0.51100000000E-03 0.  1.
         11    1    4    4    0    0 -0.93515877927E-01 -0.20777214985E-01  0.39614974254E-01  0.10366542043E+00  0.51100000000E-03 0. -1.
</event>
<event>
 8    1  0.1072332E+005  0.1043930E+01  0.7957747E-01            NaN
         13   -1    0    0    0    0  0.00000000000E+00  0.00000000000E+00  0.74505805969E-08  0.10566000000E+00  0.10566000000E+00 0. -1.
     999900   -1    0    0    0    0 -0.00000000000E+00 -0.00000000000E+00 -0.74505805969E-08  0.93827000000E+00  0.93827000000E+00 0. -1.
     999902    2    1    2    0    0 -0.12535318701E-01  0.10630055803E-01 -0.18153855821E-01  0.10194413336E+01  0.10191471620E+01 0.  0.
     999903    2    3    3    0    0  0.55497771844E-01 -0.98623873478E-01  0.54273942837E-01  0.12713493527E+00  0.20272143320E-01 0.  0.
         14    1    1    2    0    0  0.12535318701E-01 -0.10630055803E-01  0.18153855821E-01  0.24488666409E-01  0.00000000000E+00 0. -1.
     999901    1    3    3    0    0 -0.68033090545E-01  0.10925392928E+00 -0.72427798658E-01  0.89230639832E+00  0.88000000000E+00 0. -1.
        -11    1    4    4    0    0  0.36408677779E-01 -0.63875863572E-01  0.45695089488E-01  0.86568008461E-01  0.51100000000E-03 0. -1.
         11    1    4    4    0    0  0.19089094065E-01 -0.34748009906E-01  0.85788533495E-02  0.40566926806E-01  0.51100000000E-03 0.  1.
</event>
<event>
 8    1  0.1072332E+005  0.1043930E+01  0.7957747E-01            NaN
         13   -1    0    0    0    0  0.00000000000E+00  0.00000000000E+00  0.74505805969E-08  0.10566000000E+00  0.10566000000E+00 0.  1.
     999900   -1    0    0    0    0 -0.00000000000E+00 -0.00000000000E+00 -0.74505805969E-08  0.93827000000E+00  0.93827000000E+00 0.  1.
     999902    2    1    2    0    0 -0.16888186530E-01 -0.14378526484E-01 -0.80719252176E-02  0.10203268467E+01  0.10200538051E+01 0.  0.
     999903    2    3    3    0    0 -0.42806336561E-01 -0.12164573833E-01  0.12109819765E+00  0.13051699471E+00  0.19737100299E-01 0.  0.
         14    1    1    2    0    0  0.16888186530E-01  0.14378526484E-01  0.80719252176E-02  0.23603153282E-01  0.00000000000E+00 0.  1.
     999901    1    3    3    0    0  0.25918150031E-01 -0.22139526511E-02 -0.12917012287E+00  0.88980985201E+00  0.88000000000E+00 0.  1.
        -11    1    4    4    0    0 -0.34851409419E-01 -0.89794325939E-03  0.85350922421E-01  0.92197983273E-01  0.51100000000E-03 0.  1.
         11    1    4    4    0    0 -0.79549271422E-02 -0.11266630574E-01  0.35747275229E-01  0.38319011438E-01  0.51100000000E-03 0. -1.
</event>
<event>
 8    1  0.1072332E+005  0.1043930E+01  0.7957747E-01            NaN
         13   -1    0    0    0    0  0.00000000000E+00  0.00000000000E+00  0.74505805969E-08  0.10566000000E+00  0.10566000000E+00 0. -1.
     999900   -1    0    0    0    0 -0.00000000000E+00 -0.00000000000E+00 -0.74505805969E-08  0.93827000000E+00  0.93827000000E+00 0.  1.
     999902    2    1    2    0    0 -0.15599385143E-03  0.10411354761E-01 -0.22405589056E-01  0.10192230969E+01  0.10189235938E+01 0.  0.
     999903    2    3    3    0    0 -0.14697010937E-01 -0.80398543032E-01 -0.10032162965E+00  0.13100646332E+00  0.20453268728E-01 0.  0.
         14    1    1    2    0    0  0.15599385143E-03 -0.10411354761E-01  0.22405589056E-01  0.24706903145E-01  0.00000000000E+00 0. -1.
     999901    1    3    3    0    0  0.14541017086E-01  0.90809897792E-01  0.77916040599E-01  0.88821663354E+00  0.88000000000E+00 0. -1.
        -11    1    4    4    0    0  0.10184980503E-02 -0.41656565246E-01 -0.58901956859E-01  0.72152674304E-01  0.51100000000E-03 0. -1.
         11    1    4    4    0    0 -0.15715508988E-01 -0.38741977786E-01 -0.41419672796E-01  0.58853789012E-01  0.51100000000E-03 0.  1.
</event>
<event>
 8    1  0.1072332E+005  0.1043930E+01  0.7957747E-01            NaN
         13   -1    0    0    0    0  0.00000000000E+00  0.00000000000E+00  0.74505805969E-08  0.10566000000E+00  0.10566000000E+00 0. -1.
     999900   -1    0    0    0    0 -0.00000000000E+00 -0.00000000000E+00 -0.74505805969E-08  0.93827000000E+00  0.93827000000E+00 0. -1.
     999902    2    1    2    0    0  0.11166324794E-01  0.19624587376E-01 -0.80164265038E-02  0.10199701516E+01  0.10196886956E+01 0.  0.
     999903    2    3    3    0    0 -0.99001283014E-01 -0.32070991917E-01 -0.73985579332E-01  0.12914959517E+00  0.19389415190E-01 0.  0.
         14    1    1    2    0    0 -0.11166324794E-01 -0.19624587376E-01  0.80164265038E-02  0.23959848350E-01  0.00000000000E+00 0. -1.
     999901    1    3    3    0    0  0.11016760781E+00  0.51695579293E-01  0.65969152829E-01  0.89082055648E+00  0.88000000000E+00 0. -1.
        -11    1    4    4    0    0 -0.45247854031E-01 -0.11317068737E-01 -0.44302786143E-01  0.64330726097E-01  0.51100000000E-03 0.  1.
         11    1    4    4    0    0 -0.53753428983E-01 -0.20753923179E-01 -0.29682793190E-01  0.64818869069E-01  0.51100000000E-03 0. -1.
</event>
<event>
 8    1  0.1072332E+005  0.1043930E+01  0.7957747E-01            NaN
         13   -1    0    0    0    0  0.00000000000E+00  0.00000000000E+00  0.74505805969E-08  0.10566000000E+00  0.10566000000E+00 0. -1.
     999900   -1    0    0    0    0 -0.00000000000E+00 -0.00000000000E+00 -0.74505805969E-08  0.93827000000E+00  0.93827000000E+00 0.  1.
     999902    2    1    2    0    0 -0.64838731359E-02  0.19440524404E-01 -0.12791707659E-01  0.10197721362E+01  0.10194859525E+01 0.  0.
     999903    2    3    3    0    0 -0.59692800303E-01 -0.43808730243E-01 -0.10624646985E+00  0.13097213014E+00  0.19569140611E-01 0.  0.
         14    1    1    2    0    0  0.64838731359E-02 -0.19440524404E-01  0.12791707659E-01  0.24157863829E-01  0.00000000000E+00 0. -1.
     999901    1    3    3    0    0  0.53208927167E-01  0.63249254648E-01  0.93454762191E-01  0.88880000603E+00  0.88000000000E+00 0. -1.
        -11    1    4    4    0    0 -0.21918936245E-01 -0.12009245069E-01 -0.51497629474E-01  0.57244464324E-01  0.51100000000E-03 0. -1.
         11    1    4    4    0    0 -0.37773864058E-01 -0.31799485174E-01 -0.54748840376E-01  0.73727665816E-01  0.51100000000E-03 0.  1.
</event>
<event>
 8    1  0.1072332E+005  0.1043930E+01  0.7957747E-01            NaN
         13   -1    0    0    0    0  0.00000000000E+00  0.00000000000E+00  0.74505805969E-08  0.10566000000E+00  0.10566000000E+00 0.  1.
     999900   -1    0    0    0    0 -0.00000000000E+00 -0.00000000000E+00 -0.74505805969E-08  0.93827000000E+00  0.93827000000E+00 0. -1.
     999902    2    1    2    0    0  0.10243709455E-01 -0.21089965077E-01 -0.50817068736E-02  0.10199395028E+01  0.10196573177E+01 0.  0.
     999903    2    3    3    0    0  0.98352827384E-01  0.79356301594E-01  0.23528548773E-01  0.12939404307E+00  0.14782574778E-01 0.  0.
         14    1    1    2    0    0 -0.10243709455E-01  0.21089965077E-01  0.50817068736E-02  0.23990497183E-01  0.00000000000E+00 0. -1.
     999901    1    3    3    0    0 -0.88109117929E-01 -0.10044626667E+00 -0.28610255647E-01  0.89054545975E+00  0.88000000000E+00 0. -1.
        -11    1    4    4    0    0  0.57879312135E-01  0.44657092237E-01  0.20810683134E-01  0.76010632900E-01  0.51100000000E-03 0.  1.
         11    1    4    4    0    0  0.40473515249E-01  0.34699209357E-01  0.27178656395E-02  0.53383410169E-01  0.51100000000E-03 0. -1.
</event>
<event>
 8    1  0.1072332E+005  0.1043930E+01  0.7957747E-01            NaN
         13   -1    0    0    0    0  0.00000000000E+00  0.00000000000E+00  0.74505805969E-08  0.10566000000E+00  0.10566000000E+00 0. -1.
     999900   -1    0    0    0    0 -0.00000000000E+00 -0.00000000000E+00 -0.74505805969E-08  0.93827000000E+00  0.93827000000E+00 0.  1.
     999902    2    1    2    0    0 -0.18054446650E-01 -0.10188904060E-01  0.10792638754E-01  0.10205578400E+01  0.10202901778E+01 0.  0.
     999903    2    3    3    0    0  0.95856372562E-01 -0.79394259784E-01  0.32858202147E-01  0.13024781253E+00  0.19822678285E-01 0.  0.
         14    1    1    2    0    0  0.18054446650E-01  0.10188904060E-01 -0.10792638754E-01  0.23372159957E-01  0.00000000000E+00 0.  1.
     999901    1    3    3    0    0 -0.11391081921E+00  0.69205355724E-01 -0.22065563393E-01  0.89031002751E+00  0.88000000000E+00 0. -1.
        -11    1    4    4    0    0  0.34152082554E-01 -0.35487063925E-01  0.21199105286E-01  0.53622379980E-01  0.51100000000E-03 0. -1.
         11    1    4    4    0    0  0.61704290008E-01 -0.43907195859E-01  0.11659096861E-01  0.76625432555E-01  0.51100000000E-03 0.  1.
</event>
<event>
 8    1  0.1072332E+005  0.1043930E+01  0.7957747E-01            NaN
         13   -1    0    0    0    0  0.00000000000E+00  0.00000000000E+00  0.74505805969E-08  0.10566000000E+00  0.10566000000E+00 0. -1.
     999900   -1    0    0    0    0 -0.00000000000E+00 -0.00000000000E+00 -0.74505805969E-08  0.93827000000E+00  0.93827000000E+00 0. -1.
     999902    2    1    2    0    0  0.77154355064E-04  0.73875162594E-02 -0.16593379917E-01  0.10257662557E+01  0.10256054260E+01 0.  0.
     999903    2    3    3    0    0 -0.35455680964E-01  0.11565442857E+00 -0.62203087973E-01  0.13724807799E+00  0.18296409418E-01 0.  0.
         14    1    1    2    0    0 -0.77154355064E-04 -0.73875162594E-02  0.16593379917E-01  0.18163744282E-01  0.00000000000E+00 0.  1.
     999901    1    3    3    0    0  0.35532835319E-01 -0.10826691231E+00  0.45609708056E-01  0.88851817773E+00  0.88000000000E+00 0. -1.
        -11    1    4    4    0    0 -0.12087086285E-02  0.30527480795E-01 -0.14267527056E-01  0.33722566769E-01  0.51100000000E-03 0.  1.
         11    1    4    4    0    0 -0.34246972336E-01  0.85126947775E-01 -0.47935560918E-01  0.10352551122E+00  0.51100000000E-03 0. -1.
</event>
<event>
 8    1  0.1072332E+005  0.1043930E+01  0.7957747E-01            NaN
         13   -1    0    0    0    0  0.00000000000E+00  0.00000000000E+00  0.74505805969E-08  0.10566000000E+00  0.10566000000E+00 0.  1.
     999900   -1    0    0    0    0 -0.00000000000E+00 -0.00000000000E+00 -0.74505805969E-08  0.93827000000E+00  0.93827000000E+00 0. -1.
     999902    2    1    2    0    0 -0.21033048745E-01 -0.52913393931E-02  0.10866140786E-01  0.10196717967E+01  0.10193832020E+01 0.  0.
     999903    2    3    3    0    0 -0.12751481170E+00  0.29688583992E-01 -0.26650107285E-02  0.13245984178E+00  0.19926569671E-01 0.  0.
         14    1    1    2    0    0  0.21033048745E-01  0.52913393931E-02 -0.10866140786E-01  0.24258203307E-01  0.00000000000E+00 0. -1.
     999901    1    3    3    0    0  0.10648176296E+00 -0.34979923385E-01  0.13531151515E-01  0.88721195491E+00  0.88000000000E+00 0. -1.
        -11    1    4    4    0    0 -0.70898468399E-01  0.10775697385E-01 -0.96410095624E-02  0.72359648022E-01  0.51100000000E-03 0.  1.
         11    1    4    4    0    0 -0.56616343303E-01  0.18912886607E-01  0.69759988339E-02  0.60100193756E-01  0.51100000000E-03 0. -1.
</event>
<event>
 8    1  0.1072332E+005  0.1043930E+01  0.7957747E-01            NaN
         13   -1    0    0    0    0  0.00000000000E+00  0.00000000000E+00  0.74505805969E-08  0.10566000000E+00  0.10566000000E+00 0.  1.
     999900   -1    0    0    0    0 -0.00000000000E+00 -0.00000000000E+00 -0.74505805969E-08  0.93827000000E+00  0.93827000000E+00 0.  1.
     999902    2    1    2    0    0  0.14575552325E-01 -0.16515413228E-01  0.91542606603E-02  0.10200761515E+01  0.10197972096E+01 0.  0.
     999903    2    3    3    0    0  0.87928772900E-01  0.87232581544E-01  0.36158197240E-01  0.13054056820E+00  0.19809904861E-01 0.  0.
         14    1    1    2    0    0 -0.14575552325E-01  0.16515413228E-01 -0.91542606603E-02  0.23853848492E-01  0.00000000000E+00 0. -1.
     999901    1    3    3    0    0 -0.73353220575E-01 -0.10374799477E+00 -0.27003936579E-01  0.88953558331E+00  0.88000000000E+00 0. -1.
        -11    1    4    4    0    0  0.12386135608E-01  0.65827553720E-02 -0.69261803548E-03  0.14053108707E-01  0.51100000000E-03 0. -1.
         11    1    4    4    0    0  0.75542637292E-01  0.80649826172E-01  0.36850815275E-01  0.11648745949E+00  0.51100000000E-03 0.  1.
</event>
<event>
 8    1  0.1072332E+005  0.1043930E+01  0.7957747E-01            NaN
         13   -1    0    0    0    0  0.00000000000E+00  0.00000000000E+00  0.74505805969E-08  0.10566000000E+00  0.10566000000E+00 0.  1.
     999900   -1    0    0    0    0 -0.00000000000E+00 -0.00000000000E+00 -0.74505805969E-08  0.93827000000E+00  0.93827000000E+00 0. -1.
     999902    2    1    2    0    0 -0.16089909597E-01 -0.10171967949E-01 -0.14333064224E-01  0.10201016376E+01  0.10198232985E+01 0.  0.
     999903    2    3    3    0    0 -0.68105886487E-01  0.31114100181E-01  0.10397116544E+00  0.12970504509E+00  0.20171675049E-01 0.  0.
         14    1    1    2    0    0  0.16089909597E-01  0.10171967949E-01  0.14333064224E-01  0.23828362362E-01  0.00000000000E+00 0.  1.
     999901    1    3    3    0    0  0.52015976891E-01 -0.41286068130E-01 -0.11830422966E+00  0.89039659255E+00  0.88000000000E+00 0. -1.
        -11    1    4    4    0    0 -0.39932627714E-01  0.19509468281E-01  0.77494358937E-01  0.89335720162E-01  0.51100000000E-03 0. -1.
         11    1    4    4    0    0 -0.28173258773E-01  0.11604631900E-01  0.26476806499E-01  0.40369324924E-01  0.51100000000E-03 0.  1.
</event>
<event>
 8    1  0.1072332E+005  0.1043930E+01  0.7957747E-01            NaN
         13   -1    0    0    0    0  0.00000000000E+00  0.00000000000E+00  0.74505805969E-08  0.10566000000E+00  0.10566000000E+00 0. -1.
     999900   -1    0    0    0    0 -0.00000000000E+00 -0.00000000000E+00 -0.74505805969E-08  0.93827000000E+00  0.93827000000E+00 0.  1.
     999902    2    1    2    0    0  0.17653001256E-01 -0.13276441629E-01  0.82887927910E-02  0.10203377038E+01  0.10200649162E+01 0.  0.
     999903    2    3    3    0    0 -0.11417149983E-01 -0.12681170505E+00  0.29603769235E-01  0.13231199583E+00  0.20457791553E-01 0.  0.
         14    1    1    2    0    0 -0.17653001256E-01  0.13276441629E-01 -0.82887927910E-02  0.23592296234E-01  0.00000000000E+00 0.  1.
     999901    1    3    3    0    0  0.29070151239E-01  0.11353526343E+00 -0.21314976444E-01  0.88802570794E+00  0.88000000000E+00 0. -1.
        -11    1    4    4    0    0 -0.36479816419E-02 -0.62352880607E-01  0.24807912735E-01  0.67207761050E-01  0.51100000000E-03 0.  1.
         11    1    4    4    0    0 -0.77691683413E-02 -0.64458824447E-01  0.47958565001E-02  0.65104234781E-01  0.51100000000E-03 0. -1.
</event>
<event>
 8    1  0.1072332E+005  0.1043930E+01  0.7957747E-01            NaN
         13   -1    0    0    0    0  0.00000000000E+00  0.00000000000E+00  0.74505805969E-08  0.10566000000E+00  0.10566000000E+00 0.  1.
     999900   -1    0    0    0    0 -0.00000000000E+00 -0.00000000000E+00 -0.74505805969E-08  0.93827000000E+00  0.93827000000E+00 0. -1.
     999902    2    1    2    0    0 -0.13728004612E-01 -0.12224950958E-01 -0.17921590118E-01  0.10182572337E+01  0.10179335455E+01 0.  0.
     999903    2    3    3    0    0 -0.15813407564E-02 -0.12753189191E+00  0.15637289308E-01  0.13001772183E+00  0.19829248096E-01 0.  0.
         14    1    1    2    0    0  0.13728004612E-01  0.12224950958E-01  0.17921590118E-01  0.25672766288E-01  0.00000000000E+00 0.  1.
     999901    1    3    3    0    0 -0.12146663855E-01  0.11530694096E+00 -0.33558879426E-01  0.88823951188E+00  0.88000000000E+00 0.  1.
        -11    1    4    4    0    0 -0.93467730596E-02 -0.35674543624E-01  0.50026359627E-02  0.37219923657E-01  0.51100000000E-03 0.  1.
         11    1    4    4    0    0  0.77654323031E-02 -0.91857348289E-01  0.10634653346E-01  0.92797798176E-01  0.51100000000E-03 0. -1.
</event>
<event>
 8    1  0.1072332E+005  0.1043930E+01  0.7957747E-01            NaN
         13   -1    0    0    0    0  0.00000000000E+00  0.00000000000E+00  0.74505805969E-08  0.10566000000E+00  0.10566000000E+00 0. -1.
     999900   -1    0    0    0    0 -0.00000000000E+00 -0.00000000000E+00 -0.74505805969E-08  0.93827000000E+00  0.93827000000E+00 0.  1.
     999902    2    1    2    0    0 -0.82234548468E-03 -0.23120795027E-01 -0.41674057576E-02  0.10204222420E+01  0.10201514286E+01 0.  0.
     999903    2    3    3    0    0  0.28199111303E-01  0.10103600232E+00 -0.71928547115E-01  0.12865504843E+00  0.19363417895E-01 0.  0.
         14    1    1    2    0    0  0.82234548468E-03  0.23120795027E-01  0.41674057576E-02  0.23507757986E-01  0.00000000000E+00 0.  1.
     999901    1    3    3    0    0 -0.29021456787E-01 -0.12415679735E+00  0.67761141357E-01  0.89176719359E+00  0.88000000000E+00 0. -1.
        -11    1    4    4    0    0 -0.24419666489E-02  0.17549659143E-01 -0.11291645967E-01  0.21017043722E-01  0.51100000000E-03 0. -1.
         11    1    4    4    0    0  0.30641077952E-01  0.83486343176E-01 -0.60636901148E-01  0.10763800470E+00  0.51100000000E-03 0.  1.
</event>
<event>
 8    1  0.1072332E+005  0.1043930E+01  0.7957747E-01            NaN
         13   -1    0    0    0    0  0.00000000000E+00  0.00000000000E+00  0.74505805969E-08  0.10566000000E+00  0.10566000000E+00 0. -1.
     999900   -1    0    0    0    0 -0.00000000000E+00 -0.00000000000E+00 -0.74505805969E-08  0.93827000000E+00  0.93827000000E+00 0.  1.
     999902    2    1    2    0    0  0.11421137475E-01  0.11479005246E-01 -0.15230306025E-01  0.10217000165E+01  0.10214581497E+01 0.  0.
     999903    2    3    3    0    0 -0.17113798680E-01 -0.12660521936E+00 -0.12604716083E-01  0.13047143230E+00  0.23284159909E-01 0.  0.
         14    1    1    2    0    0 -0.11421137475E-01 -0.11479005246E-01  0.15230306025E-01  0.22229983452E-01  0.00000000000E+00 0. -1.
     999901    1    3    3    0    0  0.28534936155E-01  0.13808422461E+00 -0.26255899414E-02  0.89122858425E+00  0.88000000000E+00 0.  1.
        -11    1    4    4    0    0 -0.19787390885E-01 -0.66719686008E-01 -0.22064080691E-02  0.69628921410E-01  0.51100000000E-03 0.  1.
         11    1    4    4    0    0  0.26735922044E-02 -0.59885533354E-01 -0.10398308014E-01  0.60842510886E-01  0.51100000000E-03 0. -1.
</event>
<event>
 8    1  0.1072332E+005  0.1043930E+01  0.7957747E-01            NaN
         13   -1    0    0    0    0  0.00000000000E+00  0.00000000000E+00  0.74505805969E-08  0.10566000000E+00  0.10566000000E+00 0. -1.
     999900   -1    0    0    0    0 -0.00000000000E+00 -0.00000000000E+00 -0.74505805969E-08  0.93827000000E+00  0.93827000000E+00 0.  1.
     999902    2    1    2    0    0  0.22381568498E-01 -0.83568128652E-03  0.64008789463E-02  0.10206361334E+01  0.10203702821E+01 0.  0.
     999903    2    3    3    0    0 -0.62052613165E-01  0.89004808791E-01  0.68883239600E-01  0.12984744345E+00  0.18522286121E-01 0.  0.
         14    1    1    2    0    0 -0.22381568498E-01  0.83568128652E-03 -0.64008789463E-02  0.23293866638E-01  0.00000000000E+00 0. -1.
     999901    1    3    3    0    0  0.84434181663E-01 -0.89840490077E-01 -0.62482360654E-01  0.89078868992E+00  0.88000000000E+00 0.  1.
        -11    1    4    4    0    0 -0.40240767057E-01  0.49568773042E-01  0.49489844657E-01  0.80782971222E-01  0.51100000000E-03 0. -1.
         11    1    4    4    0    0 -0.21811846107E-01  0.39436035749E-01  0.19393394943E-01  0.49064472224E-01  0.51100000000E-03 0.  1.
</event>
<event>
 8    1  0.1072332E+005  0.1043930E+01  0.7957747E-01            NaN
         13   -1    0    0    0    0  0.00000000000E+00  0.00000000000E+00  0.74505805969E-08  0.10566000000E+00  0.10566000000E+00 0. -1.
     999900   -1    0    0    0    0 -0.00000000000E+00 -0.00000000000E+00 -0.74505805969E-08  0.93827000000E+00  0.93827000000E+00 0.  1.
     999902    2    1    2    0    0 -0.86604115224E-02  0.18233052722E-01  0.11611028859E-01  0.10206434603E+01  0.10203777782E+01 0.  0.
     999903    2    3    3    0    0 -0.32617502583E-01  0.13822009711E-01 -0.12343397520E+00  0.13000854486E+00  0.20281175417E-01 0.  0.
         14    1    1    2    0    0  0.86604115224E-02 -0.18233052722E-01 -0.11611028859E-01  0.23286539684E-01  0.00000000000E+00 0. -1.
     999901    1    3    3    0    0  0.23957091061E-01  0.44110430112E-02  0.13504500405E+00  0.89063491546E+00  0.88000000000E+00 0. -1.
        -11    1    4    4    0    0 -0.68899608568E-02  0.67929718897E-02 -0.65691551490E-01  0.66402237055E-01  0.51100000000E-03 0. -1.
         11    1    4    4    0    0 -0.25727541726E-01  0.70290378213E-02 -0.57742423705E-01  0.63606307803E-01  0.51100000000E-03 0.  1.
</event>
<event>
 8    1  0.1072332E+005  0.1043930E+01  0.7957747E-01            NaN
         13   -1    0    0    0    0  0.00000000000E+00  0.00000000000E+00  0.74505805969E-08  0.10566000000E+00  0.10566000000E+00 0. -1.
     999900   -1    0    0    0    0 -0.00000000000E+00 -0.00000000000E+00 -0.74505805969E-08  0.93827000000E+00  0.93827000000E+00 0.  1.
     999902    2    1    2    0    0  0.11147749634E-01  0.58611686618E-02 -0.20340121554E-01  0.10200062427E+01  0.10197256439E+01 0.  0.
     999903    2    3    3    0    0  0.84572716896E-01 -0.58179320442E-01  0.76216144954E-01  0.12937976503E+00  0.19820319843E-01 0.  0.
         14    1    1    2    0    0 -0.11147749634E-01 -0.58611686618E-02  0.20340121554E-01  0.23923757330E-01  0.00000000000E+00 0. -1.
     999901    1    3    3    0    0 -0.73424967262E-01  0.64040489104E-01 -0.96556266508E-01  0.89062647763E+00  0.88000000000E+00 0.  1.
        -11    1    4    4    0    0  0.38029594309E-01 -0.16018822514E-01  0.24252597468E-01  0.47867549791E-01  0.51100000000E-03 0.  1.
         11    1    4    4    0    0  0.46543122586E-01 -0.42160497928E-01  0.51963547486E-01  0.81512215244E-01  0.51100000000E-03 0. -1.
</event>
<event>
 7    1  0.1072332E+005  0.1043930E+01  0.7957747E-01            NaN
         13   -1    0    0    0    0  0.00000000000E+00  0.00000000000E+00  0.74505805969E-08  0.10566000000E+00  0.10566000000E+00 0. -1.
     999900   -1    0    0    0    0 -0.00000000000E+00 -0.00000000000E+00 -0.74505805969E-08  0.93827000000E+00  0.93827000000E+00 0. -1.
     999902    2    1    2    0    0  0.10170235855E-01 -0.21354762160E-01 -0.37093974734E-02  0.10199880036E+01  0.10197069717E+01 0.  0.
         14    1    1    2    0    0 -0.10170235855E-01  0.21354762160E-01  0.37093974734E-02  0.23941996447E-01  0.00000000000E+00 0.  1.
     999901    1    3    3    0    0 -0.72583772773E-01 -0.94505899827E-01 -0.60733712614E-01  0.89010581001E+00  0.88000000000E+00 0.  1.
        -11    1    3    3    0    0  0.78914294049E-01  0.71818686756E-01  0.42609371670E-01  0.11489651539E+00  0.51100000000E-03 0. -1.
         11    1    3    3    0    0  0.38397145789E-02  0.13324509105E-02  0.14414943471E-01  0.14985678154E-01  0.51100000000E-03 0.  1.
</event>
<event>
 8    1  0.1072332E+005  0.1043930E+01  0.7957747E-01            NaN
         13   -1    0    0    0    0  0.00000000000E+00  0.00000000000E+00  0.74505805969E-08  0.10566000000E+00  0.10566000000E+00 0. -1.
     999900   -1    0    0    0    0 -0.00000000000E+00 -0.00000000000E+00 -0.74505805969E-08  0.93827000000E+00  0.93827000000E+00 0.  1.
     999902    2    1    2    0    0 -0.12444423394E-01 -0.11432224848E-01 -0.17874603741E-01  0.10193320144E+01  0.10190351783E+01 0.  0.
     999903    2    3    3    0    0  0.99423050529E-01  0.34482087831E-01 -0.72667282759E-01  0.12937432239E+00  0.19576106655E-01 0.  0.
         14    1    1    2    0    0  0.12444423394E-01  0.11432224848E-01  0.17874603741E-01  0.24597985639E-01  0.00000000000E+00 0. -1.
     999901    1    3    3    0    0 -0.11186747392E+00 -0.45914312680E-01  0.54792679018E-01  0.88995769197E+00  0.88000000000E+00 0.  1.
        -11    1    4    4    0    0  0.63196364057E-01  0.11959663381E-01 -0.45765642223E-01  0.78940288239E-01  0.51100000000E-03 0. -1.
         11    1    4    4    0    0  0.36226686472E-01  0.22522424451E-01 -0.26901640536E-01  0.50434034148E-01  0.51100000000E-03 0.  1.
</event>
<event>
 8    1  0.1072332E+005  0.1043930E+01  0.7957747E-01            NaN
         13   -1    0    0    0    0  0.00000000000E+00  0.00000000000E+00  0.74505805969E-08  0.10566000000E+00  0.10566000000E+00 0.  1.
     999900   -1    0    0    0    0 -0.00000000000E+00 -0.00000000000E+00 -0.74505805969E-08  0.93827000000E+00  0.93827000000E+00 0. -1.
     999902    2    1    2    0    0  0.22801679609E-01  0.15694905486E-01 -0.16223139162E-01  0.10118451610E+01  0.10113363401E+01 0.  0.
     999903    2    3    3    0    0 -0.37586997536E-01 -0.10880434646E+00  0.27289154819E-01  0.11997063180E+00  0.19927025164E-01 0.  0.
         14    1    1    2    0    0 -0.22801679609E-01 -0.15694905486E-01  0.16223139162E-01  0.32084839028E-01  0.00000000000E+00 0.  1.
     999901    1    3    3    0    0  0.60388677145E-01  0.12449925194E+00 -0.43512293982E-01  0.89187452917E+00  0.88000000000E+00 0.  1.
        -11    1    4    4    0    0 -0.87631695295E-02 -0.14245318042E-01  0.10347118818E-01  0.19673490162E-01  0.51100000000E-03 0.  1.
         11    1    4    4    0    0 -0.28823828006E-01 -0.94559028414E-01  0.16942036001E-01  0.10029714164E+00  0.51100000000E-03 0. -1.
</event>
<event>
 8    1  0.1072332E+005  0.1043930E+01  0.7957747E-01            NaN
         13   -1    0    0    0    0  0.00000000000E+00  0.00000000000E+00  0.74505805969E-08  0.10566000000E+00  0.10566000000E+00 0. -1.
     999900   -1    0    0    0    0 -0.00000000000E+00 -0.00000000000E+00 -0.74505805969E-08  0.93827000000E+00  0.93827000000E+00 0. -1.
     999902    2    1    2    0    0 -0.17647046868E-01  0.14000685991E-01  0.65038883425E-02  0.10204835070E+01  0.10202141197E+01 0.  0.
     999903    2    3    3    0    0  0.50654979483E-01 -0.25580606149E-01 -0.11383024328E+00  0.12879289431E+00  0.20248234030E-01 0.  0.
         14    1    1    2    0    0  0.17647046868E-01 -0.14000685991E-01 -0.65038883425E-02  0.23446493020E-01  0.00000000000E+00 0.  1.
     999901    1    3    3    0    0 -0.68302026351E-01  0.39581292140E-01  0.12033413163E+00  0.89169061267E+00  0.88000000000E+00 0.  1.
        -11    1    4    4    0    0  0.46855732390E-01 -0.24143318395E-01 -0.87537649149E-01  0.10218346549E+00  0.51100000000E-03 0.  1.
         11    1    4    4    0    0  0.37992470929E-02 -0.14372877540E-02 -0.26292594133E-01  0.26609428814E-01  0.51100000000E-03 0. -1.
</event>
<event>
 8    1  0.1072332E+005  0.1043930E+01  0.7957747E-01            NaN
         13   -1    0    0    0    0  0.00000000000E+00  0.00000000000E+00  0.74505805969E-08  0.10566000000E+00  0.10566000000E+00 0. -1.
     999900   -1    0    0    0    0 -0.00000000000E+00 -0.00000000000E+00 -0.74505805969E-08  0.93827000000E+00  0.93827000000E+00 0.  1.
     999902    2    1    2    0    0  0.13473165578E-01 -0.18945191547E-01 -0.83809921683E-02  0.10192179078E+01  0.10189182774E+01 0.  0.
     999903    2    3    3    0    0  0.39366307559E-01  0.79657716454E-01  0.89910113994E-01  0.12789634411E+00  0.19457345055E-01 0.  0.
         14    1    1    2    0    0 -0.13473165578E-01  0.18945191547E-01  0.83809921683E-02  0.24712092246E-01  0.00000000000E+00 0. -1.
     999901    1    3    3    0    0 -0.25893141981E-01 -0.98602908001E-01 -0.98291106162E-01  0.89132156364E+00  0.88000000000E+00 0.  1.
        -11    1    4    4    0    0  0.41520242719E-02  0.19074197413E-01  0.29489967289E-01  0.35369246588E-01  0.51100000000E-03 0. -1.
         11    1    4    4    0    0  0.35214283287E-01  0.60583519041E-01  0.60420146704E-01  0.92527097520E-01  0.51100000000E-03 0.  1.
</event>
<event>
 8    1  0.1072332E+005  0.1043930E+01  0.7957747E-01            NaN
         13   -1    0    0    0    0  0.00000000000E+00  0.00000000000E+00  0.74505805969E-08  0.10566000000E+00  0.10566000000E+00 0.  1.
     999900   -1    0    0    0    0 -0.00000000000E+00 -0.00000000000E+00 -0.74505805969E-08  0.93827000000E+00  0.93827000000E+00 0. -1.
     999902    2    1    2    0    0  0.14081791821E-01  0.85342047953E-02  0.15659868970E-01  0.10212064217E+01  0.10209535713E+01 0.  0.
     999903    2    3    3    0    0 -0.16491193006E-01 -0.50601269306E-01 -0.11576168954E+00  0.12896019018E+00  0.19937752760E-01 0.  0.
         14    1    1    2    0    0 -0.14081791821E-01 -0.85342047953E-02 -0.15659868970E-01  0.22723578252E-01  0.00000000000E+00 0.  1.
     999901    1    3    3    0    0  0.30572984827E-01  0.59135474101E-01  0.13142155851E+00  0.89224623156E+00  0.88000000000E+00 0.  1.
        -11    1    4    4    0    0 -0.47632911326E-02 -0.48497342849E-02 -0.32744135162E-01  0.33446201183E-01  0.51100000000E-03 0. -1.
         11    1    4    4    0    0 -0.11727901873E-01 -0.45751535021E-01 -0.83017554378E-01  0.95513989002E-01  0.51100000000E-03 0.  1.
</event>
<event>
 8    1  0.1072332E+005  0.1043930E+01  0.7957747E-01            NaN
         13   -1    0    0    0    0  0.00000000000E+00  0.00000000000E+00  0.74505805969E-08  0.10566000000E+00  0.10566000000E+00 0. -1.
     999900   -1    0    0    0    0 -0.00000000000E+00 -0.00000000000E+00 -0.74505805969E-08  0.93827000000E+00  0.93827000000E+00 0. -1.
     999902    2    1    2    0    0 -0.10200402401E-01  0.76089682471E-02 -0.19508312100E-01  0.10206379660E+01  0.10203721570E+01 0.  0.
     999903    2    3    3    0    0 -0.11834606852E+00  0.12770436159E-01  0.51460200595E-01  0.13116696836E+00  0.19691251086E-01 0.  0.
         14    1    1    2    0    0  0.10200402401E-01 -0.76089682471E-02  0.19508312100E-01  0.23292034002E-01  0.00000000000E+00 0. -1.
     999901    1    3    3    0    0  0.10814566612E+00 -0.51614679120E-02 -0.70968512696E-01  0.88947099764E+00  0.88000000000E+00 0. -1.
        -11    1    4    4    0    0 -0.21710955607E-01  0.16944773173E-02  0.18146285617E-01  0.28351113725E-01  0.51100000000E-03 0.  1.
         11    1    4    4    0    0 -0.96635112911E-01  0.11075958842E-01  0.33313914978E-01  0.10281585463E+00  0.51100000000E-03 0. -1.
</event>
<event>
 7    1  0.1072332E+005  0.1043930E+01  0.7957747E-01            NaN
         13   -1    0    0    0    0  0.00000000000E+00  0.00000000000E+00  0.74505805969E-08  0.10566000000E+00  0.10566000000E+00 0.  1.
     999900   -1    0    0    0    0 -0.00000000000E+00 -0.00000000000E+00 -0.74505805969E-08  0.93827000000E+00  0.93827000000E+00 0.  1.
     999903    2    1    2    0    0  0.55432421954E-01  0.89294101683E-01  0.25801670790E-01  0.10988932345E+00  0.19072157539E-01 0.  0.
         14    1    1    2    0    0  0.88392886148E-02 -0.16486100423E-01 -0.44742263491E-01  0.48495305677E-01  0.00000000000E+00 0. -1.
     999901    1    1    2    0    0 -0.64271710569E-01 -0.72808001260E-01  0.18940592701E-01  0.88554537088E+00  0.88000000000E+00 0. -1.
        -11    1    3    3    0    0  0.18181720493E-01  0.29711455785E-01  0.17926794211E-01  0.39178777886E-01  0.51100000000E-03 0. -1.
         11    1    3    3    0    0  0.37250701461E-01  0.59582645898E-01  0.78748765796E-02  0.70710545562E-01  0.51100000000E-03 0.  1.
</event>
<event>
 8    1  0.1072332E+005  0.1043930E+01  0.7957747E-01            NaN
         13   -1    0    0    0    0  0.00000000000E+00  0.00000000000E+00  0.74505805969E-08  0.10566000000E+00  0.10566000000E+00 0.  1.
     999900   -1    0    0    0    0 -0.00000000000E+00 -0.00000000000E+00 -0.74505805969E-08  0.93827000000E+00  0.93827000000E+00 0. -1.
     999902    2    1    2    0    0 -0.53911241502E-02  0.40682270631E-02 -0.21142812498E-01  0.10217346579E+01  0.10214935526E+01 0.  0.
     999903    2    3    3    0    0  0.67012549038E-01  0.69525408042E-01  0.84737047515E-01  0.13002984172E+00  0.20073077067E-01 0.  0.
         14    1    1    2    0    0  0.53911241502E-02 -0.40682270631E-02  0.21142812498E-01  0.22195342110E-01  0.00000000000E+00 0.  1.
     999901    1    3    3    0    0 -0.72403673188E-01 -0.65457180979E-01 -0.10587986001E+00  0.89170481617E+00  0.88000000000E+00 0. -1.
        -11    1    4    4    0    0  0.37258730549E-01  0.28213575127E-01  0.49704929149E-01  0.68227999577E-01  0.51100000000E-03 0. -1.
         11    1    4    4    0    0  0.29753818489E-01  0.41311832915E-01  0.35032118366E-01  0.61801842139E-01  0.51100000000E-03 0.  1.
</event>
<event>
 8    1  0.1072332E+005  0.1043930E+01  0.7957747E-01            NaN
         13   -1    0    0    0    0  0.00000000000E+00  0.00000000000E+00  0.74505805969E-08  0.10566000000E+00  0.10566000000E+00 0.  1.
     999900   -1    0    0    0    0 -0.00000000000E+00 -0.00000000000E+00 -0.74505805969E-08  0.93827000000E+00  0.93827000000E+00 0.  1.
     999902    2    1    2    0    0  0.22264867259E-01 -0.75821802957E-02  0.41455108475E-02  0.10200469719E+01  0.10197673391E+01 0.  0.
     999903    2    3    3    0    0 -0.69347362420E-01 -0.10636282953E+00  0.17282909704E-01  0.12969703588E+00  0.20012845064E-01 0.  0.
         14    1    1    2    0    0 -0.22264867259E-01  0.75821802957E-02 -0.41455108475E-02  0.23883028122E-01  0.00000000000E+00 0. -1.
     999901    1    3    3    0    0  0.91612229680E-01  0.98780649231E-01 -0.13137398856E-01  0.89034993600E+00  0.88000000000E+00 0.  1.
        -11    1    4    4    0    0 -0.58688500831E-01 -0.84864879600E-01  0.65051720836E-02  0.10338745719E+00  0.51100000000E-03 0.  1.
         11    1    4    4    0    0 -0.10658861590E-01 -0.21497949927E-01  0.10777737620E-01  0.26309578687E-01  0.51100000000E-03 0. -1.
</event>
<event>
 8    1  0.1072332E+005  0.1043930E+01  0.7957747E-01            NaN
         13   -1    0    0    0    0  0.00000000000E+00  0.00000000000E+00  0.74505805969E-08  0.10566000000E+00  0.10566000000E+00 0. -1.
     999900   -1    0    0    0    0 -0.00000000000E+00 -0.00000000000E+00 -0.74505805969E-08  0.93827000000E+00  0.93827000000E+00 0.  1.
     999902    2    1    2    0    0 -0.29739831100E-02 -0.20663203659E-01  0.11466537385E-01  0.10201120647E+01  0.10198339721E+01 0.  0.
     999903    2    3    3    0    0 -0.91890931063E-01 -0.62527154398E-01 -0.66669299445E-01  0.13120035764E+00  0.20375232691E-01 0.  0.
         14    1    1    2    0    0  0.29739831100E-02  0.20663203659E-01 -0.11466537385E-01  0.23817935271E-01  0.00000000000E+00 0.  1.
     999901    1    3    3    0    0  0.88916947953E-01  0.41863950739E-01  0.78135836831E-01  0.88891170709E+00  0.88000000000E+00 0. -1.
        -11    1    4    4    0    0 -0.57898490508E-01 -0.42879064896E-01 -0.32064551392E-01  0.78862196180E-01  0.51100000000E-03 0.  1.
         11    1    4    4    0    0 -0.33992440556E-01 -0.19648089502E-01 -0.34604748053E-01  0.52338161458E-01  0.51100000000E-03 0. -1.
</event>
<event>
 8    1  0.1072332E+005  0.1043930E+01  0.7957747E-01            NaN
         13   -1    0    0    0    0  0.00000000000E+00  0.00000000000E+00  0.74505805969E-08  0.10566000000E+00  0.10566000000E+00 0.  1.
     999900   -1    0    0    0    0 -0.00000000000E+00 -0.00000000000E+00 -0.74505805969E-08  0.93827000000E+00  0.93827000000E+00 0.  1.
     999902    2    1    2    0    0  0.12581245993E-01 -0.15378104877E-01  0.14431713604E-01  0.10193729599E+01  0.10190771233E+01 0.  0.
     999903    2    3    3    0    0  0.67999287855E-01 -0.56560307953E-01 -0.93354028182E-01  0.13011208742E+00  0.19779007313E-01 0.  0.
         14    1    1    2    0    0 -0.12581245993E-01  0.15378104877E-01 -0.14431713604E-01  0.24557040088E-01  0.00000000000E+00 0. -1.
     999901    1    3    3    0    0 -0.55418041862E-01  0.41182203076E-01  0.10778574179E+00  0.88926087249E+00  0.88000000000E+00 0. -1.
        -11    1    4    4    0    0  0.29268331047E-01 -0.33451698667E-01 -0.36345526898E-01  0.57418723361E-01  0.51100000000E-03 0.  1.
         11    1    4    4    0    0  0.38730956808E-01 -0.23108609287E-01 -0.57008501284E-01  0.72693364058E-01  0.51100000000E-03 0. -1.
</event>
<event>
 8    1  0.1072332E+005  0.1043930E+01  0.7957747E-01            NaN
         13   -1    0    0    0    0  0.00000000000E+00  0.00000000000E+00  0.74505805969E-08  0.10566000000E+00  0.10566000000E+00 0.  1.
     999900   -1    0    0    0    0 -0.00000000000E+00 -0.00000000000E+00 -0.74505805969E-08  0.93827000000E+00  0.93827000000E+00 0.  1.
     999902    2    1    2    0    0 -0.21867297506E-01  0.63281684328E-02 -0.70933298695E-02  0.10200859285E+01  0.10198072180E+01 0.  0.
     999903    2    3    3    0    0  0.98936413606E-01 -0.77326682567E-01  0.10509120650E-01  0.12772864751E+00  0.20888657303E-01 0.  0.
         14    1    1    2    0    0  0.21867297506E-01 -0.63281684328E-02  0.70933298695E-02  0.23844071476E-01  0.00000000000E+00 0. -1.
     999901    1    3    3    0    0 -0.12080371111E+00  0.83654851000E-01 -0.17602450519E-01  0.89235728101E+00  0.88000000000E+00 0.  1.
        -11    1    4    4    0    0  0.87644306396E-01 -0.74161350873E-01  0.54341439737E-02  0.11494007764E+00  0.51100000000E-03 0.  1.
         11    1    4    4    0    0  0.11292107210E-01 -0.31653316939E-02  0.50749766760E-02  0.12788569867E-01  0.51100000000E-03 0. -1.
</event>
<event>
 8    1  0.1072332E+005  0.1043930E+01  0.7957747E-01            NaN
         13   -1    0    0    0    0  0.00000000000E+00  0.00000000000E+00  0.74505805969E-08  0.10566000000E+00  0.10566000000E+00 0. -1.
     999900   -1    0    0    0    0 -0.00000000000E+00 -0.00000000000E+00 -0.74505805969E-08  0.93827000000E+00  0.93827000000E+00 0. -1.
     999902    2    1    2    0    0  0.17005029714E-02 -0.37462261687E-02 -0.22281798090E-01  0.10212715701E+01  0.10210201836E+01 0.  0.
     999903    2    3    3    0    0 -0.25337748909E-01 -0.10471929953E+00  0.70527180366E-01  0.13023838601E+00  0.19488991931E-01 0.  0.
         14    1    1    2    0    0 -0.17005029714E-02  0.37462261687E-02  0.22281798090E-01  0.22658429932E-01  0.00000000000E+00 0. -1.
     999901    1    3    3    0    0  0.27038251880E-01  0.10097307336E+00 -0.92808978456E-01  0.89103318406E+00  0.88000000000E+00 0. -1.
        -11    1    4    4    0    0 -0.27191742045E-01 -0.81462917396E-01  0.51600748545E-01  0.10019229570E+00  0.51100000000E-03 0. -1.
         11    1    4    4    0    0  0.18539931366E-02 -0.23256382135E-01  0.18926431821E-01  0.30046090312E-01  0.51100000000E-03 0.  1.
</event>
<event>
 8    1  0.1072332E+005  0.1043930E+01  0.7957747E-01            NaN
         13   -1    0    0    0    0  0.00000000000E+00  0.00000000000E+00  0.74505805969E-08  0.10566000000E+00  0.10566000000E+00 0.  1.
     999900   -1    0    0    0    0 -0.00000000000E+00 -0.00000000000E+00 -0.74505805969E-08  0.93827000000E+00  0.93827000000E+00 0.  1.
     999902    2    1    2    0    0 -0.55760688978E-02 -0.92430722056E-02 -0.21132032388E-01  0.10202004884E+01  0.10199244809E+01 0.  0.
     999903    2    3    3    0    0 -0.96676234532E-01 -0.32744185389E-01 -0.82559894287E-01  0.13305623591E+00  0.21664481759E-01 0.  0.
         14    1    1    2    0    0  0.55760688978E-02  0.92430722056E-02  0.21132032388E-01  0.23729511605E-01  0.00000000000E+00 0. -1.
     999901    1    3    3    0    0  0.91100165634E-01  0.23501113184E-01  0.61427861899E-01  0.88714425248E+00  0.88000000000E+00 0. -1.
        -11    1    4    4    0    0 -0.30868988871E-01 -0.13902347668E-01 -0.40188035444E-01  0.52550062402E-01  0.51100000000E-03 0.  1.
         11    1    4    4    0    0 -0.65807245661E-01 -0.18841837721E-01 -0.42371858844E-01  0.80506173509E-01  0.51100000000E-03 0. -1.
</event>
<event>
 8    1  0.1072332E+005  0.1043930E+01  0.7957747E-01            NaN
         13   -1    0    0    0    0  0.00000000000E+00  0.00000000000E+00  0.74505805969E-08  0.10566000000E+00  0.10566000000E+00 0. -1.
     999900   -1    0    0    0    0 -0.00000000000E+00 -0.00000000000E+00 -0.74505805969E-08  0.93827000000E+00  0.93827000000E+00 0.  1.
     999902    2    1    2    0    0  0.39698821063E-03  0.23971191566E-01  0.25609869338E-02  0.10198191253E+01  0.10195340671E+01 0.  0.
     999903    2    3    3    0    0  0.12801616365E+00  0.11589027556E-01 -0.91690277976E-02  0.13044993021E+00  0.20264982260E-01 0.  0.
         14    1    1    2    0    0 -0.39698821063E-03 -0.23971191566E-01 -0.25609869338E-02  0.24110874701E-01  0.00000000000E+00 0.  1.
     999901    1    3    3    0    0 -0.12761917544E+00  0.12382164010E-01  0.11730014731E-01  0.88936919509E+00  0.88000000000E+00 0.  1.
        -11    1    4    4    0    0  0.10385168110E+00  0.62074941617E-02 -0.14717609218E-01  0.10507413475E+00  0.51100000000E-03 0.  1.
         11    1    4    4    0    0  0.24164482547E-01  0.53815333946E-02  0.55485814201E-02  0.25375795459E-01  0.51100000000E-03 0. -1.
</event>
<event>
 8    1  0.1072332E+005  0.1043930E+01  0.7957747E-01            NaN
         13   -1    0    0    0    0  0.00000000000E+00  0.00000000000E+00  0.74505805969E-08  0.10566000000E+00  0.10566000000E+00 0. -1.
     999900   -1    0    0    0    0 -0.00000000000E+00 -0.00000000000E+00 -0.74505805969E-08  0.93827000000E+00  0.93827000000E+00 0. -1.
     999902    2    1    2    0    0  0.19028755347E-01  0.11508822245E-01  0.76328232323E-02  0.10204181623E+01  0.10201472538E+01 0.  0.
     999903    2    3    3    0    0  0.12484638952E+00  0.42846181399E-01  0.28916713238E-02  0.13351237236E+00  0.19868960056E-01 0.  0.
         14    1    1    2    0    0 -0.19028755347E-01 -0.11508822245E-01 -0.76328232323E-02  0.23511837657E-01  0.00000000000E+00 0.  1.
     999901    1    3    3    0    0 -0.10581763417E+00 -0.31337359154E-01  0.47411519086E-02  0.88690578998E+00  0.88000000000E+00 0.  1.
        -11    1    4    4    0    0  0.82568382790E-01  0.34067537366E-01 -0.56207697294E-02  0.89498542513E-01  0.51100000000E-03 0.  1.
         11    1    4    4    0    0  0.42278006731E-01  0.87786440332E-02  0.85124410532E-02  0.44013829848E-01  0.51100000000E-03 0. -1.
</event>
<event>
 8    1  0.1072332E+005  0.1043930E+01  0.7957747E-01            NaN
         13   -1    0    0    0    0  0.00000000000E+00  0.00000000000E+00  0.74505805969E-08  0.10566000000E+00  0.10566000000E+00 0.  1.
     999900   -1    0    0    0    0 -0.00000000000E+00 -0.00000000000E+00 -0.74505805969E-08  0.93827000000E+00  0.93827000000E+00 0.  1.
     999902    2    1    2    0    0  0.16188732590E-01 -0.41986518637E-02  0.16073488821E-01  0.10207338628E+01  0.10204702631E+01 0.  0.
     999903    2    3    3    0    0  0.57199965830E-01 -0.11373668869E+00 -0.27967063731E-01  0.13190312913E+00  0.20209116158E-01 0.  0.
         14    1    1    2    0    0 -0.16188732590E-01  0.41986518637E-02 -0.16073488821E-01  0.23196137248E-01  0.00000000000E+00 0.  1.
     999901    1    3    3    0    0 -0.41011233240E-01  0.10953803682E+00  0.44040552552E-01  0.88883073362E+00  0.88000000000E+00 0. -1.
        -11    1    4    4    0    0  0.33841305715E-01 -0.55871406919E-01 -0.23186571915E-01  0.69316133200E-01  0.51100000000E-03 0. -1.
         11    1    4    4    0    0  0.23358660115E-01 -0.57865281768E-01 -0.47804918160E-02  0.62586995930E-01  0.51100000000E-03 0.  1.
</event>
<event>
 8    1  0.1072332E+005  0.1043930E+01  0.7957747E-01            NaN
         13   -1    0    0    0    0  0.00000000000E+00  0.00000000000E+00  0.74505805969E-08  0.10566000000E+00  0.10566000000E+00 0. -1.
     999900   -1    0    0    0    0 -0.00000000000E+00 -0.00000000000E+00 -0.74505805969E-08  0.93827000000E+00  0.93827000000E+00 0.  1.
     999902    2    1    2    0    0 -0.10170073775E-01 -0.20599200971E-02  0.21015548563E-01  0.10204922750E+01  0.10202230915E+01 0.  0.
     999903    2    3    3    0    0 -0.56872079147E-01  0.71549232186E-01 -0.88734949456E-01  0.12940049723E+00  0.22734806265E-01 0.  0.
         14    1    1    2    0    0  0.10170073775E-01  0.20599200971E-02 -0.21015548563E-01  0.23437724992E-01  0.00000000000E+00 0. -1.
     999901    1    3    3    0    0  0.46702005372E-01 -0.73609152283E-01  0.10975049802E+00  0.89109177778E+00  0.88000000000E+00 0. -1.
        -11    1    4    4    0    0 -0.28851798104E-01  0.49888275679E-01 -0.44991232432E-01  0.73114556832E-01  0.51100000000E-03 0.  1.
         11    1    4    4    0    0 -0.28020281043E-01  0.21660956507E-01 -0.43743717024E-01  0.56285940399E-01  0.51100000000E-03 0. -1.
</event>
<event>
 8    1  0.1072332E+005  0.1043930E+01  0.7957747E-01            NaN
         13   -1    0    0    0    0  0.00000000000E+00  0.00000000000E+00  0.74505805969E-08  0.10566000000E+00  0.10566000000E+00 0. -1.
     999900   -1    0    0    0    0 -0.00000000000E+00 -0.00000000000E+00 -0.74505805969E-08  0.93827000000E+00  0.93827000000E+00 0.  1.
     999902    2    1    2    0    0 -0.32426080467E-02  0.20252417115E-01  0.13050072475E-01  0.10196199342E+01  0.10193300893E+01 0.  0.
     999903    2    3    3    0    0 -0.18535936441E-02 -0.12102231994E-01 -0.12591960985E+00  0.12812606141E+00  0.20264245318E-01 0.  0.
         14    1    1    2    0    0  0.32426080467E-02 -0.20252417115E-01 -0.13050072475E-01  0.24310065766E-01  0.00000000000E+00 0.  1.
     999901    1    3    3    0    0 -0.13890144026E-02  0.32354649109E-01  0.13896968233E+00  0.89149387283E+00  0.88000000000E+00 0. -1.
        -11    1    4    4    0    0  0.72088332446E-02 -0.66899809671E-02 -0.28884603591E-01  0.30517283098E-01  0.51100000000E-03 0. -1.
         11    1    4    4    0    0 -0.90624268887E-02 -0.54122510267E-02 -0.97035006260E-01  0.97608778310E-01  0.51100000000E-03 0.  1.
</event>
<event>
 8    1  0.1072332E+005  0.1043930E+01  0.7957747E-01            NaN
         13   -1    0    0    0    0  0.00000000000E+00  0.00000000000E+00  0.74505805969E-08  0.10566000000E+00  0.10566000000E+00 0.  1.
     999900   -1    0    0    0    0 -0.00000000000E+00 -0.00000000000E+00 -0.74505805969E-08  0.93827000000E+00  0.93827000000E+00 0.  1.
     999902    2    1    2    0    0 -0.22938844608E-01  0.23365239239E-02 -0.99544925074E-02  0.10188154254E+01  0.10185058317E+01 0.  0.
     999903    2    3    3    0    0 -0.50096053268E-01 -0.74270987252E-01 -0.92929338573E-01  0.13118315367E+00  0.23395805993E-01 0.  0.
         14    1    1    2    0    0  0.22938844608E-01 -0.23365239239E-02  0.99544925074E-02  0.25114574594E-01  0.00000000000E+00 0.  1.
     999901    1    3    3    0    0  0.27157208660E-01  0.76607511176E-01  0.82974846066E-01  0.88763227174E+00  0.88000000000E+00 0. -1.
        -11    1    4    4    0    0 -0.10683129272E-01 -0.29450172492E-02 -0.11599317154E-01  0.16050160656E-01  0.51100000000E-03 0. -1.
         11    1    4    4    0    0 -0.39412923996E-01 -0.71325970003E-01 -0.81330021420E-01  0.11513299301E+00  0.51100000000E-03 0.  1.
</event>
<event>
 8    1  0.1072332E+005  0.1043930E+01  0.7957747E-01            NaN
         13   -1    0    0    0    0  0.00000000000E+00  0.00000000000E+00  0.74505805969E-08  0.10566000000E+00  0.10566000000E+00 0. -1.
     999900   -1    0    0    0    0 -0.00000000000E+00 -0.00000000000E+00 -0.74505805969E-08  0.93827000000E+00  0.93827000000E+00 0.  1.
     999902    2    1    2    0    0 -0.14363606073E-01  0.18537902489E-01 -0.97097159783E-03  0.10204585323E+01  0.10201885642E+01 0.  0.
     999903    2    3    3    0    0 -0.17590895485E-01  0.10060772306E+00  0.82358761768E-01  0.13271436012E+00  0.19969531804E-01 0.  0.
         14    1    1    2    0    0  0.14363606073E-01 -0.18537902489E-01  0.97097159783E-03  0.23471467657E-01  0.00000000000E+00 0. -1.
     999901    1    3    3    0    0  0.32272894118E-02 -0.82069820569E-01 -0.83329733366E-01  0.88774417222E+00  0.88000000000E+00 0.  1.
        -11    1    4    4    0    0 -0.27481614477E-02  0.11967552893E-01  0.19457828913E-01  0.23013972725E-01  0.51100000000E-03 0.  1.
         11    1    4    4    0    0 -0.14842734037E-01  0.88640170165E-01  0.62900932855E-01  0.10970038740E+00  0.51100000000E-03 0. -1.
</event>
<event>
 8    1  0.1072332E+005  0.1043930E+01  0.7957747E-01            NaN
         13   -1    0    0    0    0  0.00000000000E+00  0.00000000000E+00  0.74505805969E-08  0.10566000000E+00  0.10566000000E+00 0.  1.
     999900   -1    0    0    0    0 -0.00000000000E+00 -0.00000000000E+00 -0.74505805969E-08  0.93827000000E+00  0.93827000000E+00 0.  1.
     999902    2    1    2    0    0 -0.69494484274E-02 -0.23734037922E-01 -0.11181981492E-02  0.10191741975E+01  0.10188734932E+01 0.  0.
     999903    2    3    3    0    0 -0.36878553179E-01  0.11902472294E+00  0.14578647870E-01  0.12702947490E+00  0.19925816510E-01 0.  0.
         14    1    1    2    0    0  0.69494484274E-02  0.23734037922E-01  0.11181981492E-02  0.24755802484E-01  0.00000000000E+00 0.  1.
     999901    1    3    3    0    0  0.29929104752E-01 -0.14275876087E+00 -0.15696846019E-01  0.89214472262E+00  0.88000000000E+00 0.  1.
        -11    1    4    4    0    0 -0.23089462084E-01  0.42767614498E-01  0.32921725195E-02  0.48716441065E-01  0.51100000000E-03 0. -1.
         11    1    4    4    0    0 -0.13789091095E-01  0.76257108446E-01  0.11286475350E-01  0.78313033836E-01  0.51100000000E-03 0.  1.
</event>
<event>
 8    1  0.1072332E+005  0.1043930E+01  0.7957747E-01            NaN
         13   -1    0    0    0    0  0.00000000000E+00  0.00000000000E+00  0.74505805969E-08  0.10566000000E+00  0.10566000000E+00 0. -1.
     999900   -1    0    0    0    0 -0.00000000000E+00 -0.00000000000E+00 -0.74505805969E-08  0.93827000000E+00  0.93827000000E+00 0.  1.
     999902    2    1    2    0    0  0.48255389432E-02  0.20422019663E-01 -0.97552880479E-02  0.10207889033E+01  0.10205265674E+01 0.  0.
     999903    2    3    3    0    0  0.12910030314E+00  0.10895692674E-01 -0.17325818022E-01  0.13197380391E+00  0.18201553728E-01 0.  0.
         14    1    1    2    0    0 -0.48255389432E-02 -0.20422019663E-01  0.97552880479E-02  0.23141096735E-01  0.00000000000E+00 0.  1.
     999901    1    3    3    0    0 -0.12427476420E+00  0.95263269885E-02  0.75705299740E-02  0.88881509936E+00  0.88000000000E+00 0.  1.
        -11    1    4    4    0    0  0.56717813231E-01 -0.51823980171E-03 -0.21036208633E-03  0.56722872665E-01  0.51100000000E-03 0. -1.
         11    1    4    4    0    0  0.72382489909E-01  0.11413932476E-01 -0.17115455936E-01  0.75250931242E-01  0.51100000000E-03 0.  1.
</event>
<event>
 8    1  0.1072332E+005  0.1043930E+01  0.7957747E-01            NaN
         13   -1    0    0    0    0  0.00000000000E+00  0.00000000000E+00  0.74505805969E-08  0.10566000000E+00  0.10566000000E+00 0.  1.
     999900   -1    0    0    0    0 -0.00000000000E+00 -0.00000000000E+00 -0.74505805969E-08  0.93827000000E+00  0.93827000000E+00 0. -1.
     999902    2    1    2    0    0  0.31087334753E-02 -0.22640037898E-01 -0.20029283462E-02  0.10209899202E+01  0.10207321734E+01 0.  0.
     999903    2    3    3    0    0 -0.12493379963E+00 -0.27556464706E-01  0.22878363656E-01  0.13136182923E+00  0.19097057822E-01 0.  0.
         14    1    1    2    0    0 -0.31087334753E-02  0.22640037898E-01  0.20029283462E-02  0.22940079812E-01  0.00000000000E+00 0. -1.
     999901    1    3    3    0    0  0.12804253310E+00  0.49164268078E-02 -0.24881292003E-01  0.88962809096E+00  0.88000000000E+00 0. -1.
        -11    1    4    4    0    0 -0.54889289938E-01 -0.18241994307E-01  0.17783480556E-01  0.60515434460E-01  0.51100000000E-03 0. -1.
         11    1    4    4    0    0 -0.70044509690E-01 -0.93144703986E-02  0.50948830999E-02  0.70846394766E-01  0.51100000000E-03 0.  1.
</event>
<event>
 8    1  0.1072332E+005  0.1043930E+01  0.7957747E-01            NaN
         13   -1    0    0    0    0  0.00000000000E+00  0.00000000000E+00  0.74505805969E-08  0.10566000000E+00  0.10566000000E+00 0.  1.
     999900   -1    0    0    0    0 -0.00000000000E+00 -0.00000000000E+00 -0.74505805969E-08  0.93827000000E+00  0.93827000000E+00 0. -1.
     999902    2    1    2    0    0  0.19064168969E-01 -0.14724191906E-01 -0.21383587052E-02  0.10197470113E+01  0.10194602249E+01 0.  0.
     999903    2    3    3    0    0  0.49289258681E-02  0.14163115156E-01 -0.12774802579E+00  0.13024598819E+00  0.20483437350E-01 0.  0.
         14    1    1    2    0    0 -0.19064168969E-01  0.14724191906E-01  0.21383587052E-02  0.24182988726E-01  0.00000000000E+00 0.  1.
     999901    1    3    3    0    0  0.14135243101E-01 -0.28887307063E-01  0.12560966708E+00  0.88950102309E+00  0.88000000000E+00 0.  1.
        -11    1    4    4    0    0  0.57852694571E-03  0.17816290428E-01 -0.70733008867E-01  0.72946381421E-01  0.51100000000E-03 0. -1.
         11    1    4    4    0    0  0.43503989224E-02 -0.36531752720E-02 -0.57015016919E-01  0.57299606767E-01  0.51100000000E-03 0.  1.
</event>
<event>
 8    1  0.1072332E+005  0.1043930E+01  0.7957747E-01            NaN
         13   -1    0    0    0    0  0.00000000000E+00  0.00000000000E+00  0.74505805969E-08  0.10566000000E+00  0.10566000000E+00 0.  1.
     999900   -1    0    0    0    0 -0.00000000000E+00 -0.00000000000E+00 -0.74505805969E-08  0.93827000000E+00  0.93827000000E+00 0. -1.
     999902    2    1    2    0    0  0.17558326849E-01  0.16964199584E-01  0.59171702530E-02  0.10188084592E+01  0.10184986915E+01 0.  0.
     999903    2    3    3    0    0  0.99090459397E-01 -0.74670517047E-01 -0.28910451196E-01  0.12961929306E+00  0.23890200624E-01 0.  0.
         14    1    1    2    0    0 -0.17558326849E-01 -0.16964199584E-01 -0.59171702530E-02  0.25121540818E-01  0.00000000000E+00 0.  1.
     999901    1    3    3    0    0 -0.81532132548E-01  0.91634716631E-01  0.34827621449E-01  0.88918916612E+00  0.88000000000E+00 0.  1.
        -11    1    4    4    0    0  0.67817860512E-01 -0.62674659224E-01 -0.16009848491E-01  0.93722737278E-01  0.51100000000E-03 0. -1.
         11    1    4    4    0    0  0.31272598886E-01 -0.11995857823E-01 -0.12900602705E-01  0.35896555784E-01  0.51100000000E-03 0.  1.
</event>
<event>
 8    1  0.1072332E+005  0.1043930E+01  0.7957747E-01            NaN
         13   -1    0    0    0    0  0.00000000000E+00  0.00000000000E+00  0.74505805969E-08  0.10566000000E+00  0.10566000000E+00 0. -1.
     999900   -1    0    0    0    0 -0.00000000000E+00 -0.00000000000E+00 -0.74505805969E-08  0.93827000000E+00  0.93827000000E+00 0.  1.
     999902    2    1    2    0    0  0.94442086455E-02 -0.18309550650E-01  0.99487270317E-02  0.10210518469E+01  0.10207955055E+01 0.  0.
     999903    2    3    3    0    0  0.84042681685E-01 -0.86817081891E-01 -0.52479534870E-01  0.13304537058E+00  0.18616954627E-01 0.  0.
         14    1    1    2    0    0 -0.94442086455E-02  0.18309550650E-01 -0.99487270317E-02  0.22878153149E-01  0.00000000000E+00 0.  1.
     999901    1    3    3    0    0 -0.74598473039E-01  0.68507531241E-01  0.62428261902E-01  0.88800647627E+00  0.88000000000E+00 0. -1.
        -11    1    4    4    0    0  0.21349687000E-01 -0.34525158217E-01 -0.18603416811E-01  0.44655838621E-01  0.51100000000E-03 0. -1.
         11    1    4    4    0    0  0.62692994684E-01 -0.52291923674E-01 -0.33876118059E-01  0.88389531958E-01  0.51100000000E-03 0.  1.
</event>
<event>
 8    1  0.1072332E+005  0.1043930E+01  0.7957747E-01            NaN
         13   -1    0    0    0    0  0.00000000000E+00  0.00000000000E+00  0.74505805969E-08  0.10566000000E+00  0.10566000000E+00 0.  1.
     999900   -1    0    0    0    0 -0.00000000000E+00 -0.00000000000E+00 -0.74505805969E-08  0.93827000000E+00  0.93827000000E+00 0. -1.
     999902    2    1    2    0    0  0.45243148608E-03  0.25144434850E-02 -0.23332949945E-01  0.10204575976E+01  0.10201876077E+01 0.  0.
     999903    2    3    3    0    0  0.53041360433E-01  0.94831763781E-01 -0.73489866875E-01  0.13264917268E+00  0.19712765963E-01 0.  0.
         14    1    1    2    0    0 -0.45243148608E-03 -0.25144434850E-02  0.23332949945E-01  0.23472402378E-01  0.00000000000E+00 0.  1.
     999901    1    3    3    0    0 -0.52588928947E-01 -0.92317320296E-01  0.50156916931E-01  0.88780842494E+00  0.88000000000E+00 0.  1.
        -11    1    4    4    0    0  0.20292748537E-01  0.53999622236E-01 -0.32902784452E-01  0.66412417442E-01  0.51100000000E-03 0.  1.
         11    1    4    4    0    0  0.32748611896E-01  0.40832141545E-01 -0.40587082423E-01  0.66236755241E-01  0.51100000000E-03 0. -1.
</event>
<event>
 8    1  0.1072332E+005  0.1043930E+01  0.7957747E-01            NaN
         13   -1    0    0    0    0  0.00000000000E+00  0.00000000000E+00  0.74505805969E-08  0.10566000000E+00  0.10566000000E+00 0. -1.
     999900   -1    0    0    0    0 -0.00000000000E+00 -0.00000000000E+00 -0.74505805969E-08  0.93827000000E+00  0.93827000000E+00 0.  1.
     999902    2    1    2    0    0  0.44449556150E-02 -0.11980111585E-01  0.19976490665E-01  0.10202162723E+01  0.10199406362E+01 0.  0.
     999903    2    3    3    0    0 -0.78379829544E-01 -0.23676137741E-01 -0.96995149480E-01  0.12854418754E+00  0.20287729076E-01 0.  0.
         14    1    1    2    0    0 -0.44449556150E-02  0.11980111585E-01 -0.19976490665E-01  0.23713727739E-01  0.00000000000E+00 0.  1.
     999901    1    3    3    0    0  0.82824785159E-01  0.11696026156E-01  0.11697164014E+00  0.89167208472E+00  0.88000000000E+00 0. -1.
        -11    1    4    4    0    0 -0.45525424219E-01 -0.15858152163E-01 -0.71459838359E-01  0.86202174333E-01  0.51100000000E-03 0.  1.
         11    1    4    4    0    0 -0.32854405325E-01 -0.78179855776E-02 -0.25535311121E-01  0.42342013211E-01  0.51100000000E-03 0. -1.
</event>
<event>
 8    1  0.1072332E+005  0.1043930E+01  0.7957747E-01            NaN
         13   -1    0    0    0    0  0.00000000000E+00  0.00000000000E+00  0.74505805969E-08  0.10566000000E+00  0.10566000000E+00 0.  1.
     999900   -1    0    0    0    0 -0.00000000000E+00 -0.00000000000E+00 -0.74505805969E-08  0.93827000000E+00  0.93827000000E+00 0.  1.
     999902    2    1    2    0    0 -0.13927175723E-01  0.18779865357E-01 -0.11303305513E-02  0.10205221549E+01  0.10202536652E+01 0.  0.
     999903    2    3    3    0    0 -0.69874306331E-01  0.22872687247E-01 -0.10813116853E+00  0.13226768010E+00  0.19920117612E-01 0.  0.
         14    1    1    2    0    0  0.13927175723E-01 -0.18779865357E-01  0.11303305513E-02  0.23407845130E-01  0.00000000000E+00 0. -1.
     999901    1    3    3    0    0  0.55947130608E-01 -0.40928218896E-02  0.10700083798E+00  0.88825447477E+00  0.88000000000E+00 0. -1.
        -11    1    4    4    0    0 -0.43944926682E-01  0.22675841973E-01 -0.61577766025E-01  0.78977419431E-01  0.51100000000E-03 0.  1.
         11    1    4    4    0    0 -0.25929379649E-01  0.19684527436E-03 -0.46553402503E-01  0.53290260674E-01  0.51100000000E-03 0. -1.
</event>
<event>
 8    1  0.1072332E+005  0.1043930E+01  0.7957747E-01            NaN
         13   -1    0    0    0    0  0.00000000000E+00  0.00000000000E+00  0.74505805969E-08  0.10566000000E+00  0.10566000000E+00 0.  1.
     999900   -1    0    0    0    0 -0.00000000000E+00 -0.00000000000E+00 -0.74505805969E-08  0.93827000000E+00  0.93827000000E+00 0.  1.
     999902    2    1    2    0    0 -0.17961251727E-01 -0.11463782621E-01  0.11552810230E-01  0.10196917596E+01  0.10194036454E+01 0.  0.
     999903    2    3    3    0    0  0.12502111957E+00  0.17156270047E-01  0.35808263750E-02  0.12765666022E+00  0.18941558548E-01 0.  0.
         14    1    1    2    0    0  0.17961251727E-01  0.11463782621E-01 -0.11552810230E-01  0.24238240443E-01  0.00000000000E+00 0. -1.
     999901    1    3    3    0    0 -0.14298237130E+00 -0.28620052669E-01  0.79719838547E-02  0.89203509933E+00  0.88000000000E+00 0. -1.
        -11    1    4    4    0    0  0.84811100919E-01  0.19230633754E-01 -0.21018838094E-02  0.86990914182E-01  0.51100000000E-03 0.  1.
         11    1    4    4    0    0  0.40210018655E-01 -0.20743637061E-02  0.56827101844E-02  0.40665746040E-01  0.51100000000E-03 0. -1.
</event>
<event>
 8    1  0.1072332E+005  0.1043930E+01  0.7957747E-01            NaN
         13   -1    0    0    0    0  0.00000000000E+00  0.00000000000E+00  0.74505805969E-08  0.10566000000E+00  0.10566000000E+00 0.  1.
     999900   -1    0    0    0    0 -0.00000000000E+00 -0.00000000000E+00 -0.74505805969E-08  0.93827000000E+00  0.93827000000E+00 0. -1.
     999902    2    1    2    0    0  0.10689374253E-01  0.18055197167E-01  0.12823271935E-01  0.10193395716E+01  0.10190429201E+01 0.  0.
     999903    2    3    3    0    0 -0.10831938002E+00 -0.42515557850E-01 -0.47714201937E-01  0.12720915191E+00  0.19101374753E-01 0.  0.
         14    1    1    2    0    0 -0.10689374253E-01 -0.18055197167E-01 -0.12823271935E-01  0.24590428418E-01  0.00000000000E+00 0. -1.
     999901    1    3    3    0    0  0.11900875427E+00  0.60570755017E-01  0.60537473873E-01  0.89213041967E+00  0.88000000000E+00 0.  1.
        -11    1    4    4    0    0 -0.31562891625E-01 -0.40894782110E-02 -0.92624268612E-02  0.33151072865E-01  0.51100000000E-03 0.  1.
         11    1    4    4    0    0 -0.76756488391E-01 -0.38426079639E-01 -0.38451775076E-01  0.94058079048E-01  0.51100000000E-03 0. -1.
</event>
<event>
 8    1  0.1072332E+005  0.1043930E+01  0.7957747E-01            NaN
         13   -1    0    0    0    0  0.00000000000E+00  0.00000000000E+00  0.74505805969E-08  0.10566000000E+00  0.10566000000E+00 0.  1.
     999900   -1    0    0    0    0 -0.00000000000E+00 -0.00000000000E+00 -0.74505805969E-08  0.93827000000E+00  0.93827000000E+00 0.  1.
     999902    2    1    2    0    0 -0.21297719030E-01  0.89804196375E-02  0.88572652139E-02  0.10191773856E+01  0.10188767597E+01 0.  0.
     999903    2    3    3    0    0 -0.77306899005E-01  0.85959361402E-01  0.61226808207E-01  0.13249516814E+00  0.20997121028E-01 0.  0.
         14    1    1    2    0    0  0.21297719030E-01 -0.89804196375E-02 -0.88572652139E-02  0.24752614404E-01  0.00000000000E+00 0.  1.
     999901    1    3    3    0    0  0.56009179975E-01 -0.76978941764E-01 -0.52369542993E-01  0.88668221745E+00  0.88000000000E+00 0. -1.
        -11    1    4    4    0    0 -0.21826866694E-01  0.28186031685E-01  0.29740476367E-01  0.46428671608E-01  0.51100000000E-03 0. -1.
         11    1    4    4    0    0 -0.55480032311E-01  0.57773329717E-01  0.31486331840E-01  0.86066496533E-01  0.51100000000E-03 0.  1.
</event>
<event>
 8    1  0.1072332E+005  0.1043930E+01  0.7957747E-01            NaN
         13   -1    0    0    0    0  0.00000000000E+00  0.00000000000E+00  0.74505805969E-08  0.10566000000E+00  0.10566000000E+00 0. -1.
     999900   -1    0    0    0    0 -0.00000000000E+00 -0.00000000000E+00 -0.74505805969E-08  0.93827000000E+00  0.93827000000E+00 0. -1.
     999902    2    1    2    0    0  0.21551892596E-01  0.85939534094E-02 -0.99045677874E-03  0.10207067118E+01  0.10204424876E+01 0.  0.
     999903    2    3    3    0    0 -0.87342482289E-01  0.40746729210E-01  0.83765756439E-01  0.12937321555E+00  0.20777916091E-01 0.  0.
         14    1    1    2    0    0 -0.21551892596E-01 -0.85939534094E-02  0.99045677874E-03  0.23223288189E-01  0.00000000000E+00 0. -1.
     999901    1    3    3    0    0  0.10889437488E+00 -0.32152775801E-01 -0.84756213218E-01  0.89133349626E+00  0.88000000000E+00 0. -1.
        -11    1    4    4    0    0 -0.43037344599E-01  0.11306013893E-01  0.29555896641E-01  0.53421448198E-01  0.51100000000E-03 0. -1.
         11    1    4    4    0    0 -0.44305137689E-01  0.29440715317E-01  0.54209859798E-01  0.75951767355E-01  0.51100000000E-03 0.  1.
</event>
<event>
 8    1  0.1072332E+005  0.1043930E+01  0.7957747E-01            NaN
         13   -1    0    0    0    0  0.00000000000E+00  0.00000000000E+00  0.74505805969E-08  0.10566000000E+00  0.10566000000E+00 0. -1.
     999900   -1    0    0    0    0 -0.00000000000E+00 -0.00000000000E+00 -0.74505805969E-08  0.93827000000E+00  0.93827000000E+00 0. -1.
     999902    2    1    2    0    0  0.86266515698E-02  0.14739304653E-01 -0.10360696435E-01  0.10239547591E+01  0.10237599027E+01 0.  0.
     999903    2    3    3    0    0 -0.87932829957E-02  0.12350521619E+00 -0.52862484461E-01  0.13606969917E+00  0.19739820616E-01 0.  0.
         14    1    1    2    0    0 -0.86266515698E-02 -0.14739304653E-01  0.10360696435E-01  0.19975240915E-01  0.00000000000E+00 0.  1.
     999901    1    3    3    0    0  0.17419934566E-01 -0.10876591153E+00  0.42501788026E-01  0.88788505991E+00  0.88000000000E+00 0. -1.
        -11    1    4    4    0    0 -0.13719835870E-01  0.56923004203E-01 -0.22600860685E-01  0.62765614221E-01  0.51100000000E-03 0.  1.
         11    1    4    4    0    0  0.49265528743E-02  0.66582211985E-01 -0.30261623776E-01  0.73304084951E-01  0.51100000000E-03 0. -1.
</event>
<event>
 8    1  0.1072332E+005  0.1043930E+01  0.7957747E-01            NaN
         13   -1    0    0    0    0  0.00000000000E+00  0.00000000000E+00  0.74505805969E-08  0.10566000000E+00  0.10566000000E+00 0. -1.
     999900   -1    0    0    0    0 -0.00000000000E+00 -0.00000000000E+00 -0.74505805969E-08  0.93827000000E+00  0.93827000000E+00 0.  1.
     999902    2    1    2    0    0 -0.43600679349E-03 -0.23410389188E-01 -0.42298291630E-02  0.10201365581E+01  0.10198590438E+01 0.  0.
     999903    2    3    3    0    0  0.85928484892E-01  0.23239218626E-01  0.90843312906E-01  0.12958958364E+00  0.24843246367E-01 0.  0.
         14    1    1    2    0    0  0.43600679349E-03  0.23410389188E-01  0.42298291630E-02  0.23793441925E-01  0.00000000000E+00 0. -1.
     999901    1    3    3    0    0 -0.86364491685E-01 -0.46649607815E-01 -0.95073142069E-01  0.89054697444E+00  0.88000000000E+00 0.  1.
        -11    1    4    4    0    0  0.18638761945E-01  0.12209096565E-01  0.11871989377E-01  0.25252143247E-01  0.51100000000E-03 0.  1.
         11    1    4    4    0    0  0.67289722947E-01  0.11030122061E-01  0.78971323529E-01  0.10433744039E+00  0.51100000000E-03 0. -1.
</event>
<event>
 7    1  0.1072332E+005  0.1043930E+01  0.7957747E-01            NaN
         13   -1    0    0    0    0  0.00000000000E+00  0.00000000000E+00  0.74505805969E-08  0.10566000000E+00  0.10566000000E+00 0.  1.
     999900   -1    0    0    0    0 -0.00000000000E+00 -0.00000000000E+00 -0.74505805969E-08  0.93827000000E+00  0.93827000000E+00 0. -1.
     999903    2    1    2    0    0 -0.20376393135E-01 -0.69997174938E-03 -0.10625373870E+00  0.10961050698E+00  0.17576088729E-01 0.  0.
         14    1    1    2    0    0  0.24827162668E-01 -0.37597400969E-01 -0.90674861442E-02  0.45958371063E-01  0.00000000000E+00 0. -1.
     999901    1    1    2    0    0 -0.44507695329E-02  0.38297372718E-01  0.11532122484E+00  0.88836112196E+00  0.88000000000E+00 0.  1.
        -11    1    3    3    0    0 -0.18237361048E-01  0.32549833827E-02 -0.10095690927E+00  0.10264382546E+00  0.51100000000E-03 0. -1.
         11    1    3    3    0    0 -0.21390320875E-02 -0.39549551321E-02 -0.52968294256E-02  0.69666815150E-02  0.51100000000E-03 0.  1.
</event>
<event>
 8    1  0.1072332E+005  0.1043930E+01  0.7957747E-01            NaN
         13   -1    0    0    0    0  0.00000000000E+00  0.00000000000E+00  0.74505805969E-08  0.10566000000E+00  0.10566000000E+00 0. -1.
     999900   -1    0    0    0    0 -0.00000000000E+00 -0.00000000000E+00 -0.74505805969E-08  0.93827000000E+00  0.93827000000E+00 0.  1.
     999902    2    1    2    0    0 -0.16390229613E-01  0.16026092348E-02  0.16912776114E-01  0.10203238572E+01  0.10200507456E+01 0.  0.
     999903    2    3    3    0    0  0.61608232596E-01 -0.20701224023E-01 -0.10824135035E+00  0.12777426390E+00  0.19645803375E-01 0.  0.
         14    1    1    2    0    0  0.16390229613E-01 -0.16026092348E-02 -0.16912776114E-01  0.23606142823E-01  0.00000000000E+00 0.  1.
     999901    1    3    3    0    0 -0.77998462209E-01  0.22303833258E-01  0.12515412646E+00  0.89254959328E+00  0.88000000000E+00 0. -1.
        -11    1    4    4    0    0  0.37628871022E-01 -0.41810374734E-02 -0.50656338735E-01  0.63243488074E-01  0.51100000000E-03 0.  1.
         11    1    4    4    0    0  0.23979361574E-01 -0.16520186550E-01 -0.57585011615E-01  0.64530775827E-01  0.51100000000E-03 0. -1.
</event>
<event>
 8    1  0.1072332E+005  0.1043930E+01  0.7957747E-01            NaN
         13   -1    0    0    0    0  0.00000000000E+00  0.00000000000E+00  0.74505805969E-08  0.10566000000E+00  0.10566000000E+00 0.  1.
     999900   -1    0    0    0    0 -0.00000000000E+00 -0.00000000000E+00 -0.74505805969E-08  0.93827000000E+00  0.93827000000E+00 0. -1.
     999902    2    1    2    0    0 -0.45209655250E-02 -0.11827944956E-01  0.19335931684E-01  0.10208168508E+01  0.10205551554E+01 0.  0.
     999903    2    3    3    0    0 -0.11004605072E+00 -0.57837632566E-01 -0.37957104959E-01  0.13147162706E+00  0.19716031186E-01 0.  0.
         14    1    1    2    0    0  0.45209655250E-02  0.11827944956E-01 -0.19335931684E-01  0.23113149185E-01  0.00000000000E+00 0. -1.
     999901    1    3    3    0    0  0.10552508520E+00  0.46009687610E-01  0.57293036643E-01  0.88934522375E+00  0.88000000000E+00 0.  1.
        -11    1    4    4    0    0 -0.25919886139E-01 -0.20105492719E-01 -0.16862875450E-01  0.36887518545E-01  0.51100000000E-03 0. -1.
         11    1    4    4    0    0 -0.84126164583E-01 -0.37732139846E-01 -0.21094229509E-01  0.94584108520E-01  0.51100000000E-03 0.  1.
</event>
<event>
 8    1  0.1072332E+005  0.1043930E+01  0.7957747E-01            NaN
         13   -1    0    0    0    0  0.00000000000E+00  0.00000000000E+00  0.74505805969E-08  0.10566000000E+00  0.10566000000E+00 0. -1.
     999900   -1    0    0    0    0 -0.00000000000E+00 -0.00000000000E+00 -0.74505805969E-08  0.93827000000E+00  0.93827000000E+00 0.  1.
     999902    2    1    2    0    0 -0.17255720012E-01  0.20850567767E-02 -0.15528844564E-01  0.10206222256E+01  0.10203560531E+01 0.  0.
     999903    2    3    3    0    0  0.82642720194E-01  0.83996364277E-01  0.49239862039E-01  0.12883517364E+00  0.16992043450E-01 0.  0.
         14    1    1    2    0    0  0.17255720012E-01 -0.20850567767E-02  0.15528844564E-01  0.23307774419E-01  0.00000000000E+00 0. -1.
     999901    1    3    3    0    0 -0.99898440206E-01 -0.81911307500E-01 -0.64768706603E-01  0.89178705194E+00  0.88000000000E+00 0.  1.
        -11    1    4    4    0    0  0.35409663418E-02  0.10320431360E-01  0.53916877329E-02  0.12181180719E-01  0.51100000000E-03 0. -1.
         11    1    4    4    0    0  0.79101753852E-01  0.73675932917E-01  0.43848174306E-01  0.11665399292E+00  0.51100000000E-03 0.  1.
</event>
<event>
 8    1  0.1072332E+005  0.1043930E+01  0.7957747E-01            NaN
         13   -1    0    0    0    0  0.00000000000E+00  0.00000000000E+00  0.74505805969E-08  0.10566000000E+00  0.10566000000E+00 0. -1.
     999900   -1    0    0    0    0 -0.00000000000E+00 -0.00000000000E+00 -0.74505805969E-08  0.93827000000E+00  0.93827000000E+00 0.  1.
     999902    2    1    2    0    0 -0.64923332960E-02 -0.56462581181E-03  0.22826099516E-01  0.10201918448E+01  0.10199156338E+01 0.  0.
     999903    2    3    3    0    0  0.10935591241E+00 -0.14309370167E-01  0.66843787021E-01  0.13140205476E+00  0.25197906233E-01 0.  0.
         14    1    1    2    0    0  0.64923332960E-02  0.56462581181E-03 -0.22826099516E-01  0.23738155216E-01  0.00000000000E+00 0.  1.
     999901    1    3    3    0    0 -0.11584824571E+00  0.13744744355E-01 -0.44017687505E-01  0.88878979002E+00  0.88000000000E+00 0.  1.
        -11    1    4    4    0    0  0.17319476196E-01  0.47443317717E-02  0.41988294668E-02  0.18448962832E-01  0.51100000000E-03 0. -1.
         11    1    4    4    0    0  0.92036436217E-01 -0.19053701939E-01  0.62644957554E-01  0.11295309193E+00  0.51100000000E-03 0.  1.
</event>
<event>
 8    1  0.1072332E+005  0.1043930E+01  0.7957747E-01            NaN
         13   -1    0    0    0    0  0.00000000000E+00  0.00000000000E+00  0.74505805969E-08  0.10566000000E+00  0.10566000000E+00 0.  1.
     999900   -1    0    0    0    0 -0.00000000000E+00 -0.00000000000E+00 -0.74505805969E-08  0.93827000000E+00  0.93827000000E+00 0.  1.
     999902    2    1    2    0    0 -0.20457107061E-01  0.71837190158E-02  0.89816534225E-02  0.10204615287E+01  0.10201916302E+01 0.  0.
     999903    2    3    3    0    0  0.34705244133E-01 -0.10124946334E-01 -0.12187501535E+00  0.12890898247E+00  0.21378444404E-01 0.  0.
         14    1    1    2    0    0  0.20457107061E-01 -0.71837190158E-02 -0.89816534225E-02  0.23468471327E-01  0.00000000000E+00 0. -1.
     999901    1    3    3    0    0 -0.55162351194E-01  0.17308665349E-01  0.13085666877E+00  0.89155254621E+00  0.88000000000E+00 0. -1.
        -11    1    4    4    0    0  0.19307661794E-01 -0.72721437613E-02 -0.34993819011E-01  0.40626326056E-01  0.51100000000E-03 0. -1.
         11    1    4    4    0    0  0.15397582339E-01 -0.28528025722E-02 -0.86881196340E-01  0.88282656410E-01  0.51100000000E-03 0.  1.
</event>
<event>
 8    1  0.1072332E+005  0.1043930E+01  0.7957747E-01            NaN
         13   -1    0    0    0    0  0.00000000000E+00  0.00000000000E+00  0.74505805969E-08  0.10566000000E+00  0.10566000000E+00 0. -1.
     999900   -1    0    0    0    0 -0.00000000000E+00 -0.00000000000E+00 -0.74505805969E-08  0.93827000000E+00  0.93827000000E+00 0. -1.
     999902    2    1    2    0    0  0.23217827279E-01  0.25462795974E-02 -0.53835455387E-02  0.10199605693E+01  0.10196788854E+01 0.  0.
     999903    2    3    3    0    0  0.77807799992E-02 -0.51417416767E-01  0.11715102434E+00  0.12969931344E+00  0.19830736688E-01 0.  0.
         14    1    1    2    0    0 -0.23217827279E-01 -0.25462795974E-02  0.53835455387E-02  0.23969430655E-01  0.00000000000E+00 0.  1.
     999901    1    3    3    0    0  0.15437047280E-01  0.53963696364E-01 -0.12253456988E+00  0.89026125591E+00  0.88000000000E+00 0. -1.
        -11    1    4    4    0    0  0.14513227344E-01 -0.33846379562E-01  0.78006492836E-01  0.86264043627E-01  0.51100000000E-03 0. -1.
         11    1    4    4    0    0 -0.67324473446E-02 -0.17571037205E-01  0.39144531506E-01  0.43435269811E-01  0.51100000000E-03 0.  1.
</event>
<event>
 8    1  0.1072332E+005  0.1043930E+01  0.7957747E-01            NaN
         13   -1    0    0    0    0  0.00000000000E+00  0.00000000000E+00  0.74505805969E-08  0.10566000000E+00  0.10566000000E+00 0.  1.
     999900   -1    0    0    0    0 -0.00000000000E+00 -0.00000000000E+00 -0.74505805969E-08  0.93827000000E+00  0.93827000000E+00 0.  1.
     999902    2    1    2    0    0  0.88209805554E-02 -0.17217133839E-01  0.18575031924E-01  0.10171107680E+01  0.10167571210E+01 0.  0.
     999903    2    3    3    0    0  0.10700891069E+00  0.34158958717E-01 -0.55698641692E-01  0.12705630273E+00  0.20572407435E-01 0.  0.
         14    1    1    2    0    0 -0.88209805554E-02  0.17217133839E-01 -0.18575031924E-01  0.26819232028E-01  0.00000000000E+00 0. -1.
     999901    1    3    3    0    0 -0.98187930138E-01 -0.51376092556E-01  0.74273673616E-01  0.89005446525E+00  0.88000000000E+00 0. -1.
        -11    1    4    4    0    0  0.23672974607E-01 -0.89352213304E-03 -0.95175946131E-02  0.25535344853E-01  0.51100000000E-03 0.  1.
         11    1    4    4    0    0  0.83335936086E-01  0.35052480850E-01 -0.46181047079E-01  0.10152095787E+00  0.51100000000E-03 0. -1.
</event>
<event>
 8    1  0.1072332E+005  0.1043930E+01  0.7957747E-01            NaN
         13   -1    0    0    0    0  0.00000000000E+00  0.00000000000E+00  0.74505805969E-08  0.10566000000E+00  0.10566000000E+00 0.  1.
     999900   -1    0    0    0    0 -0.00000000000E+00 -0.00000000000E+00 -0.74505805969E-08  0.93827000000E+00  0.93827000000E+00 0. -1.
     999902    2    1    2    0    0 -0.11886527024E-01  0.18145617460E-01  0.81136792133E-02  0.10207700184E+01  0.10205072492E+01 0.  0.
     999903    2    3    3    0    0  0.79669624873E-01  0.90844603731E-01 -0.47541457574E-01  0.13129536119E+00  0.19449692213E-01 0.  0.
         14    1    1    2    0    0  0.11886527024E-01 -0.18145617460E-01 -0.81136792133E-02  0.23159981608E-01  0.00000000000E+00 0. -1.
     999901    1    3    3    0    0 -0.91556151897E-01 -0.72698986270E-01  0.55655136787E-01  0.88947465720E+00  0.88000000000E+00 0.  1.
        -11    1    4    4    0    0  0.41215129982E-01  0.58649811625E-01 -0.34030397784E-01  0.79352482239E-01  0.51100000000E-03 0. -1.
         11    1    4    4    0    0  0.38454494890E-01  0.32194792105E-01 -0.13511059790E-01  0.51942878950E-01  0.51100000000E-03 0.  1.
</event>
<event>
 8    1  0.1072332E+005  0.1043930E+01  0.7957747E-01            NaN
         13   -1    0    0    0    0  0.00000000000E+00  0.00000000000E+00  0.74505805969E-08  0.10566000000E+00  0.10566000000E+00 0. -1.
     999900   -1    0    0    0    0 -0.00000000000E+00 -0.00000000000E+00 -0.74505805969E-08  0.93827000000E+00  0.93827000000E+00 0. -1.
     999902    2    1    2    0    0  0.76152656485E-02  0.10690572482E-01 -0.20122449746E-01  0.10199051463E+01  0.10196221427E+01 0.  0.
     999903    2    3    3    0    0  0.11543481960E+00  0.56595862947E-01 -0.23365008553E-01  0.13213103873E+00  0.19606083048E-01 0.  0.
         14    1    1    2    0    0 -0.76152656485E-02 -0.10690572482E-01  0.20122449746E-01  0.24024853687E-01  0.00000000000E+00 0. -1.
     999901    1    3    3    0    0 -0.10781955395E+00 -0.45905290465E-01  0.32425588068E-02  0.88777410758E+00  0.88000000000E+00 0. -1.
        -11    1    4    4    0    0  0.39345615965E-01  0.99093255855E-02 -0.39234166780E-02  0.40766733357E-01  0.51100000000E-03 0.  1.
         11    1    4    4    0    0  0.76089203635E-01  0.46686537361E-01 -0.19441591875E-01  0.91364305373E-01  0.51100000000E-03 0. -1.
</event>
<event>
 8    1  0.1072332E+005  0.1043930E+01  0.7957747E-01            NaN
         13   -1    0    0    0    0  0.00000000000E+00  0.00000000000E+00  0.74505805969E-08  0.10566000000E+00  0.10566000000E+00 0.  1.
     999900   -1    0    0    0    0 -0.00000000000E+00 -0.00000000000E+00 -0.74505805969E-08  0.93827000000E+00  0.93827000000E+00 0.  1.
     999902    2    1    2    0    0 -0.47285078241E-02  0.13526546762E-01 -0.17537365042E-01  0.10212830261E+01  0.10210318967E+01 0.  0.
     999903    2    3    3    0    0  0.76938108227E-02  0.12824284829E+00  0.26402773979E-01  0.13266337764E+00  0.19925923617E-01 0.  0.
         14    1    1    2    0    0  0.47285078241E-02 -0.13526546762E-01  0.17537365042E-01  0.22646973885E-01  0.00000000000E+00 0.  1.
     999901    1    3    3    0    0 -0.12422318647E-01 -0.11471630152E+00 -0.43940139020E-01  0.88861964847E+00  0.88000000000E+00 0.  1.
        -11    1    4    4    0    0  0.10983954664E-01  0.55395986031E-01  0.17904774096E-01  0.59246979542E-01  0.51100000000E-03 0. -1.
         11    1    4    4    0    0 -0.32901438411E-02  0.72846862255E-01  0.84979998823E-02  0.73416398100E-01  0.51100000000E-03 0.  1.
</event>
<event>
 8    1  0.1072332E+005  0.1043930E+01  0.7957747E-01            NaN
         13   -1    0    0    0    0  0.00000000000E+00  0.00000000000E+00  0.74505805969E-08  0.10566000000E+00  0.10566000000E+00 0.  1.
     999900   -1    0    0    0    0 -0.00000000000E+00 -0.00000000000E+00 -0.74505805969E-08  0.93827000000E+00  0.93827000000E+00 0.  1.
     999902    2    1    2    0    0 -0.13060063826E-01 -0.18051236285E-01 -0.85333880157E-02  0.10200714353E+01  0.10197923818E+01 0.  0.
     999903    2    3    3    0    0 -0.70452536436E-01 -0.10134892339E+00  0.44019439970E-01  0.13271908120E+00  0.21011407795E-01 0.  0.
         14    1    1    2    0    0  0.13060063826E-01  0.18051236285E-01  0.85333880157E-02  0.23858564701E-01  0.00000000000E+00 0.  1.
     999901    1    3    3    0    0  0.57392472610E-01  0.83297687105E-01 -0.52552827986E-01  0.88735235410E+00  0.88000000000E+00 0.  1.
        -11    1    4    4    0    0 -0.44774403039E-01 -0.50582817908E-01  0.16604963120E-01  0.69565469568E-01  0.51100000000E-03 0. -1.
         11    1    4    4    0    0 -0.25678133397E-01 -0.50766105482E-01  0.27414476850E-01  0.63153611635E-01  0.51100000000E-03 0.  1.
</event>
<event>
 8    1  0.1072332E+005  0.1043930E+01  0.7957747E-01            NaN
         13   -1    0    0    0    0  0.00000000000E+00  0.00000000000E+00  0.74505805969E-08  0.10566000000E+00  0.10566000000E+00 0. -1.
     999900   -1    0    0    0    0 -0.00000000000E+00 -0.00000000000E+00 -0.74505805969E-08  0.93827000000E+00  0.93827000000E+00 0. -1.
     999902    2    1    2    0    0  0.53693467209E-03  0.14872175329E-01  0.14454477760E-01  0.10231838720E+01  0.10229735257E+01 0.  0.
     999903    2    3    3    0    0  0.12671490892E+00 -0.32525427245E-01  0.45456969950E-02  0.13286617714E+00  0.22763701520E-01 0.  0.
         14    1    1    2    0    0 -0.53693467209E-03 -0.14872175329E-01 -0.14454477760E-01  0.20746127956E-01  0.00000000000E+00 0.  1.
     999901    1    3    3    0    0 -0.12617797425E+00  0.47397602574E-01  0.99087807650E-02  0.89031769490E+00  0.88000000000E+00 0. -1.
        -11    1    4    4    0    0  0.69440718547E-01 -0.29424405341E-01  0.18266571283E-02  0.75441413158E-01  0.51100000000E-03 0.  1.
         11    1    4    4    0    0  0.57274190376E-01 -0.31010219036E-02  0.27190398668E-02  0.57424763986E-01  0.51100000000E-03 0. -1.
</event>
<event>
 8    1  0.1072332E+005  0.1043930E+01  0.7957747E-01            NaN
         13   -1    0    0    0    0  0.00000000000E+00  0.00000000000E+00  0.74505805969E-08  0.10566000000E+00  0.10566000000E+00 0.  1.
     999900   -1    0    0    0    0 -0.00000000000E+00 -0.00000000000E+00 -0.74505805969E-08  0.93827000000E+00  0.93827000000E+00 0.  1.
     999902    2    1    2    0    0 -0.24850925986E-01  0.47237572454E-02  0.46041647156E-02  0.10182185096E+01  0.10178938317E+01 0.  0.
     999903    2    3    3    0    0  0.91762028932E-01  0.80754892402E-01 -0.26568386831E-01  0.12673040384E+00  0.20324701205E-01 0.  0.
         14    1    1    2    0    0  0.24850925986E-01 -0.47237572454E-02 -0.46041647156E-02  0.25711490381E-01  0.00000000000E+00 0. -1.
     999901    1    3    3    0    0 -0.11661295492E+00 -0.76031135156E-01  0.31172551547E-01  0.89148810577E+00  0.88000000000E+00 0. -1.
        -11    1    4    4    0    0  0.79337037217E-01  0.61719000011E-01 -0.16500110608E-01  0.10186321813E+00  0.51100000000E-03 0. -1.
         11    1    4    4    0    0  0.12424991716E-01  0.19035892391E-01 -0.10068276223E-01  0.24867185714E-01  0.51100000000E-03 0.  1.
</event>
<event>
 8    1  0.1072332E+005  0.1043930E+01  0.7957747E-01            NaN
         13   -1    0    0    0    0  0.00000000000E+00  0.00000000000E+00  0.74505805969E-08  0.10566000000E+00  0.10566000000E+00 0.  1.
     999900   -1    0    0    0    0 -0.00000000000E+00 -0.00000000000E+00 -0.74505805969E-08  0.93827000000E+00  0.93827000000E+00 0.  1.
     999902    2    1    2    0    0 -0.21464762337E-01 -0.45763038083E-02 -0.81068937671E-02  0.10205334125E+01  0.10202651840E+01 0.  0.
     999903    2    3    3    0    0 -0.95481928531E-01 -0.84627519430E-01 -0.33145117617E-01  0.13345187701E+00  0.20789154226E-01 0.  0.
         14    1    1    2    0    0  0.21464762337E-01  0.45763038083E-02  0.81068937671E-02  0.23396587471E-01  0.00000000000E+00 0.  1.
     999901    1    3    3    0    0  0.74017166195E-01  0.80051215622E-01  0.25038223850E-01  0.88708153552E+00  0.88000000000E+00 0.  1.
        -11    1    4    4    0    0 -0.60746270141E-01 -0.41511183591E-01 -0.14231101287E-01  0.74940463463E-01  0.51100000000E-03 0.  1.
         11    1    4    4    0    0 -0.34735658390E-01 -0.43116335839E-01 -0.18914016330E-01  0.58511413542E-01  0.51100000000E-03 0. -1.
</event>
<event>
 8    1  0.1072332E+005  0.1043930E+01  0.7957747E-01            NaN
         13   -1    0    0    0    0  0.00000000000E+00  0.00000000000E+00  0.74505805969E-08  0.10566000000E+00  0.10566000000E+00 0.  1.
     999900   -1    0    0    0    0 -0.00000000000E+00 -0.00000000000E+00 -0.74505805969E-08  0.93827000000E+00  0.93827000000E+00 0.  1.
     999902    2    1    2    0    0 -0.12322795554E-01  0.97197511389E-03 -0.21681508305E-01  0.10189723593E+01  0.10186666703E+01 0.  0.
     999903    2    3    3    0    0 -0.74195172490E-01  0.31974688821E-02  0.10254508369E+00  0.12809336080E+00  0.19423374144E-01 0.  0.
         14    1    1    2    0    0  0.12322795554E-01 -0.97197511389E-03  0.21681508305E-01  0.24957640679E-01  0.00000000000E+00 0.  1.
     999901    1    3    3    0    0  0.61872376936E-01 -0.22254937682E-02 -0.12422659200E+00  0.89087899852E+00  0.88000000000E+00 0.  1.
        -11    1    4    4    0    0 -0.23451693222E-01  0.40049262099E-02  0.48081857829E-01  0.53648369241E-01  0.51100000000E-03 0.  1.
         11    1    4    4    0    0 -0.50743479268E-01 -0.80745732775E-03  0.54463225862E-01  0.74444991557E-01  0.51100000000E-03 0. -1.
</event>
<event>
 8    1  0.1072332E+005  0.1043930E+01  0.7957747E-01            NaN
         13   -1    0    0    0    0  0.00000000000E+00  0.00000000000E+00  0.74505805969E-08  0.10566000000E+00  0.10566000000E+00 0.  1.
     999900   -1    0    0    0    0 -0.00000000000E+00 -0.00000000000E+00 -0.74505805969E-08  0.93827000000E+00  0.93827000000E+00 0.  1.
     999902    2    1    2    0    0 -0.96251283953E-02 -0.14840722775E-01  0.17300421664E-01  0.10191874306E+01  0.10188870517E+01 0.  0.
     999903    2    3    3    0    0 -0.11341666959E+00  0.35872974405E-02 -0.59745613726E-01  0.12955359162E+00  0.18395246582E-01 0.  0.
         14    1    1    2    0    0  0.96251283953E-02  0.14840722775E-01 -0.17300421664E-01  0.24742569367E-01  0.00000000000E+00 0. -1.
     999901    1    3    3    0    0  0.10379154120E+00 -0.18428020215E-01  0.77046035390E-01  0.88963383902E+00  0.88000000000E+00 0. -1.
        -11    1    4    4    0    0 -0.91270795060E-01  0.49279724460E-02 -0.39722262642E-01  0.99663244045E-01  0.51100000000E-03 0.  1.
         11    1    4    4    0    0 -0.22145874534E-01 -0.13406750055E-02 -0.20023351083E-01  0.29890347572E-01  0.51100000000E-03 0. -1.
</event>
<event>
 8    1  0.1072332E+005  0.1043930E+01  0.7957747E-01            NaN
         13   -1    0    0    0    0  0.00000000000E+00  0.00000000000E+00  0.74505805969E-08  0.10566000000E+00  0.10566000000E+00 0.  1.
     999900   -1    0    0    0    0 -0.00000000000E+00 -0.00000000000E+00 -0.74505805969E-08  0.93827000000E+00  0.93827000000E+00 0. -1.
     999902    2    1    2    0    0  0.22122028215E-01  0.48961613926E-02  0.76383614999E-02  0.10200197283E+01  0.10197394495E+01 0.  0.
     999903    2    3    3    0    0  0.13135230433E+00 -0.63590302488E-02 -0.34430541724E-02  0.13312586181E+00  0.20415076348E-01 0.  0.
         14    1    1    2    0    0 -0.22122028215E-01 -0.48961613926E-02 -0.76383614999E-02  0.23910271750E-01  0.00000000000E+00 0. -1.
     999901    1    3    3    0    0 -0.10923027611E+00  0.11255191641E-01  0.11081415672E-01  0.88689386644E+00  0.88000000000E+00 0.  1.
        -11    1    4    4    0    0  0.43653287278E-01 -0.52889253291E-02 -0.10252744811E-01  0.45154868159E-01  0.51100000000E-03 0.  1.
         11    1    4    4    0    0  0.87699017050E-01 -0.10701049197E-02  0.68096906391E-02  0.87970993650E-01  0.51100000000E-03 0. -1.
</event>
<event>
 8    1  0.1072332E+005  0.1043930E+01  0.7957747E-01            NaN
         13   -1    0    0    0    0  0.00000000000E+00  0.00000000000E+00  0.74505805969E-08  0.10566000000E+00  0.10566000000E+00 0.  1.
     999900   -1    0    0    0    0 -0.00000000000E+00 -0.00000000000E+00 -0.74505805969E-08  0.93827000000E+00  0.93827000000E+00 0.  1.
     999902    2    1    2    0    0 -0.21314477364E-01 -0.16805798224E-02  0.74741187052E-02  0.10212806348E+01  0.10210294517E+01 0.  0.
     999903    2    3    3    0    0  0.36193421760E-01  0.92880867460E-01 -0.81056996991E-01  0.12994075337E+00  0.19430473639E-01 0.  0.
         14    1    1    2    0    0  0.21314477364E-01  0.16805798224E-02 -0.74741187052E-02  0.22649365206E-01  0.00000000000E+00 0. -1.
     999901    1    3    3    0    0 -0.57507899123E-01 -0.94561447282E-01  0.88531115697E-01  0.89133988143E+00  0.88000000000E+00 0. -1.
        -11    1    4    4    0    0  0.17139267982E-01  0.68092139938E-01 -0.58317554436E-01  0.91277008631E-01  0.51100000000E-03 0. -1.
         11    1    4    4    0    0  0.19054153778E-01  0.24788727522E-01 -0.22739442555E-01  0.38663744736E-01  0.51100000000E-03 0.  1.
</event>
<event>
 8    1  0.1072332E+005  0.1043930E+01  0.7957747E-01            NaN
         13   -1    0    0    0    0  0.00000000000E+00  0.00000000000E+00  0.74505805969E-08  0.10566000000E+00  0.10566000000E+00 0. -1.
     999900   -1    0    0    0    0 -0.00000000000E+00 -0.00000000000E+00 -0.74505805969E-08  0.93827000000E+00  0.93827000000E+00 0. -1.
     999902    2    1    2    0    0 -0.96463700803E-02  0.15361750637E-01 -0.16088654457E-01  0.10196837500E+01  0.10193954430E+01 0.  0.
     999903    2    3    3    0    0  0.81280367780E-01 -0.55686382356E-01 -0.82137131227E-01  0.12969616009E+00  0.19160225700E-01 0.  0.
         14    1    1    2    0    0  0.96463700803E-02 -0.15361750637E-01  0.16088654457E-01  0.24246250031E-01  0.00000000000E+00 0. -1.
     999901    1    3    3    0    0 -0.90926737860E-01  0.71048132993E-01  0.66048476770E-01  0.88998758988E+00  0.88000000000E+00 0.  1.
        -11    1    4    4    0    0  0.89669542718E-02 -0.14046053845E-01 -0.10379582259E-01  0.19639112669E-01  0.51100000000E-03 0. -1.
         11    1    4    4    0    0  0.72313413508E-01 -0.41640328511E-01 -0.71757548967E-01  0.11005704742E+00  0.51100000000E-03 0.  1.
</event>
<event>
 8    1  0.1072332E+005  0.1043930E+01  0.7957747E-01            NaN
         13   -1    0    0    0    0  0.00000000000E+00  0.00000000000E+00  0.74505805969E-08  0.10566000000E+00  0.10566000000E+00 0.  1.
     999900   -1    0    0    0    0 -0.00000000000E+00 -0.00000000000E+00 -0.74505805969E-08  0.93827000000E+00  0.93827000000E+00 0.  1.
     999902    2    1    2    0    0  0.15528834432E-01 -0.18575076834E-01  0.86227422821E-04  0.10197187296E+01  0.10194312640E+01 0.  0.
     999903    2    3    3    0    0 -0.16619559030E-01  0.11723916783E+00 -0.43226635121E-01  0.12766770400E+00  0.20230384178E-01 0.  0.
         14    1    1    2    0    0 -0.15528834432E-01  0.18575076834E-01 -0.86227422821E-04  0.24211270380E-01  0.00000000000E+00 0.  1.
     999901    1    3    3    0    0  0.32148393463E-01 -0.13581424466E+00  0.43312862544E-01  0.89205102562E+00  0.88000000000E+00 0. -1.
        -11    1    4    4    0    0 -0.11304604666E-01  0.36573888617E-01 -0.21709148740E-01  0.44011267594E-01  0.51100000000E-03 0. -1.
         11    1    4    4    0    0 -0.53149543646E-02  0.80665279212E-01 -0.21517486382E-01  0.83656436402E-01  0.51100000000E-03 0.  1.
</event>
<event>
 8    1  0.1072332E+005  0.1043930E+01  0.7957747E-01            NaN
         13   -1    0    0    0    0  0.00000000000E+00  0.00000000000E+00  0.74505805969E-08  0.10566000000E+00  0.10566000000E+00 0. -1.
     999900   -1    0    0    0    0 -0.00000000000E+00 -0.00000000000E+00 -0.74505805969E-08  0.93827000000E+00  0.93827000000E+00 0. -1.
     999902    2    1    2    0    0 -0.18525607021E-01 -0.41385678044E-02  0.96232506472E-02  0.10226477818E+01  0.10224263068E+01 0.  0.
     999903    2    3    3    0    0  0.33952572440E-02 -0.12317125299E+00  0.47671335703E-01  0.13354882149E+00  0.19494772056E-01 0.  0.
         14    1    1    2    0    0  0.18525607021E-01  0.41385678044E-02 -0.96232506472E-02  0.21282218211E-01  0.00000000000E+00 0.  1.
     999901    1    3    3    0    0 -0.21920864265E-01  0.11903268519E+00 -0.38048085056E-01  0.88909896030E+00  0.88000000000E+00 0. -1.
        -11    1    4    4    0    0  0.81742934978E-02 -0.36308160436E-01  0.20026522645E-01  0.42266113125E-01  0.51100000000E-03 0. -1.
         11    1    4    4    0    0 -0.47790362538E-02 -0.86863092556E-01  0.27644813058E-01  0.91282708362E-01  0.51100000000E-03 0.  1.
</event>
<event>
 8    1  0.1072332E+005  0.1043930E+01  0.7957747E-01            NaN
         13   -1    0    0    0    0  0.00000000000E+00  0.00000000000E+00  0.74505805969E-08  0.10566000000E+00  0.10566000000E+00 0. -1.
     999900   -1    0    0    0    0 -0.00000000000E+00 -0.00000000000E+00 -0.74505805969E-08  0.93827000000E+00  0.93827000000E+00 0.  1.
     999902    2    1    2    0    0  0.18246895058E-01  0.11003181238E-01  0.29624660631E-02  0.10224173204E+01  0.10221909713E+01 0.  0.
     999903    2    3    3    0    0  0.73170820793E-01 -0.10865958023E+00 -0.39316286497E-02  0.13259523562E+00  0.20128721092E-01 0.  0.
         14    1    1    2    0    0 -0.18246895058E-01 -0.11003181238E-01 -0.29624660631E-02  0.21512679559E-01  0.00000000000E+00 0.  1.
     999901    1    3    3    0    0 -0.54923925735E-01  0.11966276147E+00  0.68940947129E-02  0.88982208483E+00  0.88000000000E+00 0.  1.
        -11    1    4    4    0    0  0.42246632144E-01 -0.79036399889E-01 -0.49485059276E-02  0.89756778390E-01  0.51100000000E-03 0.  1.
         11    1    4    4    0    0  0.30924188649E-01 -0.29623180342E-01  0.10168772778E-02  0.42838457227E-01  0.51100000000E-03 0. -1.
</event>
<event>
 8    1  0.1072332E+005  0.1043930E+01  0.7957747E-01            NaN
         13   -1    0    0    0    0  0.00000000000E+00  0.00000000000E+00  0.74505805969E-08  0.10566000000E+00  0.10566000000E+00 0.  1.
     999900   -1    0    0    0    0 -0.00000000000E+00 -0.00000000000E+00 -0.74505805969E-08  0.93827000000E+00  0.93827000000E+00 0.  1.
     999902    2    1    2    0    0 -0.10956202911E-01  0.62807800770E-02  0.26029458283E-01  0.10149987145E+01  0.10145863055E+01 0.  0.
     999903    2    3    3    0    0 -0.71991889970E-01  0.10053509422E+00  0.26037382979E-01  0.12786330722E+00  0.19517751662E-01 0.  0.
         14    1    1    2    0    0  0.10956202911E-01 -0.62807800770E-02 -0.26029458283E-01  0.28931285473E-01  0.00000000000E+00 0. -1.
     999901    1    3    3    0    0  0.61035687059E-01 -0.94254314145E-01 -0.79246960986E-05  0.88713540730E+00  0.88000000000E+00 0.  1.
        -11    1    4    4    0    0 -0.31115583046E-01  0.59521880057E-01  0.11295984501E-01  0.68109427399E-01  0.51100000000E-03 0. -1.
         11    1    4    4    0    0 -0.40876306924E-01  0.41013214165E-01  0.14741398478E-01  0.59753879824E-01  0.51100000000E-03 0.  1.
</event>
<event>
 8    1  0.1072332E+005  0.1043930E+01  0.7957747E-01            NaN
         13   -1    0    0    0    0  0.00000000000E+00  0.00000000000E+00  0.74505805969E-08  0.10566000000E+00  0.10566000000E+00 0.  1.
     999900   -1    0    0    0    0 -0.00000000000E+00 -0.00000000000E+00 -0.74505805969E-08  0.93827000000E+00  0.93827000000E+00 0. -1.
     999902    2    1    2    0    0 -0.23665052843E-01 -0.53603742202E-02 -0.53881403105E-02  0.10190744092E+01  0.10187712457E+01 0.  0.
     999903    2    3    3    0    0  0.84121333082E-01 -0.94076012095E-01 -0.43277844491E-02  0.12806964280E+00  0.21363729968E-01 0.  0.
         14    1    1    2    0    0  0.23665052843E-01  0.53603742202E-02  0.53881403105E-02  0.24855590797E-01  0.00000000000E+00 0.  1.
     999901    1    3    3    0    0 -0.10778638592E+00  0.88715637875E-01 -0.10603558614E-02  0.89100476640E+00  0.88000000000E+00 0.  1.
        -11    1    4    4    0    0  0.46533218093E-01 -0.66231882970E-01  0.12649063961E-02  0.80955937503E-01  0.51100000000E-03 0. -1.
         11    1    4    4    0    0  0.37588114989E-01 -0.27844129125E-01 -0.55926908452E-02  0.47113705299E-01  0.51100000000E-03 0.  1.
</event>
<event>
 8    1  0.1072332E+005  0.1043930E+01  0.7957747E-01            NaN
         13   -1    0    0    0    0  0.00000000000E+00  0.00000000000E+00  0.74505805969E-08  0.10566000000E+00  0.10566000000E+00 0.  1.
     999900   -1    0    0    0    0 -0.00000000000E+00 -0.00000000000E+00 -0.74505805969E-08  0.93827000000E+00  0.93827000000E+00 0. -1.
     999902    2    1    2    0    0  0.75464401932E-02 -0.21802019321E-01  0.38056835632E-02  0.10205470996E+01  0.10202791884E+01 0.  0.
     999903    2    3    3    0    0 -0.88030523463E-01  0.90865510356E-01  0.24162546211E-02  0.12822941019E+00  0.20761245602E-01 0.  0.
         14    1    1    2    0    0 -0.75464401932E-02  0.21802019321E-01 -0.38056835632E-02  0.23382900450E-01  0.00000000000E+00 0. -1.
     999901    1    3    3    0    0  0.95576963657E-01 -0.11266752968E+00  0.13894289421E-02  0.89231768936E+00  0.88000000000E+00 0. -1.
        -11    1    4    4    0    0 -0.86739849695E-01  0.87909971056E-01  0.56563533445E-02  0.12362936540E+00  0.51100000000E-03 0. -1.
         11    1    4    4    0    0 -0.12906737682E-02  0.29555392991E-02 -0.32400987234E-02  0.46000447892E-02  0.51100000000E-03 0.  1.
</event>
<event>
 8    1  0.1072332E+005  0.1043930E+01  0.7957747E-01            NaN
         13   -1    0    0    0    0  0.00000000000E+00  0.00000000000E+00  0.74505805969E-08  0.10566000000E+00  0.10566000000E+00 0.  1.
     999900   -1    0    0    0    0 -0.00000000000E+00 -0.00000000000E+00 -0.74505805969E-08  0.93827000000E+00  0.93827000000E+00 0. -1.
     999902    2    1    2    0    0 -0.14504373248E-01  0.12204079268E-02  0.18582303038E-01  0.10203255889E+01  0.10200525178E+01 0.  0.
     999903    2    3    3    0    0  0.24567417509E-01  0.86391846314E-01 -0.90548496295E-01  0.12864722190E+00  0.16851362224E-01 0.  0.
         14    1    1    2    0    0  0.14504373248E-01 -0.12204079268E-02 -0.18582303038E-01  0.23604411135E-01  0.00000000000E+00 0. -1.
     999901    1    3    3    0    0 -0.39071790756E-01 -0.85171438387E-01  0.10913079933E+00  0.89167836696E+00  0.88000000000E+00 0.  1.
        -11    1    4    4    0    0  0.21952765977E-01  0.46776132850E-01 -0.50527140063E-01  0.72271595682E-01  0.51100000000E-03 0. -1.
         11    1    4    4    0    0  0.26146515320E-02  0.39615713464E-01 -0.40021356232E-01  0.56375626219E-01  0.51100000000E-03 0.  1.
</event>
<event>
 8    1  0.1072332E+005  0.1043930E+01  0.7957747E-01            NaN
         13   -1    0    0    0    0  0.00000000000E+00  0.00000000000E+00  0.74505805969E-08  0.10566000000E+00  0.10566000000E+00 0.  1.
     999900   -1    0    0    0    0 -0.00000000000E+00 -0.00000000000E+00 -0.74505805969E-08  0.93827000000E+00  0.93827000000E+00 0. -1.
     999902    2    1    2    0    0  0.65958073168E-02 -0.22204988663E-01 -0.31422962550E-02  0.10205539391E+01  0.10202861866E+01 0.  0.
     999903    2    3    3    0    0 -0.27514297360E-01 -0.47475473330E-01  0.11764345011E+00  0.13128947164E+00  0.19646548849E-01 0.  0.
         14    1    1    2    0    0 -0.65958073168E-02  0.22204988663E-01  0.31422962550E-02  0.23376060863E-01  0.00000000000E+00 0. -1.
     999901    1    3    3    0    0  0.34110104676E-01  0.25270484667E-01 -0.12078574636E+00  0.88926446750E+00  0.88000000000E+00 0. -1.
        -11    1    4    4    0    0 -0.18889387489E-01 -0.28785159235E-01  0.93035909322E-01  0.99203507479E-01  0.51100000000E-03 0. -1.
         11    1    4    4    0    0 -0.86249098702E-02 -0.18690314094E-01  0.24607540788E-01  0.32085964156E-01  0.51100000000E-03 0.  1.
</event>
<event>
 8    1  0.1072332E+005  0.1043930E+01  0.7957747E-01            NaN
         13   -1    0    0    0    0  0.00000000000E+00  0.00000000000E+00  0.74505805969E-08  0.10566000000E+00  0.10566000000E+00 0.  1.
     999900   -1    0    0    0    0 -0.00000000000E+00 -0.00000000000E+00 -0.74505805969E-08  0.93827000000E+00  0.93827000000E+00 0.  1.
     999902    2    1    2    0    0 -0.12027172367E-01 -0.11634388163E-01  0.18001176878E-01  0.10193524852E+01  0.10190561491E+01 0.  0.
     999903    2    3    3    0    0  0.55205704783E-01 -0.71567235205E-01 -0.88898293898E-01  0.12831954377E+00  0.19835817589E-01 0.  0.
         14    1    1    2    0    0  0.12027172367E-01  0.11634388163E-01 -0.18001176878E-01  0.24577514766E-01  0.00000000000E+00 0. -1.
     999901    1    3    3    0    0 -0.67232877149E-01  0.59932847042E-01  0.10689947078E+00  0.89103294147E+00  0.88000000000E+00 0. -1.
        -11    1    4    4    0    0  0.27114507801E-01 -0.49421773536E-01 -0.48574932981E-01  0.74414336440E-01  0.51100000000E-03 0. -1.
         11    1    4    4    0    0  0.28091196982E-01 -0.22145461669E-01 -0.40323360917E-01  0.53905207328E-01  0.51100000000E-03 0.  1.
</event>
<event>
 8    1  0.1072332E+005  0.1043930E+01  0.7957747E-01            NaN
         13   -1    0    0    0    0  0.00000000000E+00  0.00000000000E+00  0.74505805969E-08  0.10566000000E+00  0.10566000000E+00 0. -1.
     999900   -1    0    0    0    0 -0.00000000000E+00 -0.00000000000E+00 -0.74505805969E-08  0.93827000000E+00  0.93827000000E+00 0.  1.
     999902    2    1    2    0    0  0.39642437123E-02  0.20844588576E-01  0.11042120958E-01  0.10200105406E+01  0.10197300439E+01 0.  0.
     999903    2    3    3    0    0 -0.15091294070E-01  0.12790220231E+00 -0.24368130559E-01  0.13261078174E+00  0.20126925574E-01 0.  0.
         14    1    1    2    0    0 -0.39642437123E-02 -0.20844588576E-01 -0.11042120958E-01  0.23919459366E-01  0.00000000000E+00 0.  1.
     999901    1    3    3    0    0  0.19055537782E-01 -0.10705761373E+00  0.35410251518E-01  0.88739975890E+00  0.88000000000E+00 0.  1.
        -11    1    4    4    0    0 -0.70089395795E-02  0.63326457993E-01 -0.18445563203E-02  0.63741893798E-01  0.51100000000E-03 0.  1.
         11    1    4    4    0    0 -0.80823544905E-02  0.64575744318E-01 -0.22523574239E-01  0.68868887938E-01  0.51100000000E-03 0. -1.
</event>
<event>
 8    1  0.1072332E+005  0.1043930E+01  0.7957747E-01            NaN
         13   -1    0    0    0    0  0.00000000000E+00  0.00000000000E+00  0.74505805969E-08  0.10566000000E+00  0.10566000000E+00 0. -1.
     999900   -1    0    0    0    0 -0.00000000000E+00 -0.00000000000E+00 -0.74505805969E-08  0.93827000000E+00  0.93827000000E+00 0.  1.
     999902    2    1    2    0    0  0.21850439179E-01 -0.15795120437E-02 -0.77627354582E-02  0.10206878699E+01  0.10204232118E+01 0.  0.
     999903    2    3    3    0    0 -0.87091641073E-01  0.59809067509E-01  0.70355288877E-01  0.12842145212E+00  0.19496773820E-01 0.  0.
         14    1    1    2    0    0 -0.21850439179E-01  0.15795120437E-02  0.77627354582E-02  0.23242130117E-01  0.00000000000E+00 0.  1.
     999901    1    3    3    0    0  0.10894208025E+00 -0.61388579553E-01 -0.78118024335E-01  0.89226641777E+00  0.88000000000E+00 0.  1.
        -11    1    4    4    0    0 -0.39643639368E-01  0.38858529153E-01  0.34411219978E-01  0.65314597232E-01  0.51100000000E-03 0. -1.
         11    1    4    4    0    0 -0.47448001705E-01  0.20950538356E-01  0.35944068899E-01  0.63106854883E-01  0.51100000000E-03 0.  1.
</event>
<event>
 8    1  0.1072332E+005  0.1043930E+01  0.7957747E-01            NaN
         13   -1    0    0    0    0  0.00000000000E+00  0.00000000000E+00  0.74505805969E-08  0.10566000000E+00  0.10566000000E+00 0. -1.
     999900   -1    0    0    0    0 -0.00000000000E+00 -0.00000000000E+00 -0.74505805969E-08  0.93827000000E+00  0.93827000000E+00 0. -1.
     999902    2    1    2    0    0  0.11828473265E-03 -0.11471207849E-01 -0.19268725526E-01  0.10215048716E+01  0.10212586922E+01 0.  0.
     999903    2    3    3    0    0  0.50748155839E-01 -0.26175258200E-01 -0.11974062899E+00  0.13422013920E+00  0.20413428780E-01 0.  0.
         14    1    1    2    0    0 -0.11828473265E-03  0.11471207849E-01  0.19268725526E-01  0.22425128410E-01  0.00000000000E+00 0. -1.
     999901    1    3    3    0    0 -0.50629871107E-01  0.14704050351E-01  0.10047190346E+00  0.88728473239E+00  0.88000000000E+00 0.  1.
        -11    1    4    4    0    0  0.45354802641E-01 -0.15426178419E-01 -0.86719639908E-01  0.99073619950E-01  0.51100000000E-03 0. -1.
         11    1    4    4    0    0  0.53933531986E-02 -0.10749079781E-01 -0.33020989078E-01  0.35146519252E-01  0.51100000000E-03 0.  1.
</event>
<event>
 8    1  0.1072332E+005  0.1043930E+01  0.7957747E-01            NaN
         13   -1    0    0    0    0  0.00000000000E+00  0.00000000000E+00  0.74505805969E-08  0.10566000000E+00  0.10566000000E+00 0. -1.
     999900   -1    0    0    0    0 -0.00000000000E+00 -0.00000000000E+00 -0.74505805969E-08  0.93827000000E+00  0.93827000000E+00 0. -1.
     999902    2    1    2    0    0 -0.18710558787E-01  0.15483429105E-01 -0.44101834890E-02  0.10192465783E+01  0.10189476513E+01 0.  0.
     999903    2    3    3    0    0  0.10107699136E+00  0.62045327411E-01  0.46848286391E-01  0.12843543208E+00  0.15320490891E-01 0.  0.
         14    1    1    2    0    0  0.18710558787E-01 -0.15483429105E-01  0.44101834890E-02  0.24683421670E-01  0.00000000000E+00 0. -1.
     999901    1    3    3    0    0 -0.11978755014E+00 -0.46561898307E-01 -0.51258469880E-01  0.89081114625E+00  0.88000000000E+00 0. -1.
        -11    1    4    4    0    0  0.48174462049E-01  0.31925988459E-01  0.30742951524E-01  0.65463254748E-01  0.51100000000E-03 0. -1.
         11    1    4    4    0    0  0.52902529308E-01  0.30119338953E-01  0.16105334868E-01  0.62972177335E-01  0.51100000000E-03 0.  1.
</event>
<event>
 8    1  0.1072332E+005  0.1043930E+01  0.7957747E-01            NaN
         13   -1    0    0    0    0  0.00000000000E+00  0.00000000000E+00  0.74505805969E-08  0.10566000000E+00  0.10566000000E+00 0. -1.
     999900   -1    0    0    0    0 -0.00000000000E+00 -0.00000000000E+00 -0.74505805969E-08  0.93827000000E+00  0.93827000000E+00 0. -1.
     999902    2    1    2    0    0  0.23247723852E-01 -0.77532161955E-02 -0.18141914607E-02  0.10193564305E+01  0.10190601906E+01 0.  0.
     999903    2    3    3    0    0  0.10405255499E+00 -0.72866745494E-01 -0.32796604781E-01  0.13271721283E+00  0.20043565011E-01 0.  0.
         14    1    1    2    0    0 -0.23247723852E-01  0.77532161955E-02  0.18141914607E-02  0.24573569466E-01  0.00000000000E+00 0. -1.
     999901    1    3    3    0    0 -0.80804831135E-01  0.65113529299E-01  0.30982413320E-01  0.88663921770E+00  0.88000000000E+00 0. -1.
        -11    1    4    4    0    0  0.50234318831E-01 -0.35908369499E-01 -0.56459550758E-02  0.62008352004E-01  0.51100000000E-03 0. -1.
         11    1    4    4    0    0  0.53818236156E-01 -0.36958375996E-01 -0.27150649705E-01  0.70708860828E-01  0.51100000000E-03 0.  1.
</event>
<event>
 8    1  0.1072332E+005  0.1043930E+01  0.7957747E-01            NaN
         13   -1    0    0    0    0  0.00000000000E+00  0.00000000000E+00  0.74505805969E-08  0.10566000000E+00  0.10566000000E+00 0. -1.
     999900   -1    0    0    0    0 -0.00000000000E+00 -0.00000000000E+00 -0.74505805969E-08  0.93827000000E+00  0.93827000000E+00 0.  1.
     999902    2    1    2    0    0 -0.63234799280E-02 -0.12767541759E-02 -0.23371974347E-01  0.10196840584E+01  0.10193957589E+01 0.  0.
     999903    2    3    3    0    0  0.54645673144E-01 -0.74231165082E-01 -0.92310275315E-01  0.13188223758E+00  0.19373234044E-01 0.  0.
         14    1    1    2    0    0  0.63234799280E-02  0.12767541759E-02  0.23371974347E-01  0.24245941609E-01  0.00000000000E+00 0. -1.
     999901    1    3    3    0    0 -0.60969153072E-01  0.72954410906E-01  0.68938300968E-01  0.88780182081E+00  0.88000000000E+00 0. -1.
        -11    1    4    4    0    0  0.32536440726E-01 -0.33001137303E-01 -0.55793385015E-01  0.72531772148E-01  0.51100000000E-03 0.  1.
         11    1    4    4    0    0  0.22109232419E-01 -0.41230027779E-01 -0.36516890299E-01  0.59350465431E-01  0.51100000000E-03 0. -1.
</event>
<event>
 8    1  0.1072332E+005  0.1043930E+01  0.7957747E-01            NaN
         13   -1    0    0    0    0  0.00000000000E+00  0.00000000000E+00  0.74505805969E-08  0.10566000000E+00  0.10566000000E+00 0.  1.
     999900   -1    0    0    0    0 -0.00000000000E+00 -0.00000000000E+00 -0.74505805969E-08  0.93827000000E+00  0.93827000000E+00 0. -1.
     999902    2    1    2    0    0 -0.11865699662E-01  0.17948107453E-01  0.68246918027E-02  0.10213577647E+01  0.10211083085E+01 0.  0.
     999903    2    3    3    0    0 -0.76105067950E-01 -0.59112874148E-01 -0.86120314372E-01  0.13079397386E+00  0.20100790869E-01 0.  0.
         14    1    1    2    0    0  0.11865699662E-01 -0.17948107453E-01 -0.68246918027E-02  0.22572235331E-01  0.00000000000E+00 0. -1.
     999901    1    3    3    0    0  0.64239368288E-01  0.77060981601E-01  0.92945006174E-01  0.89056379081E+00  0.88000000000E+00 0.  1.
        -11    1    4    4    0    0 -0.42776767434E-01 -0.38650887207E-01 -0.39240224606E-01  0.69740943944E-01  0.51100000000E-03 0. -1.
         11    1    4    4    0    0 -0.33328300516E-01 -0.20461986941E-01 -0.46880089765E-01  0.61053029918E-01  0.51100000000E-03 0.  1.
</event>
<event>
 8    1  0.1072332E+005  0.1043930E+01  0.7957747E-01            NaN
         13   -1    0    0    0    0  0.00000000000E+00  0.00000000000E+00  0.74505805969E-08  0.10566000000E+00  0.10566000000E+00 0. -1.
     999900   -1    0    0    0    0 -0.00000000000E+00 -0.00000000000E+00 -0.74505805969E-08  0.93827000000E+00  0.93827000000E+00 0. -1.
     999902    2    1    2    0    0 -0.24002887395E-01  0.40308517875E-02  0.69875040627E-02  0.10186078440E+01  0.10182930464E+01 0.  0.
     999903    2    3    3    0    0 -0.72779060432E-01 -0.41126298378E-01  0.99312034165E-01  0.13128484641E+00  0.19612922041E-01 0.  0.
         14    1    1    2    0    0  0.24002887395E-01 -0.40308517875E-02 -0.69875040627E-02  0.25322155959E-01  0.00000000000E+00 0.  1.
     999901    1    3    3    0    0  0.48776173037E-01  0.45157150166E-01 -0.92324530103E-01  0.88732299763E+00  0.88000000000E+00 0. -1.
        -11    1    4    4    0    0 -0.26781700744E-01 -0.26039971350E-01  0.40185035432E-01  0.54867456624E-01  0.51100000000E-03 0. -1.
         11    1    4    4    0    0 -0.45997359688E-01 -0.15086327028E-01  0.59126998733E-01  0.76417389785E-01  0.51100000000E-03 0.  1.
</event>
<event>
 8    1  0.1072332E+005  0.1043930E+01  0.7957747E-01            NaN
         13   -1    0    0    0    0  0.00000000000E+00  0.00000000000E+00  0.74505805969E-08  0.10566000000E+00  0.10566000000E+00 0. -1.
     999900   -1    0    0    0    0 -0.00000000000E+00 -0.00000000000E+00 -0.74505805969E-08  0.93827000000E+00  0.93827000000E+00 0.  1.
     999902    2    1    2    0    0 -0.12173792479E-01 -0.19793560813E-01  0.55851752322E-02  0.10200306181E+01  0.10197505976E+01 0.  0.
     999903    2    3    3    0    0  0.23144670279E-01 -0.49940540606E-01 -0.11425025488E+00  0.13069560557E+00  0.31598848349E-01 0.  0.
         14    1    1    2    0    0  0.12173792479E-01  0.19793560813E-01 -0.55851752322E-02  0.23899381903E-01  0.00000000000E+00 0.  1.
     999901    1    3    3    0    0 -0.35318462758E-01  0.30146979793E-01  0.11983543011E+00  0.88933501253E+00  0.88000000000E+00 0. -1.
        -11    1    4    4    0    0  0.12048519048E-02 -0.28364916724E-01 -0.31506433715E-01  0.42413873382E-01  0.51100000000E-03 0. -1.
         11    1    4    4    0    0  0.21939818375E-01 -0.21575623882E-01 -0.82743821161E-01  0.88281732185E-01  0.51100000000E-03 0.  1.
</event>
<event>
 8    1  0.1072332E+005  0.1043930E+01  0.7957747E-01            NaN
         13   -1    0    0    0    0  0.00000000000E+00  0.00000000000E+00  0.74505805969E-08  0.10566000000E+00  0.10566000000E+00 0.  1.
     999900   -1    0    0    0    0 -0.00000000000E+00 -0.00000000000E+00 -0.74505805969E-08  0.93827000000E+00  0.93827000000E+00 0. -1.
     999902    2    1    2    0    0  0.11235070137E-01  0.18747335646E-01  0.87115919679E-02  0.10204016930E+01  0.10201304004E+01 0.  0.
     999903    2    3    3    0    0  0.12155677911E+00  0.43070400173E-01 -0.23915674201E-01  0.13258018537E+00  0.19350353034E-01 0.  0.
         14    1    1    2    0    0 -0.11235070137E-01 -0.18747335646E-01 -0.87115919679E-02  0.23528306982E-01  0.00000000000E+00 0. -1.
     999901    1    3    3    0    0 -0.11032170897E+00 -0.24323064527E-01  0.32627266169E-01  0.88782150764E+00  0.88000000000E+00 0.  1.
        -11    1    4    4    0    0  0.79690375139E-01  0.37467255908E-01 -0.13698478779E-01  0.89119361515E-01  0.51100000000E-03 0.  1.
         11    1    4    4    0    0  0.41866403971E-01  0.56031442644E-02 -0.10217195423E-01  0.43460823858E-01  0.51100000000E-03 0. -1.
</event>
<event>
 8    1  0.1072332E+005  0.1043930E+01  0.7957747E-01            NaN
         13   -1    0    0    0    0  0.00000000000E+00  0.00000000000E+00  0.74505805969E-08  0.10566000000E+00  0.10566000000E+00 0.  1.
     999900   -1    0    0    0    0 -0.00000000000E+00 -0.00000000000E+00 -0.74505805969E-08  0.93827000000E+00  0.93827000000E+00 0.  1.
     999902    2    1    2    0    0 -0.12568694047E-01 -0.46566573939E-02  0.19690981737E-01  0.10201100233E+01  0.10198318824E+01 0.  0.
     999903    2    3    3    0    0 -0.69729160357E-02 -0.94472346227E-01  0.90296576002E-01  0.13270745364E+00  0.22003428268E-01 0.  0.
         14    1    1    2    0    0  0.12568694047E-01  0.46566573939E-02 -0.19690981737E-01  0.23819976698E-01  0.00000000000E+00 0. -1.
     999901    1    3    3    0    0 -0.55957780109E-02  0.89815688833E-01 -0.70605594265E-01  0.88740256966E+00  0.88000000000E+00 0.  1.
        -11    1    4    4    0    0  0.36625695324E-02 -0.22661658101E-01  0.11903316219E-01  0.25863395397E-01  0.51100000000E-03 0.  1.
         11    1    4    4    0    0 -0.10635485568E-01 -0.71810688126E-01  0.78393259784E-01  0.10684405825E+00  0.51100000000E-03 0. -1.
</event>
<event>
 8    1  0.1072332E+005  0.1043930E+01  0.7957747E-01            NaN
         13   -1    0    0    0    0  0.00000000000E+00  0.00000000000E+00  0.74505805969E-08  0.10566000000E+00  0.10566000000E+00 0.  1.
     999900   -1    0    0    0    0 -0.00000000000E+00 -0.00000000000E+00 -0.74505805969E-08  0.93827000000E+00  0.93827000000E+00 0. -1.
     999902    2    1    2    0    0  0.23290009268E-01  0.16886960922E-02  0.75040248263E-02  0.10194027373E+01  0.10191076264E+01 0.  0.
     999903    2    3    3    0    0  0.96503187789E-01  0.85530312315E-02 -0.86478117989E-01  0.13134872332E+00  0.19697782367E-01 0.  0.
         14    1    1    2    0    0 -0.23290009268E-01 -0.16886960922E-02 -0.75040248263E-02  0.24527262685E-01  0.00000000000E+00 0.  1.
     999901    1    3    3    0    0 -0.73213178521E-01 -0.68643351393E-02  0.93982142815E-01  0.88805401400E+00  0.88000000000E+00 0.  1.
        -11    1    4    4    0    0  0.61634703686E-01  0.60355546501E-02 -0.67346644210E-01  0.91493695005E-01  0.51100000000E-03 0. -1.
         11    1    4    4    0    0  0.34868484103E-01  0.25174765814E-02 -0.19131473778E-01  0.39855028314E-01  0.51100000000E-03 0.  1.
</event>
<event>
 8    1  0.1072332E+005  0.1043930E+01  0.7957747E-01            NaN
         13   -1    0    0    0    0  0.00000000000E+00  0.00000000000E+00  0.74505805969E-08  0.10566000000E+00  0.10566000000E+00 0.  1.
     999900   -1    0    0    0    0 -0.00000000000E+00 -0.00000000000E+00 -0.74505805969E-08  0.93827000000E+00  0.93827000000E+00 0. -1.
     999902    2    1    2    0    0 -0.20451353436E-01  0.85687506309E-02  0.83978320560E-02  0.10202191390E+01  0.10199435704E+01 0.  0.
     999903    2    3    3    0    0  0.16434878812E-01 -0.10522472469E+00 -0.69272866656E-01  0.12873594424E+00  0.20781370427E-01 0.  0.
         14    1    1    2    0    0  0.20451353436E-01 -0.85687506309E-02 -0.83978320560E-02  0.23710860971E-01  0.00000000000E+00 0.  1.
     999901    1    3    3    0    0 -0.36886232248E-01  0.11379347532E+00  0.77670698712E-01  0.89148319479E+00  0.88000000000E+00 0.  1.
        -11    1    4    4    0    0 -0.22815772544E-02 -0.19660468591E-01 -0.20427748205E-01  0.28448086715E-01  0.51100000000E-03 0. -1.
         11    1    4    4    0    0  0.18716456066E-01 -0.85564256099E-01 -0.48845118451E-01  0.10028785752E+00  0.51100000000E-03 0.  1.
</event>
<event>
 8    1  0.1072332E+005  0.1043930E+01  0.7957747E-01            NaN
         13   -1    0    0    0    0  0.00000000000E+00  0.00000000000E+00  0.74505805969E-08  0.10566000000E+00  0.10566000000E+00 0.  1.
     999900   -1    0    0    0    0 -0.00000000000E+00 -0.00000000000E+00 -0.74505805969E-08  0.93827000000E+00  0.93827000000E+00 0. -1.
     999902    2    1    2    0    0 -0.16691561023E-01 -0.17673465556E-01  0.64595097387E-03  0.10196117590E+01  0.10193217167E+01 0.  0.
     999903    2    3    3    0    0 -0.94097528647E-01  0.55906731917E-01  0.68044663619E-01  0.13059639591E+00  0.21105326522E-01 0.  0.
         14    1    1    2    0    0  0.16691561023E-01  0.17673465556E-01 -0.64595097387E-03  0.24318241030E-01  0.00000000000E+00 0.  1.
     999901    1    3    3    0    0  0.77405967624E-01 -0.73580197473E-01 -0.67398712645E-01  0.88901536306E+00  0.88000000000E+00 0. -1.
        -11    1    4    4    0    0 -0.74026129600E-01  0.47117235051E-01  0.63224838981E-01  0.10815518059E+00  0.51100000000E-03 0. -1.
         11    1    4    4    0    0 -0.20071399047E-01  0.87894968658E-02  0.48198246381E-02  0.22441215328E-01  0.51100000000E-03 0.  1.
</event>
<event>
 8    1  0.1072332E+005  0.1043930E+01  0.7957747E-01            NaN
         13   -1    0    0    0    0  0.00000000000E+00  0.00000000000E+00  0.74505805969E-08  0.10566000000E+00  0.10566000000E+00 0.  1.
     999900   -1    0    0    0    0 -0.00000000000E+00 -0.00000000000E+00 -0.74505805969E-08  0.93827000000E+00  0.93827000000E+00 0.  1.
     999902    2    1    2    0    0 -0.75567126108E-02 -0.20882133137E-01  0.73619965611E-02  0.10205341375E+01  0.10202659258E+01 0.  0.
     999903    2    3    3    0    0  0.61550925885E-01  0.10425384649E+00  0.38073831357E-01  0.12847018467E+00  0.19939677278E-01 0.  0.
         14    1    1    2    0    0  0.75567126108E-02  0.20882133137E-01 -0.73619965611E-02  0.23395862523E-01  0.00000000000E+00 0. -1.
     999901    1    3    3    0    0 -0.69107638496E-01 -0.12513597963E+00 -0.30711834796E-01  0.89206395280E+00  0.88000000000E+00 0. -1.
        -11    1    4    4    0    0  0.35576649844E-01  0.65169476612E-01  0.13402748761E-01  0.75449675223E-01  0.51100000000E-03 0.  1.
         11    1    4    4    0    0  0.25974276041E-01  0.39084369881E-01  0.24671082596E-01  0.53020509449E-01  0.51100000000E-03 0. -1.
</event>
<event>
 8    1  0.1072332E+005  0.1043930E+01  0.7957747E-01            NaN
         13   -1    0    0    0    0  0.00000000000E+00  0.00000000000E+00  0.74505805969E-08  0.10566000000E+00  0.10566000000E+00 0.  1.
     999900   -1    0    0    0    0 -0.00000000000E+00 -0.00000000000E+00 -0.74505805969E-08  0.93827000000E+00  0.93827000000E+00 0. -1.
     999902    2    1    2    0    0 -0.82378956862E-02 -0.10600115454E-01 -0.27544864691E-01  0.10132877915E+01  0.10128243695E+01 0.  0.
     999903    2    3    3    0    0 -0.60100311536E-02 -0.12157484441E+00 -0.27156743928E-01  0.12631512871E+00  0.20036460073E-01 0.  0.
         14    1    1    2    0    0  0.82378956862E-02  0.10600115454E-01  0.27544864691E-01  0.30642208534E-01  0.00000000000E+00 0.  1.
     999901    1    3    3    0    0 -0.22278645326E-02  0.11097472895E+00 -0.38812076353E-03  0.88697266276E+00  0.88000000000E+00 0. -1.
        -11    1    4    4    0    0 -0.83243892009E-02 -0.56238453793E-01 -0.21151358778E-01  0.60660532801E-01  0.51100000000E-03 0. -1.
         11    1    4    4    0    0  0.23143580473E-02 -0.65336390614E-01 -0.60053851499E-02  0.65654595905E-01  0.51100000000E-03 0.  1.
</event>
<event>
 8    1  0.1072332E+005  0.1043930E+01  0.7957747E-01            NaN
         13   -1    0    0    0    0  0.00000000000E+00  0.00000000000E+00  0.74505805969E-08  0.10566000000E+00  0.10566000000E+00 0.  1.
     999900   -1    0    0    0    0 -0.00000000000E+00 -0.00000000000E+00 -0.74505805969E-08  0.93827000000E+00  0.93827000000E+00 0. -1.
     999902    2    1    2    0    0 -0.12296402042E-02 -0.77759194548E-02 -0.20285738980E-01  0.10221702173E+01  0.10219385818E+01 0.  0.
     999903    2    3    3    0    0 -0.79614281158E-01 -0.83597730507E-01  0.60185361756E-01  0.13179462404E+00  0.20506848756E-01 0.  0.
         14    1    1    2    0    0  0.12296402042E-02  0.77759194548E-02  0.20285738980E-01  0.21759782728E-01  0.00000000000E+00 0.  1.
     999901    1    3    3    0    0  0.78384640954E-01  0.75821811052E-01 -0.80471100736E-01  0.89037559323E+00  0.88000000000E+00 0. -1.
        -11    1    4    4    0    0  0.29720250746E-03 -0.37907968634E-02  0.43726881400E-02  0.58172152066E-02  0.51100000000E-03 0.  1.
         11    1    4    4    0    0 -0.79911483666E-01 -0.79806933643E-01  0.55812673616E-01  0.12597740883E+00  0.51100000000E-03 0. -1.
</event>
<event>
 8    1  0.1072332E+005  0.1043930E+01  0.7957747E-01            NaN
         13   -1    0    0    0    0  0.00000000000E+00  0.00000000000E+00  0.74505805969E-08  0.10566000000E+00  0.10566000000E+00 0. -1.
     999900   -1    0    0    0    0 -0.00000000000E+00 -0.00000000000E+00 -0.74505805969E-08  0.93827000000E+00  0.93827000000E+00 0. -1.
     999902    2    1    2    0    0 -0.87956677826E-02  0.11750843797E-01  0.18447591828E-01  0.10203554428E+01  0.10200830701E+01 0.  0.
     999903    2    3    3    0    0  0.12757953807E+00  0.93008551114E-02  0.73038406361E-02  0.12977788730E+00  0.20637575086E-01 0.  0.
         14    1    1    2    0    0  0.87956677826E-02 -0.11750843797E-01 -0.18447591828E-01  0.23574557174E-01  0.00000000000E+00 0.  1.
     999901    1    3    3    0    0 -0.13637520585E+00  0.24499886855E-02  0.11143751192E-01  0.89057755553E+00  0.88000000000E+00 0. -1.
        -11    1    4    4    0    0  0.90141362027E-01  0.10769348034E-01 -0.32744779938E-02  0.90842871664E-01  0.51100000000E-03 0.  1.
         11    1    4    4    0    0  0.37438176039E-01 -0.14684929228E-02  0.10578318630E-01  0.38935015637E-01  0.51100000000E-03 0. -1.
</event>
<event>
 8    1  0.1072332E+005  0.1043930E+01  0.7957747E-01            NaN
         13   -1    0    0    0    0  0.00000000000E+00  0.00000000000E+00  0.74505805969E-08  0.10566000000E+00  0.10566000000E+00 0.  1.
     999900   -1    0    0    0    0 -0.00000000000E+00 -0.00000000000E+00 -0.74505805969E-08  0.93827000000E+00  0.93827000000E+00 0. -1.
     999902    2    1    2    0    0 -0.20159555136E-02 -0.22693723590E-01  0.49090937284E-02  0.10206240272E+01  0.10203578963E+01 0.  0.
     999903    2    3    3    0    0  0.11240178643E+00  0.50104095446E-01 -0.34572201773E-01  0.12936103861E+00  0.19860997037E-01 0.  0.
         14    1    1    2    0    0  0.20159555136E-02  0.22693723590E-01 -0.49090937284E-02  0.23305972802E-01  0.00000000000E+00 0. -1.
     999901    1    3    3    0    0 -0.11441774194E+00 -0.72797819036E-01  0.39481295502E-01  0.89126298858E+00  0.88000000000E+00 0.  1.
        -11    1    4    4    0    0  0.44469437471E-01  0.24494606715E-01 -0.51777618627E-02  0.51035154218E-01  0.51100000000E-03 0. -1.
         11    1    4    4    0    0  0.67932348954E-01  0.25609488730E-01 -0.29394439910E-01  0.78325884394E-01  0.51100000000E-03 0.  1.
</event>
<event>
 8    1  0.1072332E+005  0.1043930E+01  0.7957747E-01            NaN
         13   -1    0    0    0    0  0.00000000000E+00  0.00000000000E+00  0.74505805969E-08  0.10566000000E+00  0.10566000000E+00 0.  1.
     999900   -1    0    0    0    0 -0.00000000000E+00 -0.00000000000E+00 -0.74505805969E-08  0.93827000000E+00  0.93827000000E+00 0.  1.
     999902    2    1    2    0    0 -0.12301649581E-01  0.12179996869E-01 -0.16527049836E-01  0.10199962104E+01  0.10197153735E+01 0.  0.
     999903    2    3    3    0    0 -0.12826583992E+00 -0.19771871321E-01  0.63984239666E-02  0.13151762732E+00  0.20319790382E-01 0.  0.
         14    1    1    2    0    0  0.12301649581E-01 -0.12179996869E-01  0.16527049836E-01  0.23933789554E-01  0.00000000000E+00 0.  1.
     999901    1    3    3    0    0  0.11596419034E+00  0.31951868189E-01 -0.22925473803E-01  0.88847858312E+00  0.88000000000E+00 0.  1.
        -11    1    4    4    0    0 -0.26938603930E-01 -0.12368780035E-01  0.37643325558E-02  0.29884886178E-01  0.51100000000E-03 0.  1.
         11    1    4    4    0    0 -0.10132723599E+00 -0.74030912861E-02  0.26340914108E-02  0.10163274114E+00  0.51100000000E-03 0. -1.
</event>
<event>
 8    1  0.1072332E+005  0.1043930E+01  0.7957747E-01            NaN
         13   -1    0    0    0    0  0.00000000000E+00  0.00000000000E+00  0.74505805969E-08  0.10566000000E+00  0.10566000000E+00 0.  1.
     999900   -1    0    0    0    0 -0.00000000000E+00 -0.00000000000E+00 -0.74505805969E-08  0.93827000000E+00  0.93827000000E+00 0.  1.
     999902    2    1    2    0    0  0.23262364101E-01  0.12834571275E-03  0.74102383600E-02  0.10195155434E+01  0.10192231736E+01 0.  0.
     999903    2    3    3    0    0  0.11617525492E+00 -0.58816949013E-01 -0.12829404312E-01  0.13243212224E+00  0.20434041181E-01 0.  0.
         14    1    1    2    0    0 -0.23262364101E-01 -0.12834571275E-03 -0.74102383600E-02  0.24414456552E-01  0.00000000000E+00 0. -1.
     999901    1    3    3    0    0 -0.92912890817E-01  0.58945294726E-01  0.20239642672E-01  0.88708342121E+00  0.88000000000E+00 0.  1.
        -11    1    4    4    0    0  0.10809203155E-01  0.10610883081E-03 -0.33885831873E-02  0.11339918384E-01  0.51100000000E-03 0. -1.
         11    1    4    4    0    0  0.10536605176E+00 -0.58923057844E-01 -0.94408211251E-02  0.12109220385E+00  0.51100000000E-03 0.  1.
</event>
<event>
 8    1  0.1072332E+005  0.1043930E+01  0.7957747E-01            NaN
         13   -1    0    0    0    0  0.00000000000E+00  0.00000000000E+00  0.74505805969E-08  0.10566000000E+00  0.10566000000E+00 0. -1.
     999900   -1    0    0    0    0 -0.00000000000E+00 -0.00000000000E+00 -0.74505805969E-08  0.93827000000E+00  0.93827000000E+00 0.  1.
     999902    2    1    2    0    0 -0.81401577370E-02 -0.21391363045E-01  0.16944123051E-01  0.10154527128E+01  0.10150533267E+01 0.  0.
     999903    2    3    3    0    0 -0.43474963469E-01  0.63453432671E-01  0.99704421615E-01  0.12680404494E+00  0.14895756330E-01 0.  0.
         14    1    1    2    0    0  0.81401577370E-02  0.21391363045E-01 -0.16944123051E-01  0.28477287211E-01  0.00000000000E+00 0. -1.
     999901    1    3    3    0    0  0.35334805732E-01 -0.84844795716E-01 -0.82760298564E-01  0.88864866785E+00  0.88000000000E+00 0. -1.
        -11    1    4    4    0    0 -0.24371787832E-01  0.30597553221E-01  0.61679184526E-01  0.73039559350E-01  0.51100000000E-03 0.  1.
         11    1    4    4    0    0 -0.19103175637E-01  0.32855879450E-01  0.38025237089E-01  0.53764485587E-01  0.51100000000E-03 0. -1.
</event>
<event>
 8    1  0.1072332E+005  0.1043930E+01  0.7957747E-01            NaN
         13   -1    0    0    0    0  0.00000000000E+00  0.00000000000E+00  0.74505805969E-08  0.10566000000E+00  0.10566000000E+00 0. -1.
     999900   -1    0    0    0    0 -0.00000000000E+00 -0.00000000000E+00 -0.74505805969E-08  0.93827000000E+00  0.93827000000E+00 0. -1.
     999902    2    1    2    0    0  0.32385555433E-02 -0.23316723250E-01 -0.37606205695E-02  0.10200909545E+01  0.10198123628E+01 0.  0.
     999903    2    3    3    0    0  0.12626040191E+00 -0.24329027520E-01 -0.17940053882E-01  0.13141978031E+00  0.20389272940E-01 0.  0.
         14    1    1    2    0    0 -0.32385555433E-02  0.23316723250E-01  0.37606205695E-02  0.23839045539E-01  0.00000000000E+00 0. -1.
     999901    1    3    3    0    0 -0.12302184637E+00  0.10123042701E-02  0.14179433313E-01  0.88867117415E+00  0.88000000000E+00 0. -1.
        -11    1    4    4    0    0  0.93604468186E-01 -0.12048202065E-01 -0.19972009730E-01  0.96468118729E-01  0.51100000000E-03 0.  1.
         11    1    4    4    0    0  0.32655933728E-01 -0.12280825455E-01  0.20319558478E-02  0.34951661578E-01  0.51100000000E-03 0. -1.
</event>
<event>
 8    1  0.1072332E+005  0.1043930E+01  0.7957747E-01            NaN
         13   -1    0    0    0    0  0.00000000000E+00  0.00000000000E+00  0.74505805969E-08  0.10566000000E+00  0.10566000000E+00 0.  1.
     999900   -1    0    0    0    0 -0.00000000000E+00 -0.00000000000E+00 -0.74505805969E-08  0.93827000000E+00  0.93827000000E+00 0.  1.
     999902    2    1    2    0    0  0.13586979170E-01  0.11461724084E-01 -0.16808788801E-01  0.10194654848E+01  0.10191719002E+01 0.  0.
     999903    2    3    3    0    0  0.33175376753E-01 -0.12180617473E+00  0.14961770844E-01  0.12864933845E+00  0.19734433697E-01 0.  0.
         14    1    1    2    0    0 -0.13586979170E-01 -0.11461724084E-01  0.16808788801E-01  0.24464515178E-01  0.00000000000E+00 0.  1.
     999901    1    3    3    0    0 -0.19588397583E-01  0.13326789881E+00 -0.31770559645E-01  0.89081614637E+00  0.88000000000E+00 0. -1.
        -11    1    4    4    0    0  0.11817486810E-01 -0.71781090883E-01  0.22307187234E-02  0.72783344454E-01  0.51100000000E-03 0.  1.
         11    1    4    4    0    0  0.21357889944E-01 -0.50025083842E-01  0.12731052121E-01  0.55865993998E-01  0.51100000000E-03 0. -1.
</event>
<event>
 8    1  0.1072332E+005  0.1043930E+01  0.7957747E-01            NaN
         13   -1    0    0    0    0  0.00000000000E+00  0.00000000000E+00  0.74505805969E-08  0.10566000000E+00  0.10566000000E+00 0.  1.
     999900   -1    0    0    0    0 -0.00000000000E+00 -0.00000000000E+00 -0.74505805969E-08  0.93827000000E+00  0.93827000000E+00 0.  1.
     999902    2    1    2    0    0 -0.19845098048E-01  0.36992926014E-02  0.12319024256E-01  0.10202810880E+01  0.10200069742E+01 0.  0.
     999903    2    3    3    0    0  0.81506525633E-01  0.95122697770E-01  0.27332809072E-01  0.12963199635E+00  0.19124086258E-01 0.  0.
         14    1    1    2    0    0  0.19845098048E-01 -0.36992926014E-02 -0.12319024256E-01  0.23648912045E-01  0.00000000000E+00 0. -1.
     999901    1    3    3    0    0 -0.10135162368E+00 -0.91423405168E-01 -0.15013784816E-01  0.89064909160E+00  0.88000000000E+00 0. -1.
        -11    1    4    4    0    0  0.36100482628E-01  0.29268912005E-01  0.13969270740E-01  0.48531594883E-01  0.51100000000E-03 0. -1.
         11    1    4    4    0    0  0.45406043005E-01  0.65853785765E-01  0.13363538332E-01  0.81100401471E-01  0.51100000000E-03 0.  1.
</event>
<event>
 8    1  0.1072332E+005  0.1043930E+01  0.7957747E-01            NaN
         13   -1    0    0    0    0  0.00000000000E+00  0.00000000000E+00  0.74505805969E-08  0.10566000000E+00  0.10566000000E+00 0.  1.
     999900   -1    0    0    0    0 -0.00000000000E+00 -0.00000000000E+00 -0.74505805969E-08  0.93827000000E+00  0.93827000000E+00 0.  1.
     999902    2    1    2    0    0 -0.19497280234E-01  0.59963207176E-02  0.12168342647E-01  0.10201777714E+01  0.10199012290E+01 0.  0.
     999903    2    3    3    0    0  0.65908409267E-01  0.10960591916E+00  0.10556125478E-01  0.12999145390E+00  0.20711600008E-01 0.  0.
         14    1    1    2    0    0  0.19497280234E-01 -0.59963207176E-02 -0.12168342647E-01  0.23752228558E-01  0.00000000000E+00 0. -1.
     999901    1    3    3    0    0 -0.85405689501E-01 -0.10360959845E+00  0.16122171686E-02  0.89018631754E+00  0.88000000000E+00 0. -1.
        -11    1    4    4    0    0  0.45081984320E-01  0.89883494863E-01  0.11983503096E-01  0.10126842265E+00  0.51100000000E-03 0. -1.
         11    1    4    4    0    0  0.20826424947E-01  0.19722424301E-01 -0.14273776181E-02  0.28723031251E-01  0.51100000000E-03 0.  1.
</event>
<event>
 7    1  0.1072332E+005  0.1043930E+01  0.7957747E-01            NaN
         13   -1    0    0    0    0  0.00000000000E+00  0.00000000000E+00  0.74505805969E-08  0.10566000000E+00  0.10566000000E+00 0. -1.
     999900   -1    0    0    0    0 -0.00000000000E+00 -0.00000000000E+00 -0.74505805969E-08  0.93827000000E+00  0.93827000000E+00 0. -1.
     999903    2    1    2    0    0 -0.99117243142E-01 -0.71984763779E-03 -0.11776758474E-01  0.10225452606E+00  0.22193467307E-01 0.  0.
         14    1    1    2    0    0  0.55913636532E-01  0.69425923698E-02  0.22128797489E-01  0.60532784649E-01  0.00000000000E+00 0. -1.
     999901    1    1    2    0    0  0.43203606610E-01 -0.62227447320E-02 -0.10352039016E-01  0.88114268929E+00  0.88000000000E+00 0.  1.
        -11    1    3    3    0    0 -0.65885120105E-01 -0.52901394098E-02  0.16473195920E-02  0.66119659777E-01  0.51100000000E-03 0.  1.
         11    1    3    3    0    0 -0.33232123037E-01  0.45702917720E-02 -0.13424078066E-01  0.36134866284E-01  0.51100000000E-03 0. -1.
</event>
<event>
 8    1  0.1072332E+005  0.1043930E+01  0.7957747E-01            NaN
         13   -1    0    0    0    0  0.00000000000E+00  0.00000000000E+00  0.74505805969E-08  0.10566000000E+00  0.10566000000E+00 0. -1.
     999900   -1    0    0    0    0 -0.00000000000E+00 -0.00000000000E+00 -0.74505805969E-08  0.93827000000E+00  0.93827000000E+00 0.  1.
     999902    2    1    2    0    0  0.15754838166E-01  0.17173083569E-01 -0.11604823872E-02  0.10205959810E+01  0.10203292017E+01 0.  0.
     999903    2    3    3    0    0 -0.75279870031E-01 -0.96766396431E-01 -0.31763140837E-01  0.12806808454E+00  0.19019538667E-01 0.  0.
         14    1    1    2    0    0 -0.15754838166E-01 -0.17173083569E-01  0.11604823872E-02  0.23334019034E-01  0.00000000000E+00 0. -1.
     999901    1    3    3    0    0  0.91034708197E-01  0.11393948000E+00  0.30602658450E-01  0.89252789643E+00  0.88000000000E+00 0.  1.
        -11    1    4    4    0    0 -0.30694642395E-01 -0.42628401445E-01 -0.23145566115E-01  0.57404878132E-01  0.51100000000E-03 0.  1.
         11    1    4    4    0    0 -0.44585227636E-01 -0.54137994986E-01 -0.86175747220E-02  0.70663206405E-01  0.51100000000E-03 0. -1.
</event>
<event>
 8    1  0.1279271E+005  0.1043930E+01  0.7957747E-01            NaN
         13   -1    0    0    0    0  0.00000000000E+00  0.00000000000E+00  0.74505805969E-08  0.10566000000E+00  0.10566000000E+00 0.  1.
     999900   -1    0    0    0    0 -0.00000000000E+00 -0.00000000000E+00 -0.74505805969E-08  0.93827000000E+00  0.93827000000E+00 0. -1.
     999902    2    1    2    0    0  0.21667379014E-01  0.12982523254E-01  0.40047097730E-02  0.10183554243E+01  0.10180342387E+01 0.  0.
     999903    2    3    3    0    0 -0.11887879887E+00  0.28529644707E-01 -0.25678734793E-01  0.12657291268E+00  0.20376343037E-01 0.  0.
         14    1    1    2    0    0 -0.21667379014E-01 -0.12982523254E-01 -0.40047097730E-02  0.25574575730E-01  0.00000000000E+00 0. -1.
     999901    1    3    3    0    0  0.14054617788E+00 -0.15547121453E-01  0.29683444566E-01  0.89178251159E+00  0.88000000000E+00 0. -1.
        -11    1    4    4    0    0 -0.83179890503E-01  0.29370228928E-01 -0.19137821122E-01  0.90266393801E-01  0.51100000000E-03 0.  1.
         11    1    4    4    0    0 -0.35698908365E-01 -0.84058422186E-03 -0.65409136708E-02  0.36306518876E-01  0.51100000000E-03 0. -1.
</event>
<event>
 8    1  0.1072332E+005  0.1043930E+01  0.7957747E-01            NaN
         13   -1    0    0    0    0  0.00000000000E+00  0.00000000000E+00  0.74505805969E-08  0.10566000000E+00  0.10566000000E+00 0. -1.
     999900   -1    0    0    0    0 -0.00000000000E+00 -0.00000000000E+00 -0.74505805969E-08  0.93827000000E+00  0.93827000000E+00 0.  1.
     999902    2    1    2    0    0  0.59803457013E-02 -0.20135395421E-01 -0.69334500726E-03  0.10229138298E+01  0.10226979142E+01 0.  0.
     999903    2    3    3    0    0 -0.40703220075E-02 -0.13176231482E+00  0.23293802972E-01  0.13548103327E+00  0.20847877369E-01 0.  0.
         14    1    1    2    0    0 -0.59803457013E-02  0.20135395421E-01  0.69334500726E-03  0.21016170222E-01  0.00000000000E+00 0. -1.
     999901    1    3    3    0    0  0.10050667709E-01  0.11162691940E+00 -0.23987147979E-01  0.88743279651E+00  0.88000000000E+00 0.  1.
        -11    1    4    4    0    0 -0.30502335466E-02 -0.59534534336E-01  0.21008007352E-01  0.63208086485E-01  0.51100000000E-03 0.  1.
         11    1    4    4    0    0 -0.10200884610E-02 -0.72227780483E-01  0.22857956196E-02  0.72272946782E-01  0.51100000000E-03 0. -1.
</event>
<event>
 8    1  0.1072332E+005  0.1043930E+01  0.7957747E-01            NaN
         13   -1    0    0    0    0  0.00000000000E+00  0.00000000000E+00  0.74505805969E-08  0.10566000000E+00  0.10566000000E+00 0.  1.
     999900   -1    0    0    0    0 -0.00000000000E+00 -0.00000000000E+00 -0.74505805969E-08  0.93827000000E+00  0.93827000000E+00 0. -1.
     999902    2    1    2    0    0 -0.20659213714E-01  0.10716803781E-01  0.15686675035E-01  0.10158635651E+01  0.10154757792E+01 0.  0.
     999903    2    3    3    0    0  0.11904738289E+00 -0.58818233272E-02  0.30612649275E-01  0.12456326090E+00  0.19287209526E-01 0.  0.
         14    1    1    2    0    0  0.20659213714E-01 -0.10716803781E-01 -0.15686675035E-01  0.28066434904E-01  0.00000000000E+00 0. -1.
     999901    1    3    3    0    0 -0.13970659660E+00  0.16598627108E-01 -0.14925974240E-01  0.89130030420E+00  0.88000000000E+00 0. -1.
        -11    1    4    4    0    0  0.50172267565E-01 -0.47057882689E-02  0.34453871646E-02  0.50512698300E-01  0.51100000000E-03 0.  1.
         11    1    4    4    0    0  0.68875115325E-01 -0.11760350583E-02  0.27167262110E-01  0.74050562598E-01  0.51100000000E-03 0. -1.
</event>
<event>
 8    1  0.1072332E+005  0.1043930E+01  0.7957747E-01            NaN
         13   -1    0    0    0    0  0.00000000000E+00  0.00000000000E+00  0.74505805969E-08  0.10566000000E+00  0.10566000000E+00 0.  1.
     999900   -1    0    0    0    0 -0.00000000000E+00 -0.00000000000E+00 -0.74505805969E-08  0.93827000000E+00  0.93827000000E+00 0.  1.
     999902    2    1    2    0    0 -0.10242152893E-03  0.13461099499E-01 -0.18993644373E-01  0.10206497462E+01  0.10203842091E+01 0.  0.
     999903    2    3    3    0    0  0.91432395690E-01  0.28894503193E-01 -0.89955488138E-01  0.13292659343E+00  0.19563079986E-01 0.  0.
         14    1    1    2    0    0  0.10242152893E-03 -0.13461099499E-01  0.18993644373E-01  0.23280253789E-01  0.00000000000E+00 0.  1.
     999901    1    3    3    0    0 -0.91534817219E-01 -0.15433403694E-01  0.70961843765E-01  0.88772315278E+00  0.88000000000E+00 0. -1.
        -11    1    4    4    0    0  0.71705331666E-01  0.22617524184E-01 -0.58499310743E-01  0.95266140197E-01  0.51100000000E-03 0.  1.
         11    1    4    4    0    0  0.19727064024E-01  0.62769790092E-02 -0.31456177395E-01  0.37660453233E-01  0.51100000000E-03 0. -1.
</event>
<event>
 8    1  0.1072332E+005  0.1043930E+01  0.7957747E-01            NaN
         13   -1    0    0    0    0  0.00000000000E+00  0.00000000000E+00  0.74505805969E-08  0.10566000000E+00  0.10566000000E+00 0. -1.
     999900   -1    0    0    0    0 -0.00000000000E+00 -0.00000000000E+00 -0.74505805969E-08  0.93827000000E+00  0.93827000000E+00 0. -1.
     999902    2    1    2    0    0 -0.17656512141E-01 -0.46877609122E-02  0.14059490173E-01  0.10208779548E+01  0.10206176570E+01 0.  0.
     999903    2    3    3    0    0 -0.74042388053E-01 -0.17570866240E-01  0.10834925347E+00  0.13395298568E+00  0.20318244917E-01 0.  0.
         14    1    1    2    0    0  0.17656512141E-01  0.46877609122E-02 -0.14059490173E-01  0.23052045187E-01  0.00000000000E+00 0.  1.
     999901    1    3    3    0    0  0.56385875912E-01  0.12883105327E-01 -0.94289763297E-01  0.88692496913E+00  0.88000000000E+00 0. -1.
        -11    1    4    4    0    0 -0.52528010810E-01 -0.20400099400E-01  0.85827963469E-01  0.10267451685E+00  0.51100000000E-03 0.  1.
         11    1    4    4    0    0 -0.21514377243E-01  0.28292331605E-02  0.22521290001E-01  0.31278468837E-01  0.51100000000E-03 0. -1.
</event>
<event>
 8    1  0.1072332E+005  0.1043930E+01  0.7957747E-01            NaN
         13   -1    0    0    0    0  0.00000000000E+00  0.00000000000E+00  0.74505805969E-08  0.10566000000E+00  0.10566000000E+00 0. -1.
     999900   -1    0    0    0    0 -0.00000000000E+00 -0.00000000000E+00 -0.74505805969E-08  0.93827000000E+00  0.93827000000E+00 0. -1.
     999902    2    1    2    0    0  0.14482102872E-01 -0.15613147822E-01  0.10420867783E-01  0.10202214325E+01  0.10199459177E+01 0.  0.
     999903    2    3    3    0    0 -0.24328773350E-01  0.72695038694E-01 -0.10122035974E+00  0.12793875104E+00  0.15694104897E-01 0.  0.
         14    1    1    2    0    0 -0.14482102872E-01  0.15613147822E-01 -0.10420867783E-01  0.23708567520E-01  0.00000000000E+00 0.  1.
     999901    1    3    3    0    0  0.38810876222E-01 -0.88308186516E-01  0.11164122752E+00  0.89228268144E+00  0.88000000000E+00 0.  1.
        -11    1    4    4    0    0 -0.13440133367E-01  0.41638420290E-01 -0.70137468652E-01  0.82667532073E-01  0.51100000000E-03 0. -1.
         11    1    4    4    0    0 -0.10888639983E-01  0.31056618404E-01 -0.31082891085E-01  0.45271218965E-01  0.51100000000E-03 0.  1.
</event>
<event>
 8    1  0.1072332E+005  0.1043930E+01  0.7957747E-01            NaN
         13   -1    0    0    0    0  0.00000000000E+00  0.00000000000E+00  0.74505805969E-08  0.10566000000E+00  0.10566000000E+00 0. -1.
     999900   -1    0    0    0    0 -0.00000000000E+00 -0.00000000000E+00 -0.74505805969E-08  0.93827000000E+00  0.93827000000E+00 0.  1.
     999902    2    1    2    0    0  0.21109953068E-01 -0.17736272422E-02  0.10828778428E-01  0.10201384403E+01  0.10198609704E+01 0.  0.
     999903    2    3    3    0    0 -0.13015472762E-01  0.82107430288E-01 -0.96627138702E-01  0.12898898556E+00  0.19756564047E-01 0.  0.
         14    1    1    2    0    0 -0.21109953068E-01  0.17736272422E-02 -0.10828778428E-01  0.23791559729E-01  0.00000000000E+00 0.  1.
     999901    1    3    3    0    0  0.34125425830E-01 -0.83881057531E-01  0.10745591713E+00  0.89114945471E+00  0.88000000000E+00 0. -1.
        -11    1    4    4    0    0  0.48068678985E-03  0.94774924007E-02 -0.22076529132E-01  0.24035144716E-01  0.51100000000E-03 0. -1.
         11    1    4    4    0    0 -0.13496159552E-01  0.72629937888E-01 -0.74550609570E-01  0.10495384085E+00  0.51100000000E-03 0.  1.
</event>
<event>
 8    1  0.1072332E+005  0.1043930E+01  0.7957747E-01            NaN
         13   -1    0    0    0    0  0.00000000000E+00  0.00000000000E+00  0.74505805969E-08  0.10566000000E+00  0.10566000000E+00 0.  1.
     999900   -1    0    0    0    0 -0.00000000000E+00 -0.00000000000E+00 -0.74505805969E-08  0.93827000000E+00  0.93827000000E+00 0.  1.
     999902    2    1    2    0    0 -0.15445748189E-01 -0.11754549021E-01  0.15257928408E-01  0.10192410361E+01  0.10189419732E+01 0.  0.
     999903    2    3    3    0    0 -0.63044904933E-01  0.82857234030E-01 -0.72754589879E-01  0.12853161513E+00  0.19676495344E-01 0.  0.
         14    1    1    2    0    0  0.15445748189E-01  0.11754549021E-01 -0.15257928408E-01  0.24688963913E-01  0.00000000000E+00 0. -1.
     999901    1    3    3    0    0  0.47599156744E-01 -0.94611783051E-01  0.88012518287E-01  0.89070942096E+00  0.88000000000E+00 0. -1.
        -11    1    4    4    0    0 -0.27215234228E-01  0.50393795328E-01 -0.34373293759E-01  0.66798113944E-01  0.51100000000E-03 0.  1.
         11    1    4    4    0    0 -0.35829670706E-01  0.32463438703E-01 -0.38381296120E-01  0.61733501181E-01  0.51100000000E-03 0. -1.
</event>
<event>
 8    1  0.1072332E+005  0.1043930E+01  0.7957747E-01            NaN
         13   -1    0    0    0    0  0.00000000000E+00  0.00000000000E+00  0.74505805969E-08  0.10566000000E+00  0.10566000000E+00 0. -1.
     999900   -1    0    0    0    0 -0.00000000000E+00 -0.00000000000E+00 -0.74505805969E-08  0.93827000000E+00  0.93827000000E+00 0. -1.
     999902    2    1    2    0    0 -0.43841815528E-02  0.22382959149E-02 -0.23193572308E-01  0.10202198163E+01  0.10199442635E+01 0.  0.
     999903    2    3    3    0    0 -0.10608402457E+00  0.72763712872E-01 -0.17924414166E-01  0.13154414059E+00  0.20837421132E-01 0.  0.
         14    1    1    2    0    0  0.43841815528E-02 -0.22382959149E-02  0.23193572308E-01  0.23710183738E-01  0.00000000000E+00 0. -1.
     999901    1    3    3    0    0  0.10169984302E+00 -0.70525416957E-01 -0.52691581421E-02  0.88867567567E+00  0.88000000000E+00 0.  1.
        -11    1    4    4    0    0 -0.82620530773E-01  0.62888740172E-01 -0.77424630289E-02  0.10412181616E+00  0.51100000000E-03 0. -1.
         11    1    4    4    0    0 -0.23463493799E-01  0.98749727002E-02 -0.10181951137E-01  0.27422324428E-01  0.51100000000E-03 0.  1.
</event>
<event>
 8    1  0.1072332E+005  0.1043930E+01  0.7957747E-01            NaN
         13   -1    0    0    0    0  0.00000000000E+00  0.00000000000E+00  0.74505805969E-08  0.10566000000E+00  0.10566000000E+00 0.  1.
     999900   -1    0    0    0    0 -0.00000000000E+00 -0.00000000000E+00 -0.74505805969E-08  0.93827000000E+00  0.93827000000E+00 0.  1.
     999902    2    1    2    0    0  0.18339444729E-01 -0.61115847544E-02  0.11456147428E-01  0.10214593521E+01  0.10212121611E+01 0.  0.
     999903    2    3    3    0    0 -0.54487946356E-01 -0.27371355587E-01  0.11494979808E+00  0.13215246334E+00  0.23080079794E-01 0.  0.
         14    1    1    2    0    0 -0.18339444729E-01  0.61115847544E-02 -0.11456147428E-01  0.22470647856E-01  0.00000000000E+00 0. -1.
     999901    1    3    3    0    0  0.72827391085E-01  0.21259770832E-01 -0.10349365065E+00  0.88930688880E+00  0.88000000000E+00 0.  1.
        -11    1    4    4    0    0 -0.23103966990E-01  0.23185888747E-03  0.47022664299E-01  0.52395029612E-01  0.51100000000E-03 0.  1.
         11    1    4    4    0    0 -0.31383979366E-01 -0.27603214474E-01  0.67927133782E-01  0.79757433728E-01  0.51100000000E-03 0. -1.
</event>
<event>
 8    1  0.1072332E+005  0.1043930E+01  0.7957747E-01            NaN
         13   -1    0    0    0    0  0.00000000000E+00  0.00000000000E+00  0.74505805969E-08  0.10566000000E+00  0.10566000000E+00 0. -1.
     999900   -1    0    0    0    0 -0.00000000000E+00 -0.00000000000E+00 -0.74505805969E-08  0.93827000000E+00  0.93827000000E+00 0.  1.
     999902    2    1    2    0    0 -0.80078964687E-02 -0.20189212669E-01  0.99456095803E-02  0.10200418049E+01  0.10197620497E+01 0.  0.
     999903    2    3    3    0    0  0.39788543195E-01 -0.89954424216E-01 -0.84165424572E-01  0.13099255368E+00  0.20007594082E-01 0.  0.
         14    1    1    2    0    0  0.80078964687E-02  0.20189212669E-01 -0.99456095803E-02  0.23888195076E-01  0.00000000000E+00 0. -1.
     999901    1    3    3    0    0 -0.47796439664E-01  0.69765211546E-01  0.94111034152E-01  0.88904925124E+00  0.88000000000E+00 0. -1.
        -11    1    4    4    0    0  0.12852410162E-01 -0.52860125343E-01 -0.48953377144E-01  0.73185186706E-01  0.51100000000E-03 0.  1.
         11    1    4    4    0    0  0.26936133033E-01 -0.37094298872E-01 -0.35212047428E-01  0.57807366975E-01  0.51100000000E-03 0. -1.
</event>
<event>
 8    1  0.1072332E+005  0.1043930E+01  0.7957747E-01            NaN
         13   -1    0    0    0    0  0.00000000000E+00  0.00000000000E+00  0.74505805969E-08  0.10566000000E+00  0.10566000000E+00 0. -1.
     999900   -1    0    0    0    0 -0.00000000000E+00 -0.00000000000E+00 -0.74505805969E-08  0.93827000000E+00  0.93827000000E+00 0. -1.
     999902    2    1    2    0    0  0.93966839947E-02 -0.17645383527E-01 -0.11936845465E-01  0.10206459817E+01  0.10203803577E+01 0.  0.
     999903    2    3    3    0    0 -0.55993155963E-01 -0.86812849823E-01  0.78304028973E-01  0.13092502261E+00  0.18388479664E-01 0.  0.
         14    1    1    2    0    0 -0.93966839947E-02  0.17645383527E-01  0.11936845465E-01  0.23284018329E-01  0.00000000000E+00 0.  1.
     999901    1    3    3    0    0  0.65389839957E-01  0.69167466296E-01 -0.90240874438E-01  0.88972095906E+00  0.88000000000E+00 0. -1.
        -11    1    4    4    0    0 -0.36700027684E-01 -0.67727260854E-01  0.50754761392E-01  0.92250641297E-01  0.51100000000E-03 0. -1.
         11    1    4    4    0    0 -0.19293128278E-01 -0.19085588968E-01  0.27549267581E-01  0.38674381317E-01  0.51100000000E-03 0.  1.
</event>
<event>
 8    1  0.1072332E+005  0.1043930E+01  0.7957747E-01            NaN
         13   -1    0    0    0    0  0.00000000000E+00  0.00000000000E+00  0.74505805969E-08  0.10566000000E+00  0.10566000000E+00 0. -1.
     999900   -1    0    0    0    0 -0.00000000000E+00 -0.00000000000E+00 -0.74505805969E-08  0.93827000000E+00  0.93827000000E+00 0.  1.
     999902    2    1    2    0    0 -0.23308505787E-02 -0.21240837417E-01 -0.70126511850E-02  0.10214403732E+01  0.10211927598E+01 0.  0.
     999903    2    3    3    0    0 -0.28431918126E-01 -0.25834182124E-01  0.12366160734E+00  0.13139648302E+00  0.22294925113E-01 0.  0.
         14    1    1    2    0    0  0.23308505787E-02  0.21240837417E-01  0.70126511850E-02  0.22489626836E-01  0.00000000000E+00 0. -1.
     999901    1    3    3    0    0  0.26101067548E-01  0.45933447075E-02 -0.13067425852E+00  0.89004389014E+00  0.88000000000E+00 0.  1.
        -11    1    4    4    0    0 -0.57229974290E-02 -0.20194926764E-01  0.60244902501E-01  0.63798880593E-01  0.51100000000E-03 0. -1.
         11    1    4    4    0    0 -0.22708920697E-01 -0.56392553603E-02  0.63416704838E-01  0.67597602426E-01  0.51100000000E-03 0.  1.
</event>
<event>
 8    1  0.1072332E+005  0.1043930E+01  0.7957747E-01            NaN
         13   -1    0    0    0    0  0.00000000000E+00  0.00000000000E+00  0.74505805969E-08  0.10566000000E+00  0.10566000000E+00 0. -1.
     999900   -1    0    0    0    0 -0.00000000000E+00 -0.00000000000E+00 -0.74505805969E-08  0.93827000000E+00  0.93827000000E+00 0.  1.
     999902    2    1    2    0    0 -0.11752738888E-01 -0.60670737300E-03  0.20512609001E-01  0.10202812771E+01  0.10200071678E+01 0.  0.
     999903    2    3    3    0    0 -0.95557831958E-01 -0.26421369251E-01  0.88633703704E-01  0.13330316357E+00  0.91875994938E-02 0.  0.
         14    1    1    2    0    0  0.11752738888E-01  0.60670737300E-03 -0.20512609001E-01  0.23648722867E-01  0.00000000000E+00 0.  1.
     999901    1    3    3    0    0  0.83805093070E-01  0.25814661878E-01 -0.68121094703E-01  0.88697811356E+00  0.88000000000E+00 0.  1.
        -11    1    4    4    0    0 -0.69531695889E-01 -0.15248291713E-01  0.61392003410E-01  0.94002161342E-01  0.51100000000E-03 0.  1.
         11    1    4    4    0    0 -0.26026136069E-01 -0.11173077538E-01  0.27241700295E-01  0.39301002230E-01  0.51100000000E-03 0. -1.
</event>
<event>
 8    1  0.1072332E+005  0.1043930E+01  0.7957747E-01            NaN
         13   -1    0    0    0    0  0.00000000000E+00  0.00000000000E+00  0.74505805969E-08  0.10566000000E+00  0.10566000000E+00 0.  1.
     999900   -1    0    0    0    0 -0.00000000000E+00 -0.00000000000E+00 -0.74505805969E-08  0.93827000000E+00  0.93827000000E+00 0.  1.
     999902    2    1    2    0    0  0.37610463202E-02  0.13411734762E-01 -0.19354454253E-01  0.10200843505E+01  0.10198056027E+01 0.  0.
     999903    2    3    3    0    0  0.47569327454E-01 -0.11044663543E+00  0.42833862369E-01  0.12816089638E+00  0.11365535743E-01 0.  0.
         14    1    1    2    0    0 -0.37610463202E-02 -0.13411734762E-01  0.19354454253E-01  0.23845649460E-01  0.00000000000E+00 0.  1.
     999901    1    3    3    0    0 -0.43808281134E-01  0.12385837019E+00 -0.62188316622E-01  0.89192345416E+00  0.88000000000E+00 0.  1.
        -11    1    4    4    0    0  0.56169888783E-02 -0.23250521155E-01  0.10607117455E-01  0.26170773006E-01  0.51100000000E-03 0.  1.
         11    1    4    4    0    0  0.41952338576E-01 -0.87196114273E-01  0.32226744914E-01  0.10199012337E+00  0.51100000000E-03 0. -1.
</event>
<event>
 8    1  0.1072332E+005  0.1043930E+01  0.7957747E-01            NaN
         13   -1    0    0    0    0  0.00000000000E+00  0.00000000000E+00  0.74505805969E-08  0.10566000000E+00  0.10566000000E+00 0. -1.
     999900   -1    0    0    0    0 -0.00000000000E+00 -0.00000000000E+00 -0.74505805969E-08  0.93827000000E+00  0.93827000000E+00 0. -1.
     999902    2    1    2    0    0 -0.11580178424E-01 -0.19697373272E-01 -0.63184088717E-02  0.10202232639E+01  0.10199477922E+01 0.  0.
     999903    2    3    3    0    0 -0.38096116980E-01  0.80593234548E-01  0.87361835629E-01  0.12919167679E+00  0.33343896627E-01 0.  0.
         14    1    1    2    0    0  0.11580178424E-01  0.19697373272E-01  0.63184088717E-02  0.23706736107E-01  0.00000000000E+00 0. -1.
     999901    1    3    3    0    0  0.26515938556E-01 -0.10029060782E+00 -0.93680244501E-01  0.89103158711E+00  0.88000000000E+00 0. -1.
        -11    1    4    4    0    0 -0.30730782240E-01  0.34837615131E-01  0.58057622565E-01  0.74357172243E-01  0.51100000000E-03 0. -1.
         11    1    4    4    0    0 -0.73653347405E-02  0.45755619417E-01  0.29304213064E-01  0.54834504542E-01  0.51100000000E-03 0.  1.
</event>
<event>
 8    1  0.1072332E+005  0.1043930E+01  0.7957747E-01            NaN
         13   -1    0    0    0    0  0.00000000000E+00  0.00000000000E+00  0.74505805969E-08  0.10566000000E+00  0.10566000000E+00 0.  1.
     999900   -1    0    0    0    0 -0.00000000000E+00 -0.00000000000E+00 -0.74505805969E-08  0.93827000000E+00  0.93827000000E+00 0.  1.
     999902    2    1    2    0    0 -0.47825026907E-03 -0.15808384492E-01 -0.19139995162E-01  0.10191011225E+01  0.10187986183E+01 0.  0.
     999903    2    3    3    0    0 -0.68458419224E-01 -0.77327570865E-01 -0.80252297183E-01  0.13222986514E+00  0.19447304499E-01 0.  0.
         14    1    1    2    0    0  0.47825026907E-03  0.15808384492E-01  0.19139995162E-01  0.24828877510E-01  0.00000000000E+00 0.  1.
     999901    1    3    3    0    0  0.67980168955E-01  0.61519186372E-01  0.61112302020E-01  0.88687125735E+00  0.88000000000E+00 0.  1.
        -11    1    4    4    0    0 -0.51646787914E-01 -0.65527080693E-01 -0.71564740729E-01  0.10992252837E+00  0.51100000000E-03 0.  1.
         11    1    4    4    0    0 -0.16811631310E-01 -0.11800490171E-01 -0.86875564541E-02  0.22307336769E-01  0.51100000000E-03 0. -1.
</event>
<event>
 8    1  0.1072332E+005  0.1043930E+01  0.7957747E-01            NaN
         13   -1    0    0    0    0  0.00000000000E+00  0.00000000000E+00  0.74505805969E-08  0.10566000000E+00  0.10566000000E+00 0. -1.
     999900   -1    0    0    0    0 -0.00000000000E+00 -0.00000000000E+00 -0.74505805969E-08  0.93827000000E+00  0.93827000000E+00 0.  1.
     999902    2    1    2    0    0  0.47550209846E-02  0.15363605331E-01 -0.17121360462E-01  0.10204397557E+01  0.10201693504E+01 0.  0.
     999903    2    3    3    0    0 -0.79039301745E-01 -0.20946356033E-02 -0.10396945433E+00  0.13203170187E+00  0.19264582689E-01 0.  0.
         14    1    1    2    0    0 -0.47550209846E-02 -0.15363605331E-01  0.17121360462E-01  0.23490244303E-01  0.00000000000E+00 0. -1.
     999901    1    3    3    0    0  0.83794322730E-01  0.17458240935E-01  0.86848093867E-01  0.88840805383E+00  0.88000000000E+00 0. -1.
        -11    1    4    4    0    0 -0.55629364302E-01 -0.98342141705E-02 -0.67754148921E-01  0.88216913107E-01  0.51100000000E-03 0. -1.
         11    1    4    4    0    0 -0.23409937443E-01  0.77395785672E-02 -0.36215305408E-01  0.43814788762E-01  0.51100000000E-03 0.  1.
</event>
<event>
 8    1  0.1072332E+005  0.1043930E+01  0.7957747E-01            NaN
         13   -1    0    0    0    0  0.00000000000E+00  0.00000000000E+00  0.74505805969E-08  0.10566000000E+00  0.10566000000E+00 0.  1.
     999900   -1    0    0    0    0 -0.00000000000E+00 -0.00000000000E+00 -0.74505805969E-08  0.93827000000E+00  0.93827000000E+00 0.  1.
     999902    2    1    2    0    0  0.12120617519E-01  0.61168725290E-02 -0.20867977950E-01  0.10190342573E+01  0.10187301015E+01 0.  0.
     999903    2    3    3    0    0  0.72591942440E-01 -0.32100501355E-01 -0.10384851348E+00  0.13224052818E+00  0.20075140026E-01 0.  0.
         14    1    1    2    0    0 -0.12120617519E-01 -0.61168725290E-02  0.20867977950E-01  0.24895742654E-01  0.00000000000E+00 0.  1.
     999901    1    3    3    0    0 -0.60471324922E-01  0.38217373884E-01  0.82980535533E-01  0.88679372916E+00  0.88000000000E+00 0. -1.
        -11    1    4    4    0    0  0.34844873710E-01 -0.15506470298E-01 -0.66201348048E-01  0.76403504169E-01  0.51100000000E-03 0. -1.
         11    1    4    4    0    0  0.37747068730E-01 -0.16594031057E-01 -0.37647165435E-01  0.55837024014E-01  0.51100000000E-03 0.  1.
</event>
<event>
 8    1  0.1072332E+005  0.1043930E+01  0.7957747E-01            NaN
         13   -1    0    0    0    0  0.00000000000E+00  0.00000000000E+00  0.74505805969E-08  0.10566000000E+00  0.10566000000E+00 0.  1.
     999900   -1    0    0    0    0 -0.00000000000E+00 -0.00000000000E+00 -0.74505805969E-08  0.93827000000E+00  0.93827000000E+00 0. -1.
     999902    2    1    2    0    0 -0.19736975800E-01  0.12705592042E-01 -0.65934427617E-02  0.10195485774E+01  0.10192570077E+01 0.  0.
     999903    2    3    3    0    0 -0.98931710772E-01  0.48043065602E-01 -0.71739316589E-01  0.13288938242E+00  0.20431320708E-01 0.  0.
         14    1    1    2    0    0  0.19736975800E-01 -0.12705592042E-01  0.65934427617E-02  0.24381422648E-01  0.00000000000E+00 0. -1.
     999901    1    3    3    0    0  0.79194734972E-01 -0.35337473560E-01  0.65145873828E-01  0.88665919493E+00  0.88000000000E+00 0.  1.
        -11    1    4    4    0    0 -0.29373785646E-01  0.10223345605E-01 -0.30718789213E-01  0.43717744799E-01  0.51100000000E-03 0.  1.
         11    1    4    4    0    0 -0.69557925126E-01  0.37819719997E-01 -0.41020527376E-01  0.89171637619E-01  0.51100000000E-03 0. -1.
</event>
<event>
 8    1  0.1072332E+005  0.1043930E+01  0.7957747E-01            NaN
         13   -1    0    0    0    0  0.00000000000E+00  0.00000000000E+00  0.74505805969E-08  0.10566000000E+00  0.10566000000E+00 0.  1.
     999900   -1    0    0    0    0 -0.00000000000E+00 -0.00000000000E+00 -0.74505805969E-08  0.93827000000E+00  0.93827000000E+00 0. -1.
     999902    2    1    2    0    0  0.22511302619E-01 -0.96982305065E-02 -0.12188904332E-03  0.10194181809E+01  0.10191234460E+01 0.  0.
     999903    2    3    3    0    0  0.32234559981E-01  0.11579076226E+00  0.43738952538E-01  0.12938121395E+00  0.19489357906E-01 0.  0.
         14    1    1    2    0    0 -0.22511302619E-01  0.96982305065E-02  0.12188904332E-03  0.24511819139E-01  0.00000000000E+00 0.  1.
     999901    1    3    3    0    0 -0.97232573622E-02 -0.12548899277E+00 -0.43860841581E-01  0.89003696691E+00  0.88000000000E+00 0.  1.
        -11    1    4    4    0    0  0.11267650711E-01  0.75485110536E-01  0.27966658461E-01  0.81285650465E-01  0.51100000000E-03 0. -1.
         11    1    4    4    0    0  0.20966909270E-01  0.40305651729E-01  0.15772294077E-01  0.48095563486E-01  0.51100000000E-03 0.  1.
</event>
<event>
 8    1  0.1072332E+005  0.1043930E+01  0.7957747E-01            NaN
         13   -1    0    0    0    0  0.00000000000E+00  0.00000000000E+00  0.74505805969E-08  0.10566000000E+00  0.10566000000E+00 0.  1.
     999900   -1    0    0    0    0 -0.00000000000E+00 -0.00000000000E+00 -0.74505805969E-08  0.93827000000E+00  0.93827000000E+00 0. -1.
     999902    2    1    2    0    0 -0.12304435069E-01 -0.11780388511E-01 -0.16367143511E-01  0.10203067051E+01  0.10200331918E+01 0.  0.
     999903    2    3    3    0    0  0.10548982348E+00 -0.18975852229E-01  0.68018106255E-01  0.12842771530E+00  0.19468678765E-01 0.  0.
         14    1    1    2    0    0  0.12304435069E-01  0.11780388511E-01  0.16367143511E-01  0.23623294912E-01  0.00000000000E+00 0.  1.
     999901    1    3    3    0    0 -0.11779425855E+00  0.71954637182E-02 -0.84385249765E-01  0.89187898979E+00  0.88000000000E+00 0. -1.
        -11    1    4    4    0    0  0.87329516959E-01 -0.88115921415E-02  0.50819457759E-01  0.10142468682E+00  0.51100000000E-03 0. -1.
         11    1    4    4    0    0  0.18160306523E-01 -0.10164260087E-01  0.17198648495E-01  0.27003028482E-01  0.51100000000E-03 0.  1.
</event>
<event>
 8    1  0.1072332E+005  0.1043930E+01  0.7957747E-01            NaN
         13   -1    0    0    0    0  0.00000000000E+00  0.00000000000E+00  0.74505805969E-08  0.10566000000E+00  0.10566000000E+00 0. -1.
     999900   -1    0    0    0    0 -0.00000000000E+00 -0.00000000000E+00 -0.74505805969E-08  0.93827000000E+00  0.93827000000E+00 0.  1.
     999902    2    1    2    0    0 -0.13415159061E-01  0.17264646864E-01 -0.28798986097E-02  0.10218771467E+01  0.10216391606E+01 0.  0.
     999903    2    3    3    0    0 -0.18605045269E-01  0.13137277655E+00 -0.90137276537E-02  0.13447350456E+00  0.19922901713E-01 0.  0.
         14    1    1    2    0    0  0.13415159061E-01 -0.17264646864E-01  0.28798986097E-02  0.22052853330E-01  0.00000000000E+00 0.  1.
     999901    1    3    3    0    0  0.51898862083E-02 -0.11410812969E+00  0.61338290440E-02  0.88740364211E+00  0.88000000000E+00 0.  1.
        -11    1    4    4    0    0 -0.29715559311E-02  0.28963068439E-01  0.61792638171E-02  0.29768001283E-01  0.51100000000E-03 0.  1.
         11    1    4    4    0    0 -0.15633489338E-01  0.10240970811E+00 -0.15192991471E-01  0.10470550327E+00  0.51100000000E-03 0. -1.
</event>
<event>
 8    1  0.1072332E+005  0.1043930E+01  0.7957747E-01            NaN
         13   -1    0    0    0    0  0.00000000000E+00  0.00000000000E+00  0.74505805969E-08  0.10566000000E+00  0.10566000000E+00 0. -1.
     999900   -1    0    0    0    0 -0.00000000000E+00 -0.00000000000E+00 -0.74505805969E-08  0.93827000000E+00  0.93827000000E+00 0.  1.
     999902    2    1    2    0    0  0.25266710740E-02 -0.21729916908E-02 -0.23427534670E-01  0.10202666245E+01  0.10199921714E+01 0.  0.
     999903    2    3    3    0    0 -0.12865876618E+00 -0.38793205201E-02  0.35500944377E-02  0.13013162182E+00  0.18801823973E-01 0.  0.
         14    1    1    2    0    0 -0.25266710740E-02  0.21729916908E-02  0.23427534670E-01  0.23663375506E-01  0.00000000000E+00 0. -1.
     999901    1    3    3    0    0  0.13118543726E+00  0.17063288293E-02 -0.26977629108E-01  0.89013500267E+00  0.88000000000E+00 0. -1.
        -11    1    4    4    0    0 -0.48644760435E-01 -0.78814765015E-02 -0.51255898354E-02  0.49547585025E-01  0.51100000000E-03 0.  1.
         11    1    4    4    0    0 -0.80014005747E-01  0.40021559815E-02  0.86756842731E-02  0.80584036799E-01  0.51100000000E-03 0. -1.
</event>
<event>
 8    1  0.1072332E+005  0.1043930E+01  0.7957747E-01            NaN
         13   -1    0    0    0    0  0.00000000000E+00  0.00000000000E+00  0.74505805969E-08  0.10566000000E+00  0.10566000000E+00 0. -1.
     999900   -1    0    0    0    0 -0.00000000000E+00 -0.00000000000E+00 -0.74505805969E-08  0.93827000000E+00  0.93827000000E+00 0.  1.
     999902    2    1    2    0    0  0.91921934590E-02 -0.92806384975E-02  0.19765510050E-01  0.10202381858E+01  0.10199630649E+01 0.  0.
     999903    2    3    3    0    0 -0.73007227819E-01  0.89501735574E-01 -0.51699349100E-01  0.12803757588E+00  0.19498260319E-01 0.  0.
         14    1    1    2    0    0 -0.91921934590E-02  0.92806384975E-02 -0.19765510050E-01  0.23691814178E-01  0.00000000000E+00 0. -1.
     999901    1    3    3    0    0  0.82199421278E-01 -0.98782374072E-01  0.71464859150E-01  0.89220060994E+00  0.88000000000E+00 0. -1.
        -11    1    4    4    0    0 -0.46698707865E-01  0.57123864381E-01 -0.22593012300E-01  0.77166122903E-01  0.51100000000E-03 0.  1.
         11    1    4    4    0    0 -0.26308519953E-01  0.32377871194E-01 -0.29106336800E-01  0.50871452978E-01  0.51100000000E-03 0. -1.
</event>
<event>
 8    1  0.1072332E+005  0.1043930E+01  0.7957747E-01            NaN
         13   -1    0    0    0    0  0.00000000000E+00  0.00000000000E+00  0.74505805969E-08  0.10566000000E+00  0.10566000000E+00 0.  1.
     999900   -1    0    0    0    0 -0.00000000000E+00 -0.00000000000E+00 -0.74505805969E-08  0.93827000000E+00  0.93827000000E+00 0. -1.
     999902    2    1    2    0    0 -0.18754665396E-01  0.89436486858E-02  0.11024015966E-01  0.10204086213E+01  0.10201374904E+01 0.  0.
     999903    2    3    3    0    0  0.36403192882E-02 -0.12522350694E+00 -0.24548728038E-01  0.12924770372E+00  0.20202728822E-01 0.  0.
         14    1    1    2    0    0  0.18754665396E-01 -0.89436486858E-02 -0.11024015966E-01  0.23521378657E-01  0.00000000000E+00 0.  1.
     999901    1    3    3    0    0 -0.22394984684E-01  0.13416715563E+00  0.35572744004E-01  0.89116091763E+00  0.88000000000E+00 0. -1.
        -11    1    4    4    0    0 -0.53669833428E-02 -0.98833794456E-01 -0.20211827936E-01  0.10102327725E+00  0.51100000000E-03 0. -1.
         11    1    4    4    0    0  0.90073026310E-02 -0.26389712488E-01 -0.43369001018E-02  0.28224426467E-01  0.51100000000E-03 0.  1.
</event>
<event>
 8    1  0.1072332E+005  0.1043930E+01  0.7957747E-01            NaN
         13   -1    0    0    0    0  0.00000000000E+00  0.00000000000E+00  0.74505805969E-08  0.10566000000E+00  0.10566000000E+00 0. -1.
     999900   -1    0    0    0    0 -0.00000000000E+00 -0.00000000000E+00 -0.74505805969E-08  0.93827000000E+00  0.93827000000E+00 0. -1.
     999902    2    1    2    0    0  0.16511440230E-01 -0.15849558078E-01 -0.59371917671E-02  0.10202849922E+01  0.10200109700E+01 0.  0.
     999903    2    3    3    0    0 -0.43390564969E-01  0.10709462089E+00  0.51157641765E-01  0.12789307076E+00  0.19685890527E-01 0.  0.
         14    1    1    2    0    0 -0.16511440230E-01  0.15849558078E-01  0.59371917671E-02  0.23645007841E-01  0.00000000000E+00 0.  1.
     999901    1    3    3    0    0  0.59902005198E-01 -0.12294417896E+00 -0.57094833533E-01  0.89239192140E+00  0.88000000000E+00 0. -1.
        -11    1    4    4    0    0 -0.22120612735E-01  0.48581230125E-01  0.13261085936E-01  0.55005226565E-01  0.51100000000E-03 0.  1.
         11    1    4    4    0    0 -0.21269952233E-01  0.58513390760E-01  0.37896555829E-01  0.72887844192E-01  0.51100000000E-03 0. -1.
</event>
<event>
 8    1  0.1072332E+005  0.1043930E+01  0.7957747E-01            NaN
         13   -1    0    0    0    0  0.00000000000E+00  0.00000000000E+00  0.74505805969E-08  0.10566000000E+00  0.10566000000E+00 0.  1.
     999900   -1    0    0    0    0 -0.00000000000E+00 -0.00000000000E+00 -0.74505805969E-08  0.93827000000E+00  0.93827000000E+00 0. -1.
     999902    2    1    2    0    0  0.13794484848E-01 -0.30035212265E-01 -0.25440827346E-02  0.10107807293E+01  0.10102370062E+01 0.  0.
     999903    2    3    3    0    0 -0.24275171005E-01 -0.76333460768E-01  0.92035681225E-01  0.12368538032E+00  0.20283627045E-01 0.  0.
         14    1    1    2    0    0 -0.13794484848E-01  0.30035212265E-01  0.25440827346E-02  0.33149270655E-01  0.00000000000E+00 0. -1.
     999901    1    3    3    0    0  0.38069655853E-01  0.46298248503E-01 -0.94579763959E-01  0.88709534903E+00  0.88000000000E+00 0.  1.
        -11    1    4    4    0    0 -0.25696992913E-01 -0.57101007563E-01  0.63010352604E-01  0.88833699494E-01  0.51100000000E-03 0.  1.
         11    1    4    4    0    0  0.14218219080E-02 -0.19232453205E-01  0.29025328621E-01  0.34851680826E-01  0.51100000000E-03 0. -1.
</event>
<event>
 8    1  0.1072332E+005  0.1043930E+01  0.7957747E-01            NaN
         13   -1    0    0    0    0  0.00000000000E+00  0.00000000000E+00  0.74505805969E-08  0.10566000000E+00  0.10566000000E+00 0. -1.
     999900   -1    0    0    0    0 -0.00000000000E+00 -0.00000000000E+00 -0.74505805969E-08  0.93827000000E+00  0.93827000000E+00 0.  1.
     999902    2    1    2    0    0  0.10017111222E-01  0.25871982227E-01  0.49090836001E-02  0.10157555243E+01  0.10153647049E+01 0.  0.
     999903    2    3    3    0    0 -0.85968568580E-01 -0.17673511558E-01  0.87613974558E-01  0.12561533320E+00  0.20001389989E-01 0.  0.
         14    1    1    2    0    0 -0.10017111222E-01 -0.25871982227E-01 -0.49090836001E-02  0.28174475742E-01  0.00000000000E+00 0.  1.
     999901    1    3    3    0    0  0.95985679801E-01  0.43545493785E-01 -0.82704890958E-01  0.89014019106E+00  0.88000000000E+00 0. -1.
        -11    1    4    4    0    0 -0.62615498557E-01 -0.15646586099E-01  0.51563319931E-01  0.82610855216E-01  0.51100000000E-03 0.  1.
         11    1    4    4    0    0 -0.23353070023E-01 -0.20269254587E-02  0.36050654627E-01  0.43004477980E-01  0.51100000000E-03 0. -1.
</event>
<event>
 8    1  0.1072332E+005  0.1043930E+01  0.7957747E-01            NaN
         13   -1    0    0    0    0  0.00000000000E+00  0.00000000000E+00  0.74505805969E-08  0.10566000000E+00  0.10566000000E+00 0. -1.
     999900   -1    0    0    0    0 -0.00000000000E+00 -0.00000000000E+00 -0.74505805969E-08  0.93827000000E+00  0.93827000000E+00 0.  1.
     999902    2    1    2    0    0  0.89135371301E-02  0.10330059188E-01  0.19774010475E-01  0.10199055800E+01  0.10196225867E+01 0.  0.
     999903    2    3    3    0    0 -0.12198323607E+00  0.39093550872E-01  0.12498012134E-02  0.12956606608E+00  0.19431620500E-01 0.  0.
         14    1    1    2    0    0 -0.89135371301E-02 -0.10330059188E-01 -0.19774010475E-01  0.24024420019E-01  0.00000000000E+00 0.  1.
     999901    1    3    3    0    0  0.13089677320E+00 -0.28763491684E-01  0.18524209261E-01  0.89033951390E+00  0.88000000000E+00 0. -1.
        -11    1    4    4    0    0 -0.67194952408E-01  0.31247924139E-01 -0.18457428664E-02  0.74130036286E-01  0.51100000000E-03 0.  1.
         11    1    4    4    0    0 -0.54788283658E-01  0.78456267330E-02  0.30955440798E-02  0.55436029793E-01  0.51100000000E-03 0. -1.
</event>
<event>
 8    1  0.1072332E+005  0.1043930E+01  0.7957747E-01            NaN
         13   -1    0    0    0    0  0.00000000000E+00  0.00000000000E+00  0.74505805969E-08  0.10566000000E+00  0.10566000000E+00 0. -1.
     999900   -1    0    0    0    0 -0.00000000000E+00 -0.00000000000E+00 -0.74505805969E-08  0.93827000000E+00  0.93827000000E+00 0. -1.
     999902    2    1    2    0    0 -0.13924823860E-01  0.50501187753E-02  0.35821553970E-03  0.10291133628E+01  0.10290066962E+01 0.  0.
     999903    2    3    3    0    0 -0.36531503572E-01 -0.33952345806E-02 -0.13247884854E+00  0.13881674283E+00  0.19322639809E-01 0.  0.
         14    1    1    2    0    0  0.13924823860E-01 -0.50501187753E-02 -0.35821553970E-03  0.14816637187E-01  0.00000000000E+00 0.  1.
     999901    1    3    3    0    0  0.22606679713E-01  0.84453533559E-02  0.13283706408E+00  0.89029661998E+00  0.88000000000E+00 0.  1.
        -11    1    4    4    0    0 -0.17970068402E-02 -0.51700315903E-02 -0.91290098317E-02  0.10656378453E-01  0.51100000000E-03 0.  1.
         11    1    4    4    0    0 -0.34734496732E-01  0.17747970096E-02 -0.12334983870E+00  0.12816036438E+00  0.51100000000E-03 0. -1.
</event>
<event>
 8    1  0.1072332E+005  0.1043930E+01  0.7957747E-01            NaN
         13   -1    0    0    0    0  0.00000000000E+00  0.00000000000E+00  0.74505805969E-08  0.10566000000E+00  0.10566000000E+00 0. -1.
     999900   -1    0    0    0    0 -0.00000000000E+00 -0.00000000000E+00 -0.74505805969E-08  0.93827000000E+00  0.93827000000E+00 0. -1.
     999902    2    1    2    0    0  0.15758675390E-01 -0.90975240210E-02  0.15793694051E-01  0.10198355698E+01  0.10195509050E+01 0.  0.
     999903    2    3    3    0    0  0.26020589683E-01 -0.12521651148E+00  0.26942815655E-01  0.13207815418E+00  0.19038846130E-01 0.  0.
         14    1    1    2    0    0 -0.15758675390E-01  0.90975240210E-02 -0.15793694051E-01  0.24094430168E-01  0.00000000000E+00 0.  1.
     999901    1    3    3    0    0 -0.10261914293E-01  0.11611898746E+00 -0.11149121604E-01  0.88775741565E+00  0.88000000000E+00 0.  1.
        -11    1    4    4    0    0  0.16852947705E-01 -0.84304184496E-01  0.89075571299E-02  0.86433923114E-01  0.51100000000E-03 0.  1.
         11    1    4    4    0    0  0.91676419777E-02 -0.40912326982E-01  0.18035258525E-01  0.45644231066E-01  0.51100000000E-03 0. -1.
</event>
<event>
 8    1  0.1072332E+005  0.1043930E+01  0.7957747E-01            NaN
         13   -1    0    0    0    0  0.00000000000E+00  0.00000000000E+00  0.74505805969E-08  0.10566000000E+00  0.10566000000E+00 0. -1.
     999900   -1    0    0    0    0 -0.00000000000E+00 -0.00000000000E+00 -0.74505805969E-08  0.93827000000E+00  0.93827000000E+00 0. -1.
     999902    2    1    2    0    0 -0.17386844971E-01 -0.43454249139E-02 -0.14674978142E-01  0.10207666652E+01  0.10205038191E+01 0.  0.
     999903    2    3    3    0    0  0.12442643161E+00  0.10073764038E-01 -0.26079895760E-01  0.12922362610E+00  0.20860656137E-01 0.  0.
         14    1    1    2    0    0  0.17386844971E-01  0.43454249139E-02  0.14674978142E-01  0.23163334803E-01  0.00000000000E+00 0. -1.
     999901    1    3    3    0    0 -0.14181327658E+00 -0.14419188951E-01  0.11404917617E-01  0.89154303910E+00  0.88000000000E+00 0. -1.
        -11    1    4    4    0    0  0.47245679819E-01  0.14540654462E-02  0.89191683586E-04  0.47270896374E-01  0.51100000000E-03 0. -1.
         11    1    4    4    0    0  0.77180751787E-01  0.86196985914E-02 -0.26169087443E-01  0.81952729722E-01  0.51100000000E-03 0.  1.
</event>
<event>
 8    1  0.1072332E+005  0.1043930E+01  0.7957747E-01            NaN
         13   -1    0    0    0    0  0.00000000000E+00  0.00000000000E+00  0.74505805969E-08  0.10566000000E+00  0.10566000000E+00 0. -1.
     999900   -1    0    0    0    0 -0.00000000000E+00 -0.00000000000E+00 -0.74505805969E-08  0.93827000000E+00  0.93827000000E+00 0. -1.
     999902    2    1    2    0    0  0.23946079144E-01  0.84124715957E-02 -0.22795008375E-01  0.10098155340E+01  0.10092391272E+01 0.  0.
     999903    2    3    3    0    0  0.76300554862E-01 -0.10179024965E-01 -0.96421528327E-01  0.12499493109E+00  0.20030837499E-01 0.  0.
         14    1    1    2    0    0 -0.23946079144E-01 -0.84124715957E-02  0.22795008375E-01  0.34114466015E-01  0.00000000000E+00 0. -1.
     999901    1    3    3    0    0 -0.52354475718E-01  0.18591496561E-01  0.73626519953E-01  0.88482060290E+00  0.88000000000E+00 0.  1.
        -11    1    4    4    0    0  0.31744899033E-01  0.10890579045E-02 -0.26755634836E-01  0.41533718569E-01  0.51100000000E-03 0. -1.
         11    1    4    4    0    0  0.44555655829E-01 -0.11268082870E-01 -0.69665893491E-01  0.83461212518E-01  0.51100000000E-03 0.  1.
</event>
<event>
 8    1  0.1072332E+005  0.1043930E+01  0.7957747E-01            NaN
         13   -1    0    0    0    0  0.00000000000E+00  0.00000000000E+00  0.74505805969E-08  0.10566000000E+00  0.10566000000E+00 0. -1.
     999900   -1    0    0    0    0 -0.00000000000E+00 -0.00000000000E+00 -0.74505805969E-08  0.93827000000E+00  0.93827000000E+00 0.  1.
     999902    2    1    2    0    0  0.88715498734E-03  0.16156886750E-01 -0.17570229682E-01  0.10200439161E+01  0.10197642109E+01 0.  0.
     999903    2    3    3    0    0  0.38325272508E-01 -0.11986521935E+00 -0.19374445486E-01  0.12880495757E+00  0.19464085755E-01 0.  0.
         14    1    1    2    0    0 -0.88715498734E-03 -0.16156886750E-01  0.17570229682E-01  0.23886083909E-01  0.00000000000E+00 0. -1.
     999901    1    3    3    0    0 -0.37438117521E-01  0.13602210610E+00  0.18042158039E-02  0.89123895852E+00  0.88000000000E+00 0.  1.
        -11    1    4    4    0    0  0.31138890837E-01 -0.97844215461E-01 -0.23335472260E-01  0.10529922321E+00  0.51100000000E-03 0.  1.
         11    1    4    4    0    0  0.71863816712E-02 -0.22021003888E-01  0.39610267739E-02  0.23505734361E-01  0.51100000000E-03 0. -1.
</event>
<event>
 8    1  0.1072332E+005  0.1043930E+01  0.7957747E-01            NaN
         13   -1    0    0    0    0  0.00000000000E+00  0.00000000000E+00  0.74505805969E-08  0.10566000000E+00  0.10566000000E+00 0.  1.
     999900   -1    0    0    0    0 -0.00000000000E+00 -0.00000000000E+00 -0.74505805969E-08  0.93827000000E+00  0.93827000000E+00 0.  1.
     999902    2    1    2    0    0  0.11291770553E-01  0.13680659952E-01 -0.16246290126E-01  0.10198757596E+01  0.10195920549E+01 0.  0.
     999903    2    3    3    0    0  0.83799699474E-01  0.61835042233E-01  0.76462947520E-01  0.13073502436E+00  0.19977541695E-01 0.  0.
         14    1    1    2    0    0 -0.11291770553E-01 -0.13680659952E-01  0.16246290126E-01  0.24054240412E-01  0.00000000000E+00 0.  1.
     999901    1    3    3    0    0 -0.72507928921E-01 -0.48154382282E-01 -0.92709237646E-01  0.88914073522E+00  0.88000000000E+00 0.  1.
        -11    1    4    4    0    0  0.26475684558E-01  0.26914067467E-01  0.18491648846E-01  0.42042015871E-01  0.51100000000E-03 0.  1.
         11    1    4    4    0    0  0.57324014916E-01  0.34920974767E-01  0.57971298674E-01  0.88693008494E-01  0.51100000000E-03 0. -1.
</event>
<event>
 8    1  0.1072332E+005  0.1043930E+01  0.7957747E-01            NaN
         13   -1    0    0    0    0  0.00000000000E+00  0.00000000000E+00  0.74505805969E-08  0.10566000000E+00  0.10566000000E+00 0. -1.
     999900   -1    0    0    0    0 -0.00000000000E+00 -0.00000000000E+00 -0.74505805969E-08  0.93827000000E+00  0.93827000000E+00 0.  1.
     999902    2    1    2    0    0  0.19385928537E-02 -0.13752696340E-01  0.19308946448E-01  0.10201449162E+01  0.10198675992E+01 0.  0.
     999903    2    3    3    0    0 -0.83323934950E-01  0.88242459863E-01  0.43492650198E-01  0.12983173418E+00  0.15331624852E-01 0.  0.
         14    1    1    2    0    0 -0.19385928537E-02  0.13752696340E-01 -0.19308946448E-01  0.23785083809E-01  0.00000000000E+00 0.  1.
     999901    1    3    3    0    0  0.85262527803E-01 -0.10199515620E+00 -0.24183703750E-01  0.89031318201E+00  0.88000000000E+00 0. -1.
        -11    1    4    4    0    0 -0.68964143963E-01  0.77704380495E-01  0.41592754541E-01  0.11191176101E+00  0.51100000000E-03 0.  1.
         11    1    4    4    0    0 -0.14359790986E-01  0.10538079367E-01  0.18998956573E-02  0.17919973170E-01  0.51100000000E-03 0. -1.
</event>
<event>
 8    1  0.1072332E+005  0.1043930E+01  0.7957747E-01            NaN
         13   -1    0    0    0    0  0.00000000000E+00  0.00000000000E+00  0.74505805969E-08  0.10566000000E+00  0.10566000000E+00 0. -1.
     999900   -1    0    0    0    0 -0.00000000000E+00 -0.00000000000E+00 -0.74505805969E-08  0.93827000000E+00  0.93827000000E+00 0. -1.
     999902    2    1    2    0    0  0.22706095310E-01 -0.37456218332E-03  0.60538056330E-02  0.10204277528E+01  0.10201570678E+01 0.  0.
     999903    2    3    3    0    0  0.54015508713E-01  0.10397806068E+00  0.57795978525E-01  0.13220086640E+00  0.20188651719E-01 0.  0.
         14    1    1    2    0    0 -0.22706095310E-01  0.37456218332E-03 -0.60538056330E-02  0.23502247206E-01  0.00000000000E+00 0.  1.
     999901    1    3    3    0    0 -0.31309413402E-01 -0.10435262286E+00 -0.51742172892E-01  0.88822688640E+00  0.88000000000E+00 0.  1.
        -11    1    4    4    0    0  0.16424090754E-01  0.53350704346E-01  0.26113527420E-01  0.61629748066E-01  0.51100000000E-03 0.  1.
         11    1    4    4    0    0  0.37591417959E-01  0.50627356332E-01  0.31682451105E-01  0.70571118330E-01  0.51100000000E-03 0. -1.
</event>
<event>
 8    1  0.1072332E+005  0.1043930E+01  0.7957747E-01            NaN
         13   -1    0    0    0    0  0.00000000000E+00  0.00000000000E+00  0.74505805969E-08  0.10566000000E+00  0.10566000000E+00 0. -1.
     999900   -1    0    0    0    0 -0.00000000000E+00 -0.00000000000E+00 -0.74505805969E-08  0.93827000000E+00  0.93827000000E+00 0. -1.
     999902    2    1    2    0    0  0.12457313158E-01  0.90423914227E-02 -0.18185605070E-01  0.10201042634E+01  0.10198259864E+01 0.  0.
     999903    2    3    3    0    0 -0.96511642858E-01  0.23499277347E-01 -0.82816889467E-01  0.13091337395E+00  0.20321443216E-01 0.  0.
         14    1    1    2    0    0 -0.12457313158E-01 -0.90423914227E-02  0.18185605070E-01  0.23825736621E-01  0.00000000000E+00 0. -1.
     999901    1    3    3    0    0  0.10896895602E+00 -0.14456885924E-01  0.64631284397E-01  0.88919088943E+00  0.88000000000E+00 0.  1.
        -11    1    4    4    0    0 -0.40219891265E-01  0.18618594736E-01 -0.29639041930E-01  0.53320030484E-01  0.51100000000E-03 0.  1.
         11    1    4    4    0    0 -0.56291751592E-01  0.48806826108E-02 -0.53177847537E-01  0.77593343463E-01  0.51100000000E-03 0. -1.
</event>
<event>
 8    1  0.1072332E+005  0.1043930E+01  0.7957747E-01            NaN
         13   -1    0    0    0    0  0.00000000000E+00  0.00000000000E+00  0.74505805969E-08  0.10566000000E+00  0.10566000000E+00 0.  1.
     999900   -1    0    0    0    0 -0.00000000000E+00 -0.00000000000E+00 -0.74505805969E-08  0.93827000000E+00  0.93827000000E+00 0.  1.
     999902    2    1    2    0    0 -0.10051691527E-01  0.21712252536E-01  0.51255944355E-02  0.10194610374E+01  0.10191673448E+01 0.  0.
     999903    2    3    3    0    0 -0.12029145917E+00  0.47523778498E-01 -0.16320729963E-01  0.13194822843E+00  0.20381954946E-01 0.  0.
         14    1    1    2    0    0  0.10051691527E-01 -0.21712252536E-01 -0.51255944355E-02  0.24468962607E-01  0.00000000000E+00 0. -1.
     999901    1    3    3    0    0  0.11023976764E+00 -0.25811525962E-01  0.21446324398E-01  0.88751280896E+00  0.88000000000E+00 0.  1.
        -11    1    4    4    0    0 -0.51249026334E-01  0.11157666075E-01 -0.12297213614E-02  0.52466461174E-01  0.51100000000E-03 0. -1.
         11    1    4    4    0    0 -0.69042432836E-01  0.36366112423E-01 -0.15091008601E-01  0.79481767257E-01  0.51100000000E-03 0.  1.
</event>
<event>
 8    1  0.1072332E+005  0.1043930E+01  0.7957747E-01            NaN
         13   -1    0    0    0    0  0.00000000000E+00  0.00000000000E+00  0.74505805969E-08  0.10566000000E+00  0.10566000000E+00 0.  1.
     999900   -1    0    0    0    0 -0.00000000000E+00 -0.00000000000E+00 -0.74505805969E-08  0.93827000000E+00  0.93827000000E+00 0.  1.
     999902    2    1    2    0    0  0.11213280311E-01 -0.16527161440E-01 -0.13282369633E-01  0.10199444614E+01  0.10196623942E+01 0.  0.
     999903    2    3    3    0    0  0.91957828704E-01 -0.66650553846E-01  0.63215692389E-01  0.13152789800E+00  0.20120278351E-01 0.  0.
         14    1    1    2    0    0 -0.11213280311E-01  0.16527161440E-01  0.13282369633E-01  0.23985538636E-01  0.00000000000E+00 0.  1.
     999901    1    3    3    0    0 -0.80744548393E-01  0.50123392406E-01 -0.76498062022E-01  0.88841656336E+00  0.88000000000E+00 0.  1.
        -11    1    4    4    0    0  0.21280639852E-01 -0.23739135901E-01  0.10971794078E-01  0.33720225268E-01  0.51100000000E-03 0.  1.
         11    1    4    4    0    0  0.70677188852E-01 -0.42911417945E-01  0.52243898310E-01  0.97807672734E-01  0.51100000000E-03 0. -1.
</event>
<event>
 8    1  0.1072332E+005  0.1043930E+01  0.7957747E-01            NaN
         13   -1    0    0    0    0  0.00000000000E+00  0.00000000000E+00  0.74505805969E-08  0.10566000000E+00  0.10566000000E+00 0.  1.
     999900   -1    0    0    0    0 -0.00000000000E+00 -0.00000000000E+00 -0.74505805969E-08  0.93827000000E+00  0.93827000000E+00 0. -1.
     999902    2    1    2    0    0 -0.13772775881E-01  0.37015726751E-02  0.18881395255E-01  0.10202678344E+01  0.10199934097E+01 0.  0.
     999903    2    3    3    0    0 -0.11877705928E+00 -0.85482340512E-02 -0.51296448179E-01  0.13116666633E+00  0.19806732251E-01 0.  0.
         14    1    1    2    0    0  0.13772775881E-01 -0.37015726751E-02 -0.18881395255E-01  0.23662165634E-01  0.00000000000E+00 0. -1.
     999901    1    3    3    0    0  0.10500428340E+00  0.12249806726E-01  0.70177843434E-01  0.88910116804E+00  0.88000000000E+00 0.  1.
        -11    1    4    4    0    0 -0.47742085967E-01 -0.62255066292E-02 -0.10730769220E-01  0.49330256784E-01  0.51100000000E-03 0. -1.
         11    1    4    4    0    0 -0.71034973316E-01 -0.23227274220E-02 -0.40565678960E-01  0.81836409544E-01  0.51100000000E-03 0.  1.
</event>
<event>
 8    1  0.1072332E+005  0.1043930E+01  0.7957747E-01            NaN
         13   -1    0    0    0    0  0.00000000000E+00  0.00000000000E+00  0.74505805969E-08  0.10566000000E+00  0.10566000000E+00 0. -1.
     999900   -1    0    0    0    0 -0.00000000000E+00 -0.00000000000E+00 -0.74505805969E-08  0.93827000000E+00  0.93827000000E+00 0. -1.
     999902    2    1    2    0    0 -0.11455353745E-01 -0.19534914840E-01 -0.35555257509E-02  0.10210066540E+01  0.10207492874E+01 0.  0.
     999903    2    3    3    0    0 -0.10476124253E+00  0.46752434972E-01  0.55351176791E-01  0.13164171137E+00  0.33242732848E-01 0.  0.
         14    1    1    2    0    0  0.11455353745E-01  0.19534914840E-01  0.35555257509E-02  0.22923345972E-01  0.00000000000E+00 0. -1.
     999901    1    3    3    0    0  0.93305888787E-01 -0.66287349812E-01 -0.58906702541E-01  0.88936494266E+00  0.88000000000E+00 0. -1.
        -11    1    4    4    0    0 -0.95044569194E-01  0.41546138577E-01  0.59812438010E-01  0.11973863464E+00  0.51100000000E-03 0.  1.
         11    1    4    4    0    0 -0.97166733372E-02  0.52062963956E-02 -0.44612612197E-02  0.11903076727E-01  0.51100000000E-03 0. -1.
</event>
<event>
 8    1  0.1072332E+005  0.1043930E+01  0.7957747E-01            NaN
         13   -1    0    0    0    0  0.00000000000E+00  0.00000000000E+00  0.74505805969E-08  0.10566000000E+00  0.10566000000E+00 0. -1.
     999900   -1    0    0    0    0 -0.00000000000E+00 -0.00000000000E+00 -0.74505805969E-08  0.93827000000E+00  0.93827000000E+00 0.  1.
     999902    2    1    2    0    0  0.13295323186E-03  0.16170568992E-01 -0.15404792367E-01  0.10215958869E+01  0.10213517238E+01 0.  0.
     999903    2    3    3    0    0 -0.78983994494E-01 -0.24249500752E-01  0.98204963263E-01  0.12985576223E+00  0.19793799568E-01 0.  0.
         14    1    1    2    0    0 -0.13295323186E-03 -0.16170568992E-01  0.15404792367E-01  0.22334113055E-01  0.00000000000E+00 0. -1.
     999901    1    3    3    0    0  0.79116947726E-01  0.40420069744E-01 -0.11360975563E+00  0.89174012472E+00  0.88000000000E+00 0.  1.
        -11    1    4    4    0    0 -0.19324327962E-01 -0.10491026034E-01  0.38482617030E-01  0.44324532856E-01  0.51100000000E-03 0. -1.
         11    1    4    4    0    0 -0.59659666532E-01 -0.13758474718E-01  0.59722346233E-01  0.85531229372E-01  0.51100000000E-03 0.  1.
</event>
<event>
 8    1  0.1072332E+005  0.1043930E+01  0.7957747E-01            NaN
         13   -1    0    0    0    0  0.00000000000E+00  0.00000000000E+00  0.74505805969E-08  0.10566000000E+00  0.10566000000E+00 0. -1.
     999900   -1    0    0    0    0 -0.00000000000E+00 -0.00000000000E+00 -0.74505805969E-08  0.93827000000E+00  0.93827000000E+00 0. -1.
     999902    2    1    2    0    0 -0.11411181603E-01  0.59679723958E-02  0.19241589271E-01  0.10207768033E+01  0.10205141898E+01 0.  0.
     999903    2    3    3    0    0 -0.60757056310E-01  0.21921602883E-01 -0.11055643216E+00  0.12974534479E+00  0.20955983340E-01 0.  0.
         14    1    1    2    0    0  0.11411181603E-01 -0.59679723958E-02 -0.19241589271E-01  0.23153196707E-01  0.00000000000E+00 0.  1.
     999901    1    3    3    0    0  0.49345874707E-01 -0.15953630487E-01  0.12979802143E+00  0.89103145850E+00  0.88000000000E+00 0.  1.
        -11    1    4    4    0    0 -0.13195442839E-01  0.21895255820E-03 -0.10573668234E-01  0.16918369687E-01  0.51100000000E-03 0.  1.
         11    1    4    4    0    0 -0.47561613470E-01  0.21702650325E-01 -0.99982763927E-01  0.11282697510E+00  0.51100000000E-03 0. -1.
</event>
<event>
 8    1  0.1072332E+005  0.1043930E+01  0.7957747E-01            NaN
         13   -1    0    0    0    0  0.00000000000E+00  0.00000000000E+00  0.74505805969E-08  0.10566000000E+00  0.10566000000E+00 0.  1.
     999900   -1    0    0    0    0 -0.00000000000E+00 -0.00000000000E+00 -0.74505805969E-08  0.93827000000E+00  0.93827000000E+00 0. -1.
     999902    2    1    2    0    0 -0.46788181231E-03 -0.23635071700E-01  0.87417605694E-02  0.10187257562E+01  0.10184139200E+01 0.  0.
     999903    2    3    3    0    0 -0.48253655310E-01 -0.34642340226E-01 -0.11268723011E+00  0.12903500100E+00  0.20569702634E-01 0.  0.
         14    1    1    2    0    0  0.46788181231E-03  0.23635071700E-01 -0.87417605694E-02  0.25204243800E-01  0.00000000000E+00 0.  1.
     999901    1    3    3    0    0  0.47785773498E-01  0.11007268526E-01  0.12142899068E+00  0.88969075520E+00  0.88000000000E+00 0.  1.
        -11    1    4    4    0    0 -0.41844441180E-01 -0.36841491290E-01 -0.10403833332E+00  0.11803596341E+00  0.51100000000E-03 0.  1.
         11    1    4    4    0    0 -0.64092141300E-02  0.21991510632E-02 -0.86488967897E-02  0.10999037587E-01  0.51100000000E-03 0. -1.
</event>
<event>
 8    1  0.1072332E+005  0.1043930E+01  0.7957747E-01            NaN
         13   -1    0    0    0    0  0.00000000000E+00  0.00000000000E+00  0.74505805969E-08  0.10566000000E+00  0.10566000000E+00 0.  1.
     999900   -1    0    0    0    0 -0.00000000000E+00 -0.00000000000E+00 -0.74505805969E-08  0.93827000000E+00  0.93827000000E+00 0.  1.
     999902    2    1    2    0    0 -0.51859657319E-02  0.23153908461E-01  0.81993002180E-02  0.10188256928E+01  0.10185163553E+01 0.  0.
     999903    2    3    3    0    0  0.44632533939E-01  0.47410445116E-01  0.11185581109E+00  0.13101099660E+00  0.20306288797E-01 0.  0.
         14    1    1    2    0    0  0.51859657319E-02 -0.23153908461E-01 -0.81993002180E-02  0.25104307233E-01  0.00000000000E+00 0. -1.
     999901    1    3    3    0    0 -0.49818499671E-01 -0.24256536655E-01 -0.10365651087E+00  0.88781469616E+00  0.88000000000E+00 0.  1.
        -11    1    4    4    0    0  0.13507636664E-01  0.25557242213E-01  0.61011342841E-01  0.67514990587E-01  0.51100000000E-03 0.  1.
         11    1    4    4    0    0  0.31124897276E-01  0.21853202903E-01  0.50844468247E-01  0.63496006015E-01  0.51100000000E-03 0. -1.
</event>
<event>
 8    1  0.1072332E+005  0.1043930E+01  0.7957747E-01            NaN
         13   -1    0    0    0    0  0.00000000000E+00  0.00000000000E+00  0.74505805969E-08  0.10566000000E+00  0.10566000000E+00 0.  1.
     999900   -1    0    0    0    0 -0.00000000000E+00 -0.00000000000E+00 -0.74505805969E-08  0.93827000000E+00  0.93827000000E+00 0.  1.
     999902    2    1    2    0    0  0.74033580568E-02  0.12285167217E-01 -0.20138459829E-01  0.10192056677E+01  0.10189057368E+01 0.  0.
     999903    2    3    3    0    0 -0.10149146295E+00  0.37246914091E-01 -0.70622298017E-01  0.13070705274E+00  0.20223130242E-01 0.  0.
         14    1    1    2    0    0 -0.74033580568E-02 -0.12285167217E-01  0.20138459829E-01  0.24724332314E-01  0.00000000000E+00 0.  1.
     999901    1    3    3    0    0  0.10889482101E+00 -0.24961746873E-01  0.50483838188E-01  0.88849861495E+00  0.88000000000E+00 0. -1.
        -11    1    4    4    0    0 -0.69693123481E-01  0.35237770805E-01 -0.51363994563E-01  0.93473809221E-01  0.51100000000E-03 0.  1.
         11    1    4    4    0    0 -0.31798339470E-01  0.20091432860E-02 -0.19258303454E-01  0.37233243516E-01  0.51100000000E-03 0. -1.
</event>
<event>
 8    1  0.1072332E+005  0.1043930E+01  0.7957747E-01            NaN
         13   -1    0    0    0    0  0.00000000000E+00  0.00000000000E+00  0.74505805969E-08  0.10566000000E+00  0.10566000000E+00 0.  1.
     999900   -1    0    0    0    0 -0.00000000000E+00 -0.00000000000E+00 -0.74505805969E-08  0.93827000000E+00  0.93827000000E+00 0.  1.
     999902    2    1    2    0    0 -0.31643244204E-03 -0.22168198447E-01  0.66539452407E-02  0.10207825565E+01  0.10205200750E+01 0.  0.
     999903    2    3    3    0    0  0.30555629563E-01 -0.11691503007E+00  0.53957089459E-01  0.13389607351E+00  0.20347487387E-01 0.  0.
         14    1    1    2    0    0  0.31643244204E-03  0.22168198447E-01 -0.66539452407E-02  0.23147443469E-01  0.00000000000E+00 0. -1.
     999901    1    3    3    0    0 -0.30872062005E-01  0.94746831626E-01 -0.47303144218E-01  0.88688648302E+00  0.88000000000E+00 0.  1.
        -11    1    4    4    0    0 -0.17092030334E-02 -0.97554528889E-02  0.86517513468E-02  0.13160705089E-01  0.51100000000E-03 0. -1.
         11    1    4    4    0    0  0.32264832596E-01 -0.10715957718E+00  0.45305338112E-01  0.12073536842E+00  0.51100000000E-03 0.  1.
</event>
<event>
 8    1  0.1154593E+005  0.1043930E+01  0.7957747E-01            NaN
         13   -1    0    0    0    0  0.00000000000E+00  0.00000000000E+00  0.74505805969E-08  0.10566000000E+00  0.10566000000E+00 0. -1.
     999900   -1    0    0    0    0 -0.00000000000E+00 -0.00000000000E+00 -0.74505805969E-08  0.93827000000E+00  0.93827000000E+00 0.  1.
     999902    2    1    2    0    0 -0.18062780373E-01 -0.15541445740E-02  0.14812449012E-01  0.10205187197E+01  0.10202501503E+01 0.  0.
     999903    2    3    3    0    0 -0.38921598843E-01  0.56698112066E-01  0.11205166250E+00  0.13300315343E+00  0.20117081926E-01 0.  0.
         14    1    1    2    0    0  0.18062780373E-01  0.15541445740E-02 -0.14812449012E-01  0.23411280313E-01  0.00000000000E+00 0.  1.
     999901    1    3    3    0    0  0.20858818471E-01 -0.58252256640E-01 -0.97239213485E-01  0.88751556626E+00  0.88000000000E+00 0.  1.
        -11    1    4    4    0    0 -0.32708231751E-01  0.43322404946E-01  0.70969875735E-01  0.89351237134E-01  0.51100000000E-03 0.  1.
         11    1    4    4    0    0 -0.62133670927E-02  0.13375707119E-01  0.41081786763E-01  0.43651916295E-01  0.51100000000E-03 0. -1.
</event>
<event>
 8    1  0.1072332E+005  0.1043930E+01  0.7957747E-01            NaN
         13   -1    0    0    0    0  0.00000000000E+00  0.00000000000E+00  0.74505805969E-08  0.10566000000E+00  0.10566000000E+00 0.  1.
     999900   -1    0    0    0    0 -0.00000000000E+00 -0.00000000000E+00 -0.74505805969E-08  0.93827000000E+00  0.93827000000E+00 0.  1.
     999902    2    1    2    0    0 -0.55884329203E-02 -0.76216541690E-02  0.20487466551E-01  0.10213677200E+01  0.10211184862E+01 0.  0.
     999903    2    3    3    0    0 -0.32040670131E-02 -0.12100297461E+00  0.52760104436E-01  0.13350369198E+00  0.19688099021E-01 0.  0.
         14    1    1    2    0    0  0.55884329203E-02  0.76216541690E-02 -0.20487466551E-01  0.22562280037E-01  0.00000000000E+00 0. -1.
     999901    1    3    3    0    0 -0.23843659072E-02  0.11338132044E+00 -0.32272637885E-01  0.88786402798E+00  0.88000000000E+00 0.  1.
        -11    1    4    4    0    0 -0.98325782770E-02 -0.48465433293E-01  0.16493926012E-01  0.52133372576E-01  0.51100000000E-03 0.  1.
         11    1    4    4    0    0  0.66285112640E-02 -0.72537541316E-01  0.36266178425E-01  0.81370319407E-01  0.51100000000E-03 0. -1.
</event>
<event>
 8    1  0.1072332E+005  0.1043930E+01  0.7957747E-01            NaN
         13   -1    0    0    0    0  0.00000000000E+00  0.00000000000E+00  0.74505805969E-08  0.10566000000E+00  0.10566000000E+00 0. -1.
     999900   -1    0    0    0    0 -0.00000000000E+00 -0.00000000000E+00 -0.74505805969E-08  0.93827000000E+00  0.93827000000E+00 0. -1.
     999902    2    1    2    0    0 -0.21313118557E-01 -0.52926677793E-02 -0.88644933300E-02  0.10202479267E+01  0.10199730346E+01 0.  0.
     999903    2    3    3    0    0  0.10469150334E+00 -0.22347223752E-01  0.67212921881E-01  0.12786023306E+00  0.19260141479E-01 0.  0.
         14    1    1    2    0    0  0.21313118557E-01  0.52926677793E-02  0.88644933300E-02  0.23682073322E-01  0.00000000000E+00 0. -1.
     999901    1    3    3    0    0 -0.12600462189E+00  0.17054555973E-01 -0.76077415211E-01  0.89238769362E+00  0.88000000000E+00 0.  1.
        -11    1    4    4    0    0  0.60665333693E-01 -0.12245824430E-01  0.27550557475E-01  0.67746123625E-01  0.51100000000E-03 0. -1.
         11    1    4    4    0    0  0.44026169643E-01 -0.10101399322E-01  0.39662364405E-01  0.60114109433E-01  0.51100000000E-03 0.  1.
</event>
<event>
 8    1  0.1072332E+005  0.1043930E+01  0.7957747E-01            NaN
         13   -1    0    0    0    0  0.00000000000E+00  0.00000000000E+00  0.74505805969E-08  0.10566000000E+00  0.10566000000E+00 0. -1.
     999900   -1    0    0    0    0 -0.00000000000E+00 -0.00000000000E+00 -0.74505805969E-08  0.93827000000E+00  0.93827000000E+00 0.  1.
     999902    2    1    2    0    0  0.24775142897E-02  0.11008721382E-01 -0.23110276821E-01  0.10182120118E+01  0.10178871676E+01 0.  0.
     999903    2    3    3    0    0 -0.27901696081E-01 -0.52212722830E-01 -0.11437781150E+00  0.13071575245E+00  0.22352876895E-01 0.  0.
         14    1    1    2    0    0 -0.24775142897E-02 -0.11008721382E-01  0.23110276821E-01  0.25717988224E-01  0.00000000000E+00 0. -1.
     999901    1    3    3    0    0  0.30379210370E-01  0.63221444211E-01  0.91267534679E-01  0.88749625933E+00  0.88000000000E+00 0. -1.
        -11    1    4    4    0    0 -0.41195658902E-02 -0.26991210247E-01 -0.63771893858E-01  0.69372990572E-01  0.51100000000E-03 0. -1.
         11    1    4    4    0    0 -0.23782130190E-01 -0.25221512583E-01 -0.50605917643E-01  0.61342761878E-01  0.51100000000E-03 0.  1.
</event>
<event>
 8    1  0.1072332E+005  0.1043930E+01  0.7957747E-01            NaN
         13   -1    0    0    0    0  0.00000000000E+00  0.00000000000E+00  0.74505805969E-08  0.10566000000E+00  0.10566000000E+00 0.  1.
     999900   -1    0    0    0    0 -0.00000000000E+00 -0.00000000000E+00 -0.74505805969E-08  0.93827000000E+00  0.93827000000E+00 0.  1.
     999902    2    1    2    0    0  0.22482561015E-02 -0.23267031254E-01 -0.82023492020E-02  0.10191572744E+01  0.10188561538E+01 0.  0.
     999903    2    3    3    0    0 -0.14500917454E-01 -0.31665921080E-01 -0.12498770622E+00  0.13124404908E+00  0.19750102491E-01 0.  0.
         14    1    1    2    0    0 -0.22482561015E-02  0.23267031254E-01  0.82023492020E-02  0.24772725553E-01  0.00000000000E+00 0.  1.
     999901    1    3    3    0    0  0.16749173555E-01  0.83988898260E-02  0.11678535702E+00  0.88791322537E+00  0.88000000000E+00 0. -1.
        -11    1    4    4    0    0 -0.34776878742E-02 -0.14492748963E-01 -0.85514020856E-01  0.86804625277E-01  0.51100000000E-03 0.  1.
         11    1    4    4    0    0 -0.11023229579E-01 -0.17173172117E-01 -0.39473685364E-01  0.44439423805E-01  0.51100000000E-03 0. -1.
</event>
<event>
 8    1  0.1072332E+005  0.1043930E+01  0.7957747E-01            NaN
         13   -1    0    0    0    0  0.00000000000E+00  0.00000000000E+00  0.74505805969E-08  0.10566000000E+00  0.10566000000E+00 0.  1.
     999900   -1    0    0    0    0 -0.00000000000E+00 -0.00000000000E+00 -0.74505805969E-08  0.93827000000E+00  0.93827000000E+00 0. -1.
     999902    2    1    2    0    0 -0.73065719593E-02  0.10425154775E-01  0.21475973246E-01  0.10189642780E+01  0.10186583886E+01 0.  0.
     999903    2    3    3    0    0  0.99201936959E-01  0.37200851836E-01 -0.68224021496E-01  0.12761300639E+00  0.20140372809E-01 0.  0.
         14    1    1    2    0    0  0.73065719593E-02 -0.10425154775E-01 -0.21475973246E-01  0.24965721955E-01  0.00000000000E+00 0. -1.
     999901    1    3    3    0    0 -0.10650850892E+00 -0.26775697061E-01  0.89699994741E-01  0.89135127166E+00  0.88000000000E+00 0. -1.
        -11    1    4    4    0    0  0.51024707955E-01  0.27424922434E-01 -0.44368945827E-01  0.72969251518E-01  0.51100000000E-03 0.  1.
         11    1    4    4    0    0  0.48177229004E-01  0.97759294023E-02 -0.23855075669E-01  0.54643754871E-01  0.51100000000E-03 0. -1.
</event>
<event>
 8    1  0.1072332E+005  0.1043930E+01  0.7957747E-01            NaN
         13   -1    0    0    0    0  0.00000000000E+00  0.00000000000E+00  0.74505805969E-08  0.10566000000E+00  0.10566000000E+00 0.  1.
     999900   -1    0    0    0    0 -0.00000000000E+00 -0.00000000000E+00 -0.74505805969E-08  0.93827000000E+00  0.93827000000E+00 0.  1.
     999902    2    1    2    0    0  0.69567380727E-02  0.11985347861E-01  0.18556191829E-01  0.10207701852E+01  0.10205074198E+01 0.  0.
     999903    2    3    3    0    0 -0.76135000868E-01 -0.21915066888E-01  0.10389283373E+00  0.13209937004E+00  0.19486255446E-01 0.  0.
         14    1    1    2    0    0 -0.69567380727E-02 -0.11985347861E-01 -0.18556191829E-01  0.23159814834E-01  0.00000000000E+00 0. -1.
     999901    1    3    3    0    0  0.83091738941E-01  0.33900414749E-01 -0.85336641902E-01  0.88867081512E+00  0.88000000000E+00 0.  1.
        -11    1    4    4    0    0 -0.57163050827E-01 -0.24666043040E-01  0.82731604218E-01  0.10354133241E+00  0.51100000000E-03 0. -1.
         11    1    4    4    0    0 -0.18971950042E-01  0.27509761512E-02  0.21161229512E-01  0.28558037636E-01  0.51100000000E-03 0.  1.
</event>
<event>
 8    1  0.1072332E+005  0.1043930E+01  0.7957747E-01            NaN
         13   -1    0    0    0    0  0.00000000000E+00  0.00000000000E+00  0.74505805969E-08  0.10566000000E+00  0.10566000000E+00 0.  1.
     999900   -1    0    0    0    0 -0.00000000000E+00 -0.00000000000E+00 -0.74505805969E-08  0.93827000000E+00  0.93827000000E+00 0. -1.
     999902    2    1    2    0    0  0.59762246187E-02 -0.11521034891E-03 -0.22414274975E-01  0.10207324084E+01  0.10204687753E+01 0.  0.
     999903    2    3    3    0    0  0.16406201942E-01 -0.77302259080E-01 -0.10554581834E+00  0.13338947669E+00  0.20199752566E-01 0.  0.
         14    1    1    2    0    0 -0.59762246187E-02  0.11521034891E-03  0.22414274975E-01  0.23197591616E-01  0.00000000000E+00 0.  1.
     999901    1    3    3    0    0 -0.10429977324E-01  0.77187048731E-01  0.83131543360E-01  0.88734293169E+00  0.88000000000E+00 0.  1.
        -11    1    4    4    0    0  0.12094389371E-01 -0.48154395027E-01 -0.49743908851E-01  0.70283978284E-01  0.51100000000E-03 0.  1.
         11    1    4    4    0    0  0.43118125709E-02 -0.29147864052E-01 -0.55801909485E-01  0.63105498410E-01  0.51100000000E-03 0. -1.
</event>
<event>
 8    1  0.1072332E+005  0.1043930E+01  0.7957747E-01            NaN
         13   -1    0    0    0    0  0.00000000000E+00  0.00000000000E+00  0.74505805969E-08  0.10566000000E+00  0.10566000000E+00 0.  1.
     999900   -1    0    0    0    0 -0.00000000000E+00 -0.00000000000E+00 -0.74505805969E-08  0.93827000000E+00  0.93827000000E+00 0.  1.
     999902    2    1    2    0    0 -0.89795418147E-02 -0.21883323037E-01  0.42762480661E-02  0.10198925647E+01  0.10196092611E+01 0.  0.
     999903    2    3    3    0    0 -0.89890193569E-01  0.39595512270E-01 -0.82457296065E-01  0.12980892344E+00  0.20077336441E-01 0.  0.
         14    1    1    2    0    0  0.89795418147E-02  0.21883323037E-01 -0.42762480661E-02  0.24037435301E-01  0.00000000000E+00 0. -1.
     999901    1    3    3    0    0  0.80910651754E-01 -0.61478835307E-01  0.86733544132E-01  0.89008364126E+00  0.88000000000E+00 0. -1.
        -11    1    4    4    0    0 -0.50975026379E-01  0.25061629890E-01 -0.34933936278E-01  0.66687177418E-01  0.51100000000E-03 0.  1.
         11    1    4    4    0    0 -0.38915167190E-01  0.14533882380E-01 -0.47523359787E-01  0.63121746022E-01  0.51100000000E-03 0. -1.
</event>
<event>
 8    1  0.1072332E+005  0.1043930E+01  0.7957747E-01            NaN
         13   -1    0    0    0    0  0.00000000000E+00  0.00000000000E+00  0.74505805969E-08  0.10566000000E+00  0.10566000000E+00 0.  1.
     999900   -1    0    0    0    0 -0.00000000000E+00 -0.00000000000E+00 -0.74505805969E-08  0.93827000000E+00  0.93827000000E+00 0. -1.
     999902    2    1    2    0    0 -0.20692810930E-01  0.40373801191E-02 -0.58047916461E-02  0.10220624791E+01  0.10218285193E+01 0.  0.
     999903    2    3    3    0    0 -0.83190576908E-01  0.32503288383E-01  0.97232564253E-01  0.13339326318E+00  0.19038258031E-01 0.  0.
         14    1    1    2    0    0  0.20692810930E-01 -0.40373801191E-02  0.58047916461E-02  0.21867520858E-01  0.00000000000E+00 0.  1.
     999901    1    3    3    0    0  0.62497765979E-01 -0.28465908264E-01 -0.10303735590E+00  0.88866921596E+00  0.88000000000E+00 0. -1.
        -11    1    4    4    0    0 -0.63048412376E-04  0.14148561440E-02  0.57083749342E-02  0.59035970730E-02  0.51100000000E-03 0. -1.
         11    1    4    4    0    0 -0.83127528496E-01  0.31088432239E-01  0.91524189319E-01  0.12748966611E+00  0.51100000000E-03 0.  1.
</event>
<event>
 8    1  0.1072332E+005  0.1043930E+01  0.7957747E-01            NaN
         13   -1    0    0    0    0  0.00000000000E+00  0.00000000000E+00  0.74505805969E-08  0.10566000000E+00  0.10566000000E+00 0. -1.
     999900   -1    0    0    0    0 -0.00000000000E+00 -0.00000000000E+00 -0.74505805969E-08  0.93827000000E+00  0.93827000000E+00 0.  1.
     999902    2    1    2    0    0  0.23775699273E-02  0.16979499744E-01 -0.15674875241E-01  0.10206994605E+01  0.10204350693E+01 0.  0.
     999903    2    3    3    0    0 -0.86104508946E-01  0.74682338187E-01  0.61197915948E-01  0.13105451906E+00  0.20944305984E-01 0.  0.
         14    1    1    2    0    0 -0.23775699273E-02 -0.16979499744E-01  0.15674875241E-01  0.23230539472E-01  0.00000000000E+00 0.  1.
     999901    1    3    3    0    0  0.88482078873E-01 -0.57702838442E-01 -0.76872791190E-01  0.88964494146E+00  0.88000000000E+00 0.  1.
        -11    1    4    4    0    0 -0.19097995281E-01  0.17896621871E-01  0.46382963270E-02  0.26585661774E-01  0.51100000000E-03 0. -1.
         11    1    4    4    0    0 -0.67006513665E-01  0.56785716316E-01  0.56559619621E-01  0.10446885729E+00  0.51100000000E-03 0.  1.
</event>
<event>
 8    1  0.1072332E+005  0.1043930E+01  0.7957747E-01            NaN
         13   -1    0    0    0    0  0.00000000000E+00  0.00000000000E+00  0.74505805969E-08  0.10566000000E+00  0.10566000000E+00 0.  1.
     999900   -1    0    0    0    0 -0.00000000000E+00 -0.00000000000E+00 -0.74505805969E-08  0.93827000000E+00  0.93827000000E+00 0.  1.
     999902    2    1    2    0    0  0.22205504462E-01 -0.49504502278E-02  0.79618999204E-02  0.10198264062E+01  0.10195415222E+01 0.  0.
     999903    2    3    3    0    0  0.11504695535E+00 -0.13791681851E-02  0.63683712381E-01  0.13318261667E+00  0.21078190609E-01 0.  0.
         14    1    1    2    0    0 -0.22205504462E-01  0.49504502278E-02 -0.79618999204E-02  0.24103593844E-01  0.00000000000E+00 0. -1.
     999901    1    3    3    0    0 -0.92841450887E-01 -0.35712820427E-02 -0.55721812460E-01  0.88664378949E+00  0.88000000000E+00 0. -1.
        -11    1    4    4    0    0  0.65047028924E-01 -0.79044713071E-02  0.44601564893E-01  0.79266369605E-01  0.51100000000E-03 0.  1.
         11    1    4    4    0    0  0.49999926425E-01  0.65253031220E-02  0.19082147488E-01  0.53916247060E-01  0.51100000000E-03 0. -1.
</event>
<event>
 7    1  0.1072332E+005  0.1043930E+01  0.7957747E-01            NaN
         13   -1    0    0    0    0  0.00000000000E+00  0.00000000000E+00  0.74505805969E-08  0.10566000000E+00  0.10566000000E+00 0. -1.
     999900   -1    0    0    0    0 -0.00000000000E+00 -0.00000000000E+00 -0.74505805969E-08  0.93827000000E+00  0.93827000000E+00 0.  1.
     999903    2    1    2    0    0 -0.10035366378E+00 -0.34785318365E-01  0.11841937462E-01  0.10878931455E+00  0.20347168564E-01 0.  0.
         14    1    1    2    0    0 -0.13234946663E-01 -0.40570436841E-01  0.11990324703E-01  0.44327102828E-01  0.00000000000E+00 0. -1.
     999901    1    1    2    0    0  0.11358861045E+00  0.75355755206E-01 -0.23832262166E-01  0.89081358262E+00  0.88000000000E+00 0.  1.
        -11    1    3    3    0    0 -0.27067140365E-01 -0.33624501107E-03  0.48725586017E-02  0.27509018459E-01  0.51100000000E-03 0. -1.
         11    1    3    3    0    0 -0.73286523418E-01 -0.34449073354E-01  0.69693788606E-02  0.81280296090E-01  0.51100000000E-03 0.  1.
</event>
<event>
 8    1  0.1072332E+005  0.1043930E+01  0.7957747E-01            NaN
         13   -1    0    0    0    0  0.00000000000E+00  0.00000000000E+00  0.74505805969E-08  0.10566000000E+00  0.10566000000E+00 0. -1.
     999900   -1    0    0    0    0 -0.00000000000E+00 -0.00000000000E+00 -0.74505805969E-08  0.93827000000E+00  0.93827000000E+00 0. -1.
     999902    2    1    2    0    0  0.11785079428E-01  0.11305762996E-01 -0.17350504396E-01  0.10201025289E+01  0.10198242109E+01 0.  0.
     999903    2    3    3    0    0 -0.59054278489E-01  0.19295556087E-06 -0.11585898175E+00  0.13170512313E+00  0.20869307617E-01 0.  0.
         14    1    1    2    0    0 -0.11785079428E-01 -0.11305762996E-01  0.17350504396E-01  0.23827471055E-01  0.00000000000E+00 0. -1.
     999901    1    3    3    0    0  0.70839357917E-01  0.11305570041E-01  0.98508477350E-01  0.88839740581E+00  0.88000000000E+00 0.  1.
        -11    1    4    4    0    0 -0.24114961816E-01 -0.10231821675E-01 -0.46759824779E-01  0.53600036311E-01  0.51100000000E-03 0.  1.
         11    1    4    4    0    0 -0.34939316673E-01  0.10232014630E-01 -0.69099156966E-01  0.78105086822E-01  0.51100000000E-03 0. -1.
</event>
<event>
 8    1  0.1072332E+005  0.1043930E+01  0.7957747E-01            NaN
         13   -1    0    0    0    0  0.00000000000E+00  0.00000000000E+00  0.74505805969E-08  0.10566000000E+00  0.10566000000E+00 0. -1.
     999900   -1    0    0    0    0 -0.00000000000E+00 -0.00000000000E+00 -0.74505805969E-08  0.93827000000E+00  0.93827000000E+00 0.  1.
     999902    2    1    2    0    0 -0.23119453033E-01 -0.73336715982E-02  0.35306626263E-02  0.10194196466E+01  0.10191249474E+01 0.  0.
     999903    2    3    3    0    0  0.86352176998E-01  0.48371167622E-01 -0.77157426094E-01  0.12723265127E+00  0.20938262036E-01 0.  0.
         14    1    1    2    0    0  0.23119453033E-01  0.73336715982E-02 -0.35306626263E-02  0.24510353449E-01  0.00000000000E+00 0.  1.
     999901    1    3    3    0    0 -0.10947163003E+00 -0.55704839220E-01  0.80688088721E-01  0.89218699528E+00  0.88000000000E+00 0.  1.
        -11    1    4    4    0    0  0.18453160927E-01  0.19902870877E-01 -0.15939119601E-01  0.31479518294E-01  0.51100000000E-03 0. -1.
         11    1    4    4    0    0  0.67899016072E-01  0.28468296745E-01 -0.61218306493E-01  0.95753132972E-01  0.51100000000E-03 0.  1.
</event>
<event>
 8    1  0.1072332E+005  0.1043930E+01  0.7957747E-01            NaN
         13   -1    0    0    0    0  0.00000000000E+00  0.00000000000E+00  0.74505805969E-08  0.10566000000E+00  0.10566000000E+00 0. -1.
     999900   -1    0    0    0    0 -0.00000000000E+00 -0.00000000000E+00 -0.74505805969E-08  0.93827000000E+00  0.93827000000E+00 0.  1.
     999902    2    1    2    0    0  0.86285486540E-02  0.17334984530E-01  0.13685534579E-01  0.10202182435E+01  0.10199426537E+01 0.  0.
     999903    2    3    3    0    0 -0.85009253245E-01 -0.88840961083E-01 -0.30718138826E-01  0.12779846805E+00  0.16418126538E-01 0.  0.
         14    1    1    2    0    0 -0.86285486540E-02 -0.17334984530E-01 -0.13685534579E-01  0.23711756519E-01  0.00000000000E+00 0.  1.
     999901    1    3    3    0    0  0.93637801899E-01  0.10617594561E+00  0.44403673405E-01  0.89241977543E+00  0.88000000000E+00 0. -1.
        -11    1    4    4    0    0 -0.53731905798E-01 -0.66347959883E-01 -0.18294717898E-01  0.87316248805E-01  0.51100000000E-03 0. -1.
         11    1    4    4    0    0 -0.31277347447E-01 -0.22493001200E-01 -0.12423420928E-01  0.40482219244E-01  0.51100000000E-03 0.  1.
</event>
<event>
 8    1  0.1072332E+005  0.1043930E+01  0.7957747E-01            NaN
         13   -1    0    0    0    0  0.00000000000E+00  0.00000000000E+00  0.74505805969E-08  0.10566000000E+00  0.10566000000E+00 0.  1.
     999900   -1    0    0    0    0 -0.00000000000E+00 -0.00000000000E+00 -0.74505805969E-08  0.93827000000E+00  0.93827000000E+00 0. -1.
     999902    2    1    2    0    0 -0.55715662337E-02  0.22103403643E-01  0.12385492260E-02  0.10211015790E+01  0.10208463634E+01 0.  0.
     999903    2    3    3    0    0 -0.52642892589E-01 -0.61675842218E-01  0.10024599088E+00  0.13035069050E+00  0.19153594228E-01 0.  0.
         14    1    1    2    0    0  0.55715662337E-02 -0.22103403643E-01 -0.12385492260E-02  0.22828421038E-01  0.00000000000E+00 0.  1.
     999901    1    3    3    0    0  0.47071326356E-01  0.83779245861E-01 -0.99007441653E-01  0.89075088847E+00  0.88000000000E+00 0. -1.
        -11    1    4    4    0    0 -0.41696210259E-01 -0.41559935675E-01  0.82605314445E-01  0.10143816490E+00  0.51100000000E-03 0.  1.
         11    1    4    4    0    0 -0.10946682330E-01 -0.20115906544E-01  0.17640676434E-01  0.28912525593E-01  0.51100000000E-03 0. -1.
</event>
<event>
 8    1  0.1072332E+005  0.1043930E+01  0.7957747E-01            NaN
         13   -1    0    0    0    0  0.00000000000E+00  0.00000000000E+00  0.74505805969E-08  0.10566000000E+00  0.10566000000E+00 0. -1.
     999900   -1    0    0    0    0 -0.00000000000E+00 -0.00000000000E+00 -0.74505805969E-08  0.93827000000E+00  0.93827000000E+00 0.  1.
     999902    2    1    2    0    0  0.19118102919E-01  0.14105119055E-03  0.14840276447E-01  0.10197276125E+01  0.10194403603E+01 0.  0.
     999903    2    3    3    0    0  0.62668790868E-02 -0.12530390745E+00 -0.27064907685E-01  0.12975141281E+00  0.19041452164E-01 0.  0.
         14    1    1    2    0    0 -0.19118102919E-01 -0.14105119055E-03 -0.14840276447E-01  0.24202387479E-01  0.00000000000E+00 0.  1.
     999901    1    3    3    0    0  0.12851223832E-01  0.12544495864E+00  0.41905184132E-01  0.88997619972E+00  0.88000000000E+00 0.  1.
        -11    1    4    4    0    0  0.12223318011E-01 -0.72491479087E-01 -0.11838477199E-01  0.74463646881E-01  0.51100000000E-03 0.  1.
         11    1    4    4    0    0 -0.59564389244E-02 -0.52812428366E-01 -0.15226430486E-01  0.55287765924E-01  0.51100000000E-03 0. -1.
</event>
<event>
 8    1  0.1072332E+005  0.1043930E+01  0.7957747E-01            NaN
         13   -1    0    0    0    0  0.00000000000E+00  0.00000000000E+00  0.74505805969E-08  0.10566000000E+00  0.10566000000E+00 0.  1.
     999900   -1    0    0    0    0 -0.00000000000E+00 -0.00000000000E+00 -0.74505805969E-08  0.93827000000E+00  0.93827000000E+00 0.  1.
     999902    2    1    2    0    0 -0.19010340697E-02 -0.10098386621E-01  0.20908333750E-01  0.10206330096E+01  0.10203670861E+01 0.  0.
     999903    2    3    3    0    0 -0.17622950006E-01  0.33584294953E-01 -0.12069258806E+00  0.12810504005E+00  0.20142672126E-01 0.  0.
         14    1    1    2    0    0  0.19010340697E-02  0.10098386621E-01 -0.20908333750E-01  0.23296990430E-01  0.00000000000E+00 0. -1.
     999901    1    3    3    0    0  0.15721915937E-01 -0.43682681574E-01  0.14160092181E+00  0.89252796952E+00  0.88000000000E+00 0. -1.
        -11    1    4    4    0    0 -0.18959954718E-01  0.23691311948E-01 -0.10654134414E+00  0.11077940818E+00  0.51100000000E-03 0. -1.
         11    1    4    4    0    0  0.13370047113E-02  0.98929830054E-02 -0.14151243919E-01  0.17325631873E-01  0.51100000000E-03 0.  1.
</event>
<event>
 8    1  0.1072332E+005  0.1043930E+01  0.7957747E-01            NaN
         13   -1    0    0    0    0  0.00000000000E+00  0.00000000000E+00  0.74505805969E-08  0.10566000000E+00  0.10566000000E+00 0. -1.
     999900   -1    0    0    0    0 -0.00000000000E+00 -0.00000000000E+00 -0.74505805969E-08  0.93827000000E+00  0.93827000000E+00 0. -1.
     999902    2    1    2    0    0  0.15402184806E-01  0.16671481311E-01 -0.15408495239E-03  0.10212322176E+01  0.10209799473E+01 0.  0.
     999903    2    3    3    0    0  0.72000619149E-01  0.11147303210E+00  0.63745433909E-02  0.13430869222E+00  0.19694262088E-01 0.  0.
         14    1    1    2    0    0 -0.15402184806E-01 -0.16671481311E-01  0.15408495239E-03  0.22697782448E-01  0.00000000000E+00 0. -1.
     999901    1    3    3    0    0 -0.56598434343E-01 -0.94801550787E-01 -0.65286283433E-02  0.88692352533E+00  0.88000000000E+00 0.  1.
        -11    1    4    4    0    0  0.46536479464E-01  0.79098030394E-01  0.12648285925E-01  0.92641149556E-01  0.51100000000E-03 0. -1.
         11    1    4    4    0    0  0.25464139685E-01  0.32375001703E-01 -0.62737425340E-02  0.41667542663E-01  0.51100000000E-03 0.  1.
</event>
<event>
 8    1  0.1072332E+005  0.1043930E+01  0.7957747E-01            NaN
         13   -1    0    0    0    0  0.00000000000E+00  0.00000000000E+00  0.74505805969E-08  0.10566000000E+00  0.10566000000E+00 0. -1.
     999900   -1    0    0    0    0 -0.00000000000E+00 -0.00000000000E+00 -0.74505805969E-08  0.93827000000E+00  0.93827000000E+00 0.  1.
     999902    2    1    2    0    0 -0.37000470508E-02  0.21046637753E-02 -0.23893987161E-01  0.10196598006E+01  0.10193709170E+01 0.  0.
     999903    2    3    3    0    0 -0.10823156094E+00  0.70224359642E-01 -0.42199646458E-02  0.13064112950E+00  0.20093908118E-01 0.  0.
         14    1    1    2    0    0  0.37000470508E-02 -0.21046637753E-02  0.23893987161E-01  0.24270199427E-01  0.00000000000E+00 0. -1.
     999901    1    3    3    0    0  0.10453151389E+00 -0.68119695867E-01 -0.19674022515E-01  0.88901867108E+00  0.88000000000E+00 0.  1.
        -11    1    4    4    0    0 -0.85669080401E-01  0.57892254461E-01 -0.11175468175E-01  0.10399931093E+00  0.51100000000E-03 0.  1.
         11    1    4    4    0    0 -0.22562480541E-01  0.12332105181E-01  0.69555035289E-02  0.26641818569E-01  0.51100000000E-03 0. -1.
</event>
<event>
 8    1  0.1072332E+005  0.1043930E+01  0.7957747E-01            NaN
         13   -1    0    0    0    0  0.00000000000E+00  0.00000000000E+00  0.74505805969E-08  0.10566000000E+00  0.10566000000E+00 0.  1.
     999900   -1    0    0    0    0 -0.00000000000E+00 -0.00000000000E+00 -0.74505805969E-08  0.93827000000E+00  0.93827000000E+00 0.  1.
     999902    2    1    2    0    0 -0.58968420905E-02 -0.15551010919E-01  0.16021671086E-01  0.10208366973E+01  0.10205754562E+01 0.  0.
     999903    2    3    3    0    0  0.38630969234E-01 -0.69017526041E-02 -0.12157966357E+00  0.12898936562E+00  0.17794827234E-01 0.  0.
         14    1    1    2    0    0  0.58968420905E-02  0.15551010919E-01 -0.16021671086E-01  0.23093302744E-01  0.00000000000E+00 0.  1.
     999901    1    3    3    0    0 -0.44527811325E-01 -0.86492583153E-02  0.13760133465E+00  0.89184733164E+00  0.88000000000E+00 0. -1.
        -11    1    4    4    0    0  0.41767642530E-02  0.31711544330E-02 -0.32888823931E-01  0.33308218815E-01  0.51100000000E-03 0. -1.
         11    1    4    4    0    0  0.34454204981E-01 -0.10072907037E-01 -0.88690839637E-01  0.95681146804E-01  0.51100000000E-03 0.  1.
</event>
<event>
 8    1  0.1072332E+005  0.1043930E+01  0.7957747E-01            NaN
         13   -1    0    0    0    0  0.00000000000E+00  0.00000000000E+00  0.74505805969E-08  0.10566000000E+00  0.10566000000E+00 0.  1.
     999900   -1    0    0    0    0 -0.00000000000E+00 -0.00000000000E+00 -0.74505805969E-08  0.93827000000E+00  0.93827000000E+00 0.  1.
     999902    2    1    2    0    0  0.48171428629E-02 -0.20083793251E-01  0.12490935957E-01  0.10197931589E+01  0.10195074791E+01 0.  0.
     999903    2    3    3    0    0  0.10410592012E+00  0.29713061605E-01  0.70728306768E-01  0.13090082606E+00  0.20288525093E-01 0.  0.
         14    1    1    2    0    0 -0.48171428629E-02  0.20083793251E-01 -0.12490935957E-01  0.24136841090E-01  0.00000000000E+00 0. -1.
     999901    1    3    3    0    0 -0.99288777257E-01 -0.49796854857E-01 -0.58237370811E-01  0.88889233285E+00  0.88000000000E+00 0.  1.
        -11    1    4    4    0    0  0.26188527215E-01 -0.13620016435E-02  0.18197802146E-01  0.31923582664E-01  0.51100000000E-03 0.  1.
         11    1    4    4    0    0  0.77917392905E-01  0.31075063249E-01  0.52530504622E-01  0.98977243394E-01  0.51100000000E-03 0. -1.
</event>
<event>
 8    1  0.1072332E+005  0.1043930E+01  0.7957747E-01            NaN
         13   -1    0    0    0    0  0.00000000000E+00  0.00000000000E+00  0.74505805969E-08  0.10566000000E+00  0.10566000000E+00 0. -1.
     999900   -1    0    0    0    0 -0.00000000000E+00 -0.00000000000E+00 -0.74505805969E-08  0.93827000000E+00  0.93827000000E+00 0. -1.
     999902    2    1    2    0    0 -0.16518635761E-01 -0.54715517540E-02 -0.15772280871E-01  0.10204445141E+01  0.10201742195E+01 0.  0.
     999903    2    3    3    0    0 -0.11574450806E+00 -0.32582958906E-01 -0.54901362434E-01  0.13358945986E+00  0.19327282054E-01 0.  0.
         14    1    1    2    0    0  0.16518635761E-01  0.54715517540E-02  0.15772280871E-01  0.23485485941E-01  0.00000000000E+00 0.  1.
     999901    1    3    3    0    0  0.99225872300E-01  0.27111407152E-01  0.39129081563E-01  0.88685505420E+00  0.88000000000E+00 0.  1.
        -11    1    4    4    0    0 -0.86223938842E-01 -0.16624338616E-01 -0.34727096169E-01  0.94430760841E-01  0.51100000000E-03 0. -1.
         11    1    4    4    0    0 -0.29520569220E-01 -0.15958620290E-01 -0.20174266265E-01  0.39158699020E-01  0.51100000000E-03 0.  1.
</event>
<event>
 8    1  0.1072332E+005  0.1043930E+01  0.7957747E-01            NaN
         13   -1    0    0    0    0  0.00000000000E+00  0.00000000000E+00  0.74505805969E-08  0.10566000000E+00  0.10566000000E+00 0.  1.
     999900   -1    0    0    0    0 -0.00000000000E+00 -0.00000000000E+00 -0.74505805969E-08  0.93827000000E+00  0.93827000000E+00 0. -1.
     999902    2    1    2    0    0 -0.20805153809E-01 -0.99756619985E-03  0.13443500773E-01  0.10191393309E+01  0.10188377685E+01 0.  0.
     999903    2    3    3    0    0 -0.27572817072E-01  0.12537477214E+00  0.66982770435E-02  0.13006044392E+00  0.19792888265E-01 0.  0.
         14    1    1    2    0    0  0.20805153809E-01  0.99756619985E-03 -0.13443500773E-01  0.24790669139E-01  0.00000000000E+00 0. -1.
     999901    1    3    3    0    0  0.67676632628E-02 -0.12637233834E+00  0.67452237297E-02  0.88907888694E+00  0.88000000000E+00 0. -1.
        -11    1    4    4    0    0 -0.11331092471E-01  0.82395557594E-01  0.11062692560E-01  0.83905100295E-01  0.51100000000E-03 0. -1.
         11    1    4    4    0    0 -0.16241724601E-01  0.42979214548E-01 -0.43644155165E-02  0.46155343623E-01  0.51100000000E-03 0.  1.
</event>
<event>
 8    1  0.1072332E+005  0.1043930E+01  0.7957747E-01            NaN
         13   -1    0    0    0    0  0.00000000000E+00  0.00000000000E+00  0.74505805969E-08  0.10566000000E+00  0.10566000000E+00 0. -1.
     999900   -1    0    0    0    0 -0.00000000000E+00 -0.00000000000E+00 -0.74505805969E-08  0.93827000000E+00  0.93827000000E+00 0. -1.
     999902    2    1    2    0    0  0.91876759087E-02 -0.18430283564E-01  0.13238417627E-01  0.10194484877E+01  0.10191544901E+01 0.  0.
     999903    2    3    3    0    0  0.87048183766E-01 -0.25199280657E-01  0.93709912762E-01  0.13232744779E+00  0.22729180511E-01 0.  0.
         14    1    1    2    0    0 -0.91876759087E-02  0.18430283564E-01 -0.13238417627E-01  0.24481512251E-01  0.00000000000E+00 0. -1.
     999901    1    3    3    0    0 -0.77860507857E-01  0.67689970931E-02 -0.80471495135E-01  0.88712103996E+00  0.88000000000E+00 0. -1.
        -11    1    4    4    0    0  0.28246288010E-01 -0.16780025802E-01  0.23714173281E-01  0.40522156750E-01  0.51100000000E-03 0.  1.
         11    1    4    4    0    0  0.58801895756E-01 -0.84192548544E-02  0.69995739481E-01  0.91805291042E-01  0.51100000000E-03 0. -1.
</event>
<event>
 7    1  0.1072332E+005  0.1043930E+01  0.7957747E-01            NaN
         13   -1    0    0    0    0  0.00000000000E+00  0.00000000000E+00  0.74505805969E-08  0.10566000000E+00  0.10566000000E+00 0. -1.
     999900   -1    0    0    0    0 -0.00000000000E+00 -0.00000000000E+00 -0.74505805969E-08  0.93827000000E+00  0.93827000000E+00 0.  1.
     999902    2    1    2    0    0 -0.18221066990E-01  0.62922430609E-03 -0.14903064031E-01  0.10203820803E+01  0.10201103299E+01 0.  0.
         14    1    1    2    0    0  0.18221066990E-01 -0.62922430609E-03  0.14903064031E-01  0.23547919717E-01  0.00000000000E+00 0. -1.
     999901    1    3    3    0    0  0.33377748034E-01  0.10530773541E+00 -0.12714894741E-01  0.88699800549E+00  0.88000000000E+00 0. -1.
        -11    1    3    3    0    0 -0.19488786466E-01 -0.44428720008E-02  0.17180325108E-01  0.26362408869E-01  0.51100000000E-03 0.  1.
         11    1    3    3    0    0 -0.32110028557E-01 -0.10023563910E+00 -0.19368494398E-01  0.10702166592E+00  0.51100000000E-03 0. -1.
</event>
<event>
 8    1  0.1072332E+005  0.1043930E+01  0.7957747E-01            NaN
         13   -1    0    0    0    0  0.00000000000E+00  0.00000000000E+00  0.74505805969E-08  0.10566000000E+00  0.10566000000E+00 0.  1.
     999900   -1    0    0    0    0 -0.00000000000E+00 -0.00000000000E+00 -0.74505805969E-08  0.93827000000E+00  0.93827000000E+00 0. -1.
     999902    2    1    2    0    0 -0.12979152435E-02 -0.14518940698E-01 -0.16634754462E-01  0.10218121502E+01  0.10215727439E+01 0.  0.
     999903    2    3    3    0    0  0.11452159139E+00  0.28231097633E-01 -0.56974717389E-01  0.13227910614E+00  0.18424270178E-01 0.  0.
         14    1    1    2    0    0  0.12979152435E-02  0.14518940698E-01  0.16634754462E-01  0.22117849782E-01  0.00000000000E+00 0.  1.
     999901    1    3    3    0    0 -0.11581950664E+00 -0.42750038331E-01  0.40339962928E-01  0.88953304408E+00  0.88000000000E+00 0.  1.
        -11    1    4    4    0    0  0.83310937376E-01  0.14464792728E-01 -0.33944864299E-01  0.91117821793E-01  0.51100000000E-03 0.  1.
         11    1    4    4    0    0  0.31210654016E-01  0.13766304905E-01 -0.23029853090E-01  0.41161284349E-01  0.51100000000E-03 0. -1.
</event>
<event>
 8    1  0.1072332E+005  0.1043930E+01  0.7957747E-01            NaN
         13   -1    0    0    0    0  0.00000000000E+00  0.00000000000E+00  0.74505805969E-08  0.10566000000E+00  0.10566000000E+00 0.  1.
     999900   -1    0    0    0    0 -0.00000000000E+00 -0.00000000000E+00 -0.74505805969E-08  0.93827000000E+00  0.93827000000E+00 0. -1.
     999902    2    1    2    0    0 -0.17490257129E-01 -0.85400570222E-02  0.13495499955E-01  0.10202451908E+01  0.10199702344E+01 0.  0.
     999903    2    3    3    0    0 -0.11027760509E+00  0.64302128204E-01  0.28022779655E-01  0.13225503445E+00  0.20253495561E-01 0.  0.
         14    1    1    2    0    0  0.17490257129E-01  0.85400570222E-02 -0.13495499955E-01  0.23684809212E-01  0.00000000000E+00 0. -1.
     999901    1    3    3    0    0  0.92787347963E-01 -0.72842185227E-01 -0.14527279700E-01  0.88799015633E+00  0.88000000000E+00 0.  1.
        -11    1    4    4    0    0 -0.87748367332E-01  0.51249970279E-01  0.13714376954E-01  0.10254111702E+00  0.51100000000E-03 0.  1.
         11    1    4    4    0    0 -0.22529237760E-01  0.13052157925E-01  0.14308402701E-01  0.29713917436E-01  0.51100000000E-03 0. -1.
</event>
<event>
 8    1  0.1072332E+005  0.1043930E+01  0.7957747E-01            NaN
         13   -1    0    0    0    0  0.00000000000E+00  0.00000000000E+00  0.74505805969E-08  0.10566000000E+00  0.10566000000E+00 0. -1.
     999900   -1    0    0    0    0 -0.00000000000E+00 -0.00000000000E+00 -0.74505805969E-08  0.93827000000E+00  0.93827000000E+00 0.  1.
     999902    2    1    2    0    0 -0.22597285581E-01  0.23810070222E-02  0.67732641614E-02  0.10202195884E+01  0.10199440303E+01 0.  0.
     999903    2    3    3    0    0  0.27418149140E-01  0.12404400969E+00 -0.15923257807E-01  0.13015298302E+00  0.23400376215E-01 0.  0.
         14    1    1    2    0    0  0.22597285581E-01 -0.23810070222E-02 -0.67732641614E-02  0.23710411583E-01  0.00000000000E+00 0.  1.
     999901    1    3    3    0    0 -0.50015434721E-01 -0.12166300267E+00  0.22696521968E-01  0.89006660539E+00  0.88000000000E+00 0. -1.
        -11    1    4    4    0    0  0.18551710414E-01  0.10079255431E+00 -0.40262572713E-02  0.10256596332E+00  0.51100000000E-03 0.  1.
         11    1    4    4    0    0  0.88664387267E-02  0.23251455386E-01 -0.11897000536E-01  0.27587019702E-01  0.51100000000E-03 0. -1.
</event>
<event>
 8    1  0.1072332E+005  0.1043930E+01  0.7957747E-01            NaN
         13   -1    0    0    0    0  0.00000000000E+00  0.00000000000E+00  0.74505805969E-08  0.10566000000E+00  0.10566000000E+00 0.  1.
     999900   -1    0    0    0    0 -0.00000000000E+00 -0.00000000000E+00 -0.74505805969E-08  0.93827000000E+00  0.93827000000E+00 0.  1.
     999902    2    1    2    0    0  0.42533812085E-02  0.51916510181E-02  0.14385205629E-01  0.10280561651E+01  0.10279336068E+01 0.  0.
     999903    2    3    3    0    0 -0.92484961892E-01 -0.56993674695E-01  0.81948498711E-01  0.13800553719E+00  0.22983139939E-01 0.  0.
         14    1    1    2    0    0 -0.42533812085E-02 -0.51916510181E-02 -0.14385205629E-01  0.15873834854E-01  0.00000000000E+00 0. -1.
     999901    1    3    3    0    0  0.96738343101E-01  0.62185325713E-01 -0.67563293082E-01  0.89005062796E+00  0.88000000000E+00 0.  1.
        -11    1    4    4    0    0 -0.40016926554E-01 -0.37790718945E-01  0.37419100539E-01  0.66557817387E-01  0.51100000000E-03 0.  1.
         11    1    4    4    0    0 -0.52468035339E-01 -0.19202955750E-01  0.44529398172E-01  0.71447719798E-01  0.51100000000E-03 0. -1.
</event>
<event>
 8    1  0.1072332E+005  0.1043930E+01  0.7957747E-01            NaN
         13   -1    0    0    0    0  0.00000000000E+00  0.00000000000E+00  0.74505805969E-08  0.10566000000E+00  0.10566000000E+00 0. -1.
     999900   -1    0    0    0    0 -0.00000000000E+00 -0.00000000000E+00 -0.74505805969E-08  0.93827000000E+00  0.93827000000E+00 0. -1.
     999902    2    1    2    0    0  0.16374472596E-01  0.94832112921E-02  0.13921427445E-01  0.10204382825E+01  0.10201678429E+01 0.  0.
     999903    2    3    3    0    0  0.93918592068E-01  0.57502251890E-01 -0.69639082882E-01  0.13178690113E+00  0.19773076021E-01 0.  0.
         14    1    1    2    0    0 -0.16374472596E-01 -0.94832112921E-02 -0.13921427445E-01  0.23491717504E-01  0.00000000000E+00 0. -1.
     999901    1    3    3    0    0 -0.77544119472E-01 -0.48019040597E-01  0.83560510326E-01  0.88865138137E+00  0.88000000000E+00 0.  1.
        -11    1    4    4    0    0  0.82366711432E-01  0.55146338579E-01 -0.67146001999E-01  0.11972568862E+00  0.51100000000E-03 0.  1.
         11    1    4    4    0    0  0.11551880636E-01  0.23559133108E-02 -0.24930808826E-02  0.12061212503E-01  0.51100000000E-03 0. -1.
</event>
<event>
 7    1  0.1072332E+005  0.1043930E+01  0.7957747E-01            NaN
         13   -1    0    0    0    0  0.00000000000E+00  0.00000000000E+00  0.74505805969E-08  0.10566000000E+00  0.10566000000E+00 0. -1.
     999900   -1    0    0    0    0 -0.00000000000E+00 -0.00000000000E+00 -0.74505805969E-08  0.93827000000E+00  0.93827000000E+00 0. -1.
     999902    2    1    2    0    0  0.23801909118E-02  0.24648234472E-01 -0.33688255588E-02  0.10189390065E+01  0.10186324897E+01 0.  0.
         14    1    1    2    0    0 -0.23801909118E-02 -0.24648234472E-01  0.33688255588E-02  0.24990993518E-01  0.00000000000E+00 0.  1.
     999901    1    3    3    0    0  0.58923894090E-01  0.72497696616E-01 -0.97008163909E-01  0.89024632837E+00  0.88000000000E+00 0.  1.
        -11    1    3    3    0    0 -0.52414057812E-02 -0.22236740476E-01  0.54967220607E-01  0.59528156563E-01  0.51100000000E-03 0.  1.
         11    1    3    3    0    0 -0.51302297397E-01 -0.25612721667E-01  0.38672117743E-01  0.69164521549E-01  0.51100000000E-03 0. -1.
</event>
<event>
 8    1  0.1072332E+005  0.1043930E+01  0.7957747E-01            NaN
         13   -1    0    0    0    0  0.00000000000E+00  0.00000000000E+00  0.74505805969E-08  0.10566000000E+00  0.10566000000E+00 0. -1.
     999900   -1    0    0    0    0 -0.00000000000E+00 -0.00000000000E+00 -0.74505805969E-08  0.93827000000E+00  0.93827000000E+00 0. -1.
     999902    2    1    2    0    0 -0.14140092242E-01 -0.16274342448E-01 -0.70187601132E-02  0.10212571214E+01  0.10210054106E+01 0.  0.
     999903    2    3    3    0    0  0.44698696551E-01  0.12231006787E-01 -0.12138699123E+00  0.13145115924E+00  0.19925727729E-01 0.  0.
         14    1    1    2    0    0  0.14140092242E-01  0.16274342448E-01  0.70187601132E-02  0.22672878605E-01  0.00000000000E+00 0. -1.
     999901    1    3    3    0    0 -0.58838788793E-01 -0.28505349235E-01  0.11436823111E+00  0.88980596216E+00  0.88000000000E+00 0.  1.
        -11    1    4    4    0    0  0.30918090715E-02  0.53265044246E-02 -0.32271053664E-01  0.32857464271E-01  0.51100000000E-03 0. -1.
         11    1    4    4    0    0  0.41606887479E-01  0.69045023628E-02 -0.89115937563E-01  0.98593694967E-01  0.51100000000E-03 0.  1.
</event>
<event>
 8    1  0.1072332E+005  0.1043930E+01  0.7957747E-01            NaN
         13   -1    0    0    0    0  0.00000000000E+00  0.00000000000E+00  0.74505805969E-08  0.10566000000E+00  0.10566000000E+00 0.  1.
     999900   -1    0    0    0    0 -0.00000000000E+00 -0.00000000000E+00 -0.74505805969E-08  0.93827000000E+00  0.93827000000E+00 0.  1.
     999902    2    1    2    0    0  0.18775120441E-01 -0.13329626591E-01 -0.48320176231E-02  0.10204027289E+01  0.10201314604E+01 0.  0.
     999903    2    3    3    0    0 -0.77839771064E-01  0.32059975047E-01  0.94910305870E-01  0.12835834416E+00  0.19519897423E-01 0.  0.
         14    1    1    2    0    0 -0.18775120441E-01  0.13329626591E-01  0.48320176231E-02  0.23527271132E-01  0.00000000000E+00 0. -1.
     999901    1    3    3    0    0  0.96614891504E-01 -0.45389601638E-01 -0.99742323493E-01  0.89204438471E+00  0.88000000000E+00 0. -1.
        -11    1    4    4    0    0 -0.47042364461E-01  0.16742314757E-01  0.42008044377E-01  0.65255084637E-01  0.51100000000E-03 0.  1.
         11    1    4    4    0    0 -0.30797406602E-01  0.15317660290E-01  0.52902261492E-01  0.63103259521E-01  0.51100000000E-03 0. -1.
</event>
<event>
 8    1  0.1072332E+005  0.1043930E+01  0.7957747E-01            NaN
         13   -1    0    0    0    0  0.00000000000E+00  0.00000000000E+00  0.74505805969E-08  0.10566000000E+00  0.10566000000E+00 0. -1.
     999900   -1    0    0    0    0 -0.00000000000E+00 -0.00000000000E+00 -0.74505805969E-08  0.93827000000E+00  0.93827000000E+00 0. -1.
     999902    2    1    2    0    0  0.93935948057E-02 -0.18664304263E-01  0.12790939678E-01  0.10194309385E+01  0.10191365141E+01 0.  0.
     999903    2    3    3    0    0  0.10274185468E+00  0.76073126177E-01 -0.42219744289E-03  0.12933899642E+00  0.19631314667E-01 0.  0.
         14    1    1    2    0    0 -0.93935948057E-02  0.18664304263E-01 -0.12790939678E-01  0.24499061509E-01  0.00000000000E+00 0. -1.
     999901    1    3    3    0    0 -0.93348259870E-01 -0.94737430440E-01  0.13213137121E-01  0.89009194207E+00  0.88000000000E+00 0.  1.
        -11    1    4    4    0    0  0.63701266283E-01  0.37035855080E-01 -0.55138945049E-02  0.73892963408E-01  0.51100000000E-03 0.  1.
         11    1    4    4    0    0  0.39040588393E-01  0.39037271097E-01  0.50916970620E-02  0.55446033012E-01  0.51100000000E-03 0. -1.
</event>
<event>
 8    1  0.1072332E+005  0.1043930E+01  0.7957747E-01            NaN
         13   -1    0    0    0    0  0.00000000000E+00  0.00000000000E+00  0.74505805969E-08  0.10566000000E+00  0.10566000000E+00 0.  1.
     999900   -1    0    0    0    0 -0.00000000000E+00 -0.00000000000E+00 -0.74505805969E-08  0.93827000000E+00  0.93827000000E+00 0. -1.
     999902    2    1    2    0    0 -0.11894080938E-01  0.19423708295E-01 -0.54168202805E-02  0.10205186449E+01  0.10202500738E+01 0.  0.
     999903    2    3    3    0    0  0.17141204634E-01 -0.53006290043E-01 -0.11583097181E+00  0.13019261624E+00  0.20731994888E-01 0.  0.
         14    1    1    2    0    0  0.11894080938E-01 -0.19423708295E-01  0.54168202805E-02  0.23411355092E-01  0.00000000000E+00 0.  1.
     999901    1    3    3    0    0 -0.29035285572E-01  0.72429998339E-01  0.11041415153E+00  0.89032602867E+00  0.88000000000E+00 0. -1.
        -11    1    4    4    0    0 -0.45289204114E-02 -0.14766070543E-01 -0.32024231062E-01  0.35557846609E-01  0.51100000000E-03 0.  1.
         11    1    4    4    0    0  0.21670125045E-01 -0.38240219500E-01 -0.83806740749E-01  0.94634769629E-01  0.51100000000E-03 0. -1.
</event>
<event>
 8    1  0.1072332E+005  0.1043930E+01  0.7957747E-01            NaN
         13   -1    0    0    0    0  0.00000000000E+00  0.00000000000E+00  0.74505805969E-08  0.10566000000E+00  0.10566000000E+00 0. -1.
     999900   -1    0    0    0    0 -0.00000000000E+00 -0.00000000000E+00 -0.74505805969E-08  0.93827000000E+00  0.93827000000E+00 0.  1.
     999902    2    1    2    0    0  0.10618603297E-01 -0.14475322048E-01  0.15450074634E-01  0.10202446777E+01  0.10199697093E+01 0.  0.
     999903    2    3    3    0    0 -0.62095078733E-01 -0.50297885305E-01 -0.99317930409E-01  0.12909809576E+00  0.20410559990E-01 0.  0.
         14    1    1    2    0    0 -0.10618603297E-01  0.14475322048E-01 -0.15450074634E-01  0.23685322260E-01  0.00000000000E+00 0.  1.
     999901    1    3    3    0    0  0.72713682030E-01  0.35822563257E-01  0.11476800504E+00  0.89114658198E+00  0.88000000000E+00 0. -1.
        -11    1    4    4    0    0 -0.16266202422E-01 -0.21182128103E-01 -0.44762265633E-01  0.52126705610E-01  0.51100000000E-03 0. -1.
         11    1    4    4    0    0 -0.45828876311E-01 -0.29115757202E-01 -0.54555664777E-01  0.76971390150E-01  0.51100000000E-03 0.  1.
</event>
<event>
 8    1  0.1072332E+005  0.1043930E+01  0.7957747E-01            NaN
         13   -1    0    0    0    0  0.00000000000E+00  0.00000000000E+00  0.74505805969E-08  0.10566000000E+00  0.10566000000E+00 0. -1.
     999900   -1    0    0    0    0 -0.00000000000E+00 -0.00000000000E+00 -0.74505805969E-08  0.93827000000E+00  0.93827000000E+00 0. -1.
     999902    2    1    2    0    0 -0.80770652381E-02 -0.18135988163E-01 -0.13344950228E-01  0.10200084460E+01  0.10197278996E+01 0.  0.
     999903    2    3    3    0    0  0.60857397493E-01  0.47206023849E-01 -0.10322499427E+00  0.13034561042E+00  0.20063578837E-01 0.  0.
         14    1    1    2    0    0  0.80770652381E-02  0.18135988163E-01  0.13344950228E-01  0.23921554007E-01  0.00000000000E+00 0. -1.
     999901    1    3    3    0    0 -0.68934462731E-01 -0.65342012012E-01  0.89880044042E-01  0.88966283557E+00  0.88000000000E+00 0.  1.
        -11    1    4    4    0    0  0.12211179965E-01  0.15591369817E-01 -0.39341125463E-01  0.44047576580E-01  0.51100000000E-03 0. -1.
         11    1    4    4    0    0  0.48646217529E-01  0.31614654032E-01 -0.63883868808E-01  0.86298033838E-01  0.51100000000E-03 0.  1.
</event>
<event>
 8    1  0.1072332E+005  0.1043930E+01  0.7957747E-01            NaN
         13   -1    0    0    0    0  0.00000000000E+00  0.00000000000E+00  0.74505805969E-08  0.10566000000E+00  0.10566000000E+00 0.  1.
     999900   -1    0    0    0    0 -0.00000000000E+00 -0.00000000000E+00 -0.74505805969E-08  0.93827000000E+00  0.93827000000E+00 0. -1.
     999902    2    1    2    0    0  0.22876254005E-01 -0.11999857240E-01  0.23871103762E-02  0.10179874121E+01  0.10176567954E+01 0.  0.
     999903    2    3    3    0    0  0.27366988078E-01  0.19439930232E-01 -0.12253581332E+00  0.12859752920E+00  0.19885573829E-01 0.  0.
         14    1    1    2    0    0 -0.22876254005E-01  0.11999857240E-01 -0.23871103762E-02  0.25942587902E-01  0.00000000000E+00 0.  1.
     999901    1    3    3    0    0 -0.44907340729E-02 -0.31439787472E-01  0.12492292370E+00  0.88938988289E+00  0.88000000000E+00 0.  1.
        -11    1    4    4    0    0  0.85883793453E-02  0.19232943768E-02 -0.10769000745E-01  0.13917320830E-01  0.51100000000E-03 0. -1.
         11    1    4    4    0    0  0.18778608733E-01  0.17516635856E-01 -0.11176681258E+00  0.11468020837E+00  0.51100000000E-03 0.  1.
</event>
<event>
 8    1  0.1072332E+005  0.1043930E+01  0.7957747E-01            NaN
         13   -1    0    0    0    0  0.00000000000E+00  0.00000000000E+00  0.74505805969E-08  0.10566000000E+00  0.10566000000E+00 0. -1.
     999900   -1    0    0    0    0 -0.00000000000E+00 -0.00000000000E+00 -0.74505805969E-08  0.93827000000E+00  0.93827000000E+00 0.  1.
     999902    2    1    2    0    0 -0.10231335203E-01  0.15549574400E-01  0.12748925548E-01  0.10213688700E+01  0.10211196620E+01 0.  0.
     999903    2    3    3    0    0 -0.12478106285E+00  0.18095484343E-01  0.39262302517E-01  0.13354508066E+00  0.19874606203E-01 0.  0.
         14    1    1    2    0    0  0.10231335203E-01 -0.15549574400E-01 -0.12748925548E-01  0.22561129996E-01  0.00000000000E+00 0. -1.
     999901    1    3    3    0    0  0.11454972764E+00 -0.25459099426E-02 -0.26513376969E-01  0.88782378934E+00  0.88000000000E+00 0.  1.
        -11    1    4    4    0    0 -0.52357881243E-01  0.12258673464E-01  0.25814694940E-01  0.59651340297E-01  0.51100000000E-03 0.  1.
         11    1    4    4    0    0 -0.72423181604E-01  0.58368108783E-02  0.13447607577E-01  0.73893740367E-01  0.51100000000E-03 0. -1.
</event>
<event>
 8    1  0.1072332E+005  0.1043930E+01  0.7957747E-01            NaN
         13   -1    0    0    0    0  0.00000000000E+00  0.00000000000E+00  0.74505805969E-08  0.10566000000E+00  0.10566000000E+00 0.  1.
     999900   -1    0    0    0    0 -0.00000000000E+00 -0.00000000000E+00 -0.74505805969E-08  0.93827000000E+00  0.93827000000E+00 0.  1.
     999902    2    1    2    0    0  0.11127579180E-01  0.73223445972E-03  0.65201317858E-02  0.10310121324E+01  0.10309312032E+01 0.  0.
     999903    2    3    3    0    0 -0.11224756068E+00  0.77983691732E-01 -0.14330024920E-01  0.13881039407E+00  0.19544943875E-01 0.  0.
         14    1    1    2    0    0 -0.11127579180E-01 -0.73223445972E-03 -0.65201317858E-02  0.12917867635E-01  0.00000000000E+00 0. -1.
     999901    1    3    3    0    0  0.12337513987E+00 -0.77251457272E-01  0.20850156706E-01  0.89220173830E+00  0.88000000000E+00 0. -1.
        -11    1    4    4    0    0 -0.82276994713E-01  0.67090438491E-01 -0.10268784507E-01  0.10665992618E+00  0.51100000000E-03 0. -1.
         11    1    4    4    0    0 -0.29970565972E-01  0.10893253241E-01 -0.40612404130E-02  0.32150467890E-01  0.51100000000E-03 0.  1.
</event>
<event>
 8    1  0.1072332E+005  0.1043930E+01  0.7957747E-01            NaN
         13   -1    0    0    0    0  0.00000000000E+00  0.00000000000E+00  0.74505805969E-08  0.10566000000E+00  0.10566000000E+00 0. -1.
     999900   -1    0    0    0    0 -0.00000000000E+00 -0.00000000000E+00 -0.74505805969E-08  0.93827000000E+00  0.93827000000E+00 0.  1.
     999902    2    1    2    0    0 -0.17184969502E-01 -0.13425890573E-01  0.93839122840E-02  0.10201889907E+01  0.10199127125E+01 0.  0.
     999903    2    3    3    0    0  0.40204298226E-02  0.10857285693E+00 -0.64263638901E-01  0.12847304646E+00  0.23901448981E-01 0.  0.
         14    1    1    2    0    0  0.17184969502E-01  0.13425890573E-01 -0.93839122840E-02  0.23741009334E-01  0.00000000000E+00 0. -1.
     999901    1    3    3    0    0 -0.21205399325E-01 -0.12199874751E+00  0.73647551185E-01  0.89171594420E+00  0.88000000000E+00 0. -1.
        -11    1    4    4    0    0  0.46096358189E-02  0.40771711969E-01 -0.11672207678E-01  0.42662428346E-01  0.51100000000E-03 0.  1.
         11    1    4    4    0    0 -0.58920599630E-03  0.67801144964E-01 -0.52591431223E-01  0.85810618115E-01  0.51100000000E-03 0. -1.
</event>
<event>
 8    1  0.1072332E+005  0.1043930E+01  0.7957747E-01            NaN
         13   -1    0    0    0    0  0.00000000000E+00  0.00000000000E+00  0.74505805969E-08  0.10566000000E+00  0.10566000000E+00 0.  1.
     999900   -1    0    0    0    0 -0.00000000000E+00 -0.00000000000E+00 -0.74505805969E-08  0.93827000000E+00  0.93827000000E+00 0.  1.
     999902    2    1    2    0    0 -0.22750150776E-01  0.53030798205E-02  0.21402374937E-03  0.10205689679E+01  0.10203015634E+01 0.  0.
     999903    2    3    3    0    0  0.84419564161E-01  0.95265477922E-01  0.19104898265E-01  0.12931398415E+00  0.12447299374E-01 0.  0.
         14    1    1    2    0    0  0.22750150776E-01 -0.53030798205E-02 -0.21402374937E-03  0.23361032128E-01  0.00000000000E+00 0. -1.
     999901    1    3    3    0    0 -0.10716971494E+00 -0.89962398101E-01 -0.18890874515E-01  0.89125498372E+00  0.88000000000E+00 0.  1.
        -11    1    4    4    0    0  0.16654440567E-01  0.24118791391E-01  0.54010743653E-03  0.29319606508E-01  0.51100000000E-03 0. -1.
         11    1    4    4    0    0  0.67765123595E-01  0.71146686531E-01  0.18564790828E-01  0.99994377640E-01  0.51100000000E-03 0.  1.
</event>
<event>
 8    1  0.1072332E+005  0.1043930E+01  0.7957747E-01            NaN
         13   -1    0    0    0    0  0.00000000000E+00  0.00000000000E+00  0.74505805969E-08  0.10566000000E+00  0.10566000000E+00 0.  1.
     999900   -1    0    0    0    0 -0.00000000000E+00 -0.00000000000E+00 -0.74505805969E-08  0.93827000000E+00  0.93827000000E+00 0. -1.
     999902    2    1    2    0    0  0.13595434860E-01  0.51857470324E-02 -0.18524756708E-01  0.10203738027E+01  0.10201018590E+01 0.  0.
     999903    2    3    3    0    0 -0.11312054160E+00  0.35971089427E-01  0.45066331221E-01  0.12849460544E+00  0.19741155271E-01 0.  0.
         14    1    1    2    0    0 -0.13595434860E-01 -0.51857470324E-02  0.18524756708E-01  0.23556197325E-01  0.00000000000E+00 0.  1.
     999901    1    3    3    0    0  0.12671597646E+00 -0.30785342394E-01 -0.63591087929E-01  0.89187919723E+00  0.88000000000E+00 0. -1.
        -11    1    4    4    0    0 -0.13871074146E-01 -0.84494777556E-03  0.13765338076E-02  0.13974140439E-01  0.51100000000E-03 0.  1.
         11    1    4    4    0    0 -0.99249467453E-01  0.36816037202E-01  0.43689797414E-01  0.11452046500E+00  0.51100000000E-03 0. -1.
</event>
<event>
 8    1  0.1072332E+005  0.1043930E+01  0.7957747E-01            NaN
         13   -1    0    0    0    0  0.00000000000E+00  0.00000000000E+00  0.74505805969E-08  0.10566000000E+00  0.10566000000E+00 0.  1.
     999900   -1    0    0    0    0 -0.00000000000E+00 -0.00000000000E+00 -0.74505805969E-08  0.93827000000E+00  0.93827000000E+00 0. -1.
     999902    2    1    2    0    0 -0.44361802037E-02 -0.23912964772E-01 -0.15447616222E-02  0.10195600212E+01  0.10192687285E+01 0.  0.
     999903    2    3    3    0    0 -0.91845970791E-01  0.44524230916E-01  0.77216371568E-01  0.12909529008E+00  0.16885982142E-01 0.  0.
         14    1    1    2    0    0  0.44361802037E-02  0.23912964772E-01  0.15447616222E-02  0.24369978815E-01  0.00000000000E+00 0.  1.
     999901    1    3    3    0    0  0.87409790587E-01 -0.68437195688E-01 -0.78761133190E-01  0.89046473111E+00  0.88000000000E+00 0. -1.
        -11    1    4    4    0    0 -0.21803787611E-01  0.18916144077E-01  0.22262601140E-01  0.36456963552E-01  0.51100000000E-03 0. -1.
         11    1    4    4    0    0 -0.70042183180E-01  0.25608086839E-01  0.54953770428E-01  0.92638326526E-01  0.51100000000E-03 0.  1.
</event>
<event>
 8    1  0.1072332E+005  0.1043930E+01  0.7957747E-01            NaN
         13   -1    0    0    0    0  0.00000000000E+00  0.00000000000E+00  0.74505805969E-08  0.10566000000E+00  0.10566000000E+00 0.  1.
     999900   -1    0    0    0    0 -0.00000000000E+00 -0.00000000000E+00 -0.74505805969E-08  0.93827000000E+00  0.93827000000E+00 0. -1.
     999902    2    1    2    0    0  0.17989071119E-01  0.54541471098E-02  0.14331218337E-01  0.10202923559E+01  0.10200185063E+01 0.  0.
     999903    2    3    3    0    0  0.81711987577E-01 -0.79278285340E-01  0.64870678236E-01  0.13248920642E+00  0.19577780325E-01 0.  0.
         14    1    1    2    0    0 -0.17989071119E-01 -0.54541471098E-02 -0.14331218337E-01  0.23637644118E-01  0.00000000000E+00 0.  1.
     999901    1    3    3    0    0 -0.63722916458E-01  0.84732432450E-01 -0.50539459899E-01  0.88780314946E+00  0.88000000000E+00 0. -1.
        -11    1    4    4    0    0  0.94302418072E-02 -0.14636302902E-01  0.36126631872E-02  0.17789414816E-01  0.51100000000E-03 0. -1.
         11    1    4    4    0    0  0.72281745770E-01 -0.64641982438E-01  0.61258015048E-01  0.11469979160E+00  0.51100000000E-03 0.  1.
</event>
<event>
 8    1  0.1072332E+005  0.1043930E+01  0.7957747E-01            NaN
         13   -1    0    0    0    0  0.00000000000E+00  0.00000000000E+00  0.74505805969E-08  0.10566000000E+00  0.10566000000E+00 0.  1.
     999900   -1    0    0    0    0 -0.00000000000E+00 -0.00000000000E+00 -0.74505805969E-08  0.93827000000E+00  0.93827000000E+00 0.  1.
     999902    2    1    2    0    0  0.17349798777E-01  0.55996399988E-02 -0.66194488481E-02  0.10245344183E+01  0.10243508118E+01 0.  0.
     999903    2    3    3    0    0 -0.49220707577E-01 -0.72757906937E-01  0.97045502445E-01  0.13250417242E+00  0.20570247603E-01 0.  0.
         14    1    1    2    0    0 -0.17349798777E-01 -0.55996399988E-02  0.66194488481E-02  0.19395581682E-01  0.00000000000E+00 0.  1.
     999901    1    3    3    0    0  0.66570506354E-01  0.78357546936E-01 -0.10366495129E+00  0.89203024590E+00  0.88000000000E+00 0.  1.
        -11    1    4    4    0    0 -0.32039273916E-01 -0.45718593444E-01  0.75472791642E-01  0.93878156452E-01  0.51100000000E-03 0.  1.
         11    1    4    4    0    0 -0.17181433661E-01 -0.27039313494E-01  0.21572710803E-01  0.38626015964E-01  0.51100000000E-03 0. -1.
</event>
<event>
 8    1  0.1072332E+005  0.1043930E+01  0.7957747E-01            NaN
         13   -1    0    0    0    0  0.00000000000E+00  0.00000000000E+00  0.74505805969E-08  0.10566000000E+00  0.10566000000E+00 0.  1.
     999900   -1    0    0    0    0 -0.00000000000E+00 -0.00000000000E+00 -0.74505805969E-08  0.93827000000E+00  0.93827000000E+00 0.  1.
     999902    2    1    2    0    0  0.22849684771E-01  0.28462930880E-02 -0.36247657641E-02  0.10206201651E+01  0.10203539449E+01 0.  0.
     999903    2    3    3    0    0  0.93157621527E-01 -0.83994286301E-01 -0.39765398577E-01  0.13281915270E+00  0.18062608311E-01 0.  0.
         14    1    1    2    0    0 -0.22849684771E-01 -0.28462930880E-02  0.36247657641E-02  0.23309834949E-01  0.00000000000E+00 0. -1.
     999901    1    3    3    0    0 -0.70307936756E-01  0.86840579389E-01  0.36140632813E-01  0.88780101236E+00  0.88000000000E+00 0.  1.
        -11    1    4    4    0    0  0.51201655277E-01 -0.57699104618E-01 -0.26303963299E-01  0.81504329843E-01  0.51100000000E-03 0. -1.
         11    1    4    4    0    0  0.41955966250E-01 -0.26295181683E-01 -0.13461435279E-01  0.51314822853E-01  0.51100000000E-03 0.  1.
</event>
<event>
 8    1  0.1072332E+005  0.1043930E+01  0.7957747E-01            NaN
         13   -1    0    0    0    0  0.00000000000E+00  0.00000000000E+00  0.74505805969E-08  0.10566000000E+00  0.10566000000E+00 0.  1.
     999900   -1    0    0    0    0 -0.00000000000E+00 -0.00000000000E+00 -0.74505805969E-08  0.93827000000E+00  0.93827000000E+00 0. -1.
     999902    2    1    2    0    0  0.66353987274E-02 -0.23815682414E-01  0.63461564445E-03  0.10191990885E+01  0.10188989960E+01 0.  0.
     999903    2    3    3    0    0  0.66717745475E-01 -0.77587073572E-01  0.80823564874E-01  0.13188205473E+00  0.19733630516E-01 0.  0.
         14    1    1    2    0    0 -0.66353987274E-02  0.23815682414E-01 -0.63461564445E-03  0.24730911470E-01  0.00000000000E+00 0. -1.
     999901    1    3    3    0    0 -0.60082346747E-01  0.53771391158E-01 -0.80188949230E-01  0.88731703380E+00  0.88000000000E+00 0. -1.
        -11    1    4    4    0    0  0.25883978076E-01 -0.43418329081E-01  0.45256616922E-01  0.67849496074E-01  0.51100000000E-03 0. -1.
         11    1    4    4    0    0  0.40833767399E-01 -0.34168744491E-01  0.35566947953E-01  0.64032558653E-01  0.51100000000E-03 0.  1.
</event>
<event>
 8    1  0.1072332E+005  0.1043930E+01  0.7957747E-01            NaN
         13   -1    0    0    0    0  0.00000000000E+00  0.00000000000E+00  0.74505805969E-08  0.10566000000E+00  0.10566000000E+00 0. -1.
     999900   -1    0    0    0    0 -0.00000000000E+00 -0.00000000000E+00 -0.74505805969E-08  0.93827000000E+00  0.93827000000E+00 0.  1.
     999902    2    1    2    0    0 -0.79202279477E-03  0.22245952804E-01  0.10061002024E-01  0.10195018712E+01  0.10192091698E+01 0.  0.
     999903    2    3    3    0    0  0.94392849765E-01  0.39046314620E-01  0.80303324010E-01  0.13142732705E+00  0.19745725516E-01 0.  0.
         14    1    1    2    0    0  0.79202279477E-03 -0.22245952804E-01 -0.10061002024E-01  0.24428128827E-01  0.00000000000E+00 0.  1.
     999901    1    3    3    0    0 -0.95184872560E-01 -0.16800361816E-01 -0.70242321987E-01  0.88807454412E+00  0.88000000000E+00 0.  1.
        -11    1    4    4    0    0  0.63870883108E-01  0.28754534623E-01  0.43228795450E-01  0.82312227812E-01  0.51100000000E-03 0.  1.
         11    1    4    4    0    0  0.30521966657E-01  0.10291779997E-01  0.37074528561E-01  0.49115099238E-01  0.51100000000E-03 0. -1.
</event>
<event>
 8    1  0.1072332E+005  0.1043930E+01  0.7957747E-01            NaN
         13   -1    0    0    0    0  0.00000000000E+00  0.00000000000E+00  0.74505805969E-08  0.10566000000E+00  0.10566000000E+00 0.  1.
     999900   -1    0    0    0    0 -0.00000000000E+00 -0.00000000000E+00 -0.74505805969E-08  0.93827000000E+00  0.93827000000E+00 0.  1.
     999902    2    1    2    0    0 -0.22752760801E-01  0.74669127802E-02 -0.20316667865E-02  0.10198973018E+01  0.10196141112E+01 0.  0.
     999903    2    3    3    0    0 -0.10975850437E+00  0.74049530116E-02  0.71256437176E-01  0.13257484105E+00  0.19920994707E-01 0.  0.
         14    1    1    2    0    0  0.22752760801E-01 -0.74669127802E-02  0.20316667865E-02  0.24032698152E-01  0.00000000000E+00 0. -1.
     999901    1    3    3    0    0  0.87005743569E-01  0.61959768662E-04 -0.73288103963E-01  0.88732246080E+00  0.88000000000E+00 0.  1.
        -11    1    4    4    0    0 -0.63331327001E-01  0.11267106229E-01  0.49427548692E-01  0.81124277212E-01  0.51100000000E-03 0.  1.
         11    1    4    4    0    0 -0.46427177369E-01 -0.38621532175E-02  0.21828888484E-01  0.51450563839E-01  0.51100000000E-03 0. -1.
</event>
<event>
 8    1  0.1072332E+005  0.1043930E+01  0.7957747E-01            NaN
         13   -1    0    0    0    0  0.00000000000E+00  0.00000000000E+00  0.74505805969E-08  0.10566000000E+00  0.10566000000E+00 0.  1.
     999900   -1    0    0    0    0 -0.00000000000E+00 -0.00000000000E+00 -0.74505805969E-08  0.93827000000E+00  0.93827000000E+00 0. -1.
     999902    2    1    2    0    0  0.89136504925E-02 -0.25947022491E-02 -0.21638501090E-01  0.10203840795E+01  0.10201123758E+01 0.  0.
     999903    2    3    3    0    0  0.65333458364E-01  0.22825122417E-01  0.10677402237E+00  0.12891386773E+00  0.20703778544E-01 0.  0.
         14    1    1    2    0    0 -0.89136504925E-02  0.25947022491E-02  0.21638501090E-01  0.23545920544E-01  0.00000000000E+00 0.  1.
     999901    1    3    3    0    0 -0.56419807871E-01 -0.25419824666E-01 -0.12841252346E+00  0.89147021172E+00  0.88000000000E+00 0. -1.
        -11    1    4    4    0    0  0.21011910264E-01  0.16895128613E-01  0.32669945388E-01  0.42361919178E-01  0.51100000000E-03 0. -1.
         11    1    4    4    0    0  0.44321548100E-01  0.59299938033E-02  0.74104076982E-01  0.86551948556E-01  0.51100000000E-03 0.  1.
</event>
<event>
 8    1  0.1072332E+005  0.1043930E+01  0.7957747E-01            NaN
         13   -1    0    0    0    0  0.00000000000E+00  0.00000000000E+00  0.74505805969E-08  0.10566000000E+00  0.10566000000E+00 0.  1.
     999900   -1    0    0    0    0 -0.00000000000E+00 -0.00000000000E+00 -0.74505805969E-08  0.93827000000E+00  0.93827000000E+00 0.  1.
     999902    2    1    2    0    0  0.21348229397E-01 -0.95263867742E-02  0.53913917180E-02  0.10199390424E+01  0.10196568462E+01 0.  0.
     999903    2    3    3    0    0  0.10872459727E+00  0.34492665624E-01  0.64632784185E-01  0.13253730177E+00  0.19441130019E-01 0.  0.
         14    1    1    2    0    0 -0.21348229397E-01  0.95263867742E-02 -0.53913917180E-02  0.23990957630E-01  0.00000000000E+00 0. -1.
     999901    1    3    3    0    0 -0.87376367871E-01 -0.44019052398E-01 -0.59241392467E-01  0.88740174060E+00  0.88000000000E+00 0.  1.
        -11    1    4    4    0    0  0.52398256559E-01  0.90133573390E-02  0.22573529727E-01  0.57763684667E-01  0.51100000000E-03 0. -1.
         11    1    4    4    0    0  0.56326340709E-01  0.25479308285E-01  0.42059254459E-01  0.74773617105E-01  0.51100000000E-03 0.  1.
</event>
<event>
 8    1  0.1072332E+005  0.1043930E+01  0.7957747E-01            NaN
         13   -1    0    0    0    0  0.00000000000E+00  0.00000000000E+00  0.74505805969E-08  0.10566000000E+00  0.10566000000E+00 0.  1.
     999900   -1    0    0    0    0 -0.00000000000E+00 -0.00000000000E+00 -0.74505805969E-08  0.93827000000E+00  0.93827000000E+00 0.  1.
     999902    2    1    2    0    0  0.20706034108E-01 -0.11958297852E-01  0.29840729025E-02  0.10198334146E+01  0.10195486983E+01 0.  0.
     999903    2    3    3    0    0 -0.61628664758E-01  0.52978070741E-01 -0.97008636161E-01  0.12798461775E+00  0.19094988668E-01 0.  0.
         14    1    1    2    0    0 -0.20706034108E-01  0.11958297852E-01 -0.29840729025E-02  0.24096585382E-01  0.00000000000E+00 0. -1.
     999901    1    3    3    0    0  0.82334698866E-01 -0.64936368593E-01  0.99992709064E-01  0.89184879686E+00  0.88000000000E+00 0.  1.
        -11    1    4    4    0    0 -0.15841896685E-01  0.38257824616E-02 -0.19239408758E-01  0.25219402696E-01  0.51100000000E-03 0.  1.
         11    1    4    4    0    0 -0.45786768073E-01  0.49152288280E-01 -0.77769227403E-01  0.10276521506E+00  0.51100000000E-03 0. -1.
</event>
<event>
 8    1  0.1072332E+005  0.1043930E+01  0.7957747E-01            NaN
         13   -1    0    0    0    0  0.00000000000E+00  0.00000000000E+00  0.74505805969E-08  0.10566000000E+00  0.10566000000E+00 0.  1.
     999900   -1    0    0    0    0 -0.00000000000E+00 -0.00000000000E+00 -0.74505805969E-08  0.93827000000E+00  0.93827000000E+00 0.  1.
     999902    2    1    2    0    0  0.12537719767E-01 -0.15234701864E-01  0.13164278456E-01  0.10202110459E+01  0.10199352868E+01 0.  0.
     999903    2    3    3    0    0 -0.74025735249E-01 -0.61636924505E-01 -0.84153690287E-01  0.12941523029E+00  0.19685992501E-01 0.  0.
         14    1    1    2    0    0 -0.12537719767E-01  0.15234701864E-01 -0.13164278456E-01  0.23718954132E-01  0.00000000000E+00 0. -1.
     999901    1    3    3    0    0  0.86563455016E-01  0.46402222641E-01  0.97317968743E-01  0.89079581558E+00  0.88000000000E+00 0.  1.
        -11    1    4    4    0    0 -0.66139638768E-01 -0.45295332612E-01 -0.68354851378E-01  0.10535068012E+00  0.51100000000E-03 0.  1.
         11    1    4    4    0    0 -0.78860964814E-02 -0.16341591893E-01 -0.15798838909E-01  0.24064550176E-01  0.51100000000E-03 0. -1.
</event>
<event>
 8    1  0.1072332E+005  0.1043930E+01  0.7957747E-01            NaN
         13   -1    0    0    0    0  0.00000000000E+00  0.00000000000E+00  0.74505805969E-08  0.10566000000E+00  0.10566000000E+00 0.  1.
     999900   -1    0    0    0    0 -0.00000000000E+00 -0.00000000000E+00 -0.74505805969E-08  0.93827000000E+00  0.93827000000E+00 0. -1.
     999902    2    1    2    0    0  0.11164058341E-01  0.31259633070E-02 -0.20749663927E-01  0.10201611885E+01  0.10198842553E+01 0.  0.
     999903    2    3    3    0    0  0.25546672051E-01  0.47802886741E-01  0.11485303930E+00  0.12853852160E+00  0.19828829156E-01 0.  0.
         14    1    1    2    0    0 -0.11164058341E-01 -0.31259633070E-02  0.20749663927E-01  0.23768811463E-01  0.00000000000E+00 0.  1.
     999901    1    3    3    0    0 -0.14382613710E-01 -0.44676923434E-01 -0.13560270323E+00  0.89162266693E+00  0.88000000000E+00 0. -1.
        -11    1    4    4    0    0  0.13944555490E-01  0.26406437237E-01  0.40639475486E-01  0.50433903717E-01  0.51100000000E-03 0.  1.
         11    1    4    4    0    0  0.11602116561E-01  0.21396449504E-01  0.74213563817E-01  0.78104617888E-01  0.51100000000E-03 0. -1.
</event>
<event>
 8    1  0.1072332E+005  0.1043930E+01  0.7957747E-01            NaN
         13   -1    0    0    0    0  0.00000000000E+00  0.00000000000E+00  0.74505805969E-08  0.10566000000E+00  0.10566000000E+00 0.  1.
     999900   -1    0    0    0    0 -0.00000000000E+00 -0.00000000000E+00 -0.74505805969E-08  0.93827000000E+00  0.93827000000E+00 0. -1.
     999902    2    1    2    0    0  0.17020170559E-01 -0.11916840631E-01  0.98371442732E-02  0.10209415963E+01  0.10206827501E+01 0.  0.
     999903    2    3    3    0    0  0.10730169280E+00 -0.23625279950E-01  0.73967762548E-01  0.13392379660E+00  0.19812780445E-01 0.  0.
         14    1    1    2    0    0 -0.17020170559E-01  0.11916840631E-01 -0.98371442732E-02  0.22988403684E-01  0.00000000000E+00 0. -1.
     999901    1    3    3    0    0 -0.90281522244E-01  0.11708439319E-01 -0.64130618274E-01  0.88701779971E+00  0.88000000000E+00 0. -1.
        -11    1    4    4    0    0  0.85340571825E-02 -0.78763563064E-02  0.79889962357E-02  0.14105045286E-01  0.51100000000E-03 0.  1.
         11    1    4    4    0    0  0.98767635620E-01 -0.15748923644E-01  0.65978766312E-01  0.11981875132E+00  0.51100000000E-03 0. -1.
</event>
<event>
 8    1  0.1072332E+005  0.1043930E+01  0.7957747E-01            NaN
         13   -1    0    0    0    0  0.00000000000E+00  0.00000000000E+00  0.74505805969E-08  0.10566000000E+00  0.10566000000E+00 0. -1.
     999900   -1    0    0    0    0 -0.00000000000E+00 -0.00000000000E+00 -0.74505805969E-08  0.93827000000E+00  0.93827000000E+00 0.  1.
     999902    2    1    2    0    0 -0.41425825721E-02  0.31486702582E-02 -0.23923035351E-01  0.10194476240E+01  0.10191536054E+01 0.  0.
     999903    2    3    3    0    0  0.59425476732E-02  0.10261387585E+00  0.74268594139E-01  0.12836029209E+00  0.19890176419E-01 0.  0.
         14    1    1    2    0    0  0.41425825721E-02 -0.31486702582E-02  0.23923035351E-01  0.24482376012E-01  0.00000000000E+00 0. -1.
     999901    1    3    3    0    0 -0.10085130245E-01 -0.99465205597E-01 -0.98191629490E-01  0.89108733190E+00  0.88000000000E+00 0.  1.
        -11    1    4    4    0    0  0.53573309401E-02  0.99827668546E-02  0.13223001534E-01  0.17420261750E-01  0.51100000000E-03 0.  1.
         11    1    4    4    0    0  0.58521673305E-03  0.92631109000E-01  0.61045592606E-01  0.11094003034E+00  0.51100000000E-03 0. -1.
</event>
<event>
 8    1  0.1072332E+005  0.1043930E+01  0.7957747E-01            NaN
         13   -1    0    0    0    0  0.00000000000E+00  0.00000000000E+00  0.74505805969E-08  0.10566000000E+00  0.10566000000E+00 0. -1.
     999900   -1    0    0    0    0 -0.00000000000E+00 -0.00000000000E+00 -0.74505805969E-08  0.93827000000E+00  0.93827000000E+00 0.  1.
     999902    2    1    2    0    0 -0.11092093500E-02 -0.80347330239E-02  0.23206364950E-01  0.10193470251E+01  0.10190505556E+01 0.  0.
     999903    2    3    3    0    0 -0.30392535437E-01  0.99566165130E-01 -0.70299458116E-01  0.12739478120E+00  0.21220014534E-01 0.  0.
         14    1    1    2    0    0  0.11092093500E-02  0.80347330239E-02 -0.23206364950E-01  0.24582974888E-01  0.00000000000E+00 0.  1.
     999901    1    3    3    0    0  0.29283326087E-01 -0.10760089815E+00  0.93505823066E-01  0.89195224391E+00  0.88000000000E+00 0. -1.
        -11    1    4    4    0    0 -0.15600601203E-01  0.80817403651E-01 -0.56010945828E-01  0.99560628083E-01  0.51100000000E-03 0.  1.
         11    1    4    4    0    0 -0.14791934234E-01  0.18748761479E-01 -0.14288512288E-01  0.27834153118E-01  0.51100000000E-03 0. -1.
</event>
<event>
 8    1  0.1072332E+005  0.1043930E+01  0.7957747E-01            NaN
         13   -1    0    0    0    0  0.00000000000E+00  0.00000000000E+00  0.74505805969E-08  0.10566000000E+00  0.10566000000E+00 0. -1.
     999900   -1    0    0    0    0 -0.00000000000E+00 -0.00000000000E+00 -0.74505805969E-08  0.93827000000E+00  0.93827000000E+00 0.  1.
     999902    2    1    2    0    0  0.11290512877E-01  0.15191878025E-01  0.13762325327E-01  0.10205276403E+01  0.10202592780E+01 0.  0.
     999903    2    3    3    0    0 -0.16961879878E-01 -0.69349202833E-01 -0.10442535404E+00  0.12816352206E+00  0.20596517142E-01 0.  0.
         14    1    1    2    0    0 -0.11290512877E-01 -0.15191878025E-01 -0.13762325327E-01  0.23402359654E-01  0.00000000000E+00 0.  1.
     999901    1    3    3    0    0  0.28252392755E-01  0.84541080858E-01  0.11818767937E+00  0.89236411829E+00  0.88000000000E+00 0. -1.
        -11    1    4    4    0    0 -0.46292039196E-02 -0.19710839949E-01 -0.47476746269E-01  0.51616366568E-01  0.51100000000E-03 0.  1.
         11    1    4    4    0    0 -0.12332675958E-01 -0.49638362884E-01 -0.56948607770E-01  0.76547155493E-01  0.51100000000E-03 0. -1.
</event>
<event>
 8    1  0.1072332E+005  0.1043930E+01  0.7957747E-01            NaN
         13   -1    0    0    0    0  0.00000000000E+00  0.00000000000E+00  0.74505805969E-08  0.10566000000E+00  0.10566000000E+00 0.  1.
     999900   -1    0    0    0    0 -0.00000000000E+00 -0.00000000000E+00 -0.74505805969E-08  0.93827000000E+00  0.93827000000E+00 0.  1.
     999902    2    1    2    0    0  0.33219347563E-02 -0.13868941351E-01  0.18923096609E-01  0.10202347184E+01  0.10199595160E+01 0.  0.
     999903    2    3    3    0    0 -0.59708722079E-01  0.96862072143E-01 -0.55130677645E-01  0.12798016810E+00  0.19802507355E-01 0.  0.
         14    1    1    2    0    0 -0.33219347563E-02  0.13868941351E-01 -0.18923096609E-01  0.23695281598E-01  0.00000000000E+00 0. -1.
     999901    1    3    3    0    0  0.63030656835E-01 -0.11073101349E+00  0.74053774254E-01  0.89225455030E+00  0.88000000000E+00 0. -1.
        -11    1    4    4    0    0 -0.35671656980E-01  0.44840165993E-01 -0.19647093572E-01  0.60575382829E-01  0.51100000000E-03 0.  1.
         11    1    4    4    0    0 -0.24037065098E-01  0.52021906150E-01 -0.35483584072E-01  0.67404785273E-01  0.51100000000E-03 0. -1.
</event>
<event>
 8    1  0.1072332E+005  0.1043930E+01  0.7957747E-01            NaN
         13   -1    0    0    0    0  0.00000000000E+00  0.00000000000E+00  0.74505805969E-08  0.10566000000E+00  0.10566000000E+00 0.  1.
     999900   -1    0    0    0    0 -0.00000000000E+00 -0.00000000000E+00 -0.74505805969E-08  0.93827000000E+00  0.93827000000E+00 0. -1.
     999902    2    1    2    0    0  0.64514006408E-02 -0.46543938098E-02  0.24724460043E-01  0.10179572667E+01  0.10176258713E+01 0.  0.
     999903    2    3    3    0    0  0.10639500845E+00 -0.46045161381E-01  0.57590419697E-01  0.13072443833E+00  0.18225466438E-01 0.  0.
         14    1    1    2    0    0 -0.64514006408E-02  0.46543938098E-02 -0.24724460043E-01  0.25972733325E-01  0.00000000000E+00 0. -1.
     999901    1    3    3    0    0 -0.99943607811E-01  0.41390767572E-01 -0.32865959654E-01  0.88723282834E+00  0.88000000000E+00 0.  1.
        -11    1    4    4    0    0  0.27954778942E-01 -0.21126738549E-01  0.17834796350E-01  0.39321111750E-01  0.51100000000E-03 0. -1.
         11    1    4    4    0    0  0.78440229510E-01 -0.24918422833E-01  0.39755623347E-01  0.91403326584E-01  0.51100000000E-03 0.  1.
</event>
<event>
 8    1  0.1072332E+005  0.1043930E+01  0.7957747E-01            NaN
         13   -1    0    0    0    0  0.00000000000E+00  0.00000000000E+00  0.74505805969E-08  0.10566000000E+00  0.10566000000E+00 0. -1.
     999900   -1    0    0    0    0 -0.00000000000E+00 -0.00000000000E+00 -0.74505805969E-08  0.93827000000E+00  0.93827000000E+00 0.  1.
     999902    2    1    2    0    0 -0.53082326198E-02 -0.13711293748E-01 -0.18673773922E-01  0.10201626539E+01  0.10198857552E+01 0.  0.
     999903    2    3    3    0    0 -0.33874303389E-01 -0.63050381357E-01 -0.11106336237E+00  0.13349123670E+00  0.19026844065E-01 0.  0.
         14    1    1    2    0    0  0.53082326198E-02  0.13711293748E-01  0.18673773922E-01  0.23767346134E-01  0.00000000000E+00 0. -1.
     999901    1    3    3    0    0  0.28566070769E-01  0.49339087609E-01  0.92389588450E-01  0.88667141717E+00  0.88000000000E+00 0. -1.
        -11    1    4    4    0    0 -0.20551332373E-01 -0.42151060189E-01 -0.87572344687E-01  0.99339044753E-01  0.51100000000E-03 0.  1.
         11    1    4    4    0    0 -0.13322971015E-01 -0.20899321167E-01 -0.23491017684E-01  0.34152191947E-01  0.51100000000E-03 0. -1.
</event>
<event>
 8    1  0.1072332E+005  0.1043930E+01  0.7957747E-01            NaN
         13   -1    0    0    0    0  0.00000000000E+00  0.00000000000E+00  0.74505805969E-08  0.10566000000E+00  0.10566000000E+00 0. -1.
     999900   -1    0    0    0    0 -0.00000000000E+00 -0.00000000000E+00 -0.74505805969E-08  0.93827000000E+00  0.93827000000E+00 0.  1.
     999902    2    1    2    0    0 -0.15475929766E-01  0.14993153972E-01  0.96947099010E-02  0.10203019136E+01  0.10200282880E+01 0.  0.
     999903    2    3    3    0    0  0.39472437672E-01  0.17880012492E-01  0.12254367999E+00  0.13139103666E+00  0.19206322629E-01 0.  0.
         14    1    1    2    0    0  0.15475929766E-01 -0.14993153972E-01 -0.96947099010E-02  0.23628086427E-01  0.00000000000E+00 0.  1.
     999901    1    3    3    0    0 -0.54948367438E-01 -0.28868585201E-02 -0.11284897008E+00  0.88891087691E+00  0.88000000000E+00 0.  1.
        -11    1    4    4    0    0  0.22889619608E-01  0.15594250873E-01  0.52354295815E-01  0.59231315682E-01  0.51100000000E-03 0.  1.
         11    1    4    4    0    0  0.16582818064E-01  0.22857616190E-02  0.70189384170E-01  0.72159720983E-01  0.51100000000E-03 0. -1.
</event>
<event>
 8    1  0.1072332E+005  0.1043930E+01  0.7957747E-01            NaN
         13   -1    0    0    0    0  0.00000000000E+00  0.00000000000E+00  0.74505805969E-08  0.10566000000E+00  0.10566000000E+00 0.  1.
     999900   -1    0    0    0    0 -0.00000000000E+00 -0.00000000000E+00 -0.74505805969E-08  0.93827000000E+00  0.93827000000E+00 0.  1.
     999902    2    1    2    0    0  0.80833254515E-02 -0.24771252393E-01 -0.66538049330E-02  0.10170370973E+01  0.10166814787E+01 0.  0.
     999903    2    3    3    0    0  0.86460363164E-01 -0.27302791437E-01 -0.90344873871E-01  0.12959495060E+00  0.20293303486E-01 0.  0.
         14    1    1    2    0    0 -0.80833254515E-02  0.24771252393E-01  0.66538049330E-02  0.26892902698E-01  0.00000000000E+00 0.  1.
     999901    1    3    3    0    0 -0.78377037712E-01  0.25315390444E-02  0.83691068938E-01  0.88744214671E+00  0.88000000000E+00 0. -1.
        -11    1    4    4    0    0  0.85000766205E-01 -0.25586622773E-01 -0.91067410643E-01  0.12717444681E+00  0.51100000000E-03 0.  1.
         11    1    4    4    0    0  0.14595969590E-02 -0.17161686638E-02  0.72253677219E-03  0.24205037807E-02  0.51100000000E-03 0. -1.
</event>
<event>
 8    1  0.1072332E+005  0.1043930E+01  0.7957747E-01            NaN
         13   -1    0    0    0    0  0.00000000000E+00  0.00000000000E+00  0.74505805969E-08  0.10566000000E+00  0.10566000000E+00 0. -1.
     999900   -1    0    0    0    0 -0.00000000000E+00 -0.00000000000E+00 -0.74505805969E-08  0.93827000000E+00  0.93827000000E+00 0. -1.
     999902    2    1    2    0    0  0.22189811294E-01 -0.86029756412E-02  0.13944073336E-01  0.10163467425E+01  0.10159723740E+01 0.  0.
     999903    2    3    3    0    0 -0.10084923810E+00 -0.15969421095E-01  0.71418916524E-01  0.12589953471E+00  0.18012217172E-01 0.  0.
         14    1    1    2    0    0 -0.22189811294E-01  0.86029756412E-02 -0.13944073336E-01  0.27583257537E-01  0.00000000000E+00 0.  1.
     999901    1    3    3    0    0  0.12303904939E+00  0.73664454542E-02 -0.57474843188E-01  0.89044720775E+00  0.88000000000E+00 0. -1.
        -11    1    4    4    0    0 -0.76899679308E-01 -0.19546946697E-01  0.52164743499E-01  0.94958229702E-01  0.51100000000E-03 0.  1.
         11    1    4    4    0    0 -0.23949558792E-01  0.35775256014E-02  0.19254173025E-01  0.30941305009E-01  0.51100000000E-03 0. -1.
</event>
<event>
 8    1  0.1072332E+005  0.1043930E+01  0.7957747E-01            NaN
         13   -1    0    0    0    0  0.00000000000E+00  0.00000000000E+00  0.74505805969E-08  0.10566000000E+00  0.10566000000E+00 0. -1.
     999900   -1    0    0    0    0 -0.00000000000E+00 -0.00000000000E+00 -0.74505805969E-08  0.93827000000E+00  0.93827000000E+00 0. -1.
     999902    2    1    2    0    0 -0.11165470868E-01  0.55111413325E-03 -0.20730986259E-01  0.10203769692E+01  0.10201050995E+01 0.  0.
     999903    2    3    3    0    0  0.29441555770E-01 -0.11915682537E+00  0.33975229800E-01  0.12966282236E+00  0.24351119549E-01 0.  0.
         14    1    1    2    0    0  0.11165470868E-01 -0.55111413325E-03  0.20730986259E-01  0.23553030755E-01  0.00000000000E+00 0. -1.
     999901    1    3    3    0    0 -0.40607026637E-01  0.11970793950E+00 -0.54706216059E-01  0.89071414689E+00  0.88000000000E+00 0. -1.
        -11    1    4    4    0    0  0.15991473136E-01 -0.33943493206E-01  0.17345545623E-02  0.37565379602E-01  0.51100000000E-03 0.  1.
         11    1    4    4    0    0  0.13450082634E-01 -0.85213332163E-01  0.32240675238E-01  0.92097442755E-01  0.51100000000E-03 0. -1.
</event>
<event>
 7    1  0.1072332E+005  0.1043930E+01  0.7957747E-01            NaN
         13   -1    0    0    0    0  0.00000000000E+00  0.00000000000E+00  0.74505805969E-08  0.10566000000E+00  0.10566000000E+00 0.  1.
     999900   -1    0    0    0    0 -0.00000000000E+00 -0.00000000000E+00 -0.74505805969E-08  0.93827000000E+00  0.93827000000E+00 0.  1.
     999903    2    1    2    0    0  0.42560524235E-01 -0.50706128069E-01  0.42339619138E-01  0.80701896762E-01  0.18375068583E-01 0.  0.
         14    1    1    2    0    0  0.19026140882E-01  0.45941831730E-01 -0.63692297194E-01  0.80804422289E-01  0.00000000000E+00 0. -1.
     999901    1    1    2    0    0 -0.61586665117E-01  0.47642963392E-02  0.21352678056E-01  0.88242368095E+00  0.88000000000E+00 0. -1.
        -11    1    3    3    0    0  0.34792923365E-01 -0.42977244103E-01  0.26208342875E-01  0.61194194040E-01  0.51100000000E-03 0.  1.
         11    1    3    3    0    0  0.77676008695E-02 -0.77288839662E-02  0.16131276263E-01  0.19507702722E-01  0.51100000000E-03 0. -1.
</event>
<event>
 8    1  0.1072332E+005  0.1043930E+01  0.7957747E-01            NaN
         13   -1    0    0    0    0  0.00000000000E+00  0.00000000000E+00  0.74505805969E-08  0.10566000000E+00  0.10566000000E+00 0. -1.
     999900   -1    0    0    0    0 -0.00000000000E+00 -0.00000000000E+00 -0.74505805969E-08  0.93827000000E+00  0.93827000000E+00 0. -1.
     999902    2    1    2    0    0 -0.22892252956E-01  0.57217217670E-02 -0.97358395344E-03  0.10203134547E+01  0.10200400995E+01 0.  0.
     999903    2    3    3    0    0 -0.10815595090E+00  0.22672344012E-01 -0.66777640287E-01  0.13358497564E+00  0.34262918378E-01 0.  0.
         14    1    1    2    0    0  0.22892252956E-01 -0.57217217670E-02  0.97358395344E-03  0.23616545283E-01  0.00000000000E+00 0.  1.
     999901    1    3    3    0    0  0.85263697943E-01 -0.16950622245E-01  0.65804056333E-01  0.88672847908E+00  0.88000000000E+00 0.  1.
        -11    1    4    4    0    0 -0.51481700740E-01  0.19690778061E-01 -0.15912260875E-01  0.57372061310E-01  0.51100000000E-03 0. -1.
         11    1    4    4    0    0 -0.56674250159E-01  0.29815659506E-02 -0.50865379411E-01  0.76212914327E-01  0.51100000000E-03 0.  1.
</event>
<event>
 8    1  0.1072332E+005  0.1043930E+01  0.7957747E-01            NaN
         13   -1    0    0    0    0  0.00000000000E+00  0.00000000000E+00  0.74505805969E-08  0.10566000000E+00  0.10566000000E+00 0. -1.
     999900   -1    0    0    0    0 -0.00000000000E+00 -0.00000000000E+00 -0.74505805969E-08  0.93827000000E+00  0.93827000000E+00 0.  1.
     999902    2    1    2    0    0 -0.15177536620E-02  0.17533471664E-01 -0.28979507184E-01  0.10100251620E+01  0.10094559375E+01 0.  0.
     999903    2    3    3    0    0 -0.11051387463E+00  0.45099100316E-01  0.12593421329E-01  0.12189886091E+00  0.21295367885E-01 0.  0.
         14    1    1    2    0    0  0.15177536620E-02 -0.17533471664E-01  0.28979507184E-01  0.33904838023E-01  0.00000000000E+00 0. -1.
     999901    1    3    3    0    0  0.10899612097E+00 -0.27565628652E-01 -0.41572928512E-01  0.88812630107E+00  0.88000000000E+00 0.  1.
        -11    1    4    4    0    0 -0.45376309562E-01  0.23580797980E-01 -0.40712156844E-02  0.51302041100E-01  0.51100000000E-03 0. -1.
         11    1    4    4    0    0 -0.65137565071E-01  0.21518302336E-01  0.16664637013E-01  0.70596819805E-01  0.51100000000E-03 0.  1.
</event>
<event>
 8    1  0.1072332E+005  0.1043930E+01  0.7957747E-01            NaN
         13   -1    0    0    0    0  0.00000000000E+00  0.00000000000E+00  0.74505805969E-08  0.10566000000E+00  0.10566000000E+00 0.  1.
     999900   -1    0    0    0    0 -0.00000000000E+00 -0.00000000000E+00 -0.74505805969E-08  0.93827000000E+00  0.93827000000E+00 0.  1.
     999902    2    1    2    0    0 -0.17105238310E-01  0.12106324788E-01  0.10311852788E-01  0.10205743458E+01  0.10203070658E+01 0.  0.
     999903    2    3    3    0    0 -0.30181018495E-01 -0.75975276542E-01  0.10146162010E+00  0.13139628450E+00  0.16952483741E-01 0.  0.
         14    1    1    2    0    0  0.17105238310E-01 -0.12106324788E-01 -0.10311852788E-01  0.23355654249E-01  0.00000000000E+00 0.  1.
     999901    1    3    3    0    0  0.13075780185E-01  0.88081601330E-01 -0.91149767314E-01  0.88917806125E+00  0.88000000000E+00 0.  1.
        -11    1    4    4    0    0 -0.29402963335E-01 -0.54392824504E-01  0.77224987071E-01  0.98929638428E-01  0.51100000000E-03 0.  1.
         11    1    4    4    0    0 -0.77805515996E-03 -0.21582452038E-01  0.24236633030E-01  0.32466646076E-01  0.51100000000E-03 0. -1.
</event>
<event>
 8    1  0.1072332E+005  0.1043930E+01  0.7957747E-01            NaN
         13   -1    0    0    0    0  0.00000000000E+00  0.00000000000E+00  0.74505805969E-08  0.10566000000E+00  0.10566000000E+00 0.  1.
     999900   -1    0    0    0    0 -0.00000000000E+00 -0.00000000000E+00 -0.74505805969E-08  0.93827000000E+00  0.93827000000E+00 0. -1.
     999902    2    1    2    0    0 -0.19658834779E-01 -0.10962555390E-01  0.37734581935E-02  0.10211070643E+01  0.10208519728E+01 0.  0.
     999903    2    3    3    0    0  0.37288371844E-01 -0.38413298799E-01  0.11826868735E+00  0.13144101173E+00  0.20573112502E-01 0.  0.
         14    1    1    2    0    0  0.19658834779E-01  0.10962555390E-01 -0.37734581935E-02  0.22822935664E-01  0.00000000000E+00 0.  1.
     999901    1    3    3    0    0 -0.56947206623E-01  0.27450743409E-01 -0.11449522916E+00  0.88966605260E+00  0.88000000000E+00 0. -1.
        -11    1    4    4    0    0  0.40252321213E-03 -0.24649011535E-02  0.22987401084E-01  0.23128326619E-01  0.51100000000E-03 0.  1.
         11    1    4    4    0    0  0.36885848632E-01 -0.35948397646E-01  0.95281286268E-01  0.10831268511E+00  0.51100000000E-03 0. -1.
</event>
<event>
 8    1  0.1072332E+005  0.1043930E+01  0.7957747E-01            NaN
         13   -1    0    0    0    0  0.00000000000E+00  0.00000000000E+00  0.74505805969E-08  0.10566000000E+00  0.10566000000E+00 0. -1.
     999900   -1    0    0    0    0 -0.00000000000E+00 -0.00000000000E+00 -0.74505805969E-08  0.93827000000E+00  0.93827000000E+00 0.  1.
     999902    2    1    2    0    0 -0.16032236562E-03 -0.23690298139E-01 -0.31986220458E-02  0.10200242034E+01  0.10197440308E+01 0.  0.
     999903    2    3    3    0    0 -0.55720907987E-01 -0.92225918212E-01 -0.74872777635E-01  0.13271293078E+00  0.19908530566E-01 0.  0.
         14    1    1    2    0    0  0.16032236562E-03  0.23690298139E-01  0.31986220458E-02  0.23905796622E-01  0.00000000000E+00 0. -1.
     999901    1    3    3    0    0  0.55560585622E-01  0.68535620073E-01  0.71674155589E-01  0.88731127259E+00  0.88000000000E+00 0.  1.
        -11    1    4    4    0    0 -0.24856521383E-01 -0.26399728338E-01 -0.31634434802E-01  0.48122665116E-01  0.51100000000E-03 0. -1.
         11    1    4    4    0    0 -0.30864386604E-01 -0.65826189873E-01 -0.43238342833E-01  0.84590265667E-01  0.51100000000E-03 0.  1.
</event>
<event>
 8    1  0.1072332E+005  0.1043930E+01  0.7957747E-01            NaN
         13   -1    0    0    0    0  0.00000000000E+00  0.00000000000E+00  0.74505805969E-08  0.10566000000E+00  0.10566000000E+00 0. -1.
     999900   -1    0    0    0    0 -0.00000000000E+00 -0.00000000000E+00 -0.74505805969E-08  0.93827000000E+00  0.93827000000E+00 0.  1.
     999902    2    1    2    0    0 -0.22194447083E-01 -0.26781839264E-02  0.69751245653E-02  0.10205116629E+01  0.10202429297E+01 0.  0.
     999903    2    3    3    0    0 -0.22739133065E-01 -0.88434583920E-01  0.93231505739E-01  0.13214539827E+00  0.20797807928E-01 0.  0.
         14    1    1    2    0    0  0.22194447083E-01  0.26781839264E-02 -0.69751245653E-02  0.23418337114E-01  0.00000000000E+00 0.  1.
     999901    1    3    3    0    0  0.54468598132E-03  0.85756399994E-01 -0.86256381174E-01  0.88836626462E+00  0.88000000000E+00 0.  1.
        -11    1    4    4    0    0 -0.22399914352E-02 -0.61054189177E-02  0.16528257053E-01  0.17769020907E-01  0.51100000000E-03 0.  1.
         11    1    4    4    0    0 -0.20499141629E-01 -0.82329165003E-01  0.76703248687E-01  0.11437637736E+00  0.51100000000E-03 0. -1.
</event>
<event>
 7    1  0.1072332E+005  0.1043930E+01  0.7957747E-01            NaN
         13   -1    0    0    0    0  0.00000000000E+00  0.00000000000E+00  0.74505805969E-08  0.10566000000E+00  0.10566000000E+00 0. -1.
     999900   -1    0    0    0    0 -0.00000000000E+00 -0.00000000000E+00 -0.74505805969E-08  0.93827000000E+00  0.93827000000E+00 0. -1.
     999902    2    1    2    0    0 -0.14204304413E-01 -0.18859352348E-01  0.12239272265E-03  0.10203195698E+01  0.10200463578E+01 0.  0.
         14    1    1    2    0    0  0.14204304413E-01  0.18859352348E-01 -0.12239272265E-03  0.23610430212E-01  0.00000000000E+00 0. -1.
     999901    1    3    3    0    0 -0.11156908570E+00  0.99230596349E-02 -0.80362782391E-01  0.89073245410E+00  0.88000000000E+00 0. -1.
        -11    1    3    3    0    0  0.18496163071E-01 -0.50505243331E-02  0.16195745442E-01  0.25103369013E-01  0.51100000000E-03 0.  1.
         11    1    3    3    0    0  0.78868618213E-01 -0.23731887650E-01  0.64289429672E-01  0.10448374667E+00  0.51100000000E-03 0. -1.
</event>
<event>
 8    1  0.1072332E+005  0.1043930E+01  0.7957747E-01            NaN
         13   -1    0    0    0    0  0.00000000000E+00  0.00000000000E+00  0.74505805969E-08  0.10566000000E+00  0.10566000000E+00 0. -1.
     999900   -1    0    0    0    0 -0.00000000000E+00 -0.00000000000E+00 -0.74505805969E-08  0.93827000000E+00  0.93827000000E+00 0.  1.
     999902    2    1    2    0    0  0.21954680906E-01  0.13900887385E-01  0.11347255322E-01  0.10155750553E+01  0.10151791419E+01 0.  0.
     999903    2    3    3    0    0  0.39245222181E-01 -0.11720187502E+00  0.12919686446E-01  0.12569339485E+00  0.18853228819E-01 0.  0.
         14    1    1    2    0    0 -0.21954680906E-01 -0.13900887385E-01 -0.11347255322E-01  0.28354944668E-01  0.00000000000E+00 0. -1.
     999901    1    3    3    0    0 -0.17290541275E-01  0.13110276241E+00 -0.15724311234E-02  0.88988166049E+00  0.88000000000E+00 0. -1.
        -11    1    4    4    0    0  0.23288648859E-01 -0.65519449438E-01 -0.20526885372E-02  0.69567478548E-01  0.51100000000E-03 0.  1.
         11    1    4    4    0    0  0.15956573322E-01 -0.51682425587E-01  0.14972374983E-01  0.56125916299E-01  0.51100000000E-03 0. -1.
</event>
<event>
 8    1  0.1072332E+005  0.1043930E+01  0.7957747E-01            NaN
         13   -1    0    0    0    0  0.00000000000E+00  0.00000000000E+00  0.74505805969E-08  0.10566000000E+00  0.10566000000E+00 0. -1.
     999900   -1    0    0    0    0 -0.00000000000E+00 -0.00000000000E+00 -0.74505805969E-08  0.93827000000E+00  0.93827000000E+00 0. -1.
     999902    2    1    2    0    0 -0.95674718313E-02 -0.21170737125E-01 -0.35495976572E-02  0.10204281645E+01  0.10201574891E+01 0.  0.
     999903    2    3    3    0    0  0.53639527795E-02  0.59456544547E-01 -0.11396436307E+00  0.12974577083E+00  0.16799890488E-01 0.  0.
         14    1    1    2    0    0  0.95674718313E-02  0.21170737125E-01  0.35495976572E-02  0.23501835486E-01  0.00000000000E+00 0.  1.
     999901    1    3    3    0    0 -0.14931424611E-01 -0.80627281672E-01  0.11041476541E+00  0.89068239368E+00  0.88000000000E+00 0.  1.
        -11    1    4    4    0    0 -0.26622130462E-02  0.16880543317E-01 -0.20267966207E-01  0.26515876304E-01  0.51100000000E-03 0.  1.
         11    1    4    4    0    0  0.80261658256E-02  0.42576001230E-01 -0.93696396863E-01  0.10322989453E+00  0.51100000000E-03 0. -1.
</event>
<event>
 8    1  0.1072332E+005  0.1043930E+01  0.7957747E-01            NaN
         13   -1    0    0    0    0  0.00000000000E+00  0.00000000000E+00  0.74505805969E-08  0.10566000000E+00  0.10566000000E+00 0.  1.
     999900   -1    0    0    0    0 -0.00000000000E+00 -0.00000000000E+00 -0.74505805969E-08  0.93827000000E+00  0.93827000000E+00 0.  1.
     999902    2    1    2    0    0  0.20106141680E-01 -0.12645889605E-01 -0.11667650008E-02  0.10201489824E+01  0.10198717613E+01 0.  0.
     999903    2    3    3    0    0 -0.33107249993E-01 -0.46757352184E-01  0.11525293961E+00  0.13023392772E+00  0.19882048563E-01 0.  0.
         14    1    1    2    0    0 -0.20106141680E-01  0.12645889605E-01  0.11667650008E-02  0.23781017593E-01  0.00000000000E+00 0.  1.
     999901    1    3    3    0    0  0.53213391673E-01  0.34111462579E-01 -0.11641970461E+00  0.88991505469E+00  0.88000000000E+00 0.  1.
        -11    1    4    4    0    0 -0.25828463405E-01 -0.20084844222E-01  0.68520085942E-01  0.75932692483E-01  0.51100000000E-03 0. -1.
         11    1    4    4    0    0 -0.72787865878E-02 -0.26672507963E-01  0.46732853672E-01  0.54301235239E-01  0.51100000000E-03 0.  1.
</event>
<event>
 8    1  0.1072332E+005  0.1043930E+01  0.7957747E-01            NaN
         13   -1    0    0    0    0  0.00000000000E+00  0.00000000000E+00  0.74505805969E-08  0.10566000000E+00  0.10566000000E+00 0.  1.
     999900   -1    0    0    0    0 -0.00000000000E+00 -0.00000000000E+00 -0.74505805969E-08  0.93827000000E+00  0.93827000000E+00 0. -1.
     999902    2    1    2    0    0 -0.99752476563E-02 -0.18887836448E-01 -0.92559644610E-02  0.10206506355E+01  0.10203851190E+01 0.  0.
     999903    2    3    3    0    0 -0.44943006728E-01  0.89961884011E-01  0.78180234019E-01  0.12895781028E+00  0.20123454284E-01 0.  0.
         14    1    1    2    0    0  0.99752476563E-02  0.18887836448E-01  0.92559644610E-02  0.23279364459E-01  0.00000000000E+00 0.  1.
     999901    1    3    3    0    0  0.34967759072E-01 -0.10884972046E+00 -0.87436198480E-01  0.89169282526E+00  0.88000000000E+00 0. -1.
        -11    1    4    4    0    0 -0.13529542774E-01  0.37921545102E-01  0.42156399354E-01  0.58296785830E-01  0.51100000000E-03 0.  1.
         11    1    4    4    0    0 -0.31413463954E-01  0.52040338909E-01  0.36023834665E-01  0.70661024450E-01  0.51100000000E-03 0. -1.
</event>
<event>
 8    1  0.1072332E+005  0.1043930E+01  0.7957747E-01            NaN
         13   -1    0    0    0    0  0.00000000000E+00  0.00000000000E+00  0.74505805969E-08  0.10566000000E+00  0.10566000000E+00 0. -1.
     999900   -1    0    0    0    0 -0.00000000000E+00 -0.00000000000E+00 -0.74505805969E-08  0.93827000000E+00  0.93827000000E+00 0.  1.
     999902    2    1    2    0    0  0.12025251892E-01 -0.15507545896E-01 -0.69207742556E-02  0.10231216416E+01  0.10229100184E+01 0.  0.
     999903    2    3    3    0    0 -0.35026930990E-02 -0.12485563812E+00 -0.47988224279E-01  0.13526767963E+00  0.19831193952E-01 0.  0.
         14    1    1    2    0    0 -0.12025251892E-01  0.15507545896E-01  0.69207742556E-02  0.20808358395E-01  0.00000000000E+00 0. -1.
     999901    1    3    3    0    0  0.15527944991E-01  0.10934809222E+00  0.41067450024E-01  0.88785396198E+00  0.88000000000E+00 0. -1.
        -11    1    4    4    0    0  0.62675211849E-02 -0.22558114694E-01 -0.54297293563E-02  0.24039414349E-01  0.51100000000E-03 0. -1.
         11    1    4    4    0    0 -0.97702142840E-02 -0.10229752342E+00 -0.42558494923E-01  0.11122826528E+00  0.51100000000E-03 0.  1.
</event>
<event>
 8    1  0.1072332E+005  0.1043930E+01  0.7957747E-01            NaN
         13   -1    0    0    0    0  0.00000000000E+00  0.00000000000E+00  0.74505805969E-08  0.10566000000E+00  0.10566000000E+00 0.  1.
     999900   -1    0    0    0    0 -0.00000000000E+00 -0.00000000000E+00 -0.74505805969E-08  0.93827000000E+00  0.93827000000E+00 0.  1.
     999902    2    1    2    0    0 -0.64166341266E-03 -0.10805630848E-01 -0.21234937374E-01  0.10200952364E+01  0.10198167460E+01 0.  0.
     999903    2    3    3    0    0 -0.92991519222E-01 -0.84565093188E-02 -0.91959938065E-01  0.13243762226E+00  0.19082934367E-01 0.  0.
         14    1    1    2    0    0  0.64166341266E-03  0.10805630848E-01  0.21234937374E-01  0.23834763587E-01  0.00000000000E+00 0.  1.
     999901    1    3    3    0    0  0.92349855809E-01 -0.23491215289E-02  0.70725000691E-01  0.88765761415E+00  0.88000000000E+00 0. -1.
        -11    1    4    4    0    0 -0.53802085319E-01  0.44997661203E-02 -0.53867766852E-01  0.76268667920E-01  0.51100000000E-03 0.  1.
         11    1    4    4    0    0 -0.39189433903E-01 -0.12956275439E-01 -0.38092171214E-01  0.56168954340E-01  0.51100000000E-03 0. -1.
</event>
<event>
 8    1  0.1072332E+005  0.1043930E+01  0.7957747E-01            NaN
         13   -1    0    0    0    0  0.00000000000E+00  0.00000000000E+00  0.74505805969E-08  0.10566000000E+00  0.10566000000E+00 0. -1.
     999900   -1    0    0    0    0 -0.00000000000E+00 -0.00000000000E+00 -0.74505805969E-08  0.93827000000E+00  0.93827000000E+00 0.  1.
     999902    2    1    2    0    0  0.91758677280E-02 -0.22307151352E-01  0.38386105984E-02  0.10195058218E+01  0.10192132162E+01 0.  0.
     999903    2    3    3    0    0  0.82957972790E-01 -0.93709176217E-01 -0.38583919095E-01  0.13252120005E+00  0.20241410328E-01 0.  0.
         14    1    1    2    0    0 -0.91758677280E-02  0.22307151352E-01 -0.38386105984E-02  0.24424178212E-01  0.00000000000E+00 0. -1.
     999901    1    3    3    0    0 -0.73782105062E-01  0.71402024865E-01  0.42422529693E-01  0.88698462174E+00  0.88000000000E+00 0. -1.
        -11    1    4    4    0    0  0.76147667798E-02 -0.19442717753E-01 -0.83258894333E-02  0.22485228542E-01  0.51100000000E-03 0.  1.
         11    1    4    4    0    0  0.75343206010E-01 -0.74266458464E-01 -0.30258029662E-01  0.11003597150E+00  0.51100000000E-03 0. -1.
</event>
<event>
 8    1  0.1072332E+005  0.1043930E+01  0.7957747E-01            NaN
         13   -1    0    0    0    0  0.00000000000E+00  0.00000000000E+00  0.74505805969E-08  0.10566000000E+00  0.10566000000E+00 0.  1.
     999900   -1    0    0    0    0 -0.00000000000E+00 -0.00000000000E+00 -0.74505805969E-08  0.93827000000E+00  0.93827000000E+00 0.  1.
     999902    2    1    2    0    0 -0.38484807266E-02  0.13071275370E-01 -0.19333117235E-01  0.10202775484E+01  0.10200033516E+01 0.  0.
     999903    2    3    3    0    0 -0.95009940658E-01 -0.65537208662E-01 -0.59220571246E-01  0.13118772477E+00  0.19522513350E-01 0.  0.
         14    1    1    2    0    0  0.38484807266E-02 -0.13071275370E-01  0.19333117235E-01  0.23652451580E-01  0.00000000000E+00 0.  1.
     999901    1    3    3    0    0  0.91161459931E-01  0.78608484032E-01  0.39887454011E-01  0.88908982365E+00  0.88000000000E+00 0. -1.
        -11    1    4    4    0    0 -0.77503362366E-01 -0.59830512139E-01 -0.54955319872E-01  0.11228005016E+00  0.51100000000E-03 0. -1.
         11    1    4    4    0    0 -0.17506578291E-01 -0.57066965226E-02 -0.42652513744E-02  0.18907674605E-01  0.51100000000E-03 0.  1.
</event>
<event>
 8    1  0.1072332E+005  0.1043930E+01  0.7957747E-01            NaN
         13   -1    0    0    0    0  0.00000000000E+00  0.00000000000E+00  0.74505805969E-08  0.10566000000E+00  0.10566000000E+00 0.  1.
     999900   -1    0    0    0    0 -0.00000000000E+00 -0.00000000000E+00 -0.74505805969E-08  0.93827000000E+00  0.93827000000E+00 0.  1.
     999902    2    1    2    0    0  0.30150607432E-02  0.19353574626E-02  0.22240994162E-01  0.10214022833E+01  0.10211538211E+01 0.  0.
     999903    2    3    3    0    0 -0.11127099979E+00  0.65199529127E-01  0.17340771219E-01  0.13174635470E+00  0.20595767469E-01 0.  0.
         14    1    1    2    0    0 -0.30150607432E-02 -0.19353574626E-02 -0.22240994162E-01  0.22527716730E-01  0.00000000000E+00 0. -1.
     999901    1    3    3    0    0  0.11428606054E+00 -0.63264171664E-01  0.49002229422E-02  0.88965592857E+00  0.88000000000E+00 0.  1.
        -11    1    4    4    0    0 -0.81485620158E-01  0.40582251837E-01  0.19279899743E-01  0.93052679229E-01  0.51100000000E-03 0. -1.
         11    1    4    4    0    0 -0.29785379635E-01  0.24617277291E-01 -0.19391285240E-02  0.38693675474E-01  0.51100000000E-03 0.  1.
</event>
<event>
 8    1  0.1072332E+005  0.1043930E+01  0.7957747E-01            NaN
         13   -1    0    0    0    0  0.00000000000E+00  0.00000000000E+00  0.74505805969E-08  0.10566000000E+00  0.10566000000E+00 0.  1.
     999900   -1    0    0    0    0 -0.00000000000E+00 -0.00000000000E+00 -0.74505805969E-08  0.93827000000E+00  0.93827000000E+00 0. -1.
     999902    2    1    2    0    0  0.11770715941E-01 -0.18138099964E-01 -0.29191211363E-02  0.10221111620E+01  0.10218782539E+01 0.  0.
     999903    2    3    3    0    0 -0.22839781598E-01  0.15536749439E-01  0.12670451586E+00  0.13130581328E+00  0.20594563713E-01 0.  0.
         14    1    1    2    0    0 -0.11770715941E-01  0.18138099964E-01  0.29191211363E-02  0.21818838014E-01  0.00000000000E+00 0.  1.
     999901    1    3    3    0    0  0.34610497539E-01 -0.33674849403E-01 -0.12962363700E+00  0.89080534871E+00  0.88000000000E+00 0. -1.
        -11    1    4    4    0    0 -0.54926343652E-02 -0.43252326675E-02  0.42276886552E-01  0.42854088806E-01  0.51100000000E-03 0.  1.
         11    1    4    4    0    0 -0.17347147233E-01  0.19861982106E-01  0.84427629307E-01  0.88451724470E-01  0.51100000000E-03 0. -1.
</event>
<event>
 8    1  0.1072332E+005  0.1043930E+01  0.7957747E-01            NaN
         13   -1    0    0    0    0  0.00000000000E+00  0.00000000000E+00  0.74505805969E-08  0.10566000000E+00  0.10566000000E+00 0.  1.
     999900   -1    0    0    0    0 -0.00000000000E+00 -0.00000000000E+00 -0.74505805969E-08  0.93827000000E+00  0.93827000000E+00 0.  1.
     999902    2    1    2    0    0  0.13473719113E-01  0.14667035188E-01 -0.12592893839E-01  0.10203663839E+01  0.10200942669E+01 0.  0.
     999903    2    3    3    0    0 -0.95263020288E-01 -0.83301673154E-01 -0.48836271811E-02  0.12824476714E+00  0.20215308576E-01 0.  0.
         14    1    1    2    0    0 -0.13473719113E-01 -0.14667035188E-01  0.12592893839E-01  0.23563616089E-01  0.00000000000E+00 0.  1.
     999901    1    3    3    0    0  0.10873673940E+00  0.97968708342E-01 -0.77092666582E-02  0.89212161677E+00  0.88000000000E+00 0. -1.
        -11    1    4    4    0    0 -0.18743524262E-01 -0.19782668624E-01 -0.90170924623E-02  0.28709628300E-01  0.51100000000E-03 0.  1.
         11    1    4    4    0    0 -0.76519496026E-01 -0.63519004530E-01  0.41334652812E-02  0.99535138844E-01  0.51100000000E-03 0. -1.
</event>
<event>
 8    1  0.1072332E+005  0.1043930E+01  0.7957747E-01            NaN
         13   -1    0    0    0    0  0.00000000000E+00  0.00000000000E+00  0.74505805969E-08  0.10566000000E+00  0.10566000000E+00 0.  1.
     999900   -1    0    0    0    0 -0.00000000000E+00 -0.00000000000E+00 -0.74505805969E-08  0.93827000000E+00  0.93827000000E+00 0.  1.
     999902    2    1    2    0    0 -0.38379868437E-02 -0.23721824980E-01  0.34008684300E-02  0.10196602446E+01  0.10193713716E+01 0.  0.
     999903    2    3    3    0    0 -0.50845622542E-01  0.11446792475E+00 -0.12698736093E-01  0.12749135807E+00  0.20114804413E-01 0.  0.
         14    1    1    2    0    0  0.38379868437E-02  0.23721824980E-01 -0.34008684300E-02  0.24269755448E-01  0.00000000000E+00 0. -1.
     999901    1    3    3    0    0  0.47007635698E-01 -0.13818974973E+00  0.16099604523E-01  0.89216888648E+00  0.88000000000E+00 0. -1.
        -11    1    4    4    0    0 -0.30622022705E-01  0.45173846662E-01 -0.78938873824E-02  0.55144893470E-01  0.51100000000E-03 0. -1.
         11    1    4    4    0    0 -0.20223599837E-01  0.69294078084E-01 -0.48048487107E-02  0.72346464599E-01  0.51100000000E-03 0.  1.
</event>
<event>
 8    1  0.1072332E+005  0.1043930E+01  0.7957747E-01            NaN
         13   -1    0    0    0    0  0.00000000000E+00  0.00000000000E+00  0.74505805969E-08  0.10566000000E+00  0.10566000000E+00 0.  1.
     999900   -1    0    0    0    0 -0.00000000000E+00 -0.00000000000E+00 -0.74505805969E-08  0.93827000000E+00  0.93827000000E+00 0. -1.
     999902    2    1    2    0    0  0.11939568907E-01 -0.20323687488E-01  0.35574443637E-02  0.10200917746E+01  0.10198132023E+01 0.  0.
     999903    2    3    3    0    0  0.69317750859E-01  0.50099961651E-01  0.96465322677E-01  0.13055053332E+00  0.20565177596E-01 0.  0.
         14    1    1    2    0    0 -0.11939568907E-01  0.20323687488E-01 -0.35574443637E-02  0.23838225378E-01  0.00000000000E+00 0.  1.
     999901    1    3    3    0    0 -0.57378181952E-01 -0.70423649139E-01 -0.92907878313E-01  0.88954124130E+00  0.88000000000E+00 0. -1.
        -11    1    4    4    0    0  0.29139026794E-01  0.33698286425E-01  0.47773359438E-01  0.65323903615E-01  0.51100000000E-03 0.  1.
         11    1    4    4    0    0  0.40178724066E-01  0.16401675226E-01  0.48691963238E-01  0.65226629706E-01  0.51100000000E-03 0. -1.
</event>
<event>
 8    1  0.1072332E+005  0.1043930E+01  0.7957747E-01            NaN
         13   -1    0    0    0    0  0.00000000000E+00  0.00000000000E+00  0.74505805969E-08  0.10566000000E+00  0.10566000000E+00 0. -1.
     999900   -1    0    0    0    0 -0.00000000000E+00 -0.00000000000E+00 -0.74505805969E-08  0.93827000000E+00  0.93827000000E+00 0.  1.
     999902    2    1    2    0    0 -0.64314352387E-02  0.24803113245E-01 -0.64759960291E-02  0.10175009192E+01  0.10171576202E+01 0.  0.
     999903    2    3    3    0    0 -0.82577127465E-01  0.94263252695E-01  0.31041150961E-01  0.13069180012E+00  0.20303959617E-01 0.  0.
         14    1    1    2    0    0  0.64314352387E-02 -0.24803113245E-01  0.64759960291E-02  0.26429080772E-01  0.00000000000E+00 0.  1.
     999901    1    3    3    0    0  0.76145692227E-01 -0.69460139450E-01 -0.37517146990E-01  0.88680911911E+00  0.88000000000E+00 0.  1.
        -11    1    4    4    0    0 -0.53500741627E-01  0.61494388603E-01  0.10108887912E-01  0.82136106069E-01  0.51100000000E-03 0.  1.
         11    1    4    4    0    0 -0.29076385839E-01  0.32768864092E-01  0.20932263049E-01  0.48555694050E-01  0.51100000000E-03 0. -1.
</event>
<event>
 8    1  0.1072332E+005  0.1043930E+01  0.7957747E-01            NaN
         13   -1    0    0    0    0  0.00000000000E+00  0.00000000000E+00  0.74505805969E-08  0.10566000000E+00  0.10566000000E+00 0.  1.
     999900   -1    0    0    0    0 -0.00000000000E+00 -0.00000000000E+00 -0.74505805969E-08  0.93827000000E+00  0.93827000000E+00 0.  1.
     999902    2    1    2    0    0  0.25928722260E-02 -0.75230335387E-03  0.21183947194E-01  0.10225747064E+01  0.10223516917E+01 0.  0.
     999903    2    3    3    0    0 -0.21171208416E-01 -0.10014808661E+00  0.84664638989E-01  0.13438888602E+00  0.20357118484E-01 0.  0.
         14    1    1    2    0    0 -0.25928722260E-02  0.75230335387E-03 -0.21183947194E-01  0.21355293616E-01  0.00000000000E+00 0. -1.
     999901    1    3    3    0    0  0.23764080642E-01  0.99395783261E-01 -0.63480691795E-01  0.88818582036E+00  0.88000000000E+00 0.  1.
        -11    1    4    4    0    0 -0.36864726270E-02 -0.50852606327E-01  0.32204655681E-01  0.60307367868E-01  0.51100000000E-03 0.  1.
         11    1    4    4    0    0 -0.17484735789E-01 -0.49295480288E-01  0.52459983309E-01  0.74081518155E-01  0.51100000000E-03 0. -1.
</event>
<event>
 8    1  0.1072332E+005  0.1043930E+01  0.7957747E-01            NaN
         13   -1    0    0    0    0  0.00000000000E+00  0.00000000000E+00  0.74505805969E-08  0.10566000000E+00  0.10566000000E+00 0.  1.
     999900   -1    0    0    0    0 -0.00000000000E+00 -0.00000000000E+00 -0.74505805969E-08  0.93827000000E+00  0.93827000000E+00 0. -1.
     999902    2    1    2    0    0 -0.18262727168E-01  0.14155468071E-01  0.63528756690E-02  0.10199662042E+01  0.10196846543E+01 0.  0.
     999903    2    3    3    0    0 -0.65457741323E-01 -0.10872342968E+00 -0.18413983987E-01  0.12983138845E+00  0.20288286267E-01 0.  0.
         14    1    1    2    0    0  0.18262727168E-01 -0.14155468071E-01 -0.63528756690E-02  0.23963795801E-01  0.00000000000E+00 0. -1.
     999901    1    3    3    0    0  0.47195014155E-01  0.12287889775E+00  0.24766859656E-01  0.89013481575E+00  0.88000000000E+00 0.  1.
        -11    1    4    4    0    0 -0.35535172869E-01 -0.59812435282E-01  0.10735829588E-03  0.69574050996E-01  0.51100000000E-03 0.  1.
         11    1    4    4    0    0 -0.29922568454E-01 -0.48910994398E-01 -0.18521342283E-01  0.60257337452E-01  0.51100000000E-03 0. -1.
</event>
<event>
 8    1  0.1072332E+005  0.1043930E+01  0.7957747E-01            NaN
         13   -1    0    0    0    0  0.00000000000E+00  0.00000000000E+00  0.74505805969E-08  0.10566000000E+00  0.10566000000E+00 0.  1.
     999900   -1    0    0    0    0 -0.00000000000E+00 -0.00000000000E+00 -0.74505805969E-08  0.93827000000E+00  0.93827000000E+00 0.  1.
     999902    2    1    2    0    0  0.91259920952E-02  0.13021240142E-01  0.18003965949E-01  0.10199096083E+01  0.10196267111E+01 0.  0.
     999903    2    3    3    0    0 -0.87200607474E-01 -0.63721380617E-01 -0.64685881907E-01  0.12749386744E+00  0.20150995663E-01 0.  0.
         14    1    1    2    0    0 -0.91259920952E-02 -0.13021240142E-01 -0.18003965949E-01  0.24020391679E-01  0.00000000000E+00 0. -1.
     999901    1    3    3    0    0  0.96326599570E-01  0.76742620758E-01  0.82689847856E-01  0.89241574088E+00  0.88000000000E+00 0. -1.
        -11    1    4    4    0    0 -0.26013655368E-01 -0.12854322806E-01 -0.90411463882E-02  0.30396501927E-01  0.51100000000E-03 0.  1.
         11    1    4    4    0    0 -0.61186952107E-01 -0.50867057810E-01 -0.55644735519E-01  0.97097365517E-01  0.51100000000E-03 0. -1.
</event>
<event>
 8    1  0.1072332E+005  0.1043930E+01  0.7957747E-01            NaN
         13   -1    0    0    0    0  0.00000000000E+00  0.00000000000E+00  0.74505805969E-08  0.10566000000E+00  0.10566000000E+00 0. -1.
     999900   -1    0    0    0    0 -0.00000000000E+00 -0.00000000000E+00 -0.74505805969E-08  0.93827000000E+00  0.93827000000E+00 0. -1.
     999902    2    1    2    0    0  0.27594695017E-02  0.22978336185E-01 -0.62352368534E-02  0.10199613375E+01  0.10196796718E+01 0.  0.
     999903    2    3    3    0    0  0.18723327058E-01 -0.85560534222E-01  0.90924478085E-01  0.12784276835E+00  0.20133174379E-01 0.  0.
         14    1    1    2    0    0 -0.27594695017E-02 -0.22978336185E-01  0.62352368534E-02  0.23968662549E-01  0.00000000000E+00 0.  1.
     999901    1    3    3    0    0 -0.15963857556E-01  0.10853887041E+00 -0.97159714939E-01  0.89211856911E+00  0.88000000000E+00 0. -1.
        -11    1    4    4    0    0  0.66727533823E-02 -0.48588588286E-02  0.81733868798E-02  0.11627532881E-01  0.51100000000E-03 0.  1.
         11    1    4    4    0    0  0.12050573676E-01 -0.80701675394E-01  0.82751091205E-01  0.11621523546E+00  0.51100000000E-03 0. -1.
</event>
<event>
 8    1  0.1072332E+005  0.1043930E+01  0.7957747E-01            NaN
         13   -1    0    0    0    0  0.00000000000E+00  0.00000000000E+00  0.74505805969E-08  0.10566000000E+00  0.10566000000E+00 0.  1.
     999900   -1    0    0    0    0 -0.00000000000E+00 -0.00000000000E+00 -0.74505805969E-08  0.93827000000E+00  0.93827000000E+00 0.  1.
     999902    2    1    2    0    0  0.74080149624E-03  0.39618016677E-02  0.23295924231E-01  0.10202879877E+01  0.10200140357E+01 0.  0.
     999903    2    3    3    0    0  0.12320120721E+00  0.36572411297E-01 -0.11820136491E-01  0.13051658980E+00  0.19462421740E-01 0.  0.
         14    1    1    2    0    0 -0.74080149624E-03 -0.39618016677E-02 -0.23295924231E-01  0.23642012289E-01  0.00000000000E+00 0. -1.
     999901    1    3    3    0    0 -0.12246040571E+00 -0.32610609629E-01  0.35116060722E-01  0.88977139792E+00  0.88000000000E+00 0. -1.
        -11    1    4    4    0    0  0.68687727014E-01  0.20187266481E-01  0.31238103339E-02  0.71662744033E-01  0.51100000000E-03 0. -1.
         11    1    4    4    0    0  0.54513480193E-01  0.16385144815E-01 -0.14943946825E-01  0.58853845763E-01  0.51100000000E-03 0.  1.
</event>
<event>
 8    1  0.1072332E+005  0.1043930E+01  0.7957747E-01            NaN
         13   -1    0    0    0    0  0.00000000000E+00  0.00000000000E+00  0.74505805969E-08  0.10566000000E+00  0.10566000000E+00 0.  1.
     999900   -1    0    0    0    0 -0.00000000000E+00 -0.00000000000E+00 -0.74505805969E-08  0.93827000000E+00  0.93827000000E+00 0.  1.
     999902    2    1    2    0    0 -0.21816126636E-01 -0.49680614342E-02  0.34668664368E-02  0.10212883530E+01  0.10210373430E+01 0.  0.
     999903    2    3    3    0    0 -0.12236733194E+00  0.21208109646E-01 -0.45849398562E-01  0.13380436396E+00  0.19439460472E-01 0.  0.
         14    1    1    2    0    0  0.21816126636E-01  0.49680614342E-02 -0.34668664368E-02  0.22641646996E-01  0.00000000000E+00 0.  1.
     999901    1    3    3    0    0  0.10055120531E+00 -0.26176171080E-01  0.49316264999E-01  0.88748398905E+00  0.88000000000E+00 0. -1.
        -11    1    4    4    0    0 -0.60016995611E-01  0.97640797676E-02 -0.12150864085E-01  0.62010334904E-01  0.51100000000E-03 0.  1.
         11    1    4    4    0    0 -0.62350336333E-01  0.11444029878E-01 -0.33698534478E-01  0.71794029053E-01  0.51100000000E-03 0. -1.
</event>
<event>
 8    1  0.1072332E+005  0.1043930E+01  0.7957747E-01            NaN
         13   -1    0    0    0    0  0.00000000000E+00  0.00000000000E+00  0.74505805969E-08  0.10566000000E+00  0.10566000000E+00 0.  1.
     999900   -1    0    0    0    0 -0.00000000000E+00 -0.00000000000E+00 -0.74505805969E-08  0.93827000000E+00  0.93827000000E+00 0. -1.
     999902    2    1    2    0    0  0.20623869992E-01  0.91646424229E-02  0.71413149121E-02  0.10202586447E+01  0.10199840043E+01 0.  0.
     999903    2    3    3    0    0  0.10677747217E+00 -0.30503354974E-01 -0.68435056644E-01  0.13194125707E+00  0.19830660926E-01 0.  0.
         14    1    1    2    0    0 -0.20623869992E-01 -0.91646424229E-02 -0.71413149121E-02  0.23671355324E-01  0.00000000000E+00 0.  1.
     999901    1    3    3    0    0 -0.86153602174E-01  0.39667997397E-01  0.75576371556E-01  0.88831738761E+00  0.88000000000E+00 0. -1.
        -11    1    4    4    0    0  0.87547261413E-01 -0.28823583225E-01 -0.63753045307E-01  0.11207155677E+00  0.51100000000E-03 0.  1.
         11    1    4    4    0    0  0.19230210753E-01 -0.16797717491E-02 -0.46820113370E-02  0.19869700297E-01  0.51100000000E-03 0. -1.
</event>
<event>
 8    1  0.1072332E+005  0.1043930E+01  0.7957747E-01            NaN
         13   -1    0    0    0    0  0.00000000000E+00  0.00000000000E+00  0.74505805969E-08  0.10566000000E+00  0.10566000000E+00 0. -1.
     999900   -1    0    0    0    0 -0.00000000000E+00 -0.00000000000E+00 -0.74505805969E-08  0.93827000000E+00  0.93827000000E+00 0. -1.
     999902    2    1    2    0    0  0.15597759537E-01 -0.15164777685E-01 -0.90929753348E-02  0.10203515610E+01  0.10200790976E+01 0.  0.
     999903    2    3    3    0    0  0.58533189657E-01 -0.97958310902E-01 -0.66543307322E-01  0.13356028853E+00  0.19707205698E-01 0.  0.
         14    1    1    2    0    0 -0.15597759537E-01  0.15164777685E-01  0.90929753348E-02  0.23578438990E-01  0.00000000000E+00 0. -1.
     999901    1    3    3    0    0 -0.42935430120E-01  0.82793533218E-01  0.57450331987E-01  0.88679127248E+00  0.88000000000E+00 0. -1.
        -11    1    4    4    0    0  0.49671871949E-01 -0.72282701512E-01 -0.43323603661E-01  0.97822694484E-01  0.51100000000E-03 0. -1.
         11    1    4    4    0    0  0.88613177076E-02 -0.25675609390E-01 -0.23219703661E-01  0.35737594045E-01  0.51100000000E-03 0.  1.
</event>
<event>
 8    1  0.1072332E+005  0.1043930E+01  0.7957747E-01            NaN
         13   -1    0    0    0    0  0.00000000000E+00  0.00000000000E+00  0.74505805969E-08  0.10566000000E+00  0.10566000000E+00 0. -1.
     999900   -1    0    0    0    0 -0.00000000000E+00 -0.00000000000E+00 -0.74505805969E-08  0.93827000000E+00  0.93827000000E+00 0. -1.
     999902    2    1    2    0    0  0.75963145271E-02 -0.12470526783E-01  0.18138787535E-01  0.10206440891E+01  0.10203784215E+01 0.  0.
     999903    2    3    3    0    0 -0.72653937892E-02  0.12526418440E+00  0.26048022599E-01  0.12977132769E+00  0.20449845237E-01 0.  0.
         14    1    1    2    0    0 -0.75963145271E-02  0.12470526783E-01 -0.18138787535E-01  0.23285910888E-01  0.00000000000E+00 0.  1.
     999901    1    3    3    0    0  0.14861708316E-01 -0.13773471118E+00 -0.79092350638E-02  0.89087276142E+00  0.88000000000E+00 0.  1.
        -11    1    4    4    0    0 -0.53800224932E-02  0.66518915905E-01  0.35416293605E-02  0.66831991402E-01  0.51100000000E-03 0. -1.
         11    1    4    4    0    0 -0.18853712959E-02  0.58745268493E-01  0.22506393238E-01  0.62939336291E-01  0.51100000000E-03 0.  1.
</event>
<event>
 8    1  0.1072332E+005  0.1043930E+01  0.7957747E-01            NaN
         13   -1    0    0    0    0  0.00000000000E+00  0.00000000000E+00  0.74505805969E-08  0.10566000000E+00  0.10566000000E+00 0.  1.
     999900   -1    0    0    0    0 -0.00000000000E+00 -0.00000000000E+00 -0.74505805969E-08  0.93827000000E+00  0.93827000000E+00 0. -1.
     999902    2    1    2    0    0  0.21967085864E-02 -0.11326967138E-01 -0.20691472480E-01  0.10202390155E+01  0.10199639141E+01 0.  0.
     999903    2    3    3    0    0 -0.12694151124E-01  0.12670800117E+00  0.54115079071E-02  0.12897207694E+00  0.19709215598E-01 0.  0.
         14    1    1    2    0    0 -0.21967085864E-02  0.11326967138E-01  0.20691472480E-01  0.23690984499E-01  0.00000000000E+00 0.  1.
     999901    1    3    3    0    0  0.14890859711E-01 -0.13803496831E+00 -0.26102980387E-01  0.89126693856E+00  0.88000000000E+00 0. -1.
        -11    1    4    4    0    0  0.34976985623E-02  0.52606216193E-01 -0.19716364879E-02  0.52761693953E-01  0.51100000000E-03 0. -1.
         11    1    4    4    0    0 -0.16191849686E-01  0.74101784979E-01  0.73831443950E-02  0.76210382991E-01  0.51100000000E-03 0.  1.
</event>
<event>
 8    1  0.1072332E+005  0.1043930E+01  0.7957747E-01            NaN
         13   -1    0    0    0    0  0.00000000000E+00  0.00000000000E+00  0.74505805969E-08  0.10566000000E+00  0.10566000000E+00 0.  1.
     999900   -1    0    0    0    0 -0.00000000000E+00 -0.00000000000E+00 -0.74505805969E-08  0.93827000000E+00  0.93827000000E+00 0. -1.
     999902    2    1    2    0    0  0.39666967452E-02  0.71297023492E-02  0.21960047105E-01  0.10205032843E+01  0.10202343566E+01 0.  0.
     999903    2    3    3    0    0  0.31644692862E-01  0.10691246030E+00 -0.65589744809E-01  0.13011705559E+00  0.14027572043E-01 0.  0.
         14    1    1    2    0    0 -0.39666967452E-02 -0.71297023492E-02 -0.21960047105E-01  0.23426715679E-01  0.00000000000E+00 0. -1.
     999901    1    3    3    0    0 -0.27677996117E-01 -0.99782757949E-01  0.87549791915E-01  0.89038622873E+00  0.88000000000E+00 0.  1.
        -11    1    4    4    0    0  0.20988578236E-01  0.75455318575E-01 -0.38597610046E-01  0.87315875646E-01  0.51100000000E-03 0.  1.
         11    1    4    4    0    0  0.10656114626E-01  0.31457141722E-01 -0.26992134764E-01  0.42801179941E-01  0.51100000000E-03 0. -1.
</event>
<event>
 8    1  0.1072332E+005  0.1043930E+01  0.7957747E-01            NaN
         13   -1    0    0    0    0  0.00000000000E+00  0.00000000000E+00  0.74505805969E-08  0.10566000000E+00  0.10566000000E+00 0.  1.
     999900   -1    0    0    0    0 -0.00000000000E+00 -0.00000000000E+00 -0.74505805969E-08  0.93827000000E+00  0.93827000000E+00 0. -1.
     999902    2    1    2    0    0  0.45678518187E-02 -0.22239208181E-01  0.80862275015E-02  0.10198294870E+01  0.10195446767E+01 0.  0.
     999903    2    3    3    0    0  0.12265178007E+00 -0.15000217278E-01 -0.37578966182E-01  0.13073920644E+00  0.20300141080E-01 0.  0.
         14    1    1    2    0    0 -0.45678518187E-02  0.22239208181E-01 -0.80862275015E-02  0.24100512981E-01  0.00000000000E+00 0.  1.
     999901    1    3    3    0    0 -0.11808392826E+00 -0.72389909031E-02  0.45665193683E-01  0.88909028058E+00  0.88000000000E+00 0. -1.
        -11    1    4    4    0    0  0.43626576904E-01 -0.11536231046E-02 -0.42154659509E-02  0.43847922788E-01  0.51100000000E-03 0. -1.
         11    1    4    4    0    0  0.79025203170E-01 -0.13846594173E-01 -0.33363500231E-01  0.86891283654E-01  0.51100000000E-03 0.  1.
</event>
<event>
 8    1  0.1072332E+005  0.1043930E+01  0.7957747E-01            NaN
         13   -1    0    0    0    0  0.00000000000E+00  0.00000000000E+00  0.74505805969E-08  0.10566000000E+00  0.10566000000E+00 0. -1.
     999900   -1    0    0    0    0 -0.00000000000E+00 -0.00000000000E+00 -0.74505805969E-08  0.93827000000E+00  0.93827000000E+00 0.  1.
     999902    2    1    2    0    0 -0.77391580000E-02 -0.12098669321E-01 -0.18454055323E-01  0.10205457206E+01  0.10202777775E+01 0.  0.
     999903    2    3    3    0    0 -0.11267871040E+00 -0.22212583040E-01 -0.63040025854E-01  0.13313233908E+00  0.23670323768E-01 0.  0.
         14    1    1    2    0    0  0.77391580000E-02  0.12098669321E-01  0.18454055323E-01  0.23384279415E-01  0.00000000000E+00 0. -1.
     999901    1    3    3    0    0  0.10493955240E+00  0.10113913719E-01  0.44585970531E-01  0.88741338151E+00  0.88000000000E+00 0.  1.
        -11    1    4    4    0    0 -0.16042655779E-01  0.18918229957E-02 -0.16838956422E-01  0.23340037983E-01  0.51100000000E-03 0.  1.
         11    1    4    4    0    0 -0.96636054617E-01 -0.24104406036E-01 -0.46201069432E-01  0.10979230110E+00  0.51100000000E-03 0. -1.
</event>
<event>
 8    1  0.1072332E+005  0.1043930E+01  0.7957747E-01            NaN
         13   -1    0    0    0    0  0.00000000000E+00  0.00000000000E+00  0.74505805969E-08  0.10566000000E+00  0.10566000000E+00 0.  1.
     999900   -1    0    0    0    0 -0.00000000000E+00 -0.00000000000E+00 -0.74505805969E-08  0.93827000000E+00  0.93827000000E+00 0. -1.
     999902    2    1    2    0    0  0.74585973217E-03 -0.18863645715E-01 -0.14044923266E-01  0.10204001614E+01  0.10201288330E+01 0.  0.
     999903    2    3    3    0    0 -0.11898968115E+00 -0.42781801338E-01 -0.30691014847E-01  0.13181377261E+00  0.21073811037E-01 0.  0.
         14    1    1    2    0    0 -0.74585973217E-03  0.18863645715E-01  0.14044923266E-01  0.23529838630E-01  0.00000000000E+00 0.  1.
     999901    1    3    3    0    0  0.11973554089E+00  0.23918155623E-01  0.16646091581E-01  0.88858638876E+00  0.88000000000E+00 0. -1.
        -11    1    4    4    0    0 -0.81932555185E-01 -0.30979654947E-01 -0.30997145625E-01  0.92918064862E-01  0.51100000000E-03 0.  1.
         11    1    4    4    0    0 -0.37057125968E-01 -0.11802146391E-01  0.30613077813E-03  0.38895707752E-01  0.51100000000E-03 0. -1.
</event>
<event>
 8    1  0.1072332E+005  0.1043930E+01  0.7957747E-01            NaN
         13   -1    0    0    0    0  0.00000000000E+00  0.00000000000E+00  0.74505805969E-08  0.10566000000E+00  0.10566000000E+00 0. -1.
     999900   -1    0    0    0    0 -0.00000000000E+00 -0.00000000000E+00 -0.74505805969E-08  0.93827000000E+00  0.93827000000E+00 0. -1.
     999902    2    1    2    0    0  0.16759615331E-01 -0.15403975184E-01 -0.68404886879E-02  0.10201611245E+01  0.10198841897E+01 0.  0.
     999903    2    3    3    0    0 -0.14602994321E-01  0.48072677031E-01 -0.11864803597E+00  0.13026572261E+00  0.19172175858E-01 0.  0.
         14    1    1    2    0    0 -0.16759615331E-01  0.15403975184E-01  0.68404886879E-02  0.23768875510E-01  0.00000000000E+00 0.  1.
     999901    1    3    3    0    0  0.31362609652E-01 -0.63476652215E-01  0.11180754728E+00  0.88989540188E+00  0.88000000000E+00 0.  1.
        -11    1    4    4    0    0 -0.14827797805E-01  0.29766225272E-01 -0.57415341753E-01  0.66352651374E-01  0.51100000000E-03 0.  1.
         11    1    4    4    0    0  0.22480348447E-03  0.18306451759E-01 -0.61232694217E-01  0.63913071235E-01  0.51100000000E-03 0. -1.
</event>
<event>
 8    1  0.1072332E+005  0.1043930E+01  0.7957747E-01            NaN
         13   -1    0    0    0    0  0.00000000000E+00  0.00000000000E+00  0.74505805969E-08  0.10566000000E+00  0.10566000000E+00 0. -1.
     999900   -1    0    0    0    0 -0.00000000000E+00 -0.00000000000E+00 -0.74505805969E-08  0.93827000000E+00  0.93827000000E+00 0.  1.
     999902    2    1    2    0    0 -0.16395718894E-01 -0.12848907578E-01 -0.61534308858E-02  0.10222095319E+01  0.10219787416E+01 0.  0.
     999903    2    3    3    0    0  0.68450027201E-03  0.27010900002E-02  0.12979971528E+00  0.13147006701E+00  0.20703816184E-01 0.  0.
         14    1    1    2    0    0  0.16395718894E-01  0.12848907578E-01  0.61534308858E-02  0.21720468127E-01  0.00000000000E+00 0. -1.
     999901    1    3    3    0    0 -0.17080219166E-01 -0.15549997578E-01 -0.13595314617E+00  0.89073946486E+00  0.88000000000E+00 0.  1.
        -11    1    4    4    0    0  0.39460665749E-02 -0.84071498668E-02  0.57213759931E-01  0.57964877786E-01  0.51100000000E-03 0. -1.
         11    1    4    4    0    0 -0.32615663029E-02  0.11108239867E-01  0.72585955351E-01  0.73505189224E-01  0.51100000000E-03 0.  1.
</event>
<event>
 8    1  0.1072332E+005  0.1043930E+01  0.7957747E-01            NaN
         13   -1    0    0    0    0  0.00000000000E+00  0.00000000000E+00  0.74505805969E-08  0.10566000000E+00  0.10566000000E+00 0.  1.
     999900   -1    0    0    0    0 -0.00000000000E+00 -0.00000000000E+00 -0.74505805969E-08  0.93827000000E+00  0.93827000000E+00 0.  1.
     999902    2    1    2    0    0 -0.15760303485E-01  0.48329831074E-02  0.16491780155E-01  0.10206121162E+01  0.10203457101E+01 0.  0.
     999903    2    3    3    0    0 -0.10161267825E+00 -0.65617090783E-01  0.51695933834E-01  0.13293358454E+00  0.19186696927E-01 0.  0.
         14    1    1    2    0    0  0.15760303485E-01 -0.48329831074E-02 -0.16491780155E-01  0.23317883787E-01  0.00000000000E+00 0. -1.
     999901    1    3    3    0    0  0.85852374763E-01  0.70450073890E-01 -0.35204153679E-01  0.88767853168E+00  0.88000000000E+00 0.  1.
        -11    1    4    4    0    0 -0.18901985159E-01 -0.21745679217E-01  0.11014400515E-01  0.30850247119E-01  0.51100000000E-03 0. -1.
         11    1    4    4    0    0 -0.82710693089E-01 -0.43871411565E-01  0.40681533319E-01  0.10208333742E+00  0.51100000000E-03 0.  1.
</event>
<event>
 8    1  0.1072332E+005  0.1043930E+01  0.7957747E-01            NaN
         13   -1    0    0    0    0  0.00000000000E+00  0.00000000000E+00  0.74505805969E-08  0.10566000000E+00  0.10566000000E+00 0.  1.
     999900   -1    0    0    0    0 -0.00000000000E+00 -0.00000000000E+00 -0.74505805969E-08  0.93827000000E+00  0.93827000000E+00 0.  1.
     999902    2    1    2    0    0  0.17693913585E-03  0.11969945818E-01  0.19575104227E-01  0.10209845077E+01  0.10207266379E+01 0.  0.
     999903    2    3    3    0    0  0.73464065395E-01  0.67478388710E-01  0.86897975948E-01  0.13363758618E+00  0.18906199247E-01 0.  0.
         14    1    1    2    0    0 -0.17693913585E-03 -0.11969945818E-01 -0.19575104227E-01  0.22945492277E-01  0.00000000000E+00 0. -1.
     999901    1    3    3    0    0 -0.73287126259E-01 -0.55508442892E-01 -0.67322871721E-01  0.88734692154E+00  0.88000000000E+00 0. -1.
        -11    1    4    4    0    0  0.22957219744E-01  0.15815995841E-01  0.34645203613E-01  0.44471686691E-01  0.51100000000E-03 0. -1.
         11    1    4    4    0    0  0.50506845651E-01  0.51662392869E-01  0.52252772335E-01  0.89165899493E-01  0.51100000000E-03 0.  1.
</event>
<event>
 8    1  0.1072332E+005  0.1043930E+01  0.7957747E-01            NaN
         13   -1    0    0    0    0  0.00000000000E+00  0.00000000000E+00  0.74505805969E-08  0.10566000000E+00  0.10566000000E+00 0. -1.
     999900   -1    0    0    0    0 -0.00000000000E+00 -0.00000000000E+00 -0.74505805969E-08  0.93827000000E+00  0.93827000000E+00 0. -1.
     999902    2    1    2    0    0 -0.23054883908E-01  0.22671204632E-01 -0.78082947024E-02  0.10106661960E+01  0.10101186460E+01 0.  0.
     999903    2    3    3    0    0  0.57560561264E-01  0.31712254644E-01 -0.10059222346E+00  0.12207773780E+00  0.21570659210E-01 0.  0.
         14    1    1    2    0    0  0.23054883908E-01 -0.22671204632E-01  0.78082947024E-02  0.33263804016E-01  0.00000000000E+00 0.  1.
     999901    1    3    3    0    0 -0.80615445171E-01 -0.90410500128E-02  0.92783928753E-01  0.88858845819E+00  0.88000000000E+00 0.  1.
        -11    1    4    4    0    0  0.41997428232E-01  0.14847263045E-01 -0.78269811197E-01  0.90059145365E-01  0.51100000000E-03 0.  1.
         11    1    4    4    0    0  0.15563133032E-01  0.16864991600E-01 -0.22322412259E-01  0.32018592434E-01  0.51100000000E-03 0. -1.
</event>
<event>
 8    1  0.1072332E+005  0.1043930E+01  0.7957747E-01            NaN
         13   -1    0    0    0    0  0.00000000000E+00  0.00000000000E+00  0.74505805969E-08  0.10566000000E+00  0.10566000000E+00 0. -1.
     999900   -1    0    0    0    0 -0.00000000000E+00 -0.00000000000E+00 -0.74505805969E-08  0.93827000000E+00  0.93827000000E+00 0.  1.
     999902    2    1    2    0    0 -0.65999609359E-02  0.21782933865E-01  0.94784011093E-02  0.10192744574E+01  0.10189762135E+01 0.  0.
     999903    2    3    3    0    0 -0.34907656727E-01 -0.81283659708E-01  0.91673702689E-01  0.12900477022E+00  0.20312191941E-01 0.  0.
         14    1    1    2    0    0  0.65999609359E-02 -0.21782933865E-01 -0.94784011093E-02  0.24655542575E-01  0.00000000000E+00 0.  1.
     999901    1    3    3    0    0  0.28307695791E-01  0.10306659357E+00 -0.82195301579E-01  0.89026968720E+00  0.88000000000E+00 0.  1.
        -11    1    4    4    0    0 -0.71842240170E-02 -0.22449061520E-01  0.37797907054E-01  0.44547910574E-01  0.51100000000E-03 0. -1.
         11    1    4    4    0    0 -0.27723432710E-01 -0.58834598187E-01  0.53875795634E-01  0.84456859647E-01  0.51100000000E-03 0.  1.
</event>
<event>
 8    1  0.1072332E+005  0.1043930E+01  0.7957747E-01            NaN
         13   -1    0    0    0    0  0.00000000000E+00  0.00000000000E+00  0.74505805969E-08  0.10566000000E+00  0.10566000000E+00 0. -1.
     999900   -1    0    0    0    0 -0.00000000000E+00 -0.00000000000E+00 -0.74505805969E-08  0.93827000000E+00  0.93827000000E+00 0.  1.
     999902    2    1    2    0    0  0.96782183122E-02  0.93050310634E-02  0.19429713212E-01  0.10203129454E+01  0.10200395783E+01 0.  0.
     999903    2    3    3    0    0 -0.72849283736E-01  0.39701185278E-01  0.10110776249E+00  0.13216542470E+00  0.19018874717E-01 0.  0.
         14    1    1    2    0    0 -0.96782183122E-02 -0.93050310634E-02 -0.19429713212E-01  0.23617054607E-01  0.00000000000E+00 0.  1.
     999901    1    3    3    0    0  0.82527502049E-01 -0.30396154214E-01 -0.81678049281E-01  0.88814752070E+00  0.88000000000E+00 0.  1.
        -11    1    4    4    0    0 -0.29950084216E-01  0.85358301983E-02  0.47182321857E-01  0.56535834287E-01  0.51100000000E-03 0. -1.
         11    1    4    4    0    0 -0.42899199520E-01  0.31165355079E-01  0.53925440637E-01  0.75629590410E-01  0.51100000000E-03 0.  1.
</event>
<event>
 8    1  0.1072332E+005  0.1043930E+01  0.7957747E-01            NaN
         13   -1    0    0    0    0  0.00000000000E+00  0.00000000000E+00  0.74505805969E-08  0.10566000000E+00  0.10566000000E+00 0. -1.
     999900   -1    0    0    0    0 -0.00000000000E+00 -0.00000000000E+00 -0.74505805969E-08  0.93827000000E+00  0.93827000000E+00 0. -1.
     999902    2    1    2    0    0  0.67055217434E-02  0.17255234271E-01 -0.15085883331E-01  0.10200492335E+01  0.10197696543E+01 0.  0.
     999903    2    3    3    0    0  0.70868182822E-01  0.35292730596E-01 -0.10614515277E+00  0.13284351392E+00  0.10617417963E-01 0.  0.
         14    1    1    2    0    0 -0.67055217434E-02 -0.17255234271E-01  0.15085883331E-01  0.23880766476E-01  0.00000000000E+00 0. -1.
     999901    1    3    3    0    0 -0.64162661079E-01 -0.18037496325E-01  0.91059269439E-01  0.88720571961E+00  0.88000000000E+00 0.  1.
        -11    1    4    4    0    0  0.54567029749E-01  0.22932184595E-01 -0.83066944480E-01  0.10199913829E+00  0.51100000000E-03 0. -1.
         11    1    4    4    0    0  0.16301153073E-01  0.12360546000E-01 -0.23078208290E-01  0.30844375627E-01  0.51100000000E-03 0.  1.
</event>
<event>
 8    1  0.1072332E+005  0.1043930E+01  0.7957747E-01            NaN
         13   -1    0    0    0    0  0.00000000000E+00  0.00000000000E+00  0.74505805969E-08  0.10566000000E+00  0.10566000000E+00 0.  1.
     999900   -1    0    0    0    0 -0.00000000000E+00 -0.00000000000E+00 -0.74505805969E-08  0.93827000000E+00  0.93827000000E+00 0. -1.
     999902    2    1    2    0    0  0.81783206687E-02 -0.90171495798E-02 -0.19740516458E-01  0.10207377188E+01  0.10204742078E+01 0.  0.
     999903    2    3    3    0    0  0.96937821621E-01  0.77857963192E-02 -0.89267844960E-01  0.13338511845E+00  0.19112346691E-01 0.  0.
         14    1    1    2    0    0 -0.81783206687E-02  0.90171495798E-02  0.19740516458E-01  0.23192281162E-01  0.00000000000E+00 0.  1.
     999901    1    3    3    0    0 -0.88759500952E-01 -0.16802945899E-01  0.69527328502E-01  0.88735260038E+00  0.88000000000E+00 0.  1.
        -11    1    4    4    0    0  0.20375729509E-01 -0.15882843436E-02 -0.29074990434E-01  0.35543061066E-01  0.51100000000E-03 0. -1.
         11    1    4    4    0    0  0.76562092112E-01  0.93740806628E-02 -0.60192854526E-01  0.97842057387E-01  0.51100000000E-03 0.  1.
</event>
<event>
 8    1  0.1072332E+005  0.1043930E+01  0.7957747E-01            NaN
         13   -1    0    0    0    0  0.00000000000E+00  0.00000000000E+00  0.74505805969E-08  0.10566000000E+00  0.10566000000E+00 0. -1.
     999900   -1    0    0    0    0 -0.00000000000E+00 -0.00000000000E+00 -0.74505805969E-08  0.93827000000E+00  0.93827000000E+00 0.  1.
     999902    2    1    2    0    0 -0.70323545320E-02  0.18669430381E-01 -0.12179435403E-01  0.10205560768E+01  0.10202883737E+01 0.  0.
     999903    2    3    3    0    0  0.50332110480E-01 -0.35448960052E-01 -0.11395361891E+00  0.13118693717E+00  0.20847904090E-01 0.  0.
         14    1    1    2    0    0  0.70323545320E-02 -0.18669430381E-01  0.12179435403E-01  0.23373923242E-01  0.00000000000E+00 0. -1.
     999901    1    3    3    0    0 -0.57364465012E-01  0.54118390433E-01  0.10177418351E+00  0.88936913959E+00  0.88000000000E+00 0. -1.
        -11    1    4    4    0    0  0.28639647042E-01 -0.14916884525E-01 -0.39882468202E-01  0.51318760873E-01  0.51100000000E-03 0. -1.
         11    1    4    4    0    0  0.21692463439E-01 -0.20532075527E-01 -0.74071150712E-01  0.79868176293E-01  0.51100000000E-03 0.  1.
</event>
<event>
 8    1  0.1072332E+005  0.1043930E+01  0.7957747E-01            NaN
         13   -1    0    0    0    0  0.00000000000E+00  0.00000000000E+00  0.74505805969E-08  0.10566000000E+00  0.10566000000E+00 0. -1.
     999900   -1    0    0    0    0 -0.00000000000E+00 -0.00000000000E+00 -0.74505805969E-08  0.93827000000E+00  0.93827000000E+00 0.  1.
     999902    2    1    2    0    0 -0.15592585226E-01  0.15084055337E-01  0.10918895686E-01  0.10196425604E+01  0.10193532613E+01 0.  0.
     999903    2    3    3    0    0 -0.11109419136E+00 -0.56861765268E-01  0.35056723136E-01  0.13122858449E+00  0.20415382609E-01 0.  0.
         14    1    1    2    0    0  0.15592585226E-01 -0.15084055337E-01 -0.10918895686E-01  0.24287439602E-01  0.00000000000E+00 0. -1.
     999901    1    3    3    0    0  0.95501606133E-01  0.71945820605E-01 -0.24137827450E-01  0.88841397591E+00  0.88000000000E+00 0. -1.
        -11    1    4    4    0    0 -0.44195578497E-01 -0.12102242082E-01  0.97494480716E-02  0.46851107573E-01  0.51100000000E-03 0.  1.
         11    1    4    4    0    0 -0.66898612861E-01 -0.44759523186E-01  0.25307275065E-01  0.84377476916E-01  0.51100000000E-03 0. -1.
</event>
<event>
 8    1  0.1072332E+005  0.1043930E+01  0.7957747E-01            NaN
         13   -1    0    0    0    0  0.00000000000E+00  0.00000000000E+00  0.74505805969E-08  0.10566000000E+00  0.10566000000E+00 0.  1.
     999900   -1    0    0    0    0 -0.00000000000E+00 -0.00000000000E+00 -0.74505805969E-08  0.93827000000E+00  0.93827000000E+00 0. -1.
     999902    2    1    2    0    0 -0.33506717452E-01 -0.10728353351E-01 -0.29502759683E-03  0.10087464140E+01  0.10081326515E+01 0.  0.
     999903    2    3    3    0    0 -0.57126296838E-01  0.10192618453E+00  0.24262802980E-01  0.12091083439E+00  0.19452130518E-01 0.  0.
         14    1    1    2    0    0  0.33506717452E-01  0.10728353351E-01  0.29502759683E-03  0.35183585964E-01  0.00000000000E+00 0. -1.
     999901    1    3    3    0    0  0.23619579386E-01 -0.11265453788E+00 -0.24557830577E-01  0.88783557964E+00  0.88000000000E+00 0.  1.
        -11    1    4    4    0    0 -0.12023914049E-01  0.21223491584E-01 -0.28523442152E-02  0.24564366318E-01  0.51100000000E-03 0. -1.
         11    1    4    4    0    0 -0.45102382788E-01  0.80702692948E-01  0.27115147195E-01  0.96346468075E-01  0.51100000000E-03 0.  1.
</event>
<event>
 8    1  0.1072332E+005  0.1043930E+01  0.7957747E-01            NaN
         13   -1    0    0    0    0  0.00000000000E+00  0.00000000000E+00  0.74505805969E-08  0.10566000000E+00  0.10566000000E+00 0.  1.
     999900   -1    0    0    0    0 -0.00000000000E+00 -0.00000000000E+00 -0.74505805969E-08  0.93827000000E+00  0.93827000000E+00 0. -1.
     999902    2    1    2    0    0  0.13338914331E-01  0.86589669574E-02  0.15479941713E-01  0.10217369168E+01  0.10214958611E+01 0.  0.
     999903    2    3    3    0    0  0.10884687371E+00 -0.23610845616E-01 -0.68170043035E-01  0.13204009711E+00  0.19552967299E-01 0.  0.
         14    1    1    2    0    0 -0.13338914331E-01 -0.86589669574E-02 -0.15479941713E-01  0.22193083151E-01  0.00000000000E+00 0. -1.
     999901    1    3    3    0    0 -0.95507959378E-01  0.32269812573E-01  0.83649984748E-01  0.88969681974E+00  0.88000000000E+00 0.  1.
        -11    1    4    4    0    0  0.28745201918E-01  0.97264447663E-03 -0.23125725209E-01  0.36909253014E-01  0.51100000000E-03 0. -1.
         11    1    4    4    0    0  0.80101671791E-01 -0.24583490092E-01 -0.45044317825E-01  0.95130844094E-01  0.51100000000E-03 0.  1.
</event>
<event>
 8    1  0.1072332E+005  0.1043930E+01  0.7957747E-01            NaN
         13   -1    0    0    0    0  0.00000000000E+00  0.00000000000E+00  0.74505805969E-08  0.10566000000E+00  0.10566000000E+00 0.  1.
     999900   -1    0    0    0    0 -0.00000000000E+00 -0.00000000000E+00 -0.74505805969E-08  0.93827000000E+00  0.93827000000E+00 0.  1.
     999902    2    1    2    0    0  0.81298414124E-03  0.20978828467E-01  0.11273320458E-01  0.10201001880E+01  0.10198218146E+01 0.  0.
     999903    2    3    3    0    0  0.76229527340E-01 -0.68781864227E-01  0.77170927115E-01  0.12988272493E+00  0.19294676962E-01 0.  0.
         14    1    1    2    0    0 -0.81298414124E-03 -0.20978828467E-01 -0.11273320458E-01  0.23829812027E-01  0.00000000000E+00 0. -1.
     999901    1    3    3    0    0 -0.75416543199E-01  0.89760692694E-01 -0.65897606656E-01  0.89021746304E+00  0.88000000000E+00 0.  1.
        -11    1    4    4    0    0  0.24471933855E-01 -0.23114934577E-01  0.36975545855E-01  0.50006278200E-01  0.51100000000E-03 0. -1.
         11    1    4    4    0    0  0.51757593485E-01 -0.45666929650E-01  0.40195381260E-01  0.79876446732E-01  0.51100000000E-03 0.  1.
</event>
<event>
 8    1  0.1072332E+005  0.1043930E+01  0.7957747E-01            NaN
         13   -1    0    0    0    0  0.00000000000E+00  0.00000000000E+00  0.74505805969E-08  0.10566000000E+00  0.10566000000E+00 0.  1.
     999900   -1    0    0    0    0 -0.00000000000E+00 -0.00000000000E+00 -0.74505805969E-08  0.93827000000E+00  0.93827000000E+00 0.  1.
     999902    2    1    2    0    0 -0.13268325224E-01  0.12104347920E-02  0.17850742558E-01  0.10216552920E+01  0.10214124402E+01 0.  0.
     999903    2    3    3    0    0  0.70438375524E-01 -0.26367595170E-01 -0.10286961665E+00  0.12905192845E+00  0.20382035898E-01 0.  0.
         14    1    1    2    0    0  0.13268325224E-01 -0.12104347920E-02 -0.17850742558E-01  0.22274708001E-01  0.00000000000E+00 0. -1.
     999901    1    3    3    0    0 -0.83706700749E-01  0.27578029962E-01  0.12072035920E+00  0.89260336355E+00  0.88000000000E+00 0. -1.
        -11    1    4    4    0    0  0.22630538947E-01  0.78174570953E-03 -0.35265735002E-01  0.41912833424E-01  0.51100000000E-03 0.  1.
         11    1    4    4    0    0  0.47807836577E-01 -0.27149340879E-01 -0.67603881643E-01  0.87139095029E-01  0.51100000000E-03 0. -1.
</event>
<event>
 8    1  0.1072332E+005  0.1043930E+01  0.7957747E-01            NaN
         13   -1    0    0    0    0  0.00000000000E+00  0.00000000000E+00  0.74505805969E-08  0.10566000000E+00  0.10566000000E+00 0. -1.
     999900   -1    0    0    0    0 -0.00000000000E+00 -0.00000000000E+00 -0.74505805969E-08  0.93827000000E+00  0.93827000000E+00 0.  1.
     999902    2    1    2    0    0  0.85800506203E-02  0.22580810988E-01 -0.26082920930E-03  0.10197726341E+01  0.10194864624E+01 0.  0.
     999903    2    3    3    0    0  0.12165136389E+00  0.38270580621E-01  0.27233207734E-01  0.13197355055E+00  0.20289868482E-01 0.  0.
         14    1    1    2    0    0 -0.85800506203E-02 -0.22580810988E-01  0.26082920930E-03  0.24157365862E-01  0.00000000000E+00 0. -1.
     999901    1    3    3    0    0 -0.11307131327E+00 -0.15689769633E-01 -0.27494036943E-01  0.88779908359E+00  0.88000000000E+00 0. -1.
        -11    1    4    4    0    0  0.50025239760E-01  0.65605996957E-02  0.15383265149E-01  0.52749142638E-01  0.51100000000E-03 0. -1.
         11    1    4    4    0    0  0.71626124132E-01  0.31709980925E-01  0.11849942584E-01  0.79224407910E-01  0.51100000000E-03 0.  1.
</event>
<event>
 8    1  0.1072332E+005  0.1043930E+01  0.7957747E-01            NaN
         13   -1    0    0    0    0  0.00000000000E+00  0.00000000000E+00  0.74505805969E-08  0.10566000000E+00  0.10566000000E+00 0. -1.
     999900   -1    0    0    0    0 -0.00000000000E+00 -0.00000000000E+00 -0.74505805969E-08  0.93827000000E+00  0.93827000000E+00 0.  1.
     999902    2    1    2    0    0 -0.12046743464E-01  0.15717282281E-01 -0.15702153098E-01  0.10186571964E+01  0.10183436400E+01 0.  0.
     999903    2    3    3    0    0 -0.65851411407E-01  0.92741569339E-01 -0.64633651900E-01  0.13230400795E+00  0.19734094684E-01 0.  0.
         14    1    1    2    0    0  0.12046743464E-01 -0.15717282281E-01  0.15702153098E-01  0.25272803610E-01  0.00000000000E+00 0. -1.
     999901    1    3    3    0    0  0.53804667943E-01 -0.77024287058E-01  0.48931498802E-01  0.88635318844E+00  0.88000000000E+00 0. -1.
        -11    1    4    4    0    0 -0.20602448431E-01  0.27057368889E-01 -0.29977714697E-01  0.45337474478E-01  0.51100000000E-03 0.  1.
         11    1    4    4    0    0 -0.45248962976E-01  0.65684200450E-01 -0.34655937203E-01  0.86966533469E-01  0.51100000000E-03 0. -1.
</event>
<event>
 8    1  0.1072332E+005  0.1043930E+01  0.7957747E-01            NaN
         13   -1    0    0    0    0  0.00000000000E+00  0.00000000000E+00  0.74505805969E-08  0.10566000000E+00  0.10566000000E+00 0. -1.
     999900   -1    0    0    0    0 -0.00000000000E+00 -0.00000000000E+00 -0.74505805969E-08  0.93827000000E+00  0.93827000000E+00 0.  1.
     999902    2    1    2    0    0 -0.10941014998E-01 -0.87869731962E-02  0.18831604698E-01  0.10204449826E+01  0.10201746990E+01 0.  0.
     999903    2    3    3    0    0  0.29520668236E-01  0.74818818468E-01 -0.97324000231E-01  0.12796573871E+00  0.20831318047E-01 0.  0.
         14    1    1    2    0    0  0.10941014998E-01  0.87869731962E-02 -0.18831604698E-01  0.23485017408E-01  0.00000000000E+00 0.  1.
     999901    1    3    3    0    0 -0.40461683235E-01 -0.83605791664E-01  0.11615560493E+00  0.89247924389E+00  0.88000000000E+00 0.  1.
        -11    1    4    4    0    0  0.23753934504E-01  0.67832549427E-01 -0.75050366187E-01  0.10391497848E+00  0.51100000000E-03 0. -1.
         11    1    4    4    0    0  0.57667337329E-02  0.69862690416E-02 -0.22273634044E-01  0.24050760229E-01  0.51100000000E-03 0.  1.
</event>
<event>
 8    1  0.1153167E+005  0.1043930E+01  0.7957747E-01            NaN
         13   -1    0    0    0    0  0.00000000000E+00  0.00000000000E+00  0.74505805969E-08  0.10566000000E+00  0.10566000000E+00 0. -1.
     999900   -1    0    0    0    0 -0.00000000000E+00 -0.00000000000E+00 -0.74505805969E-08  0.93827000000E+00  0.93827000000E+00 0. -1.
     999902    2    1    2    0    0 -0.95608745744E-02  0.21676257865E-01 -0.61958943266E-03  0.10202307517E+01  0.10199554561E+01 0.  0.
     999903    2    3    3    0    0 -0.96625210694E-01 -0.15404547291E-01 -0.82998049542E-01  0.13133177241E+00  0.28029034919E-01 0.  0.
         14    1    1    2    0    0  0.95608745744E-02 -0.21676257865E-01  0.61958943266E-03  0.23699248273E-01  0.00000000000E+00 0. -1.
     999901    1    3    3    0    0  0.87064336120E-01  0.37080805156E-01  0.82378460109E-01  0.88889897931E+00  0.88000000000E+00 0. -1.
        -11    1    4    4    0    0 -0.55229061240E-01 -0.61237722189E-02 -0.29067825280E-01  0.62713231293E-01  0.51100000000E-03 0. -1.
         11    1    4    4    0    0 -0.41396149454E-01 -0.92807750722E-02 -0.53930224262E-01  0.68618541120E-01  0.51100000000E-03 0.  1.
</event>
<event>
 7    1  0.1072332E+005  0.1043930E+01  0.7957747E-01            NaN
         13   -1    0    0    0    0  0.00000000000E+00  0.00000000000E+00  0.74505805969E-08  0.10566000000E+00  0.10566000000E+00 0. -1.
     999900   -1    0    0    0    0 -0.00000000000E+00 -0.00000000000E+00 -0.74505805969E-08  0.93827000000E+00  0.93827000000E+00 0. -1.
     999902    2    1    2    0    0  0.18271554650E-01  0.12075647670E-01 -0.86807944311E-02  0.10203709854E+01  0.10200989759E+01 0.  0.
         14    1    1    2    0    0 -0.18271554650E-01 -0.12075647670E-01  0.86807944311E-02  0.23559014579E-01  0.00000000000E+00 0. -1.
     999901    1    3    3    0    0 -0.46374414876E-01 -0.30558661197E-01 -0.10638757771E+00  0.88814567207E+00  0.88000000000E+00 0. -1.
        -11    1    3    3    0    0  0.35529380167E-01  0.23677570648E-01  0.85190156994E-01  0.95292120223E-01  0.51100000000E-03 0. -1.
         11    1    3    3    0    0  0.29116589359E-01  0.18956738219E-01  0.12516626289E-01  0.36933193126E-01  0.51100000000E-03 0.  1.
</event>
<event>
 8    1  0.1072332E+005  0.1043930E+01  0.7957747E-01            NaN
         13   -1    0    0    0    0  0.00000000000E+00  0.00000000000E+00  0.74505805969E-08  0.10566000000E+00  0.10566000000E+00 0.  1.
     999900   -1    0    0    0    0 -0.00000000000E+00 -0.00000000000E+00 -0.74505805969E-08  0.93827000000E+00  0.93827000000E+00 0.  1.
     999902    2    1    2    0    0  0.17111837304E-01  0.16228409814E-01  0.27738683388E-02  0.10201840402E+01  0.10199076455E+01 0.  0.
     999903    2    3    3    0    0 -0.89145201736E-01  0.86878479815E-01 -0.32799728900E-01  0.13026973447E+00  0.19991104390E-01 0.  0.
         14    1    1    2    0    0 -0.17111837304E-01 -0.16228409814E-01 -0.27738683388E-02  0.23745959795E-01  0.00000000000E+00 0.  1.
     999901    1    3    3    0    0  0.10625703904E+00 -0.70650070001E-01  0.35573597239E-01  0.88991430574E+00  0.88000000000E+00 0. -1.
        -11    1    4    4    0    0 -0.54495489651E-01  0.47193534742E-01 -0.96957509427E-02  0.72741025708E-01  0.51100000000E-03 0.  1.
         11    1    4    4    0    0 -0.34649712085E-01  0.39684945073E-01 -0.23103977957E-01  0.57528708759E-01  0.51100000000E-03 0. -1.
</event>
<event>
 7    1  0.1072332E+005  0.1043930E+01  0.7957747E-01            NaN
         13   -1    0    0    0    0  0.00000000000E+00  0.00000000000E+00  0.74505805969E-08  0.10566000000E+00  0.10566000000E+00 0.  1.
     999900   -1    0    0    0    0 -0.00000000000E+00 -0.00000000000E+00 -0.74505805969E-08  0.93827000000E+00  0.93827000000E+00 0. -1.
     999902    2    1    2    0    0 -0.56590528223E-03  0.14000790829E-01 -0.19071917590E-01  0.10202639815E+01  0.10199894663E+01 0.  0.
         14    1    1    2    0    0  0.56590528223E-03 -0.14000790829E-01  0.19071917590E-01  0.23666018533E-01  0.00000000000E+00 0.  1.
     999901    1    3    3    0    0 -0.11048742789E-01 -0.95360921517E-01  0.45327635169E-01  0.88638049086E+00  0.88000000000E+00 0.  1.
        -11    1    3    3    0    0  0.13975939242E-01  0.29568985435E-01 -0.24449413549E-02  0.32800771890E-01  0.51100000000E-03 0. -1.
         11    1    3    3    0    0 -0.34931017353E-02  0.79792726912E-01 -0.61954611404E-01  0.10108271872E+00  0.51100000000E-03 0.  1.
</event>
<event>
 8    1  0.1072332E+005  0.1043930E+01  0.7957747E-01            NaN
         13   -1    0    0    0    0  0.00000000000E+00  0.00000000000E+00  0.74505805969E-08  0.10566000000E+00  0.10566000000E+00 0.  1.
     999900   -1    0    0    0    0 -0.00000000000E+00 -0.00000000000E+00 -0.74505805969E-08  0.93827000000E+00  0.93827000000E+00 0.  1.
     999902    2    1    2    0    0 -0.69873826674E-02  0.15135328310E-01 -0.16111223608E-01  0.10207465316E+01  0.10204832231E+01 0.  0.
     999903    2    3    3    0    0  0.38088099835E-01  0.12415166175E+00  0.15584356143E-01  0.13230915631E+00  0.19962520491E-01 0.  0.
         14    1    1    2    0    0  0.69873826674E-02 -0.15135328310E-01  0.16111223608E-01  0.23183468371E-01  0.00000000000E+00 0. -1.
     999901    1    3    3    0    0 -0.45075482503E-01 -0.10901633344E+00 -0.31695579751E-01  0.88843737531E+00  0.88000000000E+00 0. -1.
        -11    1    4    4    0    0  0.27422621100E-01  0.10523431478E+00  0.70768446969E-02  0.10897983303E+00  0.51100000000E-03 0.  1.
         11    1    4    4    0    0  0.10665478735E-01  0.18917346971E-01  0.85075114458E-02  0.23329323288E-01  0.51100000000E-03 0. -1.
</event>
<event>
 8    1  0.1072332E+005  0.1043930E+01  0.7957747E-01            NaN
         13   -1    0    0    0    0  0.00000000000E+00  0.00000000000E+00  0.74505805969E-08  0.10566000000E+00  0.10566000000E+00 0. -1.
     999900   -1    0    0    0    0 -0.00000000000E+00 -0.00000000000E+00 -0.74505805969E-08  0.93827000000E+00  0.93827000000E+00 0.  1.
     999902    2    1    2    0    0 -0.20630270942E-01 -0.37429915219E-02  0.10882275354E-01  0.10203070878E+01  0.10200335835E+01 0.  0.
     999903    2    3    3    0    0  0.82730359707E-01 -0.19157992567E-01 -0.93864072578E-01  0.12795466882E+00  0.18724103601E-01 0.  0.
         14    1    1    2    0    0  0.20630270942E-01  0.37429915219E-02 -0.10882275354E-01  0.23622912216E-01  0.00000000000E+00 0.  1.
     999901    1    3    3    0    0 -0.10336063065E+00  0.15415001045E-01  0.10474634793E+00  0.89235241896E+00  0.88000000000E+00 0. -1.
        -11    1    4    4    0    0  0.48689772880E-01 -0.20014232370E-01 -0.52115966158E-01  0.74078326992E-01  0.51100000000E-03 0. -1.
         11    1    4    4    0    0  0.34040586827E-01  0.85623980233E-03 -0.41748106420E-01  0.53876341828E-01  0.51100000000E-03 0.  1.
</event>
<event>
 8    1  0.1072332E+005  0.1043930E+01  0.7957747E-01            NaN
         13   -1    0    0    0    0  0.00000000000E+00  0.00000000000E+00  0.74505805969E-08  0.10566000000E+00  0.10566000000E+00 0. -1.
     999900   -1    0    0    0    0 -0.00000000000E+00 -0.00000000000E+00 -0.74505805969E-08  0.93827000000E+00  0.93827000000E+00 0. -1.
     999902    2    1    2    0    0 -0.82196420562E-03 -0.21489315503E-01  0.73965221763E-02  0.10211885215E+01  0.10209352680E+01 0.  0.
     999903    2    3    3    0    0  0.91280268666E-01  0.86999497154E-02  0.92440882374E-01  0.13179167177E+00  0.20394887624E-01 0.  0.
         14    1    1    2    0    0  0.82196420562E-03  0.21489315503E-01 -0.73965221763E-02  0.22741478541E-01  0.00000000000E+00 0.  1.
     999901    1    3    3    0    0 -0.92102232872E-01 -0.30189265218E-01 -0.85044360197E-01  0.88939684969E+00  0.88000000000E+00 0. -1.
        -11    1    4    4    0    0  0.23976596051E-01  0.10739457534E-01  0.21188278113E-01  0.33755256727E-01  0.51100000000E-03 0.  1.
         11    1    4    4    0    0  0.67303672615E-01 -0.20395078186E-02  0.71252604260E-01  0.98036415043E-01  0.51100000000E-03 0. -1.
</event>
<event>
 8    1  0.1072332E+005  0.1043930E+01  0.7957747E-01            NaN
         13   -1    0    0    0    0  0.00000000000E+00  0.00000000000E+00  0.74505805969E-08  0.10566000000E+00  0.10566000000E+00 0. -1.
     999900   -1    0    0    0    0 -0.00000000000E+00 -0.00000000000E+00 -0.74505805969E-08  0.93827000000E+00  0.93827000000E+00 0.  1.
     999902    2    1    2    0    0 -0.73590255545E-02  0.74290862489E-03 -0.22030234244E-01  0.10206912739E+01  0.10204266942E+01 0.  0.
     999903    2    3    3    0    0 -0.89947331079E-01 -0.13910814157E-01  0.90055267367E-01  0.12962521603E+00  0.20216635016E-01 0.  0.
         14    1    1    2    0    0  0.73590255545E-02 -0.74290862489E-03  0.22030234244E-01  0.23238726110E-01  0.00000000000E+00 0. -1.
     999901    1    3    3    0    0  0.82588305524E-01  0.14653722782E-01 -0.11208550161E+00  0.89106605786E+00  0.88000000000E+00 0. -1.
        -11    1    4    4    0    0 -0.83041482880E-01 -0.13704459252E-01  0.89207749696E-01  0.12264576556E+00  0.51100000000E-03 0.  1.
         11    1    4    4    0    0 -0.69058481984E-02 -0.20635490522E-03  0.84751767125E-03  0.69794504718E-02  0.51100000000E-03 0. -1.
</event>
<event>
 8    1  0.1072332E+005  0.1043930E+01  0.7957747E-01            NaN
         13   -1    0    0    0    0  0.00000000000E+00  0.00000000000E+00  0.74505805969E-08  0.10566000000E+00  0.10566000000E+00 0. -1.
     999900   -1    0    0    0    0 -0.00000000000E+00 -0.00000000000E+00 -0.74505805969E-08  0.93827000000E+00  0.93827000000E+00 0.  1.
     999902    2    1    2    0    0  0.14770411730E-01 -0.53559192733E-02 -0.17174410138E-01  0.10206531596E+01  0.10203877013E+01 0.  0.
     999903    2    3    3    0    0 -0.36408437398E-01  0.10132692075E+00 -0.71932689548E-01  0.13104708270E+00  0.20157055247E-01 0.  0.
         14    1    1    2    0    0 -0.14770411730E-01  0.53559192733E-02  0.17174410138E-01  0.23276840368E-01  0.00000000000E+00 0. -1.
     999901    1    3    3    0    0  0.51178849128E-01 -0.10668284002E+00  0.54758279410E-01  0.88960607693E+00  0.88000000000E+00 0. -1.
        -11    1    4    4    0    0 -0.16102873089E-01  0.43484583601E-01 -0.43063907271E-01  0.63284854137E-01  0.51100000000E-03 0.  1.
         11    1    4    4    0    0 -0.20305564309E-01  0.57842337147E-01 -0.28868782277E-01  0.67762228562E-01  0.51100000000E-03 0. -1.
</event>
<event>
 8    1  0.1072332E+005  0.1043930E+01  0.7957747E-01            NaN
         13   -1    0    0    0    0  0.00000000000E+00  0.00000000000E+00  0.74505805969E-08  0.10566000000E+00  0.10566000000E+00 0.  1.
     999900   -1    0    0    0    0 -0.00000000000E+00 -0.00000000000E+00 -0.74505805969E-08  0.93827000000E+00  0.93827000000E+00 0. -1.
     999902    2    1    2    0    0 -0.16601155265E-01 -0.18430454934E-01 -0.41128238758E-02  0.10187865049E+01  0.10184761888E+01 0.  0.
     999903    2    3    3    0    0  0.10609769290E+00 -0.66564599488E-01 -0.21631551506E-01  0.12879841003E+00  0.20821624832E-01 0.  0.
         14    1    1    2    0    0  0.16601155265E-01  0.18430454934E-01  0.41128238758E-02  0.25143495092E-01  0.00000000000E+00 0.  1.
     999901    1    3    3    0    0 -0.12269884817E+00  0.48134144554E-01  0.17518727631E-01  0.88998809488E+00  0.88000000000E+00 0.  1.
        -11    1    4    4    0    0  0.28382101133E-01 -0.29201750600E-01 -0.77545069798E-02  0.41456958431E-01  0.51100000000E-03 0. -1.
         11    1    4    4    0    0  0.77715591769E-01 -0.37362848887E-01 -0.13877044527E-01  0.87341451595E-01  0.51100000000E-03 0.  1.
</event>
<event>
 8    1  0.1072332E+005  0.1043930E+01  0.7957747E-01            NaN
         13   -1    0    0    0    0  0.00000000000E+00  0.00000000000E+00  0.74505805969E-08  0.10566000000E+00  0.10566000000E+00 0.  1.
     999900   -1    0    0    0    0 -0.00000000000E+00 -0.00000000000E+00 -0.74505805969E-08  0.93827000000E+00  0.93827000000E+00 0. -1.
     999902    2    1    2    0    0  0.21201756030E-01 -0.11504099387E-01 -0.13820090243E-02  0.10197686939E+01  0.10194824277E+01 0.  0.
     999903    2    3    3    0    0 -0.15887453958E-01  0.38620222439E-01 -0.12142835999E+00  0.12943213762E+00  0.16244964301E-01 0.  0.
         14    1    1    2    0    0 -0.21201756030E-01  0.11504099387E-01  0.13820090243E-02  0.24161306057E-01  0.00000000000E+00 0.  1.
     999901    1    3    3    0    0  0.37089209988E-01 -0.50124321826E-01  0.12004635097E+00  0.89033655632E+00  0.88000000000E+00 0.  1.
        -11    1    4    4    0    0 -0.14017389865E-01  0.13031980191E-01 -0.51467570053E-01  0.54913492099E-01  0.51100000000E-03 0.  1.
         11    1    4    4    0    0 -0.18700640929E-02  0.25588242248E-01 -0.69960789939E-01  0.74518645526E-01  0.51100000000E-03 0. -1.
</event>
<event>
 8    1  0.1072332E+005  0.1043930E+01  0.7957747E-01            NaN
         13   -1    0    0    0    0  0.00000000000E+00  0.00000000000E+00  0.74505805969E-08  0.10566000000E+00  0.10566000000E+00 0. -1.
     999900   -1    0    0    0    0 -0.00000000000E+00 -0.00000000000E+00 -0.74505805969E-08  0.93827000000E+00  0.93827000000E+00 0. -1.
     999902    2    1    2    0    0 -0.57825425574E-02  0.36236146928E-02  0.22062499916E-01  0.10208362285E+01  0.10205749767E+01 0.  0.
     999903    2    3    3    0    0 -0.12249882363E+00 -0.39448135589E-01  0.21895185163E-01  0.13208547940E+00  0.20126041392E-01 0.  0.
         14    1    1    2    0    0  0.57825425574E-02 -0.36236146928E-02 -0.22062499916E-01  0.23093771550E-01  0.00000000000E+00 0.  1.
     999901    1    3    3    0    0  0.11671628108E+00  0.43071750281E-01  0.16731475243E-03  0.88875074905E+00  0.88000000000E+00 0. -1.
        -11    1    4    4    0    0 -0.46400541389E-01 -0.15079255857E-01 -0.15304711532E-02  0.48815957036E-01  0.51100000000E-03 0. -1.
         11    1    4    4    0    0 -0.76098282245E-01 -0.24368879731E-01  0.23425656317E-01  0.83269522365E-01  0.51100000000E-03 0.  1.
</event>
<event>
 8    1  0.1072332E+005  0.1043930E+01  0.7957747E-01            NaN
         13   -1    0    0    0    0  0.00000000000E+00  0.00000000000E+00  0.74505805969E-08  0.10566000000E+00  0.10566000000E+00 0.  1.
     999900   -1    0    0    0    0 -0.00000000000E+00 -0.00000000000E+00 -0.74505805969E-08  0.93827000000E+00  0.93827000000E+00 0.  1.
     999902    2    1    2    0    0  0.95100476844E-02  0.30411062163E-02 -0.21588570387E-01  0.10201443803E+01  0.10198670506E+01 0.  0.
     999903    2    3    3    0    0 -0.30843777949E-01 -0.10015288059E+00 -0.76877035038E-01  0.13147445029E+00  0.19837198240E-01 0.  0.
         14    1    1    2    0    0 -0.95100476844E-02 -0.30411062163E-02  0.21588570387E-01  0.23785619717E-01  0.00000000000E+00 0.  1.
     999901    1    3    3    0    0  0.40353825633E-01  0.10319398680E+00  0.55288464651E-01  0.88866993000E+00  0.88000000000E+00 0. -1.
        -11    1    4    4    0    0 -0.12150379283E-01 -0.16103773116E-01 -0.19072322444E-01  0.27766487529E-01  0.51100000000E-03 0. -1.
         11    1    4    4    0    0 -0.18693398666E-01 -0.84049107470E-01 -0.57804712594E-01  0.10370796276E+00  0.51100000000E-03 0.  1.
</event>
<event>
 8    1  0.1072332E+005  0.1043930E+01  0.7957747E-01            NaN
         13   -1    0    0    0    0  0.00000000000E+00  0.00000000000E+00  0.74505805969E-08  0.10566000000E+00  0.10566000000E+00 0. -1.
     999900   -1    0    0    0    0 -0.00000000000E+00 -0.00000000000E+00 -0.74505805969E-08  0.93827000000E+00  0.93827000000E+00 0.  1.
     999902    2    1    2    0    0 -0.13465817024E-01 -0.19125490062E-01  0.17634273629E-03  0.10205388971E+01  0.10202707958E+01 0.  0.
     999903    2    3    3    0    0 -0.63489755925E-01  0.73213612901E-01  0.84669558127E-01  0.13027601017E+00  0.20290947000E-01 0.  0.
         14    1    1    2    0    0  0.13465817024E-01  0.19125490062E-01 -0.17634273629E-03  0.23391102903E-01  0.00000000000E+00 0. -1.
     999901    1    3    3    0    0  0.50023938901E-01 -0.92339102963E-01 -0.84493215390E-01  0.89026288693E+00  0.88000000000E+00 0.  1.
        -11    1    4    4    0    0 -0.55252253773E-01  0.57664555742E-01  0.59638338822E-01  0.99674495807E-01  0.51100000000E-03 0. -1.
         11    1    4    4    0    0 -0.82375021525E-02  0.15549057159E-01  0.25031219305E-01  0.30601514360E-01  0.51100000000E-03 0.  1.
</event>
<event>
 8    1  0.1072332E+005  0.1043930E+01  0.7957747E-01            NaN
         13   -1    0    0    0    0  0.00000000000E+00  0.00000000000E+00  0.74505805969E-08  0.10566000000E+00  0.10566000000E+00 0. -1.
     999900   -1    0    0    0    0 -0.00000000000E+00 -0.00000000000E+00 -0.74505805969E-08  0.93827000000E+00  0.93827000000E+00 0.  1.
     999902    2    1    2    0    0 -0.64437592355E-02  0.94247678813E-02  0.20972509797E-01  0.10200512553E+01  0.10197717239E+01 0.  0.
     999903    2    3    3    0    0  0.93410746156E-01  0.41800889305E-01  0.80700960315E-01  0.13180206541E+00  0.19653437524E-01 0.  0.
         14    1    1    2    0    0  0.64437592355E-02 -0.94247678813E-02 -0.20972509797E-01  0.23878744730E-01  0.00000000000E+00 0.  1.
     999901    1    3    3    0    0 -0.99854505391E-01 -0.32376121424E-01 -0.59728450518E-01  0.88824918986E+00  0.88000000000E+00 0.  1.
        -11    1    4    4    0    0  0.67219355197E-01  0.38640793483E-01  0.64345788345E-01  0.10075809760E+00  0.51100000000E-03 0. -1.
         11    1    4    4    0    0  0.26191390958E-01  0.31600958222E-02  0.16355171970E-01  0.31043967805E-01  0.51100000000E-03 0.  1.
</event>
<event>
 8    1  0.1072332E+005  0.1043930E+01  0.7957747E-01            NaN
         13   -1    0    0    0    0  0.00000000000E+00  0.00000000000E+00  0.74505805969E-08  0.10566000000E+00  0.10566000000E+00 0.  1.
     999900   -1    0    0    0    0 -0.00000000000E+00 -0.00000000000E+00 -0.74505805969E-08  0.93827000000E+00  0.93827000000E+00 0. -1.
     999902    2    1    2    0    0 -0.11406528783E-01  0.19581122065E-01 -0.69871039694E-02  0.10202161040E+01  0.10199404640E+01 0.  0.
     999903    2    3    3    0    0 -0.53541856391E-02  0.51662718580E-01  0.11824105907E+00  0.13075112298E+00  0.20425579948E-01 0.  0.
         14    1    1    2    0    0  0.11406528783E-01 -0.19581122065E-01  0.69871039694E-02  0.23713895970E-01  0.00000000000E+00 0. -1.
     999901    1    3    3    0    0 -0.60523431439E-02 -0.32081596515E-01 -0.12522816304E+00  0.88946498105E+00  0.88000000000E+00 0. -1.
        -11    1    4    4    0    0 -0.10211989428E-01  0.37139158823E-01  0.67179128326E-01  0.77439642625E-01  0.51100000000E-03 0.  1.
         11    1    4    4    0    0  0.48578037885E-02  0.14523559757E-01  0.51061930743E-01  0.53311480357E-01  0.51100000000E-03 0. -1.
</event>
<event>
 8    1  0.1072332E+005  0.1043930E+01  0.7957747E-01            NaN
         13   -1    0    0    0    0  0.00000000000E+00  0.00000000000E+00  0.74505805969E-08  0.10566000000E+00  0.10566000000E+00 0. -1.
     999900   -1    0    0    0    0 -0.00000000000E+00 -0.00000000000E+00 -0.74505805969E-08  0.93827000000E+00  0.93827000000E+00 0. -1.
     999902    2    1    2    0    0 -0.63821456682E-02  0.15950508806E-01  0.17161004321E-01  0.10196472781E+01  0.10193580927E+01 0.  0.
     999903    2    3    3    0    0 -0.54073501751E-01  0.11856627346E+00  0.13122929832E-01  0.13239265474E+00  0.19331294466E-01 0.  0.
         14    1    1    2    0    0  0.63821456682E-02 -0.15950508806E-01 -0.17161004321E-01  0.24282721919E-01  0.00000000000E+00 0. -1.
     999901    1    3    3    0    0  0.47691356083E-01 -0.10261576466E+00  0.40380744884E-02  0.88725462334E+00  0.88000000000E+00 0. -1.
        -11    1    4    4    0    0 -0.16724850974E-01  0.48030954993E-01 -0.30585924535E-02  0.50953992841E-01  0.51100000000E-03 0. -1.
         11    1    4    4    0    0 -0.37348650777E-01  0.70535318472E-01  0.16181522286E-01  0.81438661895E-01  0.51100000000E-03 0.  1.
</event>
<event>
 8    1  0.1072332E+005  0.1043930E+01  0.7957747E-01            NaN
         13   -1    0    0    0    0  0.00000000000E+00  0.00000000000E+00  0.74505805969E-08  0.10566000000E+00  0.10566000000E+00 0. -1.
     999900   -1    0    0    0    0 -0.00000000000E+00 -0.00000000000E+00 -0.74505805969E-08  0.93827000000E+00  0.93827000000E+00 0.  1.
     999902    2    1    2    0    0  0.22735751001E-01  0.27082817782E-02  0.54114443456E-02  0.10204027202E+01  0.10201314516E+01 0.  0.
     999903    2    3    3    0    0  0.28456470547E-01  0.53891493862E-01 -0.11415563517E+00  0.13082487971E+00  0.19224366874E-01 0.  0.
         14    1    1    2    0    0 -0.22735751001E-01 -0.27082817782E-02 -0.54114443456E-02  0.23527279777E-01  0.00000000000E+00 0. -1.
     999901    1    3    3    0    0 -0.57207195462E-02 -0.51183212084E-01  0.11956707952E+00  0.88957784052E+00  0.88000000000E+00 0. -1.
        -11    1    4    4    0    0  0.27434681625E-02  0.22352618006E-01 -0.50158472580E-01  0.54984540026E-01  0.51100000000E-03 0. -1.
         11    1    4    4    0    0  0.25713002385E-01  0.31538875856E-01 -0.63997162594E-01  0.75840339682E-01  0.51100000000E-03 0.  1.
</event>
<event>
 8    1  0.1072332E+005  0.1043930E+01  0.7957747E-01            NaN
         13   -1    0    0    0    0  0.00000000000E+00  0.00000000000E+00  0.74505805969E-08  0.10566000000E+00  0.10566000000E+00 0. -1.
     999900   -1    0    0    0    0 -0.00000000000E+00 -0.00000000000E+00 -0.74505805969E-08  0.93827000000E+00  0.93827000000E+00 0. -1.
     999902    2    1    2    0    0  0.22772002409E-02  0.74900010892E-02  0.22638183667E-01  0.10199764383E+01  0.10196951317E+01 0.  0.
     999903    2    3    3    0    0  0.50903815022E-01 -0.11547627153E+00  0.24492453628E-01  0.13009515962E+00  0.19972546233E-01 0.  0.
         14    1    1    2    0    0 -0.22772002409E-02 -0.74900010892E-02 -0.22638183667E-01  0.23953561676E-01  0.00000000000E+00 0.  1.
     999901    1    3    3    0    0 -0.48626614781E-01  0.12296627262E+00 -0.18542699616E-02  0.88988127870E+00  0.88000000000E+00 0. -1.
        -11    1    4    4    0    0  0.25394644065E-01 -0.55570968341E-01  0.21981598033E-01  0.64934368732E-01  0.51100000000E-03 0.  1.
         11    1    4    4    0    0  0.25509170957E-01 -0.59905303185E-01  0.25108555954E-02  0.65160790890E-01  0.51100000000E-03 0. -1.
</event>
<event>
 8    1  0.1072332E+005  0.1043930E+01  0.7957747E-01            NaN
         13   -1    0    0    0    0  0.00000000000E+00  0.00000000000E+00  0.74505805969E-08  0.10566000000E+00  0.10566000000E+00 0. -1.
     999900   -1    0    0    0    0 -0.00000000000E+00 -0.00000000000E+00 -0.74505805969E-08  0.93827000000E+00  0.93827000000E+00 0. -1.
     999902    2    1    2    0    0  0.20588818800E-01  0.77826429111E-02  0.10510460512E-01  0.10195386333E+01  0.10192468229E+01 0.  0.
     999903    2    3    3    0    0 -0.53149732862E-02 -0.34226239642E-01 -0.12180449442E+00  0.12827941175E+00  0.20483852132E-01 0.  0.
         14    1    1    2    0    0 -0.20588818800E-01 -0.77826429111E-02 -0.10510460512E-01  0.24391366719E-01  0.00000000000E+00 0. -1.
     999901    1    3    3    0    0  0.25903792086E-01  0.42008882553E-01  0.13231495493E+00  0.89125922153E+00  0.88000000000E+00 0.  1.
        -11    1    4    4    0    0  0.34855572885E-02  0.14499551235E-03 -0.23580009718E-01  0.23842149916E-01  0.51100000000E-03 0. -1.
         11    1    4    4    0    0 -0.88005305747E-02 -0.34371235154E-01 -0.98224484701E-01  0.10443726184E+00  0.51100000000E-03 0.  1.
</event>
<event>
 8    1  0.1072332E+005  0.1043930E+01  0.7957747E-01            NaN
         13   -1    0    0    0    0  0.00000000000E+00  0.00000000000E+00  0.74505805969E-08  0.10566000000E+00  0.10566000000E+00 0.  1.
     999900   -1    0    0    0    0 -0.00000000000E+00 -0.00000000000E+00 -0.74505805969E-08  0.93827000000E+00  0.93827000000E+00 0.  1.
     999902    2    1    2    0    0  0.21341191057E-01 -0.85536940904E-02  0.22691403752E-02  0.10208267293E+01  0.10205652601E+01 0.  0.
     999903    2    3    3    0    0 -0.12419137113E+00 -0.22333186446E-01  0.15837784576E-01  0.12866435106E+00  0.19529770451E-01 0.  0.
         14    1    1    2    0    0 -0.21341191057E-01  0.85536940904E-02 -0.22691403752E-02  0.23103270686E-01  0.00000000000E+00 0. -1.
     999901    1    3    3    0    0  0.14553256219E+00  0.13779492355E-01 -0.13568644201E-01  0.89216237825E+00  0.88000000000E+00 0.  1.
        -11    1    4    4    0    0 -0.18098929018E-01 -0.10479714833E-01  0.32442543141E-02  0.21170308492E-01  0.51100000000E-03 0. -1.
         11    1    4    4    0    0 -0.10609244211E+00 -0.11853471612E-01  0.12593530262E-01  0.10749404257E+00  0.51100000000E-03 0.  1.
</event>
<event>
 8    1  0.1072332E+005  0.1043930E+01  0.7957747E-01            NaN
         13   -1    0    0    0    0  0.00000000000E+00  0.00000000000E+00  0.74505805969E-08  0.10566000000E+00  0.10566000000E+00 0.  1.
     999900   -1    0    0    0    0 -0.00000000000E+00 -0.00000000000E+00 -0.74505805969E-08  0.93827000000E+00  0.93827000000E+00 0. -1.
     999902    2    1    2    0    0 -0.21206752609E-01 -0.15944663996E-03  0.71793419130E-02  0.10215403879E+01  0.10212949963E+01 0.  0.
     999903    2    3    3    0    0  0.64656865935E-01  0.10120121668E+00  0.47452398253E-01  0.13065966406E+00  0.19950467184E-01 0.  0.
         14    1    1    2    0    0  0.21206752609E-01  0.15944663996E-03 -0.71793419130E-02  0.22389612094E-01  0.00000000000E+00 0. -1.
     999901    1    3    3    0    0 -0.85863618543E-01 -0.10136066332E+00 -0.40273056340E-01  0.89088072385E+00  0.88000000000E+00 0. -1.
        -11    1    4    4    0    0  0.31319708538E-01  0.53596189736E-01  0.34842472891E-01  0.71188023820E-01  0.51100000000E-03 0. -1.
         11    1    4    4    0    0  0.33337157397E-01  0.47605026946E-01  0.12609925362E-01  0.59471640237E-01  0.51100000000E-03 0.  1.
</event>
<event>
 8    1  0.1072332E+005  0.1043930E+01  0.7957747E-01            NaN
         13   -1    0    0    0    0  0.00000000000E+00  0.00000000000E+00  0.74505805969E-08  0.10566000000E+00  0.10566000000E+00 0. -1.
     999900   -1    0    0    0    0 -0.00000000000E+00 -0.00000000000E+00 -0.74505805969E-08  0.93827000000E+00  0.93827000000E+00 0.  1.
     999902    2    1    2    0    0 -0.13536054674E-01  0.15734863309E-01 -0.93282036085E-02  0.10211742077E+01  0.10209206318E+01 0.  0.
     999903    2    3    3    0    0  0.48421133445E-01 -0.73885947143E-01  0.91496616698E-01  0.12874144991E+00  0.19974751798E-01 0.  0.
         14    1    1    2    0    0  0.13536054674E-01 -0.15734863309E-01  0.93282036085E-02  0.22755792275E-01  0.00000000000E+00 0. -1.
     999901    1    3    3    0    0 -0.61957188119E-01  0.89620810451E-01 -0.10082482031E+00  0.89243275781E+00  0.88000000000E+00 0.  1.
        -11    1    4    4    0    0  0.83117407293E-02 -0.33318870377E-02  0.56337067015E-02  0.10591802367E-01  0.51100000000E-03 0. -1.
         11    1    4    4    0    0  0.40109392716E-01 -0.70554060105E-01  0.85862909997E-01  0.11814964755E+00  0.51100000000E-03 0.  1.
</event>
<event>
 8    1  0.1072332E+005  0.1043930E+01  0.7957747E-01            NaN
         13   -1    0    0    0    0  0.00000000000E+00  0.00000000000E+00  0.74505805969E-08  0.10566000000E+00  0.10566000000E+00 0. -1.
     999900   -1    0    0    0    0 -0.00000000000E+00 -0.00000000000E+00 -0.74505805969E-08  0.93827000000E+00  0.93827000000E+00 0.  1.
     999902    2    1    2    0    0 -0.67423516536E-02 -0.22099131056E-01  0.29653416628E-02  0.10206357056E+01  0.10203698444E+01 0.  0.
     999903    2    3    3    0    0 -0.93670836271E-01 -0.61927931947E-01 -0.67635799034E-01  0.13264504358E+00  0.20268496529E-01 0.  0.
         14    1    1    2    0    0  0.67423516536E-02  0.22099131056E-01 -0.29653416628E-02  0.23294294375E-01  0.00000000000E+00 0. -1.
     999901    1    3    3    0    0  0.86928484617E-01  0.39828800891E-01  0.70601140697E-01  0.88799066205E+00  0.88000000000E+00 0. -1.
        -11    1    4    4    0    0 -0.50749956351E-01 -0.44761134278E-01 -0.36257013836E-01  0.76772061226E-01  0.51100000000E-03 0. -1.
         11    1    4    4    0    0 -0.42920879920E-01 -0.17166797668E-01 -0.31378785198E-01  0.55872982351E-01  0.51100000000E-03 0.  1.
</event>
<event>
 8    1  0.1072332E+005  0.1043930E+01  0.7957747E-01            NaN
         13   -1    0    0    0    0  0.00000000000E+00  0.00000000000E+00  0.74505805969E-08  0.10566000000E+00  0.10566000000E+00 0. -1.
     999900   -1    0    0    0    0 -0.00000000000E+00 -0.00000000000E+00 -0.74505805969E-08  0.93827000000E+00  0.93827000000E+00 0. -1.
     999902    2    1    2    0    0 -0.25748438561E-02 -0.67126119743E-02  0.22017478300E-01  0.10207684299E+01  0.10205056242E+01 0.  0.
     999903    2    3    3    0    0 -0.34541503196E-01  0.48351927989E-01 -0.11195600875E+00  0.12835436336E+00  0.20240314075E-01 0.  0.
         14    1    1    2    0    0  0.25748438561E-02  0.67126119743E-02 -0.22017478300E-01  0.23161570134E-01  0.00000000000E+00 0.  1.
     999901    1    3    3    0    0  0.31966659340E-01 -0.55064539963E-01  0.13397348705E+00  0.89241406651E+00  0.88000000000E+00 0.  1.
        -11    1    4    4    0    0 -0.87442932170E-02  0.27748503535E-01 -0.43270523156E-01  0.52144428346E-01  0.51100000000E-03 0. -1.
         11    1    4    4    0    0 -0.25797209979E-01  0.20603424454E-01 -0.68685485595E-01  0.76209935011E-01  0.51100000000E-03 0.  1.
</event>
<event>
 8    1  0.1072332E+005  0.1043930E+01  0.7957747E-01            NaN
         13   -1    0    0    0    0  0.00000000000E+00  0.00000000000E+00  0.74505805969E-08  0.10566000000E+00  0.10566000000E+00 0.  1.
     999900   -1    0    0    0    0 -0.00000000000E+00 -0.00000000000E+00 -0.74505805969E-08  0.93827000000E+00  0.93827000000E+00 0. -1.
     999902    2    1    2    0    0  0.36067448321E-02  0.51702074781E-02 -0.23196349422E-01  0.10198923154E+01  0.10196090058E+01 0.  0.
     999903    2    3    3    0    0  0.10263497512E+00  0.76712142054E-01  0.15504190123E-01  0.13061026198E+00  0.19999244177E-01 0.  0.
         14    1    1    2    0    0 -0.36067448321E-02 -0.51702074781E-02  0.23196349422E-01  0.24037684584E-01  0.00000000000E+00 0.  1.
     999901    1    3    3    0    0 -0.99028230287E-01 -0.71541934576E-01 -0.38700539545E-01  0.88928205343E+00  0.88000000000E+00 0. -1.
        -11    1    4    4    0    0  0.50934256330E-01  0.33663044805E-01 -0.20121082261E-02  0.61088532099E-01  0.51100000000E-03 0.  1.
         11    1    4    4    0    0  0.51700718789E-01  0.43049097249E-01  0.17516298349E-01  0.69521729884E-01  0.51100000000E-03 0. -1.
</event>
<event>
 8    1  0.1072332E+005  0.1043930E+01  0.7957747E-01            NaN
         13   -1    0    0    0    0  0.00000000000E+00  0.00000000000E+00  0.74505805969E-08  0.10566000000E+00  0.10566000000E+00 0. -1.
     999900   -1    0    0    0    0 -0.00000000000E+00 -0.00000000000E+00 -0.74505805969E-08  0.93827000000E+00  0.93827000000E+00 0. -1.
     999902    2    1    2    0    0 -0.83371647905E-03 -0.20498439650E-01  0.11157749463E-01  0.10205767029E+01  0.10203094776E+01 0.  0.
     999903    2    3    3    0    0  0.53585051370E-01 -0.12016178036E+00 -0.35050345195E-02  0.13315956256E+00  0.20223072106E-01 0.  0.
         14    1    1    2    0    0  0.83371647905E-03  0.20498439650E-01 -0.11157749463E-01  0.23353297076E-01  0.00000000000E+00 0.  1.
     999901    1    3    3    0    0 -0.54418767849E-01  0.99663340709E-01  0.14662783982E-01  0.88741714036E+00  0.88000000000E+00 0.  1.
        -11    1    4    4    0    0  0.15066961892E-01 -0.25161314637E-01  0.68600220858E-02  0.30123514386E-01  0.51100000000E-03 0. -1.
         11    1    4    4    0    0  0.38518089477E-01 -0.95000465722E-01 -0.10365056605E-01  0.10303604818E+00  0.51100000000E-03 0.  1.
</event>
<event>
 8    1  0.1072332E+005  0.1043930E+01  0.7957747E-01            NaN
         13   -1    0    0    0    0  0.00000000000E+00  0.00000000000E+00  0.74505805969E-08  0.10566000000E+00  0.10566000000E+00 0.  1.
     999900   -1    0    0    0    0 -0.00000000000E+00 -0.00000000000E+00 -0.74505805969E-08  0.93827000000E+00  0.93827000000E+00 0. -1.
     999902    2    1    2    0    0  0.20772790366E-01 -0.69752370790E-02  0.11445457382E-01  0.10192083244E+01  0.10189084587E+01 0.  0.
     999903    2    3    3    0    0  0.11917789459E+00 -0.53392089396E-01  0.86252476158E-02  0.13250316350E+00  0.20702842107E-01 0.  0.
         14    1    1    2    0    0 -0.20772790366E-01  0.69752370790E-02 -0.11445457382E-01  0.24721675643E-01  0.00000000000E+00 0.  1.
     999901    1    3    3    0    0 -0.98405104222E-01  0.46416852317E-01  0.28202097664E-02  0.88670516086E+00  0.88000000000E+00 0. -1.
        -11    1    4    4    0    0  0.99618970105E-01 -0.50111863777E-01  0.12748729095E-01  0.11224049764E+00  0.51100000000E-03 0. -1.
         11    1    4    4    0    0  0.19558924483E-01 -0.32802256191E-02 -0.41234814793E-02  0.20262665855E-01  0.51100000000E-03 0.  1.
</event>
<event>
 8    1  0.1072332E+005  0.1043930E+01  0.7957747E-01            NaN
         13   -1    0    0    0    0  0.00000000000E+00  0.00000000000E+00  0.74505805969E-08  0.10566000000E+00  0.10566000000E+00 0.  1.
     999900   -1    0    0    0    0 -0.00000000000E+00 -0.00000000000E+00 -0.74505805969E-08  0.93827000000E+00  0.93827000000E+00 0.  1.
     999902    2    1    2    0    0 -0.94271886494E-02  0.11264520425E-01 -0.18484857333E-01  0.10203195943E+01  0.10200463829E+01 0.  0.
     999903    2    3    3    0    0  0.92744073020E-01  0.88861763678E-01 -0.15704150410E-01  0.13101198094E+00  0.20485182077E-01 0.  0.
         14    1    1    2    0    0  0.94271886494E-02 -0.11264520425E-01  0.18484857333E-01  0.23610405691E-01  0.00000000000E+00 0.  1.
     999901    1    3    3    0    0 -0.10217126167E+00 -0.77597243253E-01 -0.27807069236E-02  0.88930761337E+00  0.88000000000E+00 0.  1.
        -11    1    4    4    0    0  0.63305634356E-01  0.64886909624E-01 -0.20983222409E-02  0.90678434366E-01  0.51100000000E-03 0. -1.
         11    1    4    4    0    0  0.29438438663E-01  0.23974854054E-01 -0.13605828169E-01  0.40333546571E-01  0.51100000000E-03 0.  1.
</event>
<event>
 8    1  0.1072332E+005  0.1043930E+01  0.7957747E-01            NaN
         13   -1    0    0    0    0  0.00000000000E+00  0.00000000000E+00  0.74505805969E-08  0.10566000000E+00  0.10566000000E+00 0. -1.
     999900   -1    0    0    0    0 -0.00000000000E+00 -0.00000000000E+00 -0.74505805969E-08  0.93827000000E+00  0.93827000000E+00 0. -1.
     999902    2    1    2    0    0 -0.78338912923E-02 -0.19902748696E-01  0.74090571645E-02  0.10212941129E+01  0.10210432320E+01 0.  0.
     999903    2    3    3    0    0 -0.96060985383E-01 -0.65234674793E-01  0.63652660320E-01  0.13393716859E+00  0.20105428506E-01 0.  0.
         14    1    1    2    0    0  0.78338912923E-02  0.19902748696E-01 -0.74090571645E-02  0.22635887138E-01  0.00000000000E+00 0. -1.
     999901    1    3    3    0    0  0.88227094091E-01  0.45331926097E-01 -0.56243603155E-01  0.88735694427E+00  0.88000000000E+00 0. -1.
        -11    1    4    4    0    0 -0.21635739679E-01 -0.61107842639E-02  0.84879823375E-02  0.24036511414E-01  0.51100000000E-03 0. -1.
         11    1    4    4    0    0 -0.74425245704E-01 -0.59123890529E-01  0.55164677982E-01  0.10990065717E+00  0.51100000000E-03 0.  1.
</event>
<event>
 8    1  0.1072332E+005  0.1043930E+01  0.7957747E-01            NaN
         13   -1    0    0    0    0  0.00000000000E+00  0.00000000000E+00  0.74505805969E-08  0.10566000000E+00  0.10566000000E+00 0. -1.
     999900   -1    0    0    0    0 -0.00000000000E+00 -0.00000000000E+00 -0.74505805969E-08  0.93827000000E+00  0.93827000000E+00 0.  1.
     999902    2    1    2    0    0 -0.26405806011E-01  0.11182407624E-01  0.35775492290E-02  0.10150317009E+01  0.10146202453E+01 0.  0.
     999903    2    3    3    0    0  0.23963913380E-01  0.82783577542E-01  0.90269788993E-01  0.12644890759E+00  0.20329819733E-01 0.  0.
         14    1    1    2    0    0  0.26405806011E-01 -0.11182407624E-01 -0.35775492290E-02  0.28898299082E-01  0.00000000000E+00 0.  1.
     999901    1    3    3    0    0 -0.50369719392E-01 -0.71601169918E-01 -0.86692239764E-01  0.88858279333E+00  0.88000000000E+00 0.  1.
        -11    1    4    4    0    0  0.16766917525E-01  0.59672849722E-01  0.50789072046E-01  0.80135943730E-01  0.51100000000E-03 0. -1.
         11    1    4    4    0    0  0.71969958548E-02  0.23110727820E-01  0.39480716947E-01  0.46312963858E-01  0.51100000000E-03 0.  1.
</event>
<event>
 8    1  0.1072332E+005  0.1043930E+01  0.7957747E-01            NaN
         13   -1    0    0    0    0  0.00000000000E+00  0.00000000000E+00  0.74505805969E-08  0.10566000000E+00  0.10566000000E+00 0.  1.
     999900   -1    0    0    0    0 -0.00000000000E+00 -0.00000000000E+00 -0.74505805969E-08  0.93827000000E+00  0.93827000000E+00 0. -1.
     999902    2    1    2    0    0  0.22966497906E-01  0.89066745229E-03 -0.59575340740E-02  0.10201866741E+01  0.10199103414E+01 0.  0.
     999903    2    3    3    0    0  0.46703898897E-01 -0.85288987269E-01 -0.87065566788E-01  0.13194745512E+00  0.19345605958E-01 0.  0.
         14    1    1    2    0    0 -0.22966497906E-01 -0.89066745229E-03  0.59575340740E-02  0.23743325943E-01  0.00000000000E+00 0.  1.
     999901    1    3    3    0    0 -0.23737400991E-01  0.86179654721E-01  0.81108032714E-01  0.88823921894E+00  0.88000000000E+00 0.  1.
        -11    1    4    4    0    0  0.23702373020E-01 -0.29007258344E-01 -0.41895659639E-01  0.56202588384E-01  0.51100000000E-03 0.  1.
         11    1    4    4    0    0  0.23001525877E-01 -0.56281728925E-01 -0.45169907149E-01  0.75744866733E-01  0.51100000000E-03 0. -1.
</event>
<event>
 8    1  0.1072332E+005  0.1043930E+01  0.7957747E-01            NaN
         13   -1    0    0    0    0  0.00000000000E+00  0.00000000000E+00  0.74505805969E-08  0.10566000000E+00  0.10566000000E+00 0.  1.
     999900   -1    0    0    0    0 -0.00000000000E+00 -0.00000000000E+00 -0.74505805969E-08  0.93827000000E+00  0.93827000000E+00 0. -1.
     999902    2    1    2    0    0 -0.10026700270E-01 -0.19248711098E-01 -0.87352890881E-02  0.10205344262E+01  0.10202662212E+01 0.  0.
     999903    2    3    3    0    0 -0.46091644454E-01 -0.53685949513E-01  0.10890714874E+00  0.13130647638E+00  0.19339152785E-01 0.  0.
         14    1    1    2    0    0  0.10026700270E-01  0.19248711098E-01  0.87352890881E-02  0.23395573784E-01  0.00000000000E+00 0. -1.
     999901    1    3    3    0    0  0.36064944184E-01  0.34437238415E-01 -0.11764243782E+00  0.88922794983E+00  0.88000000000E+00 0. -1.
        -11    1    4    4    0    0 -0.35140592473E-01 -0.50646392833E-01  0.96137039552E-01  0.11420380835E+00  0.51100000000E-03 0. -1.
         11    1    4    4    0    0 -0.10951051981E-01 -0.30395566795E-02  0.12770109184E-01  0.17102668034E-01  0.51100000000E-03 0.  1.
</event>
<event>
 8    1  0.1072332E+005  0.1043930E+01  0.7957747E-01            NaN
         13   -1    0    0    0    0  0.00000000000E+00  0.00000000000E+00  0.74505805969E-08  0.10566000000E+00  0.10566000000E+00 0.  1.
     999900   -1    0    0    0    0 -0.00000000000E+00 -0.00000000000E+00 -0.74505805969E-08  0.93827000000E+00  0.93827000000E+00 0.  1.
     999902    2    1    2    0    0 -0.16259313842E-01  0.13645178673E-01  0.27509792383E-01  0.10091831316E+01  0.10085847749E+01 0.  0.
     999903    2    3    3    0    0 -0.53905523346E-01 -0.85019448712E-01 -0.59594565272E-01  0.11859955049E+00  0.19499463097E-01 0.  0.
         14    1    1    2    0    0  0.16259313842E-01 -0.13645178673E-01 -0.27509792383E-01  0.34746868414E-01  0.00000000000E+00 0. -1.
     999901    1    3    3    0    0  0.37646209504E-01  0.98664627385E-01  0.87104357655E-01  0.89058358109E+00  0.88000000000E+00 0. -1.
        -11    1    4    4    0    0 -0.33489166878E-01 -0.68352909957E-01 -0.46043501228E-01  0.88960158071E-01  0.51100000000E-03 0.  1.
         11    1    4    4    0    0 -0.20416356467E-01 -0.16666538755E-01 -0.13551064044E-01  0.29639392423E-01  0.51100000000E-03 0. -1.
</event>
<event>
 8    1  0.1072332E+005  0.1043930E+01  0.7957747E-01            NaN
         13   -1    0    0    0    0  0.00000000000E+00  0.00000000000E+00  0.74505805969E-08  0.10566000000E+00  0.10566000000E+00 0.  1.
     999900   -1    0    0    0    0 -0.00000000000E+00 -0.00000000000E+00 -0.74505805969E-08  0.93827000000E+00  0.93827000000E+00 0. -1.
     999902    2    1    2    0    0  0.16402174076E-01  0.12982294845E-01 -0.10022516197E-01  0.10207346961E+01  0.10204711155E+01 0.  0.
     999903    2    3    3    0    0  0.38172673939E-02  0.91577761312E-01  0.91903569099E-01  0.13128286820E+00  0.19694353809E-01 0.  0.
         14    1    1    2    0    0 -0.16402174076E-01 -0.12982294845E-01  0.10022516197E-01  0.23195303938E-01  0.00000000000E+00 0.  1.
     999901    1    3    3    0    0  0.12584906682E-01 -0.78595466467E-01 -0.10192608530E+00  0.88945182786E+00  0.88000000000E+00 0. -1.
        -11    1    4    4    0    0 -0.59653592698E-02  0.15914537956E-01  0.22011342135E-01  0.27813995275E-01  0.51100000000E-03 0. -1.
         11    1    4    4    0    0  0.97826266637E-02  0.75663223356E-01  0.69892226964E-01  0.10346887292E+00  0.51100000000E-03 0.  1.
</event>
<event>
 8    1  0.1072332E+005  0.1043930E+01  0.7957747E-01            NaN
         13   -1    0    0    0    0  0.00000000000E+00  0.00000000000E+00  0.74505805969E-08  0.10566000000E+00  0.10566000000E+00 0.  1.
     999900   -1    0    0    0    0 -0.00000000000E+00 -0.00000000000E+00 -0.74505805969E-08  0.93827000000E+00  0.93827000000E+00 0. -1.
     999902    2    1    2    0    0  0.45891821918E-02  0.22502734464E-01  0.55973464343E-02  0.10202918119E+01  0.10200179496E+01 0.  0.
     999903    2    3    3    0    0 -0.10194252400E+00  0.62580892237E-01 -0.50307009397E-01  0.13120207502E+00  0.19353113995E-01 0.  0.
         14    1    1    2    0    0 -0.45891821918E-02 -0.22502734464E-01 -0.55973464343E-02  0.23638188143E-01  0.00000000000E+00 0. -1.
     999901    1    3    3    0    0  0.10653170619E+00 -0.40078157773E-01  0.55904355831E-01  0.88908973684E+00  0.88000000000E+00 0.  1.
        -11    1    4    4    0    0 -0.32142879500E-01  0.12958075851E-01 -0.21769973686E-01  0.40930053843E-01  0.51100000000E-03 0.  1.
         11    1    4    4    0    0 -0.69799644501E-01  0.49622816386E-01 -0.28537035711E-01  0.90272021173E-01  0.51100000000E-03 0. -1.
</event>
<event>
 8    1  0.1072332E+005  0.1043930E+01  0.7957747E-01            NaN
         13   -1    0    0    0    0  0.00000000000E+00  0.00000000000E+00  0.74505805969E-08  0.10566000000E+00  0.10566000000E+00 0.  1.
     999900   -1    0    0    0    0 -0.00000000000E+00 -0.00000000000E+00 -0.74505805969E-08  0.93827000000E+00  0.93827000000E+00 0. -1.
     999902    2    1    2    0    0  0.22475651419E-03  0.14701784904E-02  0.23651229414E-01  0.10202320551E+01  0.10199567901E+01 0.  0.
     999903    2    3    3    0    0  0.84040029226E-01  0.77200148096E-01  0.63599347248E-01  0.13211276110E+00  0.19654905151E-01 0.  0.
         14    1    1    2    0    0 -0.22475651419E-03 -0.14701784904E-02 -0.23651229414E-01  0.23697944912E-01  0.00000000000E+00 0. -1.
     999901    1    3    3    0    0 -0.83815272712E-01 -0.75729969606E-01 -0.39948117834E-01  0.88811929399E+00  0.88000000000E+00 0.  1.
        -11    1    4    4    0    0  0.16192774613E-01  0.25110018610E-01  0.11905749683E-01  0.32167172409E-01  0.51100000000E-03 0. -1.
         11    1    4    4    0    0  0.67847254614E-01  0.52090129486E-01  0.51693597565E-01  0.99945588690E-01  0.51100000000E-03 0.  1.
</event>
<event>
 8    1  0.1072332E+005  0.1043930E+01  0.7957747E-01            NaN
         13   -1    0    0    0    0  0.00000000000E+00  0.00000000000E+00  0.74505805969E-08  0.10566000000E+00  0.10566000000E+00 0. -1.
     999900   -1    0    0    0    0 -0.00000000000E+00 -0.00000000000E+00 -0.74505805969E-08  0.93827000000E+00  0.93827000000E+00 0.  1.
     999902    2    1    2    0    0 -0.13166160956E-01 -0.19518598812E-03 -0.19507363291E-01  0.10203944287E+01  0.10201229667E+01 0.  0.
     999903    2    3    3    0    0 -0.80178282837E-01 -0.48079296603E-01  0.88092176201E-01  0.13002306048E+00  0.20139238991E-01 0.  0.
         14    1    1    2    0    0  0.13166160956E-01  0.19518598812E-03  0.19507363291E-01  0.23535571259E-01  0.00000000000E+00 0. -1.
     999901    1    3    3    0    0  0.67012121881E-01  0.47884110615E-01 -0.10759953949E+00  0.89037136827E+00  0.88000000000E+00 0.  1.
        -11    1    4    4    0    0 -0.53523142668E-01 -0.34891485762E-01  0.71789165667E-01  0.96104568091E-01  0.51100000000E-03 0. -1.
         11    1    4    4    0    0 -0.26655140169E-01 -0.13187810841E-01  0.16303010534E-01  0.33918492385E-01  0.51100000000E-03 0.  1.
</event>
<event>
 8    1  0.1072332E+005  0.1043930E+01  0.7957747E-01            NaN
         13   -1    0    0    0    0  0.00000000000E+00  0.00000000000E+00  0.74505805969E-08  0.10566000000E+00  0.10566000000E+00 0. -1.
     999900   -1    0    0    0    0 -0.00000000000E+00 -0.00000000000E+00 -0.74505805969E-08  0.93827000000E+00  0.93827000000E+00 0.  1.
     999902    2    1    2    0    0 -0.23708199261E-01  0.35037593450E-02 -0.42574075615E-03  0.10199605132E+01  0.10196788280E+01 0.  0.
     999903    2    3    3    0    0 -0.22204025853E-01 -0.85392614270E-01 -0.94028742343E-01  0.13054140521E+00  0.20365086556E-01 0.  0.
         14    1    1    2    0    0  0.23708199261E-01 -0.35037593450E-02  0.42574075615E-03  0.23969486789E-01  0.00000000000E+00 0. -1.
     999901    1    3    3    0    0 -0.15041734078E-02  0.88896373615E-01  0.93603001587E-01  0.88941910801E+00  0.88000000000E+00 0. -1.
        -11    1    4    4    0    0 -0.87261579751E-02 -0.65531745527E-01 -0.74409192753E-01  0.99536649492E-01  0.51100000000E-03 0.  1.
         11    1    4    4    0    0 -0.13477867878E-01 -0.19860868743E-01 -0.19619549590E-01  0.31004755714E-01  0.51100000000E-03 0. -1.
</event>
<event>
 8    1  0.1072332E+005  0.1043930E+01  0.7957747E-01            NaN
         13   -1    0    0    0    0  0.00000000000E+00  0.00000000000E+00  0.74505805969E-08  0.10566000000E+00  0.10566000000E+00 0.  1.
     999900   -1    0    0    0    0 -0.00000000000E+00 -0.00000000000E+00 -0.74505805969E-08  0.93827000000E+00  0.93827000000E+00 0. -1.
     999902    2    1    2    0    0 -0.38777068785E-02 -0.15908901334E-01 -0.17145590250E-01  0.10202213303E+01  0.10199458132E+01 0.  0.
     999903    2    3    3    0    0  0.67629033690E-01  0.17474328558E-01 -0.11000508950E+00  0.13182359250E+00  0.19932422524E-01 0.  0.
         14    1    1    2    0    0  0.38777068785E-02  0.15908901334E-01  0.17145590250E-01  0.23708669666E-01  0.00000000000E+00 0.  1.
     999901    1    3    3    0    0 -0.71506740569E-01 -0.33383229893E-01  0.92859499250E-01  0.88839773783E+00  0.88000000000E+00 0.  1.
        -11    1    4    4    0    0  0.80423748403E-02  0.78934143918E-02 -0.10305720864E-01  0.15279227315E-01  0.51100000000E-03 0.  1.
         11    1    4    4    0    0  0.59586658850E-01  0.95809141666E-02 -0.99699368637E-01  0.11654436519E+00  0.51100000000E-03 0. -1.
</event>
<event>
 8    1  0.1072332E+005  0.1043930E+01  0.7957747E-01            NaN
         13   -1    0    0    0    0  0.00000000000E+00  0.00000000000E+00  0.74505805969E-08  0.10566000000E+00  0.10566000000E+00 0.  1.
     999900   -1    0    0    0    0 -0.00000000000E+00 -0.00000000000E+00 -0.74505805969E-08  0.93827000000E+00  0.93827000000E+00 0.  1.
     999902    2    1    2    0    0  0.18666698608E-01  0.15619700719E-01 -0.28618783869E-02  0.10194226330E+01  0.10191280065E+01 0.  0.
     999903    2    3    3    0    0  0.13024954158E+00  0.10193612087E-01 -0.64159024745E-02  0.13235284752E+00  0.20180674758E-01 0.  0.
         14    1    1    2    0    0 -0.18666698608E-01 -0.15619700719E-01  0.28618783869E-02  0.24507366961E-01  0.00000000000E+00 0.  1.
     999901    1    3    3    0    0 -0.11158284297E+00  0.54260886318E-02  0.35540240876E-02  0.88706978551E+00  0.88000000000E+00 0. -1.
        -11    1    4    4    0    0  0.96751772147E-01  0.13249280611E-02  0.16280289816E-02  0.96775887737E-01  0.51100000000E-03 0.  1.
         11    1    4    4    0    0  0.33497769435E-01  0.88686840259E-02 -0.80439314561E-02  0.35576959788E-01  0.51100000000E-03 0. -1.
</event>
<event>
 8    1  0.1072332E+005  0.1043930E+01  0.7957747E-01            NaN
         13   -1    0    0    0    0  0.00000000000E+00  0.00000000000E+00  0.74505805969E-08  0.10566000000E+00  0.10566000000E+00 0.  1.
     999900   -1    0    0    0    0 -0.00000000000E+00 -0.00000000000E+00 -0.74505805969E-08  0.93827000000E+00  0.93827000000E+00 0.  1.
     999902    2    1    2    0    0 -0.10655070091E-01  0.36740523914E-03  0.20840263850E-01  0.10205209825E+01  0.10202524656E+01 0.  0.
     999903    2    3    3    0    0 -0.96381580750E-01 -0.52369868204E-02  0.90134600520E-01  0.13362631625E+00  0.20369365354E-01 0.  0.
         14    1    1    2    0    0  0.10655070091E-01 -0.36740523914E-03 -0.20840263850E-01  0.23409017549E-01  0.00000000000E+00 0. -1.
     999901    1    3    3    0    0  0.85726510659E-01  0.56043920595E-02 -0.69294336671E-01  0.88689466620E+00  0.88000000000E+00 0.  1.
        -11    1    4    4    0    0 -0.25195665926E-01  0.25752361720E-02  0.35202373790E-01  0.43369593775E-01  0.51100000000E-03 0. -1.
         11    1    4    4    0    0 -0.71185914825E-01 -0.78122229924E-02  0.54932226731E-01  0.90256722476E-01  0.51100000000E-03 0.  1.
</event>
<event>
 8    1  0.1072332E+005  0.1043930E+01  0.7957747E-01            NaN
         13   -1    0    0    0    0  0.00000000000E+00  0.00000000000E+00  0.74505805969E-08  0.10566000000E+00  0.10566000000E+00 0.  1.
     999900   -1    0    0    0    0 -0.00000000000E+00 -0.00000000000E+00 -0.74505805969E-08  0.93827000000E+00  0.93827000000E+00 0. -1.
     999902    2    1    2    0    0 -0.12454531258E-01 -0.19040241537E-01 -0.46453839839E-02  0.10207087653E+01  0.10204445884E+01 0.  0.
     999903    2    3    3    0    0 -0.24782841144E-01 -0.12253201437E+00  0.41653249946E-01  0.13334970737E+00  0.20466251795E-01 0.  0.
         14    1    1    2    0    0  0.12454531258E-01  0.19040241537E-01  0.46453839839E-02  0.23221234658E-01  0.00000000000E+00 0.  1.
     999901    1    3    3    0    0  0.12328309885E-01  0.10349177283E+00 -0.46298633930E-01  0.88735905798E+00  0.88000000000E+00 0.  1.
        -11    1    4    4    0    0 -0.74948225944E-02 -0.23442294935E-01  0.36901283418E-03  0.24619318614E-01  0.51100000000E-03 0.  1.
         11    1    4    4    0    0 -0.17288018549E-01 -0.99089719436E-01  0.41284237112E-01  0.10873038875E+00  0.51100000000E-03 0. -1.
</event>
<event>
 8    1  0.1072332E+005  0.1043930E+01  0.7957747E-01            NaN
         13   -1    0    0    0    0  0.00000000000E+00  0.00000000000E+00  0.74505805969E-08  0.10566000000E+00  0.10566000000E+00 0. -1.
     999900   -1    0    0    0    0 -0.00000000000E+00 -0.00000000000E+00 -0.74505805969E-08  0.93827000000E+00  0.93827000000E+00 0. -1.
     999902    2    1    2    0    0  0.20542219864E-01 -0.13059111625E-02  0.83910273692E-02  0.10217016950E+01  0.10214598652E+01 0.  0.
     999903    2    3    3    0    0 -0.62675849030E-01  0.80306947488E-01 -0.77993941955E-01  0.12982262891E+00  0.19834115262E-01 0.  0.
         14    1    1    2    0    0 -0.20542219864E-01  0.13059111625E-02 -0.83910273692E-02  0.22228304956E-01  0.00000000000E+00 0.  1.
     999901    1    3    3    0    0  0.83218068894E-01 -0.81612858650E-01  0.86384969325E-01  0.89187906614E+00  0.88000000000E+00 0.  1.
        -11    1    4    4    0    0 -0.39428876862E-01  0.44113175421E-01 -0.56170662429E-01  0.81584391981E-01  0.51100000000E-03 0.  1.
         11    1    4    4    0    0 -0.23246972168E-01  0.36193772067E-01 -0.21823279527E-01  0.48238236926E-01  0.51100000000E-03 0. -1.
</event>
<event>
 8    1  0.1072332E+005  0.1043930E+01  0.7957747E-01            NaN
         13   -1    0    0    0    0  0.00000000000E+00  0.00000000000E+00  0.74505805969E-08  0.10566000000E+00  0.10566000000E+00 0.  1.
     999900   -1    0    0    0    0 -0.00000000000E+00 -0.00000000000E+00 -0.74505805969E-08  0.93827000000E+00  0.93827000000E+00 0. -1.
     999902    2    1    2    0    0 -0.24539249812E-02 -0.23215000967E-01 -0.25367990920E-02  0.10204482333E+01  0.10201780254E+01 0.  0.
     999903    2    3    3    0    0  0.30923516385E-01 -0.11579518727E+00  0.54371120328E-01  0.13313563011E+00  0.20101940649E-01 0.  0.
         14    1    1    2    0    0  0.24539249812E-02  0.23215000967E-01  0.25367990920E-02  0.23481766700E-01  0.00000000000E+00 0.  1.
     999901    1    3    3    0    0 -0.33377441366E-01  0.92580186306E-01 -0.56907919420E-01  0.88731260319E+00  0.88000000000E+00 0.  1.
        -11    1    4    4    0    0  0.21927939731E-01 -0.73514176221E-01  0.44865176578E-01  0.88872458257E-01  0.51100000000E-03 0.  1.
         11    1    4    4    0    0  0.89955766535E-02 -0.42281011051E-01  0.95059437507E-02  0.44263171852E-01  0.51100000000E-03 0. -1.
</event>
<event>
 8    1  0.1072332E+005  0.1043930E+01  0.7957747E-01            NaN
         13   -1    0    0    0    0  0.00000000000E+00  0.00000000000E+00  0.74505805969E-08  0.10566000000E+00  0.10566000000E+00 0. -1.
     999900   -1    0    0    0    0 -0.00000000000E+00 -0.00000000000E+00 -0.74505805969E-08  0.93827000000E+00  0.93827000000E+00 0. -1.
     999902    2    1    2    0    0 -0.28386863273E-02  0.19741258995E-01  0.14217364853E-01  0.10194369620E+01  0.10191426841E+01 0.  0.
     999903    2    3    3    0    0 -0.86808723444E-01  0.89143973419E-01  0.39903270838E-01  0.13234763749E+00  0.21005324637E-01 0.  0.
         14    1    1    2    0    0  0.28386863273E-02 -0.19741258995E-01 -0.14217364853E-01  0.24493037993E-01  0.00000000000E+00 0.  1.
     999901    1    3    3    0    0  0.83970037117E-01 -0.69402714424E-01 -0.25685905984E-01  0.88708932452E+00  0.88000000000E+00 0. -1.
        -11    1    4    4    0    0 -0.28998448302E-01  0.36380556041E-01  0.55017572359E-02  0.46850670385E-01  0.51100000000E-03 0.  1.
         11    1    4    4    0    0 -0.57810275142E-01  0.52763417378E-01  0.34401513602E-01  0.85496967107E-01  0.51100000000E-03 0. -1.
</event>
<event>
 8    1  0.1072332E+005  0.1043930E+01  0.7957747E-01            NaN
         13   -1    0    0    0    0  0.00000000000E+00  0.00000000000E+00  0.74505805969E-08  0.10566000000E+00  0.10566000000E+00 0.  1.
     999900   -1    0    0    0    0 -0.00000000000E+00 -0.00000000000E+00 -0.74505805969E-08  0.93827000000E+00  0.93827000000E+00 0.  1.
     999902    2    1    2    0    0  0.23267030301E-01  0.96452277280E-02 -0.16988624118E-01  0.10135491102E+01  0.10130936779E+01 0.  0.
     999903    2    3    3    0    0  0.50477730674E-01  0.98816054358E-01 -0.59651783082E-01  0.12759651344E+00  0.20246508929E-01 0.  0.
         14    1    1    2    0    0 -0.23267030301E-01 -0.96452277280E-02  0.16988624118E-01  0.30380889822E-01  0.00000000000E+00 0.  1.
     999901    1    3    3    0    0 -0.27210700373E-01 -0.89170826630E-01  0.42663158965E-01  0.88595259674E+00  0.88000000000E+00 0. -1.
        -11    1    4    4    0    0  0.10155332910E-01  0.11545593137E-01 -0.15385792147E-01  0.21758107188E-01  0.51100000000E-03 0.  1.
         11    1    4    4    0    0  0.40322397764E-01  0.87270461221E-01 -0.44265990935E-01  0.10583840625E+00  0.51100000000E-03 0. -1.
</event>
<event>
 8    1  0.1072332E+005  0.1043930E+01  0.7957747E-01            NaN
         13   -1    0    0    0    0  0.00000000000E+00  0.00000000000E+00  0.74505805969E-08  0.10566000000E+00  0.10566000000E+00 0. -1.
     999900   -1    0    0    0    0 -0.00000000000E+00 -0.00000000000E+00 -0.74505805969E-08  0.93827000000E+00  0.93827000000E+00 0. -1.
     999902    2    1    2    0    0 -0.16053827088E-01 -0.60409084541E-02  0.19589267730E-01  0.10178923859E+01  0.10175593112E+01 0.  0.
     999903    2    3    3    0    0  0.10131816401E+00 -0.52976616105E-01 -0.49340669559E-01  0.12619149365E+00  0.20442582604E-01 0.  0.
         14    1    1    2    0    0  0.16053827088E-01  0.60409084541E-02 -0.19589267730E-01  0.26037614125E-01  0.00000000000E+00 0.  1.
     999901    1    3    3    0    0 -0.11737199110E+00  0.46935707651E-01  0.68929937289E-01  0.89170089223E+00  0.88000000000E+00 0.  1.
        -11    1    4    4    0    0  0.39972255290E-01 -0.15967222229E-01 -0.90310386485E-02  0.43983566917E-01  0.51100000000E-03 0.  1.
         11    1    4    4    0    0  0.61345908721E-01 -0.37009393877E-01 -0.40309630910E-01  0.82207926729E-01  0.51100000000E-03 0. -1.
</event>
<event>
 8    1  0.1072332E+005  0.1043930E+01  0.7957747E-01            NaN
         13   -1    0    0    0    0  0.00000000000E+00  0.00000000000E+00  0.74505805969E-08  0.10566000000E+00  0.10566000000E+00 0.  1.
     999900   -1    0    0    0    0 -0.00000000000E+00 -0.00000000000E+00 -0.74505805969E-08  0.93827000000E+00  0.93827000000E+00 0.  1.
     999902    2    1    2    0    0  0.17442916303E-01  0.20337295754E-01 -0.34877781022E-02  0.10169110155E+01  0.10165520094E+01 0.  0.
     999903    2    3    3    0    0  0.11633778283E+00 -0.20229979931E-01 -0.48530579695E-01  0.12929919017E+00  0.20477588019E-01 0.  0.
         14    1    1    2    0    0 -0.17442916303E-01 -0.20337295754E-01  0.34877781022E-02  0.27018984508E-01  0.00000000000E+00 0.  1.
     999901    1    3    3    0    0 -0.98894866524E-01  0.40567275686E-01  0.45042801593E-01  0.88761182532E+00  0.88000000000E+00 0. -1.
        -11    1    4    4    0    0  0.97854145397E-01 -0.24409676765E-01 -0.39704814154E-01  0.10838818884E+00  0.51100000000E-03 0. -1.
         11    1    4    4    0    0  0.18483637430E-01  0.41796968334E-02 -0.88257655410E-02  0.20911001331E-01  0.51100000000E-03 0.  1.
</event>
<event>
 8    1  0.1072332E+005  0.1043930E+01  0.7957747E-01            NaN
         13   -1    0    0    0    0  0.00000000000E+00  0.00000000000E+00  0.74505805969E-08  0.10566000000E+00  0.10566000000E+00 0.  1.
     999900   -1    0    0    0    0 -0.00000000000E+00 -0.00000000000E+00 -0.74505805969E-08  0.93827000000E+00  0.93827000000E+00 0. -1.
     999902    2    1    2    0    0 -0.16058677398E-01 -0.95156524896E-02  0.16450989482E-01  0.10190490069E+01  0.10187452158E+01 0.  0.
     999903    2    3    3    0    0  0.11903802881E+00  0.36756136343E-01  0.18515394628E-01  0.12753542864E+00  0.20034965900E-01 0.  0.
         14    1    1    2    0    0  0.16058677398E-01  0.95156524896E-02 -0.16450989482E-01  0.24880993087E-01  0.00000000000E+00 0. -1.
     999901    1    3    3    0    0 -0.13509670621E+00 -0.46271788832E-01 -0.20644051455E-02  0.89151357827E+00  0.88000000000E+00 0. -1.
        -11    1    4    4    0    0  0.88052704328E-01  0.22712731073E-01  0.54818948807E-02  0.91101367634E-01  0.51100000000E-03 0. -1.
         11    1    4    4    0    0  0.30985324484E-01  0.14043405269E-01  0.13033499747E-01  0.36434061009E-01  0.51100000000E-03 0.  1.
</event>
<event>
 8    1  0.1072332E+005  0.1043930E+01  0.7957747E-01            NaN
         13   -1    0    0    0    0  0.00000000000E+00  0.00000000000E+00  0.74505805969E-08  0.10566000000E+00  0.10566000000E+00 0. -1.
     999900   -1    0    0    0    0 -0.00000000000E+00 -0.00000000000E+00 -0.74505805969E-08  0.93827000000E+00  0.93827000000E+00 0. -1.
     999902    2    1    2    0    0 -0.93370002809E-02  0.46723838879E-02 -0.21887923352E-01  0.10196793931E+01  0.10193909813E+01 0.  0.
     999903    2    3    3    0    0  0.79001687683E-01 -0.50579951344E-01  0.83678847131E-01  0.12726643525E+00  0.19874555335E-01 0.  0.
         14    1    1    2    0    0  0.93370002809E-02 -0.46723838879E-02  0.21887923352E-01  0.24250606881E-01  0.00000000000E+00 0. -1.
     999901    1    3    3    0    0 -0.88338687964E-01  0.55252335232E-01 -0.10556677048E+00  0.89241295787E+00  0.88000000000E+00 0. -1.
        -11    1    4    4    0    0  0.16134859886E-01 -0.20405827849E-01  0.19794632258E-01  0.32692814210E-01  0.51100000000E-03 0. -1.
         11    1    4    4    0    0  0.62866827797E-01 -0.30174123495E-01  0.63884214873E-01  0.94573621041E-01  0.51100000000E-03 0.  1.
</event>
<event>
 8    1  0.1072332E+005  0.1043930E+01  0.7957747E-01            NaN
         13   -1    0    0    0    0  0.00000000000E+00  0.00000000000E+00  0.74505805969E-08  0.10566000000E+00  0.10566000000E+00 0.  1.
     999900   -1    0    0    0    0 -0.00000000000E+00 -0.00000000000E+00 -0.74505805969E-08  0.93827000000E+00  0.93827000000E+00 0.  1.
     999902    2    1    2    0    0 -0.16633283429E-02 -0.16154277378E-01  0.16966797389E-01  0.10204438434E+01  0.10201735333E+01 0.  0.
     999903    2    3    3    0    0  0.96118554834E-01 -0.83294769127E-01  0.31153007002E-01  0.13237268022E+00  0.19370634360E-01 0.  0.
         14    1    1    2    0    0  0.16633283429E-02  0.16154277378E-01 -0.16966797389E-01  0.23486156612E-01  0.00000000000E+00 0.  1.
     999901    1    3    3    0    0 -0.97781883177E-01  0.67140491749E-01 -0.14186209613E-01  0.88807116317E+00  0.88000000000E+00 0.  1.
        -11    1    4    4    0    0  0.34351706249E-01 -0.18625786472E-01  0.65834780254E-02  0.39630328636E-01  0.51100000000E-03 0.  1.
         11    1    4    4    0    0  0.61766848586E-01 -0.64668982655E-01  0.24569528976E-01  0.92742351582E-01  0.51100000000E-03 0. -1.
</event>
<event>
 8    1  0.1072332E+005  0.1043930E+01  0.7957747E-01            NaN
         13   -1    0    0    0    0  0.00000000000E+00  0.00000000000E+00  0.74505805969E-08  0.10566000000E+00  0.10566000000E+00 0. -1.
     999900   -1    0    0    0    0 -0.00000000000E+00 -0.00000000000E+00 -0.74505805969E-08  0.93827000000E+00  0.93827000000E+00 0. -1.
     999902    2    1    2    0    0  0.21463851837E-01  0.13667548754E-01 -0.40704852754E-02  0.10181604894E+01  0.10178343257E+01 0.  0.
     999903    2    3    3    0    0  0.50157113193E-01  0.11884837682E+00 -0.11883525190E-01  0.13139820255E+00  0.21990834109E-01 0.  0.
         14    1    1    2    0    0 -0.21463851837E-01 -0.13667548754E-01  0.40704852754E-02  0.25769510569E-01  0.00000000000E+00 0.  1.
     999901    1    3    3    0    0 -0.28693261357E-01 -0.10518082807E+00  0.78130399145E-02  0.88676228688E+00  0.88000000000E+00 0. -1.
        -11    1    4    4    0    0  0.19889419434E-01  0.53855990814E-01  0.53413752229E-02  0.57661496358E-01  0.51100000000E-03 0. -1.
         11    1    4    4    0    0  0.30267693759E-01  0.64992386010E-01 -0.17224900413E-01  0.73736706192E-01  0.51100000000E-03 0.  1.
</event>
<event>
 8    1  0.1072332E+005  0.1043930E+01  0.7957747E-01            NaN
         13   -1    0    0    0    0  0.00000000000E+00  0.00000000000E+00  0.74505805969E-08  0.10566000000E+00  0.10566000000E+00 0. -1.
     999900   -1    0    0    0    0 -0.00000000000E+00 -0.00000000000E+00 -0.74505805969E-08  0.93827000000E+00  0.93827000000E+00 0.  1.
     999902    2    1    2    0    0 -0.22650547989E-02  0.75991422592E-02  0.22325926010E-01  0.10202377142E+01  0.10199625821E+01 0.  0.
     999903    2    3    3    0    0  0.10235920526E+00  0.61241626683E-02  0.80731551497E-01  0.13211631004E+00  0.20548082711E-01 0.  0.
         14    1    1    2    0    0  0.22650547989E-02 -0.75991422592E-02 -0.22325926010E-01  0.23692285844E-01  0.00000000000E+00 0.  1.
     999901    1    3    3    0    0 -0.10462426005E+00  0.14749795909E-02 -0.58405625487E-01  0.88812140411E+00  0.88000000000E+00 0.  1.
        -11    1    4    4    0    0  0.61514614118E-01  0.12694536948E-01  0.54224190745E-01  0.82980256697E-01  0.51100000000E-03 0.  1.
         11    1    4    4    0    0  0.40844591137E-01 -0.65703742801E-02  0.26507360752E-01  0.49136053346E-01  0.51100000000E-03 0. -1.
</event>
<event>
 8    1  0.1072332E+005  0.1043930E+01  0.7957747E-01            NaN
         13   -1    0    0    0    0  0.00000000000E+00  0.00000000000E+00  0.74505805969E-08  0.10566000000E+00  0.10566000000E+00 0. -1.
     999900   -1    0    0    0    0 -0.00000000000E+00 -0.00000000000E+00 -0.74505805969E-08  0.93827000000E+00  0.93827000000E+00 0.  1.
     999902    2    1    2    0    0  0.10385366069E-01 -0.16494286912E-01  0.14532846273E-01  0.10196170210E+01  0.10193271057E+01 0.  0.
     999903    2    3    3    0    0  0.11805665199E+00 -0.27088452509E-01  0.49324653082E-01  0.13230883775E+00  0.20038707721E-01 0.  0.
         14    1    1    2    0    0 -0.10385366069E-01  0.16494286912E-01 -0.14532846273E-01  0.24312979043E-01  0.00000000000E+00 0.  1.
     999901    1    3    3    0    0 -0.10767128592E+00  0.10594165597E-01 -0.34791806808E-01  0.88730818320E+00  0.88000000000E+00 0. -1.
        -11    1    4    4    0    0  0.70188205648E-01 -0.73121525615E-02  0.23110511791E-01  0.74257717871E-01  0.51100000000E-03 0. -1.
         11    1    4    4    0    0  0.47868446345E-01 -0.19776299948E-01  0.26214141290E-01  0.58051119884E-01  0.51100000000E-03 0.  1.
</event>
<event>
 8    1  0.1072332E+005  0.1043930E+01  0.7957747E-01            NaN
         13   -1    0    0    0    0  0.00000000000E+00  0.00000000000E+00  0.74505805969E-08  0.10566000000E+00  0.10566000000E+00 0. -1.
     999900   -1    0    0    0    0 -0.00000000000E+00 -0.00000000000E+00 -0.74505805969E-08  0.93827000000E+00  0.93827000000E+00 0. -1.
     999902    2    1    2    0    0 -0.31874487720E-02 -0.14731393784E-01 -0.17489351819E-01  0.10208420980E+01  0.10205809805E+01 0.  0.
     999903    2    3    3    0    0  0.79356558372E-01  0.10015201353E+00 -0.35829291907E-02  0.12943584998E+00  0.20320253617E-01 0.  0.
         14    1    1    2    0    0  0.31874487720E-02  0.14731393784E-01  0.17489351819E-01  0.23087902017E-01  0.00000000000E+00 0. -1.
     999901    1    3    3    0    0 -0.82544007145E-01 -0.11488340731E+00 -0.13906422629E-01  0.89140624800E+00  0.88000000000E+00 0. -1.
        -11    1    4    4    0    0  0.33453714759E-01  0.34413705034E-01 -0.98993976894E-02  0.49007278245E-01  0.51100000000E-03 0. -1.
         11    1    4    4    0    0  0.45902843614E-01  0.65738308496E-01  0.63164684987E-02  0.80428571733E-01  0.51100000000E-03 0.  1.
</event>
<event>
 8    1  0.1072332E+005  0.1043930E+01  0.7957747E-01            NaN
         13   -1    0    0    0    0  0.00000000000E+00  0.00000000000E+00  0.74505805969E-08  0.10566000000E+00  0.10566000000E+00 0.  1.
     999900   -1    0    0    0    0 -0.00000000000E+00 -0.00000000000E+00 -0.74505805969E-08  0.93827000000E+00  0.93827000000E+00 0. -1.
     999902    2    1    2    0    0  0.63494821084E-02 -0.16440480320E-01 -0.14977428951E-01  0.10208014744E+01  0.10205394267E+01 0.  0.
     999903    2    3    3    0    0 -0.11483137878E+00 -0.56351856553E-01  0.19988631544E-01  0.13091364759E+00  0.19418044360E-01 0.  0.
         14    1    1    2    0    0 -0.63494821084E-02  0.16440480320E-01  0.14977428951E-01  0.23128525551E-01  0.00000000000E+00 0.  1.
     999901    1    3    3    0    0  0.12118086089E+00  0.39911376233E-01 -0.34966060495E-01  0.88988782685E+00  0.88000000000E+00 0. -1.
        -11    1    4    4    0    0 -0.84783967390E-01 -0.42786928743E-01  0.61908014905E-02  0.95171579486E-01  0.51100000000E-03 0. -1.
         11    1    4    4    0    0 -0.30047411386E-01 -0.13564927810E-01  0.13797830054E-01  0.35742068109E-01  0.51100000000E-03 0.  1.
</event>
<event>
 8    1  0.1072332E+005  0.1043930E+01  0.7957747E-01            NaN
         13   -1    0    0    0    0  0.00000000000E+00  0.00000000000E+00  0.74505805969E-08  0.10566000000E+00  0.10566000000E+00 0. -1.
     999900   -1    0    0    0    0 -0.00000000000E+00 -0.00000000000E+00 -0.74505805969E-08  0.93827000000E+00  0.93827000000E+00 0.  1.
     999902    2    1    2    0    0  0.26660839257E-01 -0.13767561471E-02  0.17108808071E-01  0.10122218446E+01  0.10117250889E+01 0.  0.
     999903    2    3    3    0    0 -0.22250233184E-01  0.85967795552E-01  0.84162431641E-01  0.12401153605E+00  0.20248738852E-01 0.  0.
         14    1    1    2    0    0 -0.26660839257E-01  0.13767561471E-02 -0.17108808071E-01  0.31708155434E-01  0.00000000000E+00 0.  1.
     999901    1    3    3    0    0  0.48911072441E-01 -0.87344551700E-01 -0.67053623570E-01  0.88821030852E+00  0.88000000000E+00 0.  1.
        -11    1    4    4    0    0 -0.21850422755E-01  0.59350319684E-01  0.49562378212E-01  0.80352920770E-01  0.51100000000E-03 0.  1.
         11    1    4    4    0    0 -0.39981042903E-03  0.26617475868E-01  0.34600053429E-01  0.43658615281E-01  0.51100000000E-03 0. -1.
</event>
<event>
 8    1  0.1072332E+005  0.1043930E+01  0.7957747E-01            NaN
         13   -1    0    0    0    0  0.00000000000E+00  0.00000000000E+00  0.74505805969E-08  0.10566000000E+00  0.10566000000E+00 0. -1.
     999900   -1    0    0    0    0 -0.00000000000E+00 -0.00000000000E+00 -0.74505805969E-08  0.93827000000E+00  0.93827000000E+00 0.  1.
     999902    2    1    2    0    0  0.20893963215E-02  0.23583518424E-01  0.73961694509E-02  0.10191257415E+01  0.10188238443E+01 0.  0.
     999903    2    3    3    0    0 -0.12507712862E+00 -0.11174657834E-01  0.23309242657E-01  0.12916356151E+00  0.19254707099E-01 0.  0.
         14    1    1    2    0    0 -0.20893963215E-02 -0.23583518424E-01 -0.73961694509E-02  0.24804258521E-01  0.00000000000E+00 0.  1.
     999901    1    3    3    0    0  0.12716652494E+00  0.34758176258E-01 -0.15913073206E-01  0.88996217997E+00  0.88000000000E+00 0.  1.
        -11    1    4    4    0    0 -0.86262571052E-01 -0.94361933200E-02  0.24880463557E-01  0.90274977135E-01  0.51100000000E-03 0. -1.
         11    1    4    4    0    0 -0.38814557571E-01 -0.17384645141E-02 -0.15712209002E-02  0.38888584371E-01  0.51100000000E-03 0.  1.
</event>
<event>
 8    1  0.1072332E+005  0.1043930E+01  0.7957747E-01            NaN
         13   -1    0    0    0    0  0.00000000000E+00  0.00000000000E+00  0.74505805969E-08  0.10566000000E+00  0.10566000000E+00 0.  1.
     999900   -1    0    0    0    0 -0.00000000000E+00 -0.00000000000E+00 -0.74505805969E-08  0.93827000000E+00  0.93827000000E+00 0.  1.
     999902    2    1    2    0    0  0.15908688388E-01  0.11493935221E-01 -0.13403640164E-01  0.10201633325E+01  0.10198864498E+01 0.  0.
     999903    2    3    3    0    0 -0.78682999382E-01  0.10064723512E+00 -0.17627249353E-01  0.13060516290E+00  0.20642391515E-01 0.  0.
         14    1    1    2    0    0 -0.15908688388E-01 -0.11493935221E-01  0.13403640164E-01  0.23766667473E-01  0.00000000000E+00 0.  1.
     999901    1    3    3    0    0  0.94591687771E-01 -0.89153299897E-01  0.42236091886E-02  0.88955816963E+00  0.88000000000E+00 0. -1.
        -11    1    4    4    0    0 -0.21477307191E-01  0.34811716666E-01  0.28794661759E-02  0.41008325835E-01  0.51100000000E-03 0.  1.
         11    1    4    4    0    0 -0.57205692192E-01  0.65835518452E-01 -0.20506715529E-01  0.89596837064E-01  0.51100000000E-03 0. -1.
</event>
<event>
 8    1  0.1072332E+005  0.1043930E+01  0.7957747E-01            NaN
         13   -1    0    0    0    0  0.00000000000E+00  0.00000000000E+00  0.74505805969E-08  0.10566000000E+00  0.10566000000E+00 0. -1.
     999900   -1    0    0    0    0 -0.00000000000E+00 -0.00000000000E+00 -0.74505805969E-08  0.93827000000E+00  0.93827000000E+00 0.  1.
     999902    2    1    2    0    0 -0.12951656578E-01  0.17043175719E-01 -0.76123520116E-02  0.10212107758E+01  0.10209580233E+01 0.  0.
     999903    2    3    3    0    0  0.33077875895E-01  0.30217272586E-01 -0.12287560080E+00  0.13240377129E+00  0.20618339988E-01 0.  0.
         14    1    1    2    0    0  0.12951656578E-01 -0.17043175719E-01  0.76123520116E-02  0.22719224235E-01  0.00000000000E+00 0. -1.
     999901    1    3    3    0    0 -0.46029532473E-01 -0.13174096867E-01  0.11526324878E+00  0.88880700448E+00  0.88000000000E+00 0. -1.
        -11    1    4    4    0    0  0.30102947284E-01  0.32923170895E-01 -0.10519654049E+00  0.11426589985E+00  0.51100000000E-03 0.  1.
         11    1    4    4    0    0  0.29749286118E-02 -0.27058983090E-02 -0.17679060304E-01  0.18137871433E-01  0.51100000000E-03 0. -1.
</event>
<event>
 8    1  0.1072332E+005  0.1043930E+01  0.7957747E-01            NaN
         13   -1    0    0    0    0  0.00000000000E+00  0.00000000000E+00  0.74505805969E-08  0.10566000000E+00  0.10566000000E+00 0.  1.
     999900   -1    0    0    0    0 -0.00000000000E+00 -0.00000000000E+00 -0.74505805969E-08  0.93827000000E+00  0.93827000000E+00 0.  1.
     999902    2    1    2    0    0 -0.98827670082E-03 -0.23547493696E-01 -0.56343883270E-02  0.10196976356E+01  0.10194096628E+01 0.  0.
     999903    2    3    3    0    0 -0.79835122669E-01  0.20216045887E-01 -0.98727360286E-01  0.13020431137E+00  0.20584841662E-01 0.  0.
         14    1    1    2    0    0  0.98827670082E-03  0.23547493696E-01  0.56343883270E-02  0.24232364351E-01  0.00000000000E+00 0.  1.
     999901    1    3    3    0    0  0.78846845968E-01 -0.43763539584E-01  0.93092971959E-01  0.88949332428E+00  0.88000000000E+00 0. -1.
        -11    1    4    4    0    0 -0.51954078659E-01  0.19850160755E-01 -0.76281213878E-01  0.94405189916E-01  0.51100000000E-03 0.  1.
         11    1    4    4    0    0 -0.27881044010E-01  0.36588513160E-03 -0.22446146409E-01  0.35799121450E-01  0.51100000000E-03 0. -1.
</event>
<event>
 8    1  0.1072332E+005  0.1043930E+01  0.7957747E-01            NaN
         13   -1    0    0    0    0  0.00000000000E+00  0.00000000000E+00  0.74505805969E-08  0.10566000000E+00  0.10566000000E+00 0. -1.
     999900   -1    0    0    0    0 -0.00000000000E+00 -0.00000000000E+00 -0.74505805969E-08  0.93827000000E+00  0.93827000000E+00 0. -1.
     999902    2    1    2    0    0  0.23185445359E-02 -0.23710403452E-01  0.47565666413E-02  0.10196363011E+01  0.10193468510E+01 0.  0.
     999903    2    3    3    0    0  0.12648746226E+00  0.18395384054E-01  0.12941397771E-01  0.12988475772E+00  0.19107648955E-01 0.  0.
         14    1    1    2    0    0 -0.23185445359E-02  0.23710403452E-01 -0.47565666413E-02  0.24293698912E-01  0.00000000000E+00 0. -1.
     999901    1    3    3    0    0 -0.12416891772E+00 -0.42105787506E-01 -0.81848311300E-02  0.88975154337E+00  0.88000000000E+00 0. -1.
        -11    1    4    4    0    0  0.75500934420E-01  0.16155932481E-01  0.15621276878E-01  0.78776206210E-01  0.51100000000E-03 0. -1.
         11    1    4    4    0    0  0.50986527836E-01  0.22394515734E-02 -0.26798791063E-02  0.51108551507E-01  0.51100000000E-03 0.  1.
</event>
<event>
 8    1  0.1072332E+005  0.1043930E+01  0.7957747E-01            NaN
         13   -1    0    0    0    0  0.00000000000E+00  0.00000000000E+00  0.74505805969E-08  0.10566000000E+00  0.10566000000E+00 0.  1.
     999900   -1    0    0    0    0 -0.00000000000E+00 -0.00000000000E+00 -0.74505805969E-08  0.93827000000E+00  0.93827000000E+00 0.  1.
     999902    2    1    2    0    0  0.18707554943E-01  0.88614064823E-03 -0.56288201674E-02  0.10243738891E+01  0.10241872012E+01 0.  0.
     999903    2    3    3    0    0  0.43739939696E-01 -0.33018344906E-01  0.12102797528E+00  0.13430755547E+00  0.19681342177E-01 0.  0.
         14    1    1    2    0    0 -0.18707554943E-01 -0.88614064823E-03  0.56288201674E-02  0.19556110903E-01  0.00000000000E+00 0.  1.
     999901    1    3    3    0    0 -0.25032384754E-01  0.33904485554E-01 -0.12665679545E+00  0.89006633363E+00  0.88000000000E+00 0.  1.
        -11    1    4    4    0    0  0.44533091822E-01 -0.33685998719E-01  0.11141623268E+00  0.12462656539E+00  0.51100000000E-03 0.  1.
         11    1    4    4    0    0 -0.79315212520E-03  0.66765381310E-03  0.96117426055E-02  0.96809900745E-02  0.51100000000E-03 0. -1.
</event>
<event>
 8    1  0.1072332E+005  0.1043930E+01  0.7957747E-01            NaN
         13   -1    0    0    0    0  0.00000000000E+00  0.00000000000E+00  0.74505805969E-08  0.10566000000E+00  0.10566000000E+00 0.  1.
     999900   -1    0    0    0    0 -0.00000000000E+00 -0.00000000000E+00 -0.74505805969E-08  0.93827000000E+00  0.93827000000E+00 0. -1.
     999902    2    1    2    0    0 -0.13223129533E-01 -0.18511639438E-01 -0.89243384529E-02  0.10194928200E+01  0.10191998991E+01 0.  0.
     999903    2    3    3    0    0  0.10878213874E+00 -0.97161019920E-02 -0.65256409464E-01  0.12924793842E+00  0.22774421243E-01 0.  0.
         14    1    1    2    0    0  0.13223129533E-01  0.18511639438E-01  0.89243384529E-02  0.24437179996E-01  0.00000000000E+00 0.  1.
     999901    1    3    3    0    0 -0.12200526827E+00 -0.87955374464E-02  0.56332071012E-01  0.89024488159E+00  0.88000000000E+00 0.  1.
        -11    1    4    4    0    0  0.16462249966E-01  0.14432319481E-02 -0.19628881227E-01  0.25664034983E-01  0.51100000000E-03 0.  1.
         11    1    4    4    0    0  0.92319888771E-01 -0.11159333940E-01 -0.45627528237E-01  0.10358390343E+00  0.51100000000E-03 0. -1.
</event>
<event>
 8    1  0.1072332E+005  0.1043930E+01  0.7957747E-01            NaN
         13   -1    0    0    0    0  0.00000000000E+00  0.00000000000E+00  0.74505805969E-08  0.10566000000E+00  0.10566000000E+00 0.  1.
     999900   -1    0    0    0    0 -0.00000000000E+00 -0.00000000000E+00 -0.74505805969E-08  0.93827000000E+00  0.93827000000E+00 0. -1.
     999902    2    1    2    0    0 -0.22487233568E-02 -0.21726097260E-01 -0.81492095691E-02  0.10206171350E+01  0.10203508448E+01 0.  0.
     999903    2    3    3    0    0  0.10797683206E+00 -0.35175478639E-01 -0.62179478567E-01  0.13199470172E+00  0.25690526828E-01 0.  0.
         14    1    1    2    0    0  0.22487233568E-02  0.21726097260E-01  0.81492095691E-02  0.23312865021E-01  0.00000000000E+00 0. -1.
     999901    1    3    3    0    0 -0.11022555541E+00  0.13449381379E-01  0.54030268998E-01  0.88862243326E+00  0.88000000000E+00 0. -1.
        -11    1    4    4    0    0  0.51959454790E-01 -0.12358966984E-01 -0.15577687031E-01  0.55636808510E-01  0.51100000000E-03 0.  1.
         11    1    4    4    0    0  0.56017377266E-01 -0.22816511655E-01 -0.46601791537E-01  0.76357893209E-01  0.51100000000E-03 0. -1.
</event>
<event>
 8    1  0.1072332E+005  0.1043930E+01  0.7957747E-01            NaN
         13   -1    0    0    0    0  0.00000000000E+00  0.00000000000E+00  0.74505805969E-08  0.10566000000E+00  0.10566000000E+00 0.  1.
     999900   -1    0    0    0    0 -0.00000000000E+00 -0.00000000000E+00 -0.74505805969E-08  0.93827000000E+00  0.93827000000E+00 0. -1.
     999902    2    1    2    0    0 -0.14420219420E-01 -0.12780128073E-01  0.95834050528E-02  0.10224098686E+01  0.10221833610E+01 0.  0.
     999903    2    3    3    0    0 -0.10743344499E+00 -0.21134657980E-01 -0.73774984398E-01  0.13355111754E+00  0.20113025705E-01 0.  0.
         14    1    1    2    0    0  0.14420219420E-01  0.12780128073E-01 -0.95834050528E-02  0.21520131368E-01  0.00000000000E+00 0.  1.
     999901    1    3    3    0    0  0.93013225570E-01  0.83545299078E-02  0.83358389450E-01  0.88885875109E+00  0.88000000000E+00 0. -1.
        -11    1    4    4    0    0 -0.62910754142E-01 -0.32694805395E-02 -0.47097910050E-01  0.78657019660E-01  0.51100000000E-03 0.  1.
         11    1    4    4    0    0 -0.44522690848E-01 -0.17865177441E-01 -0.26677074347E-01  0.54894097880E-01  0.51100000000E-03 0. -1.
</event>
<event>
 8    1  0.1072332E+005  0.1043930E+01  0.7957747E-01            NaN
         13   -1    0    0    0    0  0.00000000000E+00  0.00000000000E+00  0.74505805969E-08  0.10566000000E+00  0.10566000000E+00 0. -1.
     999900   -1    0    0    0    0 -0.00000000000E+00 -0.00000000000E+00 -0.74505805969E-08  0.93827000000E+00  0.93827000000E+00 0. -1.
     999902    2    1    2    0    0  0.58012651800E-02 -0.92389171607E-02 -0.21154123213E-01  0.10201285463E+01  0.10198508429E+01 0.  0.
     999903    2    3    3    0    0  0.12057118699E+00 -0.42596343051E-01  0.21190536718E-01  0.13104029253E+00  0.19252528340E-01 0.  0.
         14    1    1    2    0    0 -0.58012651800E-02  0.92389171607E-02  0.21154123213E-01  0.23801453672E-01  0.00000000000E+00 0. -1.
     999901    1    3    3    0    0 -0.11476992181E+00  0.33357425890E-01 -0.42344659931E-01  0.88908825380E+00  0.88000000000E+00 0. -1.
        -11    1    4    4    0    0  0.25178403994E-01 -0.88813587080E-03  0.37853034886E-02  0.25481963357E-01  0.51100000000E-03 0. -1.
         11    1    4    4    0    0  0.95392782993E-01 -0.41708207180E-01  0.17405233229E-01  0.10555832917E+00  0.51100000000E-03 0.  1.
</event>
<event>
 8    1  0.1072332E+005  0.1043930E+01  0.7957747E-01            NaN
         13   -1    0    0    0    0  0.00000000000E+00  0.00000000000E+00  0.74505805969E-08  0.10566000000E+00  0.10566000000E+00 0.  1.
     999900   -1    0    0    0    0 -0.00000000000E+00 -0.00000000000E+00 -0.74505805969E-08  0.93827000000E+00  0.93827000000E+00 0.  1.
     999902    2    1    2    0    0  0.55114695083E-02  0.22909595641E-01 -0.13633879030E-03  0.10203663743E+01  0.10200942571E+01 0.  0.
     999903    2    3    3    0    0  0.64215481096E-01  0.48322568847E-01  0.10292498751E+00  0.13204570180E+00  0.19591213295E-01 0.  0.
         14    1    1    2    0    0 -0.55114695083E-02 -0.22909595641E-01  0.13633879030E-03  0.23563625715E-01  0.00000000000E+00 0.  1.
     999901    1    3    3    0    0 -0.58704011587E-01 -0.25412973206E-01 -0.10306132630E+00  0.88832067248E+00  0.88000000000E+00 0.  1.
        -11    1    4    4    0    0  0.52708104645E-01  0.28894331893E-01  0.73424614647E-01  0.94891843000E-01  0.51100000000E-03 0.  1.
         11    1    4    4    0    0  0.11507376450E-01  0.19428236954E-01  0.29500372861E-01  0.37153858801E-01  0.51100000000E-03 0. -1.
</event>
<event>
 8    1  0.1072332E+005  0.1043930E+01  0.7957747E-01            NaN
         13   -1    0    0    0    0  0.00000000000E+00  0.00000000000E+00  0.74505805969E-08  0.10566000000E+00  0.10566000000E+00 0.  1.
     999900   -1    0    0    0    0 -0.00000000000E+00 -0.00000000000E+00 -0.74505805969E-08  0.93827000000E+00  0.93827000000E+00 0. -1.
     999902    2    1    2    0    0 -0.16558750775E-01  0.10901968286E-01  0.12925077632E-01  0.10202635095E+01  0.10199889833E+01 0.  0.
     999903    2    3    3    0    0  0.10739877401E+00 -0.65233011501E-01 -0.13767956909E-01  0.12792135475E+00  0.19608006399E-01 0.  0.
         14    1    1    2    0    0  0.16558750775E-01 -0.10901968286E-01 -0.12925077632E-01  0.23666490477E-01  0.00000000000E+00 0. -1.
     999901    1    3    3    0    0 -0.12395752478E+00  0.76134979787E-01  0.26693034541E-01  0.89234215478E+00  0.88000000000E+00 0.  1.
        -11    1    4    4    0    0  0.74027510356E-02 -0.96683778169E-02 -0.50473667667E-02  0.13191485314E-01  0.51100000000E-03 0. -1.
         11    1    4    4    0    0  0.99996022972E-01 -0.55564633684E-01 -0.87205901425E-02  0.11472986943E+00  0.51100000000E-03 0.  1.
</event>
<event>
 8    1  0.1072332E+005  0.1043930E+01  0.7957747E-01            NaN
         13   -1    0    0    0    0  0.00000000000E+00  0.00000000000E+00  0.74505805969E-08  0.10566000000E+00  0.10566000000E+00 0.  1.
     999900   -1    0    0    0    0 -0.00000000000E+00 -0.00000000000E+00 -0.74505805969E-08  0.93827000000E+00  0.93827000000E+00 0. -1.
     999902    2    1    2    0    0  0.17601381266E-01 -0.11595700602E-01  0.10213103451E-01  0.10205082926E+01  0.10202394812E+01 0.  0.
     999903    2    3    3    0    0 -0.53267438897E-01 -0.68029863566E-01  0.97189362500E-01  0.13159205693E+00  0.20129949826E-01 0.  0.
         14    1    1    2    0    0 -0.17601381266E-01  0.11595700602E-01 -0.10213103451E-01  0.23421707390E-01  0.00000000000E+00 0.  1.
     999901    1    3    3    0    0  0.70868820164E-01  0.56434162964E-01 -0.86976259049E-01  0.88891623568E+00  0.88000000000E+00 0. -1.
        -11    1    4    4    0    0 -0.29473881889E-01 -0.42546000734E-01  0.71560438223E-01  0.88317774721E-01  0.51100000000E-03 0. -1.
         11    1    4    4    0    0 -0.23793557008E-01 -0.25483862833E-01  0.25628924277E-01  0.43274282207E-01  0.51100000000E-03 0.  1.
</event>
<event>
 8    1  0.1072332E+005  0.1043930E+01  0.7957747E-01            NaN
         13   -1    0    0    0    0  0.00000000000E+00  0.00000000000E+00  0.74505805969E-08  0.10566000000E+00  0.10566000000E+00 0.  1.
     999900   -1    0    0    0    0 -0.00000000000E+00 -0.00000000000E+00 -0.74505805969E-08  0.93827000000E+00  0.93827000000E+00 0.  1.
     999902    2    1    2    0    0  0.89453014433E-02  0.16477288422E-01 -0.15605691664E-01  0.10195362085E+01  0.10192443394E+01 0.  0.
     999903    2    3    3    0    0 -0.10268121465E+00  0.61976879506E-01  0.43926327900E-01  0.12932569787E+00  0.20274328845E-01 0.  0.
         14    1    1    2    0    0 -0.89453014433E-02 -0.16477288422E-01  0.15605691664E-01  0.24393791504E-01  0.00000000000E+00 0.  1.
     999901    1    3    3    0    0  0.11162651609E+00 -0.45499591084E-01 -0.59532019563E-01  0.89021051063E+00  0.88000000000E+00 0. -1.
        -11    1    4    4    0    0 -0.18658160832E-01  0.20689384509E-01  0.12824622410E-01  0.30674250732E-01  0.51100000000E-03 0.  1.
         11    1    4    4    0    0 -0.84023053818E-01  0.41287494997E-01  0.31101705490E-01  0.98651447133E-01  0.51100000000E-03 0. -1.
</event>
<event>
 8    1  0.1072332E+005  0.1043930E+01  0.7957747E-01            NaN
         13   -1    0    0    0    0  0.00000000000E+00  0.00000000000E+00  0.74505805969E-08  0.10566000000E+00  0.10566000000E+00 0. -1.
     999900   -1    0    0    0    0 -0.00000000000E+00 -0.00000000000E+00 -0.74505805969E-08  0.93827000000E+00  0.93827000000E+00 0. -1.
     999902    2    1    2    0    0  0.15879152868E-01  0.14706473866E-01  0.96531921428E-02  0.10202316459E+01  0.10199563713E+01 0.  0.
     999903    2    3    3    0    0 -0.66389923837E-01 -0.10289924145E-02 -0.10811520007E+00  0.12844400295E+00  0.20007113630E-01 0.  0.
         14    1    1    2    0    0 -0.15879152868E-01 -0.14706473866E-01 -0.96531921428E-02  0.23698354118E-01  0.00000000000E+00 0.  1.
     999901    1    3    3    0    0  0.82269076705E-01  0.15735466280E-01  0.11776839221E+00  0.89178764293E+00  0.88000000000E+00 0.  1.
        -11    1    4    4    0    0 -0.22128957720E-01 -0.67625186725E-02 -0.24773337918E-01  0.33902829103E-01  0.51100000000E-03 0.  1.
         11    1    4    4    0    0 -0.44260966117E-01  0.57335262581E-02 -0.83341862149E-01  0.94541173848E-01  0.51100000000E-03 0. -1.
</event>
<event>
 8    1  0.1072332E+005  0.1043930E+01  0.7957747E-01            NaN
         13   -1    0    0    0    0  0.00000000000E+00  0.00000000000E+00  0.74505805969E-08  0.10566000000E+00  0.10566000000E+00 0.  1.
     999900   -1    0    0    0    0 -0.00000000000E+00 -0.00000000000E+00 -0.74505805969E-08  0.93827000000E+00  0.93827000000E+00 0. -1.
     999902    2    1    2    0    0  0.18963068422E-01  0.19129884277E-03 -0.53063209439E-02  0.10242375750E+01  0.10240482501E+01 0.  0.
     999903    2    3    3    0    0  0.12430270399E-01 -0.10684792718E+00 -0.77552482873E-01  0.13478854261E+00  0.24136537762E-01 0.  0.
         14    1    1    2    0    0 -0.18963068422E-01 -0.19129884277E-03  0.53063209439E-02  0.19692424970E-01  0.00000000000E+00 0.  1.
     999901    1    3    3    0    0  0.65327980228E-02  0.10703922602E+00  0.72246161929E-01  0.88944903242E+00  0.88000000000E+00 0.  1.
        -11    1    4    4    0    0  0.16322595652E-01 -0.45668158672E-01 -0.40247038947E-01  0.63024543714E-01  0.51100000000E-03 0. -1.
         11    1    4    4    0    0 -0.38923252522E-02 -0.61179768505E-01 -0.37305443926E-01  0.71763998898E-01  0.51100000000E-03 0.  1.
</event>
<event>
 7    1  0.1072332E+005  0.1043930E+01  0.7957747E-01            NaN
         13   -1    0    0    0    0  0.00000000000E+00  0.00000000000E+00  0.74505805969E-08  0.10566000000E+00  0.10566000000E+00 0. -1.
     999900   -1    0    0    0    0 -0.00000000000E+00 -0.00000000000E+00 -0.74505805969E-08  0.93827000000E+00  0.93827000000E+00 0.  1.
     999903    2    1    2    0    0 -0.91808236644E-01 -0.48776003009E-01  0.44617796125E-01  0.11491619999E+00  0.20177574301E-01 0.  0.
         14    1    1    2    0    0 -0.32682009993E-01  0.20324990884E-01  0.23389440028E-02  0.38557615210E-01  0.00000000000E+00 0. -1.
     999901    1    1    2    0    0  0.12449024664E+00  0.28451012126E-01 -0.46956740128E-01  0.89045618480E+00  0.88000000000E+00 0.  1.
        -11    1    3    3    0    0 -0.13419219595E-01  0.98541647828E-04  0.72953608418E-02  0.15282950494E-01  0.51100000000E-03 0.  1.
         11    1    3    3    0    0 -0.78389017049E-01 -0.48874544657E-01  0.37322435283E-01  0.99633249500E-01  0.51100000000E-03 0. -1.
</event>
<event>
 8    1  0.1072332E+005  0.1043930E+01  0.7957747E-01            NaN
         13   -1    0    0    0    0  0.00000000000E+00  0.00000000000E+00  0.74505805969E-08  0.10566000000E+00  0.10566000000E+00 0. -1.
     999900   -1    0    0    0    0 -0.00000000000E+00 -0.00000000000E+00 -0.74505805969E-08  0.93827000000E+00  0.93827000000E+00 0. -1.
     999902    2    1    2    0    0  0.61709394246E-02 -0.17210241892E-01  0.14342319378E-01  0.10206926369E+01  0.10204280886E+01 0.  0.
     999903    2    3    3    0    0  0.46032624489E-01  0.55543158956E-01 -0.10478752599E+00  0.12879918398E+00  0.20118627379E-01 0.  0.
         14    1    1    2    0    0 -0.61709394246E-02  0.17210241892E-01 -0.14342319378E-01  0.23237363114E-01  0.00000000000E+00 0.  1.
     999901    1    3    3    0    0 -0.39861685065E-01 -0.72753400848E-01  0.11912984537E+00  0.89189345290E+00  0.88000000000E+00 0.  1.
        -11    1    4    4    0    0  0.21749515655E-01  0.13517374413E-01 -0.45106317601E-01  0.51871011661E-01  0.51100000000E-03 0. -1.
         11    1    4    4    0    0  0.24283108834E-01  0.42025784543E-01 -0.59681208390E-01  0.76928172323E-01  0.51100000000E-03 0.  1.
</event>
<event>
 8    1  0.1072332E+005  0.1043930E+01  0.7957747E-01            NaN
         13   -1    0    0    0    0  0.00000000000E+00  0.00000000000E+00  0.74505805969E-08  0.10566000000E+00  0.10566000000E+00 0. -1.
     999900   -1    0    0    0    0 -0.00000000000E+00 -0.00000000000E+00 -0.74505805969E-08  0.93827000000E+00  0.93827000000E+00 0. -1.
     999902    2    1    2    0    0 -0.84266907478E-02  0.14225557240E-01  0.16955274022E-01  0.10202475822E+01  0.10199726820E+01 0.  0.
     999903    2    3    3    0    0 -0.43859527425E-02 -0.12673932463E+00  0.13496892479E-01  0.12901282868E+00  0.19494893351E-01 0.  0.
         14    1    1    2    0    0  0.84266907478E-02 -0.14225557240E-01 -0.16955274022E-01  0.23682417801E-01  0.00000000000E+00 0.  1.
     999901    1    3    3    0    0 -0.40407380053E-02  0.14096488187E+00  0.34583815433E-02  0.89123475352E+00  0.88000000000E+00 0.  1.
        -11    1    4    4    0    0  0.49852335301E-02 -0.94417562705E-01  0.77337230108E-02  0.94866223142E-01  0.51100000000E-03 0.  1.
         11    1    4    4    0    0 -0.93711862726E-02 -0.32321761926E-01  0.57631694683E-02  0.34146605534E-01  0.51100000000E-03 0. -1.
</event>
<event>
 8    1  0.1072332E+005  0.1043930E+01  0.7957747E-01            NaN
         13   -1    0    0    0    0  0.00000000000E+00  0.00000000000E+00  0.74505805969E-08  0.10566000000E+00  0.10566000000E+00 0.  1.
     999900   -1    0    0    0    0 -0.00000000000E+00 -0.00000000000E+00 -0.74505805969E-08  0.93827000000E+00  0.93827000000E+00 0. -1.
     999902    2    1    2    0    0  0.42945217571E-02 -0.10666231401E-01 -0.22789116421E-01  0.10184044200E+01  0.10180844795E+01 0.  0.
     999903    2    3    3    0    0  0.10128206726E+00  0.55080874507E-01 -0.56763620371E-01  0.12998811391E+00  0.19566330170E-01 0.  0.
         14    1    1    2    0    0 -0.42945217571E-02  0.10666231401E-01  0.22789116421E-01  0.25525580046E-01  0.00000000000E+00 0.  1.
     999901    1    3    3    0    0 -0.96987545504E-01 -0.65747105907E-01  0.33974503950E-01  0.88841630604E+00  0.88000000000E+00 0.  1.
        -11    1    4    4    0    0  0.40408648169E-01  0.29987083900E-01 -0.32029861984E-01  0.59651129305E-01  0.51100000000E-03 0. -1.
         11    1    4    4    0    0  0.60873419093E-01  0.25093790607E-01 -0.24733758387E-01  0.70336984610E-01  0.51100000000E-03 0.  1.
</event>
<event>
 8    1  0.1072332E+005  0.1043930E+01  0.7957747E-01            NaN
         13   -1    0    0    0    0  0.00000000000E+00  0.00000000000E+00  0.74505805969E-08  0.10566000000E+00  0.10566000000E+00 0. -1.
     999900   -1    0    0    0    0 -0.00000000000E+00 -0.00000000000E+00 -0.74505805969E-08  0.93827000000E+00  0.93827000000E+00 0.  1.
     999902    2    1    2    0    0 -0.18309307442E-01 -0.53286222699E-03  0.15678818070E-01  0.10198190063E+01  0.10195339453E+01 0.  0.
     999903    2    3    3    0    0 -0.14771231775E-01  0.11908731849E+00  0.48737284080E-01  0.13110399698E+00  0.20321329947E-01 0.  0.
         14    1    1    2    0    0  0.18309307442E-01  0.53286222699E-03 -0.15678818070E-01  0.24110993701E-01  0.00000000000E+00 0.  1.
     999901    1    3    3    0    0 -0.35380756676E-02 -0.11962018072E+00 -0.33058466010E-01  0.88871500932E+00  0.88000000000E+00 0.  1.
        -11    1    4    4    0    0  0.19341422136E-02  0.66193027458E-01  0.27482944321E-01  0.71699589537E-01  0.51100000000E-03 0.  1.
         11    1    4    4    0    0 -0.16705373988E-01  0.52894291034E-01  0.21254339759E-01  0.59404407443E-01  0.51100000000E-03 0. -1.
</event>
<event>
 8    1  0.1072332E+005  0.1043930E+01  0.7957747E-01            NaN
         13   -1    0    0    0    0  0.00000000000E+00  0.00000000000E+00  0.74505805969E-08  0.10566000000E+00  0.10566000000E+00 0. -1.
     999900   -1    0    0    0    0 -0.00000000000E+00 -0.00000000000E+00 -0.74505805969E-08  0.93827000000E+00  0.93827000000E+00 0.  1.
     999902    2    1    2    0    0  0.16129829177E-01 -0.15595415487E-01 -0.10228281420E-02  0.10214703795E+01  0.10212234338E+01 0.  0.
     999903    2    3    3    0    0 -0.71729773040E-01 -0.49798136637E-01  0.95607414783E-01  0.13117461988E+00  0.20999723472E-01 0.  0.
         14    1    1    2    0    0 -0.16129829177E-01  0.15595415487E-01  0.10228281420E-02  0.22459620453E-01  0.00000000000E+00 0. -1.
     999901    1    3    3    0    0  0.87859602217E-01  0.34202721150E-01 -0.96630242925E-01  0.89029575967E+00  0.88000000000E+00 0.  1.
        -11    1    4    4    0    0 -0.14900845331E-01 -0.16810711958E-01  0.14303519002E-01  0.26636197269E-01  0.51100000000E-03 0. -1.
         11    1    4    4    0    0 -0.56828927709E-01 -0.32987424679E-01  0.81303895781E-01  0.10453842261E+00  0.51100000000E-03 0.  1.
</event>
<event>
 8    1  0.1072332E+005  0.1043930E+01  0.7957747E-01            NaN
         13   -1    0    0    0    0  0.00000000000E+00  0.00000000000E+00  0.74505805969E-08  0.10566000000E+00  0.10566000000E+00 0.  1.
     999900   -1    0    0    0    0 -0.00000000000E+00 -0.00000000000E+00 -0.74505805969E-08  0.93827000000E+00  0.93827000000E+00 0. -1.
     999902    2    1    2    0    0 -0.24382944003E-01  0.60206961408E-03 -0.30052149709E-03  0.10195377726E+01  0.10192459413E+01 0.  0.
     999903    2    3    3    0    0  0.53288929503E-01 -0.17610488697E-01  0.11357549387E+00  0.12862118607E+00  0.22230100720E-01 0.  0.
         14    1    1    2    0    0  0.24382944003E-01 -0.60206961408E-03  0.30052149709E-03  0.24392227435E-01  0.00000000000E+00 0.  1.
     999901    1    3    3    0    0 -0.77671873506E-01  0.18212558311E-01 -0.11387601537E+00  0.89091658649E+00  0.88000000000E+00 0. -1.
        -11    1    4    4    0    0  0.54939914398E-01 -0.15831519148E-01  0.10348606469E+00  0.11823137442E+00  0.51100000000E-03 0.  1.
         11    1    4    4    0    0 -0.16509848945E-02 -0.17789695485E-02  0.10089429185E-01  0.10389811647E-01  0.51100000000E-03 0. -1.
</event>
<event>
 8    1  0.1072332E+005  0.1043930E+01  0.7957747E-01            NaN
         13   -1    0    0    0    0  0.00000000000E+00  0.00000000000E+00  0.74505805969E-08  0.10566000000E+00  0.10566000000E+00 0. -1.
     999900   -1    0    0    0    0 -0.00000000000E+00 -0.00000000000E+00 -0.74505805969E-08  0.93827000000E+00  0.93827000000E+00 0. -1.
     999902    2    1    2    0    0 -0.60114987222E-02  0.10433179890E-01 -0.20504646475E-01  0.10201512303E+01  0.10198740623E+01 0.  0.
     999903    2    3    3    0    0 -0.93346526347E-01 -0.44584001691E-01  0.74438151144E-01  0.12904605577E+00  0.20261761445E-01 0.  0.
         14    1    1    2    0    0  0.60114987222E-02 -0.10433179890E-01  0.20504646475E-01  0.23778769661E-01  0.00000000000E+00 0. -1.
     999901    1    3    3    0    0  0.87335027625E-01  0.55017181581E-01 -0.94942797620E-01  0.89110517457E+00  0.88000000000E+00 0. -1.
        -11    1    4    4    0    0 -0.56302232700E-01 -0.37619391258E-01  0.47688256707E-01  0.82822647594E-01  0.51100000000E-03 0.  1.
         11    1    4    4    0    0 -0.37044293646E-01 -0.69646104324E-02  0.26749894437E-01  0.46223408178E-01  0.51100000000E-03 0. -1.
</event>
<event>
 8    1  0.1072332E+005  0.1043930E+01  0.7957747E-01            NaN
         13   -1    0    0    0    0  0.00000000000E+00  0.00000000000E+00  0.74505805969E-08  0.10566000000E+00  0.10566000000E+00 0. -1.
     999900   -1    0    0    0    0 -0.00000000000E+00 -0.00000000000E+00 -0.74505805969E-08  0.93827000000E+00  0.93827000000E+00 0.  1.
     999902    2    1    2    0    0 -0.11755610642E-01 -0.66732275680E-02  0.18480647414E-01  0.10210332606E+01  0.10207764978E+01 0.  0.
     999903    2    3    3    0    0 -0.53056172004E-01  0.95374486009E-01  0.73468184318E-01  0.13247088154E+00  0.15482583087E-01 0.  0.
         14    1    1    2    0    0  0.11755610642E-01  0.66732275680E-02 -0.18480647414E-01  0.22896739432E-01  0.00000000000E+00 0.  1.
     999901    1    3    3    0    0  0.41300561362E-01 -0.10204771358E+00 -0.54987536904E-01  0.88856237903E+00  0.88000000000E+00 0.  1.
        -11    1    4    4    0    0 -0.22575632552E-01  0.26028088801E-01  0.21755708864E-01  0.40751596054E-01  0.51100000000E-03 0. -1.
         11    1    4    4    0    0 -0.30480539452E-01  0.69346397208E-01  0.51712475454E-01  0.91719285483E-01  0.51100000000E-03 0.  1.
</event>
<event>
 8    1  0.1072332E+005  0.1043930E+01  0.7957747E-01            NaN
         13   -1    0    0    0    0  0.00000000000E+00  0.00000000000E+00  0.74505805969E-08  0.10566000000E+00  0.10566000000E+00 0.  1.
     999900   -1    0    0    0    0 -0.00000000000E+00 -0.00000000000E+00 -0.74505805969E-08  0.93827000000E+00  0.93827000000E+00 0.  1.
     999902    2    1    2    0    0  0.11698594655E-01  0.19298066914E-01 -0.93352536862E-02  0.10195082993E+01  0.10192157538E+01 0.  0.
     999903    2    3    3    0    0 -0.14728287409E-01  0.12546059697E+00 -0.33828620743E-01  0.13239568643E+00  0.20662970794E-01 0.  0.
         14    1    1    2    0    0 -0.11698594655E-01 -0.19298066914E-01  0.93352536862E-02  0.24421700697E-01  0.00000000000E+00 0. -1.
     999901    1    3    3    0    0  0.26426882065E-01 -0.10616253006E+00  0.24493367057E-01  0.88711261287E+00  0.88000000000E+00 0. -1.
        -11    1    4    4    0    0 -0.87928944579E-02  0.65122056641E-01 -0.69780385798E-02  0.66084426286E-01  0.51100000000E-03 0. -1.
         11    1    4    4    0    0 -0.59353929515E-02  0.60338540331E-01 -0.26850582163E-01  0.66311260147E-01  0.51100000000E-03 0.  1.
</event>
<event>
 8    1  0.1072332E+005  0.1043930E+01  0.7957747E-01            NaN
         13   -1    0    0    0    0  0.00000000000E+00  0.00000000000E+00  0.74505805969E-08  0.10566000000E+00  0.10566000000E+00 0.  1.
     999900   -1    0    0    0    0 -0.00000000000E+00 -0.00000000000E+00 -0.74505805969E-08  0.93827000000E+00  0.93827000000E+00 0. -1.
     999902    2    1    2    0    0  0.37968623985E-02  0.31094167381E-02 -0.22251701322E-01  0.10211435380E+01  0.10208892704E+01 0.  0.
     999903    2    3    3    0    0 -0.54512101205E-01  0.11643888540E+00 -0.26412942517E-01  0.13195243394E+00  0.13572696036E-01 0.  0.
         14    1    1    2    0    0 -0.37968623985E-02 -0.31094167381E-02  0.22251701322E-01  0.22786461951E-01  0.00000000000E+00 0.  1.
     999901    1    3    3    0    0  0.58308963603E-01 -0.11332946867E+00  0.41612411953E-02  0.88919110411E+00  0.88000000000E+00 0. -1.
        -11    1    4    4    0    0 -0.44772980755E-01  0.84445085527E-01 -0.15923309764E-01  0.96898943184E-01  0.51100000000E-03 0.  1.
         11    1    4    4    0    0 -0.97391204502E-02  0.31993799876E-01 -0.10489632753E-01  0.35053490753E-01  0.51100000000E-03 0. -1.
</event>
<event>
 8    1  0.1072332E+005  0.1043930E+01  0.7957747E-01            NaN
         13   -1    0    0    0    0  0.00000000000E+00  0.00000000000E+00  0.74505805969E-08  0.10566000000E+00  0.10566000000E+00 0.  1.
     999900   -1    0    0    0    0 -0.00000000000E+00 -0.00000000000E+00 -0.74505805969E-08  0.93827000000E+00  0.93827000000E+00 0. -1.
     999902    2    1    2    0    0  0.12535344049E-01  0.16416817064E-01  0.10092242429E-01  0.10209408702E+01  0.10206820074E+01 0.  0.
     999903    2    3    3    0    0 -0.10588914749E+00  0.74176465168E-01  0.83492667268E-02  0.13112989299E+00  0.20265217496E-01 0.  0.
         14    1    1    2    0    0 -0.12535344049E-01 -0.16416817064E-01 -0.10092242429E-01  0.22989129827E-01  0.00000000000E+00 0.  1.
     999901    1    3    3    0    0  0.11842449154E+00 -0.57759648105E-01  0.17429757023E-02  0.88981097718E+00  0.88000000000E+00 0.  1.
        -11    1    4    4    0    0 -0.99098516719E-01  0.65557455021E-01  0.28738320941E-02  0.11885628278E+00  0.51100000000E-03 0.  1.
         11    1    4    4    0    0 -0.67906307724E-02  0.86190101475E-02  0.54754346327E-02  0.12273610212E-01  0.51100000000E-03 0. -1.
</event>
<event>
 7    1  0.1072332E+005  0.1043930E+01  0.7957747E-01            NaN
         13   -1    0    0    0    0  0.00000000000E+00  0.00000000000E+00  0.74505805969E-08  0.10566000000E+00  0.10566000000E+00 0.  1.
     999900   -1    0    0    0    0 -0.00000000000E+00 -0.00000000000E+00 -0.74505805969E-08  0.93827000000E+00  0.93827000000E+00 0.  1.
     999903    2    1    2    0    0 -0.16579565259E-01 -0.10803427874E+00 -0.17945276186E-01  0.11267096680E+00  0.20650095749E-01 0.  0.
         14    1    1    2    0    0 -0.35298061181E-01  0.24975553434E-01  0.15164908706E-01  0.45822547381E-01  0.00000000000E+00 0.  1.
     999901    1    1    2    0    0  0.51877626440E-01  0.83058725311E-01  0.27803674808E-02  0.88543648582E+00  0.88000000000E+00 0.  1.
        -11    1    3    3    0    0  0.15382164839E-03 -0.62465778952E-01 -0.13592743114E-01  0.63929812979E-01  0.51100000000E-03 0.  1.
         11    1    3    3    0    0 -0.16733386907E-01 -0.45568499792E-01 -0.43525330723E-02  0.48741153821E-01  0.51100000000E-03 0. -1.
</event>
<event>
 8    1  0.1072332E+005  0.1043930E+01  0.7957747E-01            NaN
         13   -1    0    0    0    0  0.00000000000E+00  0.00000000000E+00  0.74505805969E-08  0.10566000000E+00  0.10566000000E+00 0. -1.
     999900   -1    0    0    0    0 -0.00000000000E+00 -0.00000000000E+00 -0.74505805969E-08  0.93827000000E+00  0.93827000000E+00 0. -1.
     999902    2    1    2    0    0 -0.63139028017E-02  0.18865516885E-01  0.13793794170E-01  0.10197216987E+01  0.10194343043E+01 0.  0.
     999903    2    3    3    0    0 -0.40184168259E-01 -0.10801088200E+00 -0.50970190722E-01  0.12762350384E+00  0.20215844793E-01 0.  0.
         14    1    1    2    0    0  0.63139028017E-02 -0.18865516885E-01 -0.13793794170E-01  0.24208301335E-01  0.00000000000E+00 0. -1.
     999901    1    3    3    0    0  0.33870265457E-01  0.12687639888E+00  0.64763984892E-01  0.89209819483E+00  0.88000000000E+00 0.  1.
        -11    1    4    4    0    0 -0.18428982462E-01 -0.68488472235E-01 -0.23105307299E-01  0.74595003653E-01  0.51100000000E-03 0. -1.
         11    1    4    4    0    0 -0.21755185797E-01 -0.39522409763E-01 -0.27864883423E-01  0.53028500184E-01  0.51100000000E-03 0.  1.
</event>
<event>
 8    1  0.1072332E+005  0.1043930E+01  0.7957747E-01            NaN
         13   -1    0    0    0    0  0.00000000000E+00  0.00000000000E+00  0.74505805969E-08  0.10566000000E+00  0.10566000000E+00 0.  1.
     999900   -1    0    0    0    0 -0.00000000000E+00 -0.00000000000E+00 -0.74505805969E-08  0.93827000000E+00  0.93827000000E+00 0. -1.
     999902    2    1    2    0    0 -0.67767637393E-02  0.67115915589E-02  0.21550383338E-01  0.10203633072E+01  0.10200911183E+01 0.  0.
     999903    2    3    3    0    0 -0.62693521102E-01  0.11302482255E+00 -0.13789013168E-01  0.13149995448E+00  0.19925186198E-01 0.  0.
         14    1    1    2    0    0  0.67767637393E-02 -0.67115915589E-02 -0.21550383338E-01  0.23566692811E-01  0.00000000000E+00 0. -1.
     999901    1    3    3    0    0  0.55916757363E-01 -0.10631323099E+00  0.35339396507E-01  0.88886335271E+00  0.88000000000E+00 0.  1.
        -11    1    4    4    0    0 -0.45006905165E-01  0.63910316988E-01 -0.13304023116E-01  0.79293179291E-01  0.51100000000E-03 0. -1.
         11    1    4    4    0    0 -0.17686615937E-01  0.49114505559E-01 -0.48499005241E-03  0.52206775192E-01  0.51100000000E-03 0.  1.
</event>
<event>
 8    1  0.1072332E+005  0.1043930E+01  0.7957747E-01            NaN
         13   -1    0    0    0    0  0.00000000000E+00  0.00000000000E+00  0.74505805969E-08  0.10566000000E+00  0.10566000000E+00 0. -1.
     999900   -1    0    0    0    0 -0.00000000000E+00 -0.00000000000E+00 -0.74505805969E-08  0.93827000000E+00  0.93827000000E+00 0.  1.
     999902    2    1    2    0    0 -0.19713709818E-02  0.61063608199E-02 -0.21706966165E-01  0.10212944897E+01  0.10210436173E+01 0.  0.
     999903    2    3    3    0    0  0.92223591804E-01  0.87911469379E-01 -0.30164069025E-01  0.13245463384E+00  0.20018532187E-01 0.  0.
         14    1    1    2    0    0  0.19713709818E-02 -0.61063608199E-02  0.21706966165E-01  0.22635510290E-01  0.00000000000E+00 0. -1.
     999901    1    3    3    0    0 -0.94194962786E-01 -0.81805108559E-01  0.84571028595E-02  0.88883985587E+00  0.88000000000E+00 0.  1.
        -11    1    4    4    0    0  0.37908362586E-01  0.23492545362E-01 -0.13062562100E-01  0.46474028136E-01  0.51100000000E-03 0.  1.
         11    1    4    4    0    0  0.54315229218E-01  0.64418924017E-01 -0.17101506924E-01  0.85980605700E-01  0.51100000000E-03 0. -1.
</event>
<event>
 8    1  0.1072332E+005  0.1043930E+01  0.7957747E-01            NaN
         13   -1    0    0    0    0  0.00000000000E+00  0.00000000000E+00  0.74505805969E-08  0.10566000000E+00  0.10566000000E+00 0.  1.
     999900   -1    0    0    0    0 -0.00000000000E+00 -0.00000000000E+00 -0.74505805969E-08  0.93827000000E+00  0.93827000000E+00 0.  1.
     999902    2    1    2    0    0  0.65888751945E-02 -0.22207298094E-01 -0.82785402506E-02  0.10193309839E+01  0.10190341226E+01 0.  0.
     999903    2    3    3    0    0  0.11649523112E+00  0.22035418197E-01  0.48469905189E-01  0.12957977648E+00  0.19618568646E-01 0.  0.
         14    1    1    2    0    0 -0.65888751945E-02  0.22207298094E-01  0.82785402506E-02  0.24599016111E-01  0.00000000000E+00 0. -1.
     999901    1    3    3    0    0 -0.10990635593E+00 -0.44242716290E-01 -0.56748445440E-01  0.88975120740E+00  0.88000000000E+00 0.  1.
        -11    1    4    4    0    0  0.71904800675E-01  0.21380390162E-01  0.24312757501E-01  0.78859322480E-01  0.51100000000E-03 0. -1.
         11    1    4    4    0    0  0.44590430446E-01  0.65502803491E-03  0.24157147688E-01  0.50720454005E-01  0.51100000000E-03 0.  1.
</event>
<event>
 8    1  0.1072332E+005  0.1043930E+01  0.7957747E-01            NaN
         13   -1    0    0    0    0  0.00000000000E+00  0.00000000000E+00  0.74505805969E-08  0.10566000000E+00  0.10566000000E+00 0. -1.
     999900   -1    0    0    0    0 -0.00000000000E+00 -0.00000000000E+00 -0.74505805969E-08  0.93827000000E+00  0.93827000000E+00 0.  1.
     999902    2    1    2    0    0  0.12772888543E-01 -0.14480873090E-01 -0.13760435596E-01  0.10202194126E+01  0.10199438504E+01 0.  0.
     999903    2    3    3    0    0  0.46413450817E-01  0.19597704230E-01  0.11713621216E+00  0.12924973340E+00  0.21126356934E-01 0.  0.
         14    1    1    2    0    0 -0.12772888543E-01  0.14480873090E-01  0.13760435596E-01  0.23710587402E-01  0.00000000000E+00 0. -1.
     999901    1    3    3    0    0 -0.33640562274E-01 -0.34078577320E-01 -0.13089664775E+00  0.89096967920E+00  0.88000000000E+00 0.  1.
        -11    1    4    4    0    0  0.25562413550E-01 -0.60856301995E-03  0.56452194421E-01  0.61975145917E-01  0.51100000000E-03 0.  1.
         11    1    4    4    0    0  0.20851037267E-01  0.20206267250E-01  0.60684017734E-01  0.67274587480E-01  0.51100000000E-03 0. -1.
</event>
<event>
 8    1  0.1072332E+005  0.1043930E+01  0.7957747E-01            NaN
         13   -1    0    0    0    0  0.00000000000E+00  0.00000000000E+00  0.74505805969E-08  0.10566000000E+00  0.10566000000E+00 0. -1.
     999900   -1    0    0    0    0 -0.00000000000E+00 -0.00000000000E+00 -0.74505805969E-08  0.93827000000E+00  0.93827000000E+00 0. -1.
     999902    2    1    2    0    0 -0.12706983322E-01  0.10222049329E-01  0.17423262827E-01  0.10200652183E+01  0.10197860177E+01 0.  0.
     999903    2    3    3    0    0  0.98183676428E-01 -0.25590790090E-01 -0.74778211589E-01  0.12760770684E+00  0.19925437588E-01 0.  0.
         14    1    1    2    0    0  0.12706983322E-01 -0.10222049329E-01 -0.17423262827E-01  0.23864781691E-01  0.00000000000E+00 0.  1.
     999901    1    3    3    0    0 -0.11089065975E+00  0.35812839418E-01  0.92201474416E-01  0.89245751147E+00  0.88000000000E+00 0.  1.
        -11    1    4    4    0    0  0.74016023880E-01 -0.14503134750E-01 -0.63974134878E-01  0.98902294023E-01  0.51100000000E-03 0. -1.
         11    1    4    4    0    0  0.24167652548E-01 -0.11087655340E-01 -0.10804076710E-01  0.28705412820E-01  0.51100000000E-03 0.  1.
</event>
<event>
 8    1  0.1072332E+005  0.1043930E+01  0.7957747E-01            NaN
         13   -1    0    0    0    0  0.00000000000E+00  0.00000000000E+00  0.74505805969E-08  0.10566000000E+00  0.10566000000E+00 0. -1.
     999900   -1    0    0    0    0 -0.00000000000E+00 -0.00000000000E+00 -0.74505805969E-08  0.93827000000E+00  0.93827000000E+00 0. -1.
     999902    2    1    2    0    0 -0.10094811357E-01  0.36047951430E-02  0.21629820542E-01  0.10197898074E+01  0.10195040472E+01 0.  0.
     999903    2    3    3    0    0  0.93537800084E-01  0.86250963153E-01  0.16407566731E-01  0.12984746137E+00  0.20065051427E-01 0.  0.
         14    1    1    2    0    0  0.10094811357E-01 -0.36047951430E-02 -0.21629820542E-01  0.24140192646E-01  0.00000000000E+00 0.  1.
     999901    1    3    3    0    0 -0.10363261144E+00 -0.82646168010E-01  0.52222538106E-02  0.88994234598E+00  0.88000000000E+00 0. -1.
        -11    1    4    4    0    0  0.24755247730E-01  0.35040127774E-01  0.25592736730E-02  0.42981901392E-01  0.51100000000E-03 0. -1.
         11    1    4    4    0    0  0.68782552354E-01  0.51210835379E-01  0.13848293058E-01  0.86865559977E-01  0.51100000000E-03 0.  1.
</event>
<event>
 8    1  0.1072332E+005  0.1043930E+01  0.7957747E-01            NaN
         13   -1    0    0    0    0  0.00000000000E+00  0.00000000000E+00  0.74505805969E-08  0.10566000000E+00  0.10566000000E+00 0. -1.
     999900   -1    0    0    0    0 -0.00000000000E+00 -0.00000000000E+00 -0.74505805969E-08  0.93827000000E+00  0.93827000000E+00 0.  1.
     999902    2    1    2    0    0 -0.13928308898E-01  0.18651206366E-01 -0.54190306312E-02  0.10200295569E+01  0.10197495113E+01 0.  0.
     999903    2    3    3    0    0  0.45663640928E-01  0.11055623919E+00 -0.51698379619E-01  0.13203208298E+00  0.21257900976E-01 0.  0.
         14    1    1    2    0    0  0.13928308898E-01 -0.18651206366E-01  0.54190306312E-02  0.23900443106E-01  0.00000000000E+00 0. -1.
     999901    1    3    3    0    0 -0.59591949826E-01 -0.91905032821E-01  0.46279348988E-01  0.88799747392E+00  0.88000000000E+00 0.  1.
        -11    1    4    4    0    0  0.29118836428E-01  0.77245023183E-01 -0.25033946464E-01  0.86265055718E-01  0.51100000000E-03 0.  1.
         11    1    4    4    0    0  0.16544804500E-01  0.33311216004E-01 -0.26664433155E-01  0.45767027258E-01  0.51100000000E-03 0. -1.
</event>
<event>
 8    1  0.1072332E+005  0.1043930E+01  0.7957747E-01            NaN
         13   -1    0    0    0    0  0.00000000000E+00  0.00000000000E+00  0.74505805969E-08  0.10566000000E+00  0.10566000000E+00 0. -1.
     999900   -1    0    0    0    0 -0.00000000000E+00 -0.00000000000E+00 -0.74505805969E-08  0.93827000000E+00  0.93827000000E+00 0.  1.
     999902    2    1    2    0    0 -0.17135149611E-01 -0.79691536610E-02  0.14988347120E-01  0.10198100640E+01  0.10195247890E+01 0.  0.
     999903    2    3    3    0    0 -0.99569143574E-01  0.53205805428E-01  0.66325971089E-01  0.13235680293E+00  0.19347267468E-01 0.  0.
         14    1    1    2    0    0  0.17135149611E-01  0.79691536610E-02 -0.14988347120E-01  0.24119935980E-01  0.00000000000E+00 0.  1.
     999901    1    3    3    0    0  0.82433993962E-01 -0.61174959089E-01 -0.51337623969E-01  0.88745326109E+00  0.88000000000E+00 0.  1.
        -11    1    4    4    0    0 -0.17234897745E-01  0.30906415022E-02  0.15493131737E-01  0.23385722508E-01  0.51100000000E-03 0. -1.
         11    1    4    4    0    0 -0.82334245829E-01  0.50115163925E-01  0.50832839352E-01  0.10897108043E+00  0.51100000000E-03 0.  1.
</event>
<event>
 8    1  0.1072332E+005  0.1043930E+01  0.7957747E-01            NaN
         13   -1    0    0    0    0  0.00000000000E+00  0.00000000000E+00  0.74505805969E-08  0.10566000000E+00  0.10566000000E+00 0. -1.
     999900   -1    0    0    0    0 -0.00000000000E+00 -0.00000000000E+00 -0.74505805969E-08  0.93827000000E+00  0.93827000000E+00 0. -1.
     999902    2    1    2    0    0  0.56680348504E-02  0.12857580865E-01  0.18570877825E-01  0.10206422026E+01  0.10203764914E+01 0.  0.
     999903    2    3    3    0    0 -0.18936418138E-01 -0.11076488223E+00 -0.58565223522E-01  0.12832058422E+00  0.20219788830E-01 0.  0.
         14    1    1    2    0    0 -0.56680348504E-02 -0.12857580865E-01 -0.18570877825E-01  0.23287797405E-01  0.00000000000E+00 0. -1.
     999901    1    3    3    0    0  0.24604452989E-01  0.12362246310E+00  0.77136101347E-01  0.89232161838E+00  0.88000000000E+00 0.  1.
        -11    1    4    4    0    0 -0.34956320868E-02 -0.52088333911E-01 -0.36734515039E-01  0.63836507497E-01  0.51100000000E-03 0. -1.
         11    1    4    4    0    0 -0.15440786051E-01 -0.58676548322E-01 -0.21830708483E-01  0.64484076723E-01  0.51100000000E-03 0.  1.
</event>
<event>
 8    1  0.1072332E+005  0.1043930E+01  0.7957747E-01            NaN
         13   -1    0    0    0    0  0.00000000000E+00  0.00000000000E+00  0.74505805969E-08  0.10566000000E+00  0.10566000000E+00 0. -1.
     999900   -1    0    0    0    0 -0.00000000000E+00 -0.00000000000E+00 -0.74505805969E-08  0.93827000000E+00  0.93827000000E+00 0.  1.
     999902    2    1    2    0    0  0.41529481322E-02 -0.69261700422E-02  0.22573657844E-01  0.10199552458E+01  0.10196734353E+01 0.  0.
     999903    2    3    3    0    0 -0.86224677088E-01 -0.31594918247E-01  0.93102555955E-01  0.13217656408E+00  0.19225617517E-01 0.  0.
         14    1    1    2    0    0 -0.41529481322E-02  0.69261700422E-02 -0.22573657844E-01  0.23974754182E-01  0.00000000000E+00 0.  1.
     999901    1    3    3    0    0  0.90377625220E-01  0.24668748205E-01 -0.70528898112E-01  0.88777868174E+00  0.88000000000E+00 0. -1.
        -11    1    4    4    0    0 -0.69635931785E-01 -0.19943596801E-01  0.63713785872E-01  0.96470812581E-01  0.51100000000E-03 0. -1.
         11    1    4    4    0    0 -0.16588745303E-01 -0.11651321446E-01  0.29388770083E-01  0.35705751500E-01  0.51100000000E-03 0.  1.
</event>
<event>
 8    1  0.1072332E+005  0.1043930E+01  0.7957747E-01            NaN
         13   -1    0    0    0    0  0.00000000000E+00  0.00000000000E+00  0.74505805969E-08  0.10566000000E+00  0.10566000000E+00 0.  1.
     999900   -1    0    0    0    0 -0.00000000000E+00 -0.00000000000E+00 -0.74505805969E-08  0.93827000000E+00  0.93827000000E+00 0.  1.
     999902    2    1    2    0    0  0.16697831554E-01  0.16690121457E-01  0.54491334197E-02  0.10197004563E+01  0.10194125513E+01 0.  0.
     999903    2    3    3    0    0  0.11856597762E+00 -0.50071370570E-01  0.13718757092E-01  0.13127341783E+00  0.21896865856E-01 0.  0.
         14    1    1    2    0    0 -0.16697831554E-01 -0.16690121457E-01 -0.54491334197E-02  0.24229543700E-01  0.00000000000E+00 0. -1.
     999901    1    3    3    0    0 -0.10186814606E+00  0.66761492028E-01 -0.82696236726E-02  0.88842703847E+00  0.88000000000E+00 0. -1.
        -11    1    4    4    0    0  0.62042397945E-01 -0.26699298414E-01 -0.37840939611E-02  0.67651253992E-01  0.51100000000E-03 0.  1.
         11    1    4    4    0    0  0.56523579674E-01 -0.23372072156E-01  0.17502851053E-01  0.63622163843E-01  0.51100000000E-03 0. -1.
</event>
<event>
 8    1  0.1072332E+005  0.1043930E+01  0.7957747E-01            NaN
         13   -1    0    0    0    0  0.00000000000E+00  0.00000000000E+00  0.74505805969E-08  0.10566000000E+00  0.10566000000E+00 0.  1.
     999900   -1    0    0    0    0 -0.00000000000E+00 -0.00000000000E+00 -0.74505805969E-08  0.93827000000E+00  0.93827000000E+00 0. -1.
     999902    2    1    2    0    0  0.11551672534E-02  0.16142567284E-01  0.17946341259E-01  0.10197641552E+01  0.10194777801E+01 0.  0.
     999903    2    3    3    0    0 -0.78156093684E-02 -0.57438879764E-01  0.11595973774E+00  0.13122528151E+00  0.20324986404E-01 0.  0.
         14    1    1    2    0    0 -0.11551672534E-02 -0.16142567284E-01 -0.17946341259E-01  0.24165844792E-01  0.00000000000E+00 0. -1.
     999901    1    3    3    0    0  0.89707766218E-02  0.73581447048E-01 -0.98013396481E-01  0.88853887370E+00  0.88000000000E+00 0. -1.
        -11    1    4    4    0    0 -0.13508701012E-01 -0.24458494661E-01  0.53963149843E-01  0.60769940152E-01  0.51100000000E-03 0.  1.
         11    1    4    4    0    0  0.56930916434E-02 -0.32980385103E-01  0.61996587897E-01  0.70455341358E-01  0.51100000000E-03 0. -1.
</event>
<event>
 8    1  0.1072332E+005  0.1043930E+01  0.7957747E-01            NaN
         13   -1    0    0    0    0  0.00000000000E+00  0.00000000000E+00  0.74505805969E-08  0.10566000000E+00  0.10566000000E+00 0. -1.
     999900   -1    0    0    0    0 -0.00000000000E+00 -0.00000000000E+00 -0.74505805969E-08  0.93827000000E+00  0.93827000000E+00 0. -1.
     999902    2    1    2    0    0  0.75477571417E-02  0.16167279047E-02 -0.21900821791E-01  0.10207087071E+01  0.10204445288E+01 0.  0.
     999903    2    3    3    0    0  0.54283123647E-01  0.38254811040E-01  0.10872402887E+00  0.12908692901E+00  0.20795016423E-01 0.  0.
         14    1    1    2    0    0 -0.75477571417E-02 -0.16167279047E-02  0.21900821791E-01  0.23221292860E-01  0.00000000000E+00 0. -1.
     999901    1    3    3    0    0 -0.46735366506E-01 -0.36638083136E-01 -0.13062485066E+00  0.89162177813E+00  0.88000000000E+00 0. -1.
        -11    1    4    4    0    0  0.14461176023E-01  0.70375109887E-02  0.44522461311E-01  0.47340921570E-01  0.51100000000E-03 0. -1.
         11    1    4    4    0    0  0.39821947625E-01  0.31217300052E-01  0.64201567558E-01  0.81746007444E-01  0.51100000000E-03 0.  1.
</event>
<event>
 8    1  0.1072332E+005  0.1043930E+01  0.7957747E-01            NaN
         13   -1    0    0    0    0  0.00000000000E+00  0.00000000000E+00  0.74505805969E-08  0.10566000000E+00  0.10566000000E+00 0. -1.
     999900   -1    0    0    0    0 -0.00000000000E+00 -0.00000000000E+00 -0.74505805969E-08  0.93827000000E+00  0.93827000000E+00 0.  1.
     999902    2    1    2    0    0  0.30561495813E-02 -0.17254451664E-01  0.16580109149E-01  0.10198062322E+01  0.10195208655E+01 0.  0.
     999903    2    3    3    0    0  0.51596097882E-01  0.35658362578E-01 -0.10969284458E+00  0.12789774401E+00  0.19789811366E-01 0.  0.
         14    1    1    2    0    0 -0.30561495813E-02  0.17254451664E-01 -0.16580109149E-01  0.24123767780E-01  0.00000000000E+00 0.  1.
     999901    1    3    3    0    0 -0.48539948301E-01 -0.52912814242E-01  0.12627295373E+00  0.89190848821E+00  0.88000000000E+00 0. -1.
        -11    1    4    4    0    0  0.11621464016E-01  0.72247877950E-02 -0.42844897722E-01  0.44980021859E-01  0.51100000000E-03 0. -1.
         11    1    4    4    0    0  0.39974633866E-01  0.28433574783E-01 -0.66847946855E-01  0.82917722155E-01  0.51100000000E-03 0.  1.
</event>
<event>
 8    1  0.1072332E+005  0.1043930E+01  0.7957747E-01            NaN
         13   -1    0    0    0    0  0.00000000000E+00  0.00000000000E+00  0.74505805969E-08  0.10566000000E+00  0.10566000000E+00 0.  1.
     999900   -1    0    0    0    0 -0.00000000000E+00 -0.00000000000E+00 -0.74505805969E-08  0.93827000000E+00  0.93827000000E+00 0. -1.
     999902    2    1    2    0    0  0.74258223168E-02 -0.16643700359E-01 -0.13226056397E-01  0.10214114706E+01  0.10211632133E+01 0.  0.
     999903    2    3    3    0    0  0.68851286937E-01  0.10754835938E+00 -0.19052069089E-01  0.13055194304E+00  0.19330783158E-01 0.  0.
         14    1    1    2    0    0 -0.74258223168E-02  0.16643700359E-01  0.13226056397E-01  0.22518529404E-01  0.00000000000E+00 0.  1.
     999901    1    3    3    0    0 -0.61425464620E-01 -0.12419205974E+00  0.58260126924E-02  0.89085952755E+00  0.88000000000E+00 0.  1.
        -11    1    4    4    0    0  0.10904529629E-01  0.16490158008E-01  0.40181656848E-02  0.20180209464E-01  0.51100000000E-03 0. -1.
         11    1    4    4    0    0  0.57946757308E-01  0.91058201374E-01 -0.23070234774E-01  0.11037173358E+00  0.51100000000E-03 0.  1.
</event>
<event>
 8    1  0.1072332E+005  0.1043930E+01  0.7957747E-01            NaN
         13   -1    0    0    0    0  0.00000000000E+00  0.00000000000E+00  0.74505805969E-08  0.10566000000E+00  0.10566000000E+00 0. -1.
     999900   -1    0    0    0    0 -0.00000000000E+00 -0.00000000000E+00 -0.74505805969E-08  0.93827000000E+00  0.93827000000E+00 0. -1.
     999902    2    1    2    0    0  0.49395751493E-02 -0.31645710077E-02  0.24902531520E-01  0.10183458254E+01  0.10180243957E+01 0.  0.
     999903    2    3    3    0    0 -0.49809497418E-01  0.10606222116E+00 -0.45198566567E-01  0.12714320143E+00  0.19806626637E-01 0.  0.
         14    1    1    2    0    0 -0.49395751493E-02  0.31645710077E-02 -0.24902531520E-01  0.25584174569E-01  0.00000000000E+00 0.  1.
     999901    1    3    3    0    0  0.54749072567E-01 -0.10922679217E+00  0.70101098086E-01  0.89120262400E+00  0.88000000000E+00 0.  1.
        -11    1    4    4    0    0 -0.12465638746E-01  0.15981904545E-01 -0.14440473605E-01  0.24891802288E-01  0.51100000000E-03 0. -1.
         11    1    4    4    0    0 -0.37343858672E-01  0.90080316618E-01 -0.30758092962E-01  0.10225139914E+00  0.51100000000E-03 0.  1.
</event>
<event>
 8    1  0.1072332E+005  0.1043930E+01  0.7957747E-01            NaN
         13   -1    0    0    0    0  0.00000000000E+00  0.00000000000E+00  0.74505805969E-08  0.10566000000E+00  0.10566000000E+00 0. -1.
     999900   -1    0    0    0    0 -0.00000000000E+00 -0.00000000000E+00 -0.74505805969E-08  0.93827000000E+00  0.93827000000E+00 0. -1.
     999902    2    1    2    0    0  0.18457751472E-01  0.13043706840E-01 -0.71298149178E-02  0.10202306089E+01  0.10199553099E+01 0.  0.
     999903    2    3    3    0    0  0.13084835683E+00 -0.47544204124E-02 -0.11215859037E-01  0.13289464251E+00  0.19781140348E-01 0.  0.
         14    1    1    2    0    0 -0.18457751472E-01 -0.13043706840E-01  0.71298149178E-02  0.23699391095E-01  0.00000000000E+00 0. -1.
     999901    1    3    3    0    0 -0.11239060536E+00  0.17798127252E-01  0.40860441195E-02  0.88733596640E+00  0.88000000000E+00 0.  1.
        -11    1    4    4    0    0  0.74571602749E-01 -0.12268360097E-01 -0.43229024655E-02  0.75699307809E-01  0.51100000000E-03 0. -1.
         11    1    4    4    0    0  0.56276754084E-01  0.75139396842E-02 -0.68929565718E-02  0.57195334697E-01  0.51100000000E-03 0.  1.
</event>
<event>
 8    1  0.1072332E+005  0.1043930E+01  0.7957747E-01            NaN
         13   -1    0    0    0    0  0.00000000000E+00  0.00000000000E+00  0.74505805969E-08  0.10566000000E+00  0.10566000000E+00 0. -1.
     999900   -1    0    0    0    0 -0.00000000000E+00 -0.00000000000E+00 -0.74505805969E-08  0.93827000000E+00  0.93827000000E+00 0. -1.
     999902    2    1    2    0    0 -0.20404807530E-01  0.11360764558E-01  0.64127752828E-02  0.10197112711E+01  0.10194236262E+01 0.  0.
     999903    2    3    3    0    0  0.85631453803E-01  0.81155393039E-02 -0.92629262789E-01  0.12782364058E+00  0.18976166841E-01 0.  0.
         14    1    1    2    0    0  0.20404807530E-01 -0.11360764558E-01 -0.64127752828E-02  0.24218728879E-01  0.00000000000E+00 0.  1.
     999901    1    3    3    0    0 -0.10603626133E+00  0.32452252537E-02  0.99042038072E-01  0.89188763054E+00  0.88000000000E+00 0.  1.
        -11    1    4    4    0    0  0.40387519436E-01  0.12912665236E-01 -0.48754320983E-01  0.64615273621E-01  0.51100000000E-03 0.  1.
         11    1    4    4    0    0  0.45243934367E-01 -0.47971259317E-02 -0.43874941806E-01  0.63208366960E-01  0.51100000000E-03 0. -1.
</event>
<event>
 8    1  0.1072332E+005  0.1043930E+01  0.7957747E-01            NaN
         13   -1    0    0    0    0  0.00000000000E+00  0.00000000000E+00  0.74505805969E-08  0.10566000000E+00  0.10566000000E+00 0. -1.
     999900   -1    0    0    0    0 -0.00000000000E+00 -0.00000000000E+00 -0.74505805969E-08  0.93827000000E+00  0.93827000000E+00 0. -1.
     999902    2    1    2    0    0 -0.39803472767E-02 -0.32704365919E-02  0.23971974451E-01  0.10194107325E+01  0.10191158163E+01 0.  0.
     999903    2    3    3    0    0 -0.10202088687E+00 -0.78303017126E-01  0.11713760355E-01  0.13070825171E+00  0.20194331750E-01 0.  0.
         14    1    1    2    0    0  0.39803472767E-02  0.32704365919E-02 -0.23971974451E-01  0.24519267506E-01  0.00000000000E+00 0.  1.
     999901    1    3    3    0    0  0.98040539588E-01  0.75032580534E-01  0.12258214096E-01  0.88870248079E+00  0.88000000000E+00 0.  1.
        -11    1    4    4    0    0 -0.90200932088E-01 -0.62154188423E-01  0.52376654148E-02  0.10966788750E+00  0.51100000000E-03 0. -1.
         11    1    4    4    0    0 -0.11819954777E-01 -0.16148828702E-01  0.64760949401E-02  0.21040364209E-01  0.51100000000E-03 0.  1.
</event>
<event>
 7    1  0.1072332E+005  0.1043930E+01  0.7957747E-01            NaN
         13   -1    0    0    0    0  0.00000000000E+00  0.00000000000E+00  0.74505805969E-08  0.10566000000E+00  0.10566000000E+00 0. -1.
     999900   -1    0    0    0    0 -0.00000000000E+00 -0.00000000000E+00 -0.74505805969E-08  0.93827000000E+00  0.93827000000E+00 0. -1.
     999903    2    1    2    0    0  0.21747792033E-01  0.52379261273E-01 -0.92096349485E-01  0.11002382701E+00  0.20173037743E-01 0.  0.
         14    1    1    2    0    0 -0.16895202111E-01  0.14316315300E-01 -0.35854520225E-01  0.42142037905E-01  0.00000000000E+00 0.  1.
     999901    1    1    2    0    0 -0.48525899211E-02 -0.66695576573E-01  0.12795086971E+00  0.89176413508E+00  0.88000000000E+00 0.  1.
        -11    1    3    3    0    0  0.64459269055E-02  0.10932261727E-01 -0.38622046839E-01  0.40656954426E-01  0.51100000000E-03 0.  1.
         11    1    3    3    0    0  0.15301865127E-01  0.41446999546E-01 -0.53474302646E-01  0.69366872585E-01  0.51100000000E-03 0. -1.
</event>
<event>
 8    1  0.1072332E+005  0.1043930E+01  0.7957747E-01            NaN
         13   -1    0    0    0    0  0.00000000000E+00  0.00000000000E+00  0.74505805969E-08  0.10566000000E+00  0.10566000000E+00 0. -1.
     999900   -1    0    0    0    0 -0.00000000000E+00 -0.00000000000E+00 -0.74505805969E-08  0.93827000000E+00  0.93827000000E+00 0.  1.
     999902    2    1    2    0    0 -0.19362660022E-01 -0.21306383480E-02  0.11827725458E-01  0.10211408071E+01  0.10208864778E+01 0.  0.
     999903    2    3    3    0    0 -0.27437903049E-01  0.11022573841E+00  0.65701149664E-01  0.13232614095E+00  0.17059149466E-01 0.  0.
         14    1    1    2    0    0  0.19362660022E-01  0.21306383480E-02 -0.11827725458E-01  0.22789192886E-01  0.00000000000E+00 0.  1.
     999901    1    3    3    0    0  0.80752430271E-02 -0.11235637676E+00 -0.53873424206E-01  0.88881466616E+00  0.88000000000E+00 0. -1.
        -11    1    4    4    0    0 -0.14744811119E-01  0.51497278715E-01  0.40559360424E-01  0.67191532271E-01  0.51100000000E-03 0. -1.
         11    1    4    4    0    0 -0.12693091930E-01  0.58728459694E-01  0.25141789241E-01  0.65134608681E-01  0.51100000000E-03 0.  1.
</event>
<event>
 8    1  0.1072332E+005  0.1043930E+01  0.7957747E-01            NaN
         13   -1    0    0    0    0  0.00000000000E+00  0.00000000000E+00  0.74505805969E-08  0.10566000000E+00  0.10566000000E+00 0.  1.
     999900   -1    0    0    0    0 -0.00000000000E+00 -0.00000000000E+00 -0.74505805969E-08  0.93827000000E+00  0.93827000000E+00 0. -1.
     999902    2    1    2    0    0 -0.30159882170E-02 -0.14408054778E-01 -0.18537060818E-01  0.10202591138E+01  0.10199844845E+01 0.  0.
     999903    2    3    3    0    0  0.49927507460E-01  0.10109909951E+00  0.57242908933E-01  0.12790967543E+00  0.19244493306E-01 0.  0.
         14    1    1    2    0    0  0.30159882170E-02  0.14408054778E-01  0.18537060818E-01  0.23670886151E-01  0.00000000000E+00 0.  1.
     999901    1    3    3    0    0 -0.52943495677E-01 -0.11550715429E+00 -0.75779969751E-01  0.89234943842E+00  0.88000000000E+00 0.  1.
        -11    1    4    4    0    0  0.42114275288E-01  0.65093855068E-01  0.39505138949E-01  0.87015741536E-01  0.51100000000E-03 0. -1.
         11    1    4    4    0    0  0.78132321713E-02  0.36005244445E-01  0.17737769984E-01  0.40893933896E-01  0.51100000000E-03 0.  1.
</event>
<event>
 8    1  0.1072332E+005  0.1043930E+01  0.7957747E-01            NaN
         13   -1    0    0    0    0  0.00000000000E+00  0.00000000000E+00  0.74505805969E-08  0.10566000000E+00  0.10566000000E+00 0. -1.
     999900   -1    0    0    0    0 -0.00000000000E+00 -0.00000000000E+00 -0.74505805969E-08  0.93827000000E+00  0.93827000000E+00 0. -1.
     999902    2    1    2    0    0 -0.57136808198E-02 -0.15475574114E-01 -0.17371552172E-01  0.10199735736E+01  0.10196921989E+01 0.  0.
     999903    2    3    3    0    0 -0.77433580078E-01  0.36056139624E-01 -0.98545701954E-01  0.13183591303E+00  0.19324804322E-01 0.  0.
         14    1    1    2    0    0  0.57136808198E-02  0.15475574114E-01  0.17371552172E-01  0.23956426435E-01  0.00000000000E+00 0. -1.
     999901    1    3    3    0    0  0.71719899258E-01 -0.51531713738E-01  0.81174149782E-01  0.88813766054E+00  0.88000000000E+00 0.  1.
        -11    1    4    4    0    0 -0.43644641073E-01  0.15636085625E-01 -0.40076803442E-01  0.61284199947E-01  0.51100000000E-03 0.  1.
         11    1    4    4    0    0 -0.33788939005E-01  0.20420053999E-01 -0.58468898513E-01  0.70551713081E-01  0.51100000000E-03 0. -1.
</event>
<event>
 8    1  0.1072332E+005  0.1043930E+01  0.7957747E-01            NaN
         13   -1    0    0    0    0  0.00000000000E+00  0.00000000000E+00  0.74505805969E-08  0.10566000000E+00  0.10566000000E+00 0. -1.
     999900   -1    0    0    0    0 -0.00000000000E+00 -0.00000000000E+00 -0.74505805969E-08  0.93827000000E+00  0.93827000000E+00 0.  1.
     999902    2    1    2    0    0  0.36450343189E-03 -0.71305714237E-02  0.22761946237E-01  0.10200745162E+01  0.10197955356E+01 0.  0.
     999903    2    3    3    0    0  0.86096126284E-01 -0.42875315801E-01 -0.83204663245E-01  0.12886381145E+00  0.20785337377E-01 0.  0.
         14    1    1    2    0    0 -0.36450343189E-03  0.71305714237E-02 -0.22761946237E-01  0.23855483815E-01  0.00000000000E+00 0.  1.
     999901    1    3    3    0    0 -0.85731622852E-01  0.35744744377E-01  0.10596660948E+00  0.89121070473E+00  0.88000000000E+00 0. -1.
        -11    1    4    4    0    0  0.39903310177E-01 -0.14166648529E-01 -0.48312371455E-01  0.64244178338E-01  0.51100000000E-03 0. -1.
         11    1    4    4    0    0  0.46192816106E-01 -0.28708667271E-01 -0.34892291789E-01  0.64619633113E-01  0.51100000000E-03 0.  1.
</event>
<event>
 8    1  0.1072332E+005  0.1043930E+01  0.7957747E-01            NaN
         13   -1    0    0    0    0  0.00000000000E+00  0.00000000000E+00  0.74505805969E-08  0.10566000000E+00  0.10566000000E+00 0.  1.
     999900   -1    0    0    0    0 -0.00000000000E+00 -0.00000000000E+00 -0.74505805969E-08  0.93827000000E+00  0.93827000000E+00 0. -1.
     999902    2    1    2    0    0 -0.19818429337E-01  0.75305284661E-02 -0.10181236363E-01  0.10204111443E+01  0.10201400721E+01 0.  0.
     999903    2    3    3    0    0 -0.11113365667E+00 -0.67637630377E-01 -0.16041451403E-01  0.13247924094E+00  0.19180261487E-01 0.  0.
         14    1    1    2    0    0  0.19818429337E-01 -0.75305284661E-02  0.10181236363E-01  0.23518855717E-01  0.00000000000E+00 0.  1.
     999901    1    3    3    0    0  0.91315227331E-01  0.75168158843E-01  0.58602150402E-02  0.88793190334E+00  0.88000000000E+00 0.  1.
        -11    1    4    4    0    0 -0.10540818830E-01 -0.84086405446E-02  0.39147380169E-02  0.14049924987E-01  0.51100000000E-03 0. -1.
         11    1    4    4    0    0 -0.10059283784E+00 -0.59228989832E-01 -0.19956189420E-01  0.11842931596E+00  0.51100000000E-03 0.  1.
</event>
<event>
 8    1  0.1072332E+005  0.1043930E+01  0.7957747E-01            NaN
         13   -1    0    0    0    0  0.00000000000E+00  0.00000000000E+00  0.74505805969E-08  0.10566000000E+00  0.10566000000E+00 0. -1.
     999900   -1    0    0    0    0 -0.00000000000E+00 -0.00000000000E+00 -0.74505805969E-08  0.93827000000E+00  0.93827000000E+00 0.  1.
     999902    2    1    2    0    0  0.41088592999E-02  0.20828818483E-01  0.10354929556E-01  0.10203090989E+01  0.10200356417E+01 0.  0.
     999903    2    3    3    0    0 -0.94450033360E-01 -0.40835673208E-01 -0.74519165792E-01  0.12861409669E+00  0.20002969474E-01 0.  0.
         14    1    1    2    0    0 -0.41088592999E-02 -0.20828818483E-01 -0.10354929556E-01  0.23620901132E-01  0.00000000000E+00 0.  1.
     999901    1    3    3    0    0  0.98558892659E-01  0.61664491691E-01  0.84874095348E-01  0.89169500218E+00  0.88000000000E+00 0. -1.
        -11    1    4    4    0    0 -0.38326339439E-01 -0.84730067164E-02 -0.20643093914E-01  0.44351985130E-01  0.51100000000E-03 0.  1.
         11    1    4    4    0    0 -0.56123693920E-01 -0.32362666492E-01 -0.53876071878E-01  0.84262111555E-01  0.51100000000E-03 0. -1.
</event>
<event>
 8    1  0.1072332E+005  0.1043930E+01  0.7957747E-01            NaN
         13   -1    0    0    0    0  0.00000000000E+00  0.00000000000E+00  0.74505805969E-08  0.10566000000E+00  0.10566000000E+00 0. -1.
     999900   -1    0    0    0    0 -0.00000000000E+00 -0.00000000000E+00 -0.74505805969E-08  0.93827000000E+00  0.93827000000E+00 0.  1.
     999902    2    1    2    0    0 -0.18435560945E-01  0.14473374029E-01  0.57615954235E-02  0.10197940425E+01  0.10195083838E+01 0.  0.
     999903    2    3    3    0    0 -0.45617793618E-01  0.11927352761E+00 -0.28297012066E-01  0.13250494940E+00  0.21205736061E-01 0.  0.
         14    1    1    2    0    0  0.18435560945E-01 -0.14473374029E-01 -0.57615954235E-02  0.24135957511E-01  0.00000000000E+00 0.  1.
     999901    1    3    3    0    0  0.27182232673E-01 -0.10480015358E+00  0.34058607489E-01  0.88728909308E+00  0.88000000000E+00 0.  1.
        -11    1    4    4    0    0 -0.60808810510E-02  0.30627922058E-01  0.58304253669E-03  0.31235361108E-01  0.51100000000E-03 0. -1.
         11    1    4    4    0    0 -0.39536912567E-01  0.88645605551E-01 -0.28880054603E-01  0.10126958830E+00  0.51100000000E-03 0.  1.
</event>
<event>
 8    1  0.1072332E+005  0.1043930E+01  0.7957747E-01            NaN
         13   -1    0    0    0    0  0.00000000000E+00  0.00000000000E+00  0.74505805969E-08  0.10566000000E+00  0.10566000000E+00 0. -1.
     999900   -1    0    0    0    0 -0.00000000000E+00 -0.00000000000E+00 -0.74505805969E-08  0.93827000000E+00  0.93827000000E+00 0. -1.
     999902    2    1    2    0    0 -0.21379581416E-01 -0.34196839351E-02  0.79952649450E-02  0.10208495970E+01  0.10205886511E+01 0.  0.
     999903    2    3    3    0    0 -0.75944150789E-01  0.83083158000E-01 -0.65816253911E-01  0.13185681066E+00  0.19598827955E-01 0.  0.
         14    1    1    2    0    0  0.21379581416E-01  0.34196839351E-02 -0.79952649450E-02  0.23080402971E-01  0.00000000000E+00 0.  1.
     999901    1    3    3    0    0  0.54564569373E-01 -0.86502841936E-01  0.73811518856E-01  0.88899278637E+00  0.88000000000E+00 0.  1.
        -11    1    4    4    0    0 -0.67503097585E-01  0.77452011962E-01 -0.53324647319E-01  0.11575517903E+00  0.51100000000E-03 0. -1.
         11    1    4    4    0    0 -0.84410532034E-02  0.56311460388E-02 -0.12491606592E-01  0.16101631630E-01  0.51100000000E-03 0.  1.
</event>
<event>
 8    1  0.1072332E+005  0.1043930E+01  0.7957747E-01            NaN
         13   -1    0    0    0    0  0.00000000000E+00  0.00000000000E+00  0.74505805969E-08  0.10566000000E+00  0.10566000000E+00 0. -1.
     999900   -1    0    0    0    0 -0.00000000000E+00 -0.00000000000E+00 -0.74505805969E-08  0.93827000000E+00  0.93827000000E+00 0.  1.
     999902    2    1    2    0    0 -0.60230691858E-02 -0.74348256313E-02 -0.22805034977E-01  0.10191989746E+01  0.10188988793E+01 0.  0.
     999903    2    3    3    0    0 -0.67175178617E-01 -0.21235155013E-01  0.10502106869E+00  0.12775658035E+00  0.18135118498E-01 0.  0.
         14    1    1    2    0    0  0.60230691858E-02  0.74348256313E-02  0.22805034977E-01  0.24731025351E-01  0.00000000000E+00 0. -1.
     999901    1    3    3    0    0  0.61152109431E-01  0.13800329382E-01 -0.12782610367E+00  0.89144239430E+00  0.88000000000E+00 0.  1.
        -11    1    4    4    0    0 -0.41186639844E-01 -0.41754911360E-02  0.54628982683E-01  0.68544590581E-01  0.51100000000E-03 0.  1.
         11    1    4    4    0    0 -0.25988538772E-01 -0.17059663877E-01  0.50392086006E-01  0.59211989767E-01  0.51100000000E-03 0. -1.
</event>
<event>
 8    1  0.1072332E+005  0.1043930E+01  0.7957747E-01            NaN
         13   -1    0    0    0    0  0.00000000000E+00  0.00000000000E+00  0.74505805969E-08  0.10566000000E+00  0.10566000000E+00 0. -1.
     999900   -1    0    0    0    0 -0.00000000000E+00 -0.00000000000E+00 -0.74505805969E-08  0.93827000000E+00  0.93827000000E+00 0.  1.
     999902    2    1    2    0    0  0.90720022866E-02 -0.17281013247E-01  0.13342492751E-01  0.10202877337E+01  0.10200137758E+01 0.  0.
     999903    2    3    3    0    0 -0.19542393274E-01  0.10755391049E+00  0.66504998220E-01  0.12942927477E+00  0.19474947551E-01 0.  0.
         14    1    1    2    0    0 -0.90720022866E-02  0.17281013247E-01 -0.13342492751E-01  0.23642266328E-01  0.00000000000E+00 0. -1.
     999901    1    3    3    0    0  0.28614395560E-01 -0.12483492373E+00 -0.53162505469E-01  0.89085845891E+00  0.88000000000E+00 0. -1.
        -11    1    4    4    0    0 -0.88828187876E-02  0.23500701021E-01  0.76560320608E-02  0.26269057197E-01  0.51100000000E-03 0.  1.
         11    1    4    4    0    0 -0.10659574486E-01  0.84053209466E-01  0.58848966159E-01  0.10316021757E+00  0.51100000000E-03 0. -1.
</event>
<event>
 8    1  0.1072332E+005  0.1043930E+01  0.7957747E-01            NaN
         13   -1    0    0    0    0  0.00000000000E+00  0.00000000000E+00  0.74505805969E-08  0.10566000000E+00  0.10566000000E+00 0.  1.
     999900   -1    0    0    0    0 -0.00000000000E+00 -0.00000000000E+00 -0.74505805969E-08  0.93827000000E+00  0.93827000000E+00 0. -1.
     999902    2    1    2    0    0  0.22317312501E-02 -0.21885649419E-01 -0.76868480463E-02  0.10206265688E+01  0.10203604966E+01 0.  0.
     999903    2    3    3    0    0 -0.32433800311E-01  0.11347236756E-01 -0.12488400018E+00  0.13155891313E+00  0.23043934958E-01 0.  0.
         14    1    1    2    0    0 -0.22317312501E-02  0.21885649419E-01  0.76868480463E-02  0.23303431244E-01  0.00000000000E+00 0. -1.
     999901    1    3    3    0    0  0.34665531561E-01 -0.33232886175E-01  0.11719715214E+00  0.88906765562E+00  0.88000000000E+00 0.  1.
        -11    1    4    4    0    0 -0.32470971715E-01  0.15431276789E-01 -0.98525970405E-01  0.10488143912E+00  0.51100000000E-03 0.  1.
         11    1    4    4    0    0  0.37171403958E-04 -0.40840400332E-02 -0.26358029780E-01  0.26677474011E-01  0.51100000000E-03 0. -1.
</event>
<event>
 8    1  0.1072332E+005  0.1043930E+01  0.7957747E-01            NaN
         13   -1    0    0    0    0  0.00000000000E+00  0.00000000000E+00  0.74505805969E-08  0.10566000000E+00  0.10566000000E+00 0.  1.
     999900   -1    0    0    0    0 -0.00000000000E+00 -0.00000000000E+00 -0.74505805969E-08  0.93827000000E+00  0.93827000000E+00 0. -1.
     999902    2    1    2    0    0  0.65534556889E-02  0.22007804884E-01 -0.68716181513E-02  0.10199610536E+01  0.10196793812E+01 0.  0.
     999903    2    3    3    0    0 -0.10437489949E-01  0.12900042258E+00  0.22393633209E-01  0.13283503804E+00  0.19839916894E-01 0.  0.
         14    1    1    2    0    0 -0.65534556889E-02 -0.22007804884E-01  0.68716181513E-02  0.23968946437E-01  0.00000000000E+00 0.  1.
     999901    1    3    3    0    0  0.16990945638E-01 -0.10699261769E+00 -0.29265251360E-01  0.88712601552E+00  0.88000000000E+00 0. -1.
        -11    1    4    4    0    0 -0.58308015221E-02  0.12358201953E+00  0.20084982806E-01  0.12534026269E+00  0.51100000000E-03 0.  1.
         11    1    4    4    0    0 -0.46066884267E-02  0.54184030504E-02  0.23086504028E-02  0.74947753508E-02  0.51100000000E-03 0. -1.
</event>
<event>
 8    1  0.1072332E+005  0.1043930E+01  0.7957747E-01            NaN
         13   -1    0    0    0    0  0.00000000000E+00  0.00000000000E+00  0.74505805969E-08  0.10566000000E+00  0.10566000000E+00 0.  1.
     999900   -1    0    0    0    0 -0.00000000000E+00 -0.00000000000E+00 -0.74505805969E-08  0.93827000000E+00  0.93827000000E+00 0. -1.
     999902    2    1    2    0    0 -0.12840573265E-01 -0.18921051358E-01  0.45969347141E-02  0.10206057998E+01  0.10203392476E+01 0.  0.
     999903    2    3    3    0    0 -0.10678312815E+00 -0.67708639018E-01 -0.37093466438E-01  0.13328200215E+00  0.20026746832E-01 0.  0.
         14    1    1    2    0    0  0.12840573265E-01  0.18921051358E-01 -0.45969347141E-02  0.23324200202E-01  0.00000000000E+00 0.  1.
     999901    1    3    3    0    0  0.93942554886E-01  0.48787587660E-01  0.41690401152E-01  0.88732379765E+00  0.88000000000E+00 0.  1.
        -11    1    4    4    0    0 -0.53928947206E-01 -0.39788448093E-01 -0.10428251219E-01  0.67826701917E-01  0.51100000000E-03 0. -1.
         11    1    4    4    0    0 -0.52854180945E-01 -0.27920190925E-01 -0.26665215219E-01  0.65455300231E-01  0.51100000000E-03 0.  1.
</event>
<event>
 8    1  0.1072332E+005  0.1043930E+01  0.7957747E-01            NaN
         13   -1    0    0    0    0  0.00000000000E+00  0.00000000000E+00  0.74505805969E-08  0.10566000000E+00  0.10566000000E+00 0. -1.
     999900   -1    0    0    0    0 -0.00000000000E+00 -0.00000000000E+00 -0.74505805969E-08  0.93827000000E+00  0.93827000000E+00 0. -1.
     999902    2    1    2    0    0 -0.66795209031E-02  0.13105050464E-01 -0.35758219698E-02  0.10287924688E+01  0.10286810969E+01 0.  0.
     999903    2    3    3    0    0 -0.81680778183E-01 -0.69483702483E-01 -0.84556443956E-01  0.13806021285E+00  0.20275495606E-01 0.  0.
         14    1    1    2    0    0  0.66795209031E-02 -0.13105050464E-01  0.35758219698E-02  0.15137531170E-01  0.00000000000E+00 0. -1.
     999901    1    3    3    0    0  0.75001257280E-01  0.82588752947E-01  0.80980621986E-01  0.89073225598E+00  0.88000000000E+00 0. -1.
        -11    1    4    4    0    0 -0.25138607468E-01 -0.99855569485E-02 -0.21283379449E-01  0.34422438826E-01  0.51100000000E-03 0.  1.
         11    1    4    4    0    0 -0.56542170716E-01 -0.59498145534E-01 -0.63273064508E-01  0.10363777402E+00  0.51100000000E-03 0. -1.
</event>
<event>
 8    1  0.1072332E+005  0.1043930E+01  0.7957747E-01            NaN
         13   -1    0    0    0    0  0.00000000000E+00  0.00000000000E+00  0.74505805969E-08  0.10566000000E+00  0.10566000000E+00 0.  1.
     999900   -1    0    0    0    0 -0.00000000000E+00 -0.00000000000E+00 -0.74505805969E-08  0.93827000000E+00  0.93827000000E+00 0. -1.
     999902    2    1    2    0    0  0.13315101123E-01 -0.22772962505E-01  0.76750248787E-02  0.10164562717E+01  0.10160849111E+01 0.  0.
     999903    2    3    3    0    0 -0.47352941745E-01 -0.31455720207E-03  0.11674366806E+00  0.12736630983E+00  0.18726793883E-01 0.  0.
         14    1    1    2    0    0 -0.13315101123E-01  0.22772962505E-01 -0.76750248787E-02  0.27473728288E-01  0.00000000000E+00 0. -1.
     999901    1    3    3    0    0  0.60668042868E-01 -0.22458405302E-01 -0.10906864318E+00  0.88908996188E+00  0.88000000000E+00 0. -1.
        -11    1    4    4    0    0 -0.35950342957E-01  0.64257786373E-02  0.96379938927E-01  0.10306828580E+00  0.51100000000E-03 0.  1.
         11    1    4    4    0    0 -0.11402598788E-01 -0.67403358393E-02  0.20363729134E-01  0.24298024027E-01  0.51100000000E-03 0. -1.
</event>
<event>
 8    1  0.1072332E+005  0.1043930E+01  0.7957747E-01            NaN
         13   -1    0    0    0    0  0.00000000000E+00  0.00000000000E+00  0.74505805969E-08  0.10566000000E+00  0.10566000000E+00 0.  1.
     999900   -1    0    0    0    0 -0.00000000000E+00 -0.00000000000E+00 -0.74505805969E-08  0.93827000000E+00  0.93827000000E+00 0.  1.
     999902    2    1    2    0    0  0.18574100342E-02  0.22929865605E-01 -0.12595576323E-01  0.10177025859E+01  0.10173645738E+01 0.  0.
     999903    2    3    3    0    0  0.87380136885E-01  0.85770648066E-01 -0.41559627196E-01  0.13085309640E+00  0.20085761924E-01 0.  0.
         14    1    1    2    0    0 -0.18574100342E-02 -0.22929865605E-01  0.12595576323E-01  0.26227414124E-01  0.00000000000E+00 0. -1.
     999901    1    3    3    0    0 -0.85522726851E-01 -0.62840782461E-01  0.28964050872E-01  0.88684948948E+00  0.88000000000E+00 0. -1.
        -11    1    4    4    0    0  0.71055567071E-01  0.70410359950E-01 -0.41838020936E-01  0.10843059309E+00  0.51100000000E-03 0.  1.
         11    1    4    4    0    0  0.16324569814E-01  0.15360288116E-01  0.27839374071E-03  0.22422503310E-01  0.51100000000E-03 0. -1.
</event>
<event>
 8    1  0.1072332E+005  0.1043930E+01  0.7957747E-01            NaN
         13   -1    0    0    0    0  0.00000000000E+00  0.00000000000E+00  0.74505805969E-08  0.10566000000E+00  0.10566000000E+00 0. -1.
     999900   -1    0    0    0    0 -0.00000000000E+00 -0.00000000000E+00 -0.74505805969E-08  0.93827000000E+00  0.93827000000E+00 0.  1.
     999902    2    1    2    0    0 -0.46463106827E-03 -0.57296348389E-02 -0.23329544196E-01  0.10199026774E+01  0.10196196150E+01 0.  0.
     999903    2    3    3    0    0  0.11253528274E+00 -0.39859216113E-01 -0.51608803887E-01  0.13157079949E+00  0.19861008751E-01 0.  0.
         14    1    1    2    0    0  0.46463106827E-03  0.57296348389E-02  0.23329544196E-01  0.24027322569E-01  0.00000000000E+00 0. -1.
     999901    1    3    3    0    0 -0.11299991381E+00  0.34129581274E-01  0.28279259691E-01  0.88833187794E+00  0.88000000000E+00 0. -1.
        -11    1    4    4    0    0  0.58948830701E-01 -0.25547754204E-01 -0.18026648431E-01  0.66729855091E-01  0.51100000000E-03 0. -1.
         11    1    4    4    0    0  0.53586452041E-01 -0.14311461909E-01 -0.33582155456E-01  0.64840944398E-01  0.51100000000E-03 0.  1.
</event>
<event>
 8    1  0.1072332E+005  0.1043930E+01  0.7957747E-01            NaN
         13   -1    0    0    0    0  0.00000000000E+00  0.00000000000E+00  0.74505805969E-08  0.10566000000E+00  0.10566000000E+00 0.  1.
     999900   -1    0    0    0    0 -0.00000000000E+00 -0.00000000000E+00 -0.74505805969E-08  0.93827000000E+00  0.93827000000E+00 0. -1.
     999902    2    1    2    0    0 -0.10376710519E-01  0.12208021461E-01 -0.13494871395E-01  0.10229818864E+01  0.10227673814E+01 0.  0.
     999903    2    3    3    0    0 -0.67107432590E-01 -0.58196127932E-01 -0.98426514332E-01  0.13428142897E+00  0.21296164610E-01 0.  0.
         14    1    1    2    0    0  0.10376710519E-01 -0.12208021461E-01  0.13494871395E-01  0.20948113594E-01  0.00000000000E+00 0.  1.
     999901    1    3    3    0    0  0.56730722070E-01  0.70404149393E-01  0.84931642937E-01  0.88870045744E+00  0.88000000000E+00 0.  1.
        -11    1    4    4    0    0 -0.22997721874E-01 -0.32143129072E-01 -0.50476880402E-01  0.64111251228E-01  0.51100000000E-03 0. -1.
         11    1    4    4    0    0 -0.44109710716E-01 -0.26052998861E-01 -0.47949633930E-01  0.70170177740E-01  0.51100000000E-03 0.  1.
</event>
<event>
 8    1  0.1072332E+005  0.1043930E+01  0.7957747E-01            NaN
         13   -1    0    0    0    0  0.00000000000E+00  0.00000000000E+00  0.74505805969E-08  0.10566000000E+00  0.10566000000E+00 0.  1.
     999900   -1    0    0    0    0 -0.00000000000E+00 -0.00000000000E+00 -0.74505805969E-08  0.93827000000E+00  0.93827000000E+00 0. -1.
     999902    2    1    2    0    0 -0.14647542288E-01 -0.19605814661E-01 -0.22047769376E-02  0.10193576679E+01  0.10190614582E+01 0.  0.
     999903    2    3    3    0    0 -0.40903936475E-01  0.83952740443E-01 -0.86392738436E-01  0.12890756518E+00  0.20790874412E-01 0.  0.
         14    1    1    2    0    0  0.14647542288E-01  0.19605814661E-01  0.22047769376E-02  0.24572332102E-01  0.00000000000E+00 0. -1.
     999901    1    3    3    0    0  0.26256394187E-01 -0.10355855510E+00  0.84187961499E-01  0.89045010272E+00  0.88000000000E+00 0.  1.
        -11    1    4    4    0    0 -0.25789509089E-01  0.50599774677E-01 -0.38485283615E-01  0.68606225317E-01  0.51100000000E-03 0.  1.
         11    1    4    4    0    0 -0.15114427386E-01  0.33352965766E-01 -0.47907454822E-01  0.60301339861E-01  0.51100000000E-03 0. -1.
</event>
<event>
 8    1  0.1072332E+005  0.1043930E+01  0.7957747E-01            NaN
         13   -1    0    0    0    0  0.00000000000E+00  0.00000000000E+00  0.74505805969E-08  0.10566000000E+00  0.10566000000E+00 0.  1.
     999900   -1    0    0    0    0 -0.00000000000E+00 -0.00000000000E+00 -0.74505805969E-08  0.93827000000E+00  0.93827000000E+00 0. -1.
     999902    2    1    2    0    0 -0.15027084835E-01  0.73277255150E-02 -0.19014234820E-01  0.10186110355E+01  0.10182963182E+01 0.  0.
     999903    2    3    3    0    0  0.12454536423E+00 -0.14239589624E-01 -0.28741561325E-02  0.12720421488E+00  0.21408826366E-01 0.  0.
         14    1    1    2    0    0  0.15027084835E-01 -0.73277255150E-02  0.19014234820E-01  0.25318964545E-01  0.00000000000E+00 0.  1.
     999901    1    3    3    0    0 -0.13957244907E+00  0.21567315139E-01 -0.16140078687E-01  0.89140682057E+00  0.88000000000E+00 0. -1.
        -11    1    4    4    0    0  0.14404531598E-01  0.46952140660E-02 -0.29657966355E-02  0.15446444133E-01  0.51100000000E-03 0. -1.
         11    1    4    4    0    0  0.11014083263E+00 -0.18934803690E-01  0.91640502980E-04  0.11175777075E+00  0.51100000000E-03 0.  1.
</event>
<event>
 8    1  0.1072332E+005  0.1043930E+01  0.7957747E-01            NaN
         13   -1    0    0    0    0  0.00000000000E+00  0.00000000000E+00  0.74505805969E-08  0.10566000000E+00  0.10566000000E+00 0. -1.
     999900   -1    0    0    0    0 -0.00000000000E+00 -0.00000000000E+00 -0.74505805969E-08  0.93827000000E+00  0.93827000000E+00 0. -1.
     999902    2    1    2    0    0  0.23273783758E-01  0.57253379573E-02  0.80490720473E-03  0.10199488328E+01  0.10196668697E+01 0.  0.
     999903    2    3    3    0    0  0.32502118249E-01 -0.97325377571E-01 -0.78121824474E-01  0.13037925086E+00  0.19160187485E-01 0.  0.
         14    1    1    2    0    0 -0.23273783758E-01 -0.57253379573E-02 -0.80490720473E-03  0.23981167210E-01  0.00000000000E+00 0.  1.
     999901    1    3    3    0    0 -0.92283344910E-02  0.10305071553E+00  0.78926731679E-01  0.88956958193E+00  0.88000000000E+00 0. -1.
        -11    1    4    4    0    0  0.16721047713E-01 -0.54279129266E-01 -0.31324109495E-01  0.64863535728E-01  0.51100000000E-03 0. -1.
         11    1    4    4    0    0  0.15781070536E-01 -0.43046248305E-01 -0.46797714979E-01  0.65515715128E-01  0.51100000000E-03 0.  1.
</event>
<event>
 8    1  0.1072332E+005  0.1043930E+01  0.7957747E-01            NaN
         13   -1    0    0    0    0  0.00000000000E+00  0.00000000000E+00  0.74505805969E-08  0.10566000000E+00  0.10566000000E+00 0.  1.
     999900   -1    0    0    0    0 -0.00000000000E+00 -0.00000000000E+00 -0.74505805969E-08  0.93827000000E+00  0.93827000000E+00 0.  1.
     999902    2    1    2    0    0 -0.84722714467E-03 -0.93547909562E-02 -0.21866412983E-01  0.10201314722E+01  0.10198538379E+01 0.  0.
     999903    2    3    3    0    0  0.81829738191E-01 -0.43855077556E-01 -0.92612703888E-01  0.13275850213E+00  0.20696209469E-01 0.  0.
         14    1    1    2    0    0  0.84722714467E-03  0.93547909562E-02  0.21866412983E-01  0.23798527778E-01  0.00000000000E+00 0.  1.
     999901    1    3    3    0    0 -0.82676965336E-01  0.34500286600E-01  0.70746290905E-01  0.88737297009E+00  0.88000000000E+00 0. -1.
        -11    1    4    4    0    0  0.63710694185E-01 -0.30116917888E-01 -0.57648865139E-01  0.91047976745E-01  0.51100000000E-03 0. -1.
         11    1    4    4    0    0  0.18119044006E-01 -0.13738159668E-01 -0.34963838750E-01  0.41710525385E-01  0.51100000000E-03 0.  1.
</event>
<event>
 8    1  0.1072332E+005  0.1043930E+01  0.7957747E-01            NaN
         13   -1    0    0    0    0  0.00000000000E+00  0.00000000000E+00  0.74505805969E-08  0.10566000000E+00  0.10566000000E+00 0. -1.
     999900   -1    0    0    0    0 -0.00000000000E+00 -0.00000000000E+00 -0.74505805969E-08  0.93827000000E+00  0.93827000000E+00 0. -1.
     999902    2    1    2    0    0  0.15649827651E-01  0.54167485931E-02 -0.17192546498E-01  0.10200586380E+01  0.10197792815E+01 0.  0.
     999903    2    3    3    0    0  0.87354328093E-01  0.32217564315E-01  0.89024324232E-01  0.13037226471E+00  0.20071049149E-01 0.  0.
         14    1    1    2    0    0 -0.15649827651E-01 -0.54167485931E-02  0.17192546498E-01  0.23871362046E-01  0.00000000000E+00 0. -1.
     999901    1    3    3    0    0 -0.71704500442E-01 -0.26800815722E-01 -0.10621687073E+00  0.88968637324E+00  0.88000000000E+00 0. -1.
        -11    1    4    4    0    0  0.66583550203E-01  0.31889606106E-01  0.62885887384E-01  0.96980472716E-01  0.51100000000E-03 0. -1.
         11    1    4    4    0    0  0.20770777890E-01  0.32795820852E-03  0.26138436848E-01  0.33391791995E-01  0.51100000000E-03 0.  1.
</event>
<event>
 8    1  0.1072332E+005  0.1043930E+01  0.7957747E-01            NaN
         13   -1    0    0    0    0  0.00000000000E+00  0.00000000000E+00  0.74505805969E-08  0.10566000000E+00  0.10566000000E+00 0.  1.
     999900   -1    0    0    0    0 -0.00000000000E+00 -0.00000000000E+00 -0.74505805969E-08  0.93827000000E+00  0.93827000000E+00 0. -1.
     999902    2    1    2    0    0  0.18144262584E-01 -0.19442642353E-02  0.15514521200E-01  0.10199780732E+01  0.10196968055E+01 0.  0.
     999903    2    3    3    0    0 -0.12284899154E+00 -0.31062081175E-02  0.32466517069E-01  0.12859273680E+00  0.19506254793E-01 0.  0.
         14    1    1    2    0    0 -0.18144262584E-01  0.19442642353E-02 -0.15514521200E-01  0.23951926774E-01  0.00000000000E+00 0. -1.
     999901    1    3    3    0    0  0.14099325413E+00  0.11619438822E-02 -0.16951995869E-01  0.89138533642E+00  0.88000000000E+00 0. -1.
        -11    1    4    4    0    0 -0.24639561320E-01  0.54399235791E-02  0.11834201541E-01  0.27874902649E-01  0.51100000000E-03 0. -1.
         11    1    4    4    0    0 -0.98209430224E-01 -0.85461316966E-02  0.20632315528E-01  0.10071783416E+00  0.51100000000E-03 0.  1.
</event>
<event>
 8    1  0.1072332E+005  0.1043930E+01  0.7957747E-01            NaN
         13   -1    0    0    0    0  0.00000000000E+00  0.00000000000E+00  0.74505805969E-08  0.10566000000E+00  0.10566000000E+00 0. -1.
     999900   -1    0    0    0    0 -0.00000000000E+00 -0.00000000000E+00 -0.74505805969E-08  0.93827000000E+00  0.93827000000E+00 0.  1.
     999902    2    1    2    0    0 -0.13013896172E-01  0.20440722481E-01  0.83934928998E-03  0.10196835748E+01  0.10193952636E+01 0.  0.
     999903    2    3    3    0    0  0.70724990888E-01 -0.81023740630E-01  0.65248198867E-01  0.12757610457E+00  0.21247685067E-01 0.  0.
         14    1    1    2    0    0  0.13013896172E-01 -0.20440722481E-01 -0.83934928998E-03  0.24246425229E-01  0.00000000000E+00 0.  1.
     999901    1    3    3    0    0 -0.83738887060E-01  0.10146446311E+00 -0.64408849577E-01  0.89210747020E+00  0.88000000000E+00 0.  1.
        -11    1    4    4    0    0  0.27267956081E-01 -0.16881701746E-01  0.21261172102E-01  0.38481577967E-01  0.51100000000E-03 0. -1.
         11    1    4    4    0    0  0.43457034806E-01 -0.64142038885E-01  0.43987026765E-01  0.89094526606E-01  0.51100000000E-03 0.  1.
</event>
<event>
 8    1  0.1072332E+005  0.1043930E+01  0.7957747E-01            NaN
         13   -1    0    0    0    0  0.00000000000E+00  0.00000000000E+00  0.74505805969E-08  0.10566000000E+00  0.10566000000E+00 0. -1.
     999900   -1    0    0    0    0 -0.00000000000E+00 -0.00000000000E+00 -0.74505805969E-08  0.93827000000E+00  0.93827000000E+00 0.  1.
     999902    2    1    2    0    0  0.16828005020E-01  0.15197134899E-02 -0.17754288501E-01  0.10194206948E+01  0.10191260211E+01 0.  0.
     999903    2    3    3    0    0 -0.12377005112E+00 -0.17791980783E-01  0.14945618664E-01  0.12745094257E+00  0.19616093156E-01 0.  0.
         14    1    1    2    0    0 -0.16828005020E-01 -0.15197134899E-02  0.17754288501E-01  0.24509305217E-01  0.00000000000E+00 0. -1.
     999901    1    3    3    0    0  0.14059805614E+00  0.19311694272E-01 -0.32699907165E-01  0.89196975221E+00  0.88000000000E+00 0.  1.
        -11    1    4    4    0    0 -0.35855468894E-01 -0.13987670524E-01  0.24331896026E-02  0.38567487719E-01  0.51100000000E-03 0. -1.
         11    1    4    4    0    0 -0.87914582229E-01 -0.38043102582E-02  0.12512429061E-01  0.88883454855E-01  0.51100000000E-03 0.  1.
</event>
<event>
 7    1  0.1072332E+005  0.1043930E+01  0.7957747E-01            NaN
         13   -1    0    0    0    0  0.00000000000E+00  0.00000000000E+00  0.74505805969E-08  0.10566000000E+00  0.10566000000E+00 0. -1.
     999900   -1    0    0    0    0 -0.00000000000E+00 -0.00000000000E+00 -0.74505805969E-08  0.93827000000E+00  0.93827000000E+00 0.  1.
     999902    2    1    2    0    0  0.13154048576E-01 -0.37656633481E-02 -0.19087070961E-01  0.10204454201E+01  0.10201751467E+01 0.  0.
         14    1    1    2    0    0 -0.13154048576E-01  0.37656633481E-02  0.19087070961E-01  0.23484579882E-01  0.00000000000E+00 0. -1.
     999901    1    3    3    0    0  0.98252952508E-01 -0.11622606270E-01 -0.10725297505E+00  0.89201565475E+00  0.88000000000E+00 0. -1.
        -11    1    3    3    0    0 -0.15929229531E-01  0.75662811572E-02  0.41204561562E-01  0.44822605664E-01  0.51100000000E-03 0. -1.
         11    1    3    3    0    0 -0.69169674402E-01  0.29066176514E-03  0.46961342532E-01  0.83607159708E-01  0.51100000000E-03 0.  1.
</event>
<event>
 8    1  0.1072332E+005  0.1043930E+01  0.7957747E-01            NaN
         13   -1    0    0    0    0  0.00000000000E+00  0.00000000000E+00  0.74505805969E-08  0.10566000000E+00  0.10566000000E+00 0.  1.
     999900   -1    0    0    0    0 -0.00000000000E+00 -0.00000000000E+00 -0.74505805969E-08  0.93827000000E+00  0.93827000000E+00 0. -1.
     999902    2    1    2    0    0 -0.41059307017E-02  0.18784636915E-01 -0.11013895396E-01  0.10217708677E+01  0.10215305571E+01 0.  0.
     999903    2    3    3    0    0  0.86860593403E-01  0.99096532174E-01 -0.62645289499E-02  0.13343114358E+00  0.19993508427E-01 0.  0.
         14    1    1    2    0    0  0.41059307017E-02 -0.18784636915E-01  0.11013895396E-01  0.22159132265E-01  0.00000000000E+00 0.  1.
     999901    1    3    3    0    0 -0.90966524105E-01 -0.80311895259E-01 -0.47493664459E-02  0.88833972415E+00  0.88000000000E+00 0. -1.
        -11    1    4    4    0    0  0.97471549413E-02  0.19950685292E-01  0.35556429687E-02  0.22493123194E-01  0.51100000000E-03 0.  1.
         11    1    4    4    0    0  0.77113438462E-01  0.79145846882E-01 -0.98201719186E-02  0.11093802039E+00  0.51100000000E-03 0. -1.
</event>
<event>
 8    1  0.1072332E+005  0.1043930E+01  0.7957747E-01            NaN
         13   -1    0    0    0    0  0.00000000000E+00  0.00000000000E+00  0.74505805969E-08  0.10566000000E+00  0.10566000000E+00 0. -1.
     999900   -1    0    0    0    0 -0.00000000000E+00 -0.00000000000E+00 -0.74505805969E-08  0.93827000000E+00  0.93827000000E+00 0.  1.
     999902    2    1    2    0    0 -0.10407395551E-01  0.18465176013E-01  0.99557909973E-02  0.10205121781E+01  0.10202434569E+01 0.  0.
     999903    2    3    3    0    0  0.65554886279E-01  0.93847027475E-02 -0.10918297735E+00  0.12919474343E+00  0.19617426618E-01 0.  0.
         14    1    1    2    0    0  0.10407395551E-01 -0.18465176013E-01 -0.99557909973E-02  0.23417821883E-01  0.00000000000E+00 0.  1.
     999901    1    3    3    0    0 -0.75962281830E-01  0.90804732658E-02  0.11913876834E+00  0.89131743469E+00  0.88000000000E+00 0. -1.
        -11    1    4    4    0    0  0.21902210499E-01  0.83850414430E-02 -0.53614734486E-01  0.58521932809E-01  0.51100000000E-03 0.  1.
         11    1    4    4    0    0  0.43652675780E-01  0.99966130454E-03 -0.55568242859E-01  0.70672810620E-01  0.51100000000E-03 0. -1.
</event>
<event>
 8    1  0.1072332E+005  0.1043930E+01  0.7957747E-01            NaN
         13   -1    0    0    0    0  0.00000000000E+00  0.00000000000E+00  0.74505805969E-08  0.10566000000E+00  0.10566000000E+00 0.  1.
     999900   -1    0    0    0    0 -0.00000000000E+00 -0.00000000000E+00 -0.74505805969E-08  0.93827000000E+00  0.93827000000E+00 0.  1.
     999902    2    1    2    0    0 -0.19310089999E-01 -0.47913342235E-02  0.12992401548E-01  0.10201678672E+01  0.10198910914E+01 0.  0.
     999903    2    3    3    0    0  0.18288801779E-01  0.69877099803E-01  0.10759067003E+00  0.13115837108E+00  0.20235530149E-01 0.  0.
         14    1    1    2    0    0  0.19310089999E-01  0.47913342235E-02 -0.12992401548E-01  0.23762132846E-01  0.00000000000E+00 0. -1.
     999901    1    3    3    0    0 -0.37598891777E-01 -0.74668434027E-01 -0.94598268482E-01  0.88900949607E+00  0.88000000000E+00 0. -1.
        -11    1    4    4    0    0  0.20849986345E-01  0.56500403667E-01  0.77712412543E-01  0.98318348894E-01  0.51100000000E-03 0. -1.
         11    1    4    4    0    0 -0.25611845666E-02  0.13376696137E-01  0.29878257488E-01  0.32840022190E-01  0.51100000000E-03 0.  1.
</event>
<event>
 8    1  0.1072332E+005  0.1043930E+01  0.7957747E-01            NaN
         13   -1    0    0    0    0  0.00000000000E+00  0.00000000000E+00  0.74505805969E-08  0.10566000000E+00  0.10566000000E+00 0.  1.
     999900   -1    0    0    0    0 -0.00000000000E+00 -0.00000000000E+00 -0.74505805969E-08  0.93827000000E+00  0.93827000000E+00 0.  1.
     999902    2    1    2    0    0  0.20807911284E-01 -0.11817433415E-01  0.24920061853E-03  0.10199992038E+01  0.10197184380E+01 0.  0.
     999903    2    3    3    0    0 -0.32142058847E-01 -0.11309237362E+00  0.52996190636E-01  0.13104332314E+00  0.23254234015E-01 0.  0.
         14    1    1    2    0    0 -0.20807911284E-01  0.11817433415E-01 -0.24920061853E-03  0.23930796173E-01  0.00000000000E+00 0.  1.
     999901    1    3    3    0    0  0.52949970132E-01  0.10127494021E+00 -0.52746990018E-01  0.88895588069E+00  0.88000000000E+00 0.  1.
        -11    1    4    4    0    0 -0.28719269770E-01 -0.91932740361E-01  0.33244924943E-01  0.10189166483E+00  0.51100000000E-03 0.  1.
         11    1    4    4    0    0 -0.34227890777E-02 -0.21159633260E-01  0.19751265693E-01  0.29151658310E-01  0.51100000000E-03 0. -1.
</event>
<event>
 8    1  0.1072332E+005  0.1043930E+01  0.7957747E-01            NaN
         13   -1    0    0    0    0  0.00000000000E+00  0.00000000000E+00  0.74505805969E-08  0.10566000000E+00  0.10566000000E+00 0. -1.
     999900   -1    0    0    0    0 -0.00000000000E+00 -0.00000000000E+00 -0.74505805969E-08  0.93827000000E+00  0.93827000000E+00 0.  1.
     999902    2    1    2    0    0 -0.35999105913E-02  0.10984279430E-01 -0.19612801232E-01  0.10211643302E+01  0.10209105316E+01 0.  0.
     999903    2    3    3    0    0  0.48872236124E-01  0.11493467281E+00  0.36606831733E-01  0.13171525484E+00  0.20257683748E-01 0.  0.
         14    1    1    2    0    0  0.35999105913E-02 -0.10984279430E-01  0.19612801232E-01  0.22765669835E-01  0.00000000000E+00 0. -1.
     999901    1    3    3    0    0 -0.52472146715E-01 -0.10395039338E+00 -0.56219632965E-01  0.88944907532E+00  0.88000000000E+00 0. -1.
        -11    1    4    4    0    0  0.31743839498E-01  0.52820808640E-01  0.12264517253E-01  0.62836205136E-01  0.51100000000E-03 0.  1.
         11    1    4    4    0    0  0.17128396626E-01  0.62113864169E-01  0.24342314480E-01  0.68879049705E-01  0.51100000000E-03 0. -1.
</event>
<event>
 8    1  0.1072332E+005  0.1043930E+01  0.7957747E-01            NaN
         13   -1    0    0    0    0  0.00000000000E+00  0.00000000000E+00  0.74505805969E-08  0.10566000000E+00  0.10566000000E+00 0. -1.
     999900   -1    0    0    0    0 -0.00000000000E+00 -0.00000000000E+00 -0.74505805969E-08  0.93827000000E+00  0.93827000000E+00 0.  1.
     999902    2    1    2    0    0 -0.11273619737E-01  0.19046700174E-01  0.10413515994E-02  0.10217724798E+01  0.10215322044E+01 0.  0.
     999903    2    3    3    0    0  0.74790072114E-01  0.38963246323E-01 -0.99055135044E-01  0.13170341812E+00  0.20547046405E-01 0.  0.
         14    1    1    2    0    0  0.11273619737E-01 -0.19046700174E-01 -0.10413515994E-02  0.22157520228E-01  0.00000000000E+00 0. -1.
     999901    1    3    3    0    0 -0.86063691851E-01 -0.19916546148E-01  0.10009648664E+00  0.89006906165E+00  0.88000000000E+00 0. -1.
        -11    1    4    4    0    0  0.25182698317E-01  0.26958207506E-02 -0.29958789131E-01  0.39232969697E-01  0.51100000000E-03 0.  1.
         11    1    4    4    0    0  0.49607373797E-01  0.36267425572E-01 -0.69096345914E-01  0.92470448427E-01  0.51100000000E-03 0. -1.
</event>
<event>
 8    1  0.1072332E+005  0.1043930E+01  0.7957747E-01            NaN
         13   -1    0    0    0    0  0.00000000000E+00  0.00000000000E+00  0.74505805969E-08  0.10566000000E+00  0.10566000000E+00 0. -1.
     999900   -1    0    0    0    0 -0.00000000000E+00 -0.00000000000E+00 -0.74505805969E-08  0.93827000000E+00  0.93827000000E+00 0. -1.
     999902    2    1    2    0    0 -0.23794940558E-01  0.39492995417E-02  0.98511889553E-03  0.10197894403E+01  0.10195036714E+01 0.  0.
     999903    2    3    3    0    0 -0.10489249164E+00 -0.51490737019E-01 -0.58805007800E-01  0.13230689417E+00  0.19833166690E-01 0.  0.
         14    1    1    2    0    0  0.23794940558E-01 -0.39492995417E-02 -0.98511889553E-03  0.24140559692E-01  0.00000000000E+00 0. -1.
     999901    1    3    3    0    0  0.81097551086E-01  0.55440036560E-01  0.59790126696E-01  0.88748254614E+00  0.88000000000E+00 0.  1.
        -11    1    4    4    0    0 -0.36675137698E-01 -0.21533483756E-01 -0.31607313955E-01  0.52990943229E-01  0.51100000000E-03 0. -1.
         11    1    4    4    0    0 -0.68217353946E-01 -0.29957253262E-01 -0.27197693845E-01  0.79315950942E-01  0.51100000000E-03 0.  1.
</event>
<event>
 8    1  0.1072332E+005  0.1043930E+01  0.7957747E-01            NaN
         13   -1    0    0    0    0  0.00000000000E+00  0.00000000000E+00  0.74505805969E-08  0.10566000000E+00  0.10566000000E+00 0. -1.
     999900   -1    0    0    0    0 -0.00000000000E+00 -0.00000000000E+00 -0.74505805969E-08  0.93827000000E+00  0.93827000000E+00 0. -1.
     999902    2    1    2    0    0 -0.79903496493E-02 -0.19946386999E-01 -0.11995391662E-01  0.10193211914E+01  0.10190240908E+01 0.  0.
     999903    2    3    3    0    0  0.19658387254E-01 -0.12710826249E+00  0.20487946059E-01  0.13179469178E+00  0.20177271013E-01 0.  0.
         14    1    1    2    0    0  0.79903496493E-02  0.19946386999E-01  0.11995391662E-01  0.24608808646E-01  0.00000000000E+00 0. -1.
     999901    1    3    3    0    0 -0.27648736903E-01  0.10716187549E+00 -0.32483337721E-01  0.88752649957E+00  0.88000000000E+00 0. -1.
        -11    1    4    4    0    0  0.19131342042E-01 -0.75095820832E-01  0.56481563913E-02  0.77701694617E-01  0.51100000000E-03 0.  1.
         11    1    4    4    0    0  0.52704521197E-03 -0.52012441659E-01  0.14839789668E-01  0.54092997166E-01  0.51100000000E-03 0. -1.
</event>
<event>
 8    1  0.1072332E+005  0.1043930E+01  0.7957747E-01            NaN
         13   -1    0    0    0    0  0.00000000000E+00  0.00000000000E+00  0.74505805969E-08  0.10566000000E+00  0.10566000000E+00 0.  1.
     999900   -1    0    0    0    0 -0.00000000000E+00 -0.00000000000E+00 -0.74505805969E-08  0.93827000000E+00  0.93827000000E+00 0. -1.
     999902    2    1    2    0    0  0.18360269194E-01  0.28572446850E-02 -0.14751630801E-01  0.10202050354E+01  0.10199291350E+01 0.  0.
     999903    2    3    3    0    0  0.36889881534E-01  0.10842891021E+00  0.59040585692E-01  0.13063546857E+00  0.21497510559E-01 0.  0.
         14    1    1    2    0    0 -0.18360269194E-01 -0.28572446850E-02  0.14751630801E-01  0.23724964559E-01  0.00000000000E+00 0. -1.
     999901    1    3    3    0    0 -0.18529612340E-01 -0.10557166552E+00 -0.73792216493E-01  0.88956956687E+00  0.88000000000E+00 0. -1.
        -11    1    4    4    0    0  0.14247635147E-01  0.57318172284E-01  0.40972043105E-01  0.71884194497E-01  0.51100000000E-03 0. -1.
         11    1    4    4    0    0  0.22642246387E-01  0.51110737924E-01  0.18068542587E-01  0.58751274069E-01  0.51100000000E-03 0.  1.
</event>
<event>
 8    1  0.1072332E+005  0.1043930E+01  0.7957747E-01            NaN
         13   -1    0    0    0    0  0.00000000000E+00  0.00000000000E+00  0.74505805969E-08  0.10566000000E+00  0.10566000000E+00 0.  1.
     999900   -1    0    0    0    0 -0.00000000000E+00 -0.00000000000E+00 -0.74505805969E-08  0.93827000000E+00  0.93827000000E+00 0. -1.
     999902    2    1    2    0    0  0.78876168495E-03  0.21005013768E-01 -0.76803766977E-02  0.10215509711E+01  0.10213058140E+01 0.  0.
     999903    2    3    3    0    0  0.24897932340E-01  0.99671963324E-01  0.82302034106E-01  0.13314420879E+00  0.19983698568E-01 0.  0.
         14    1    1    2    0    0 -0.78876168495E-03 -0.21005013768E-01  0.76803766977E-02  0.22379028902E-01  0.00000000000E+00 0.  1.
     999901    1    3    3    0    0 -0.24109170655E-01 -0.78666949556E-01 -0.89982410803E-01  0.88840676231E+00  0.88000000000E+00 0. -1.
        -11    1    4    4    0    0  0.18104071788E-01  0.82627683016E-01  0.76060462222E-01  0.11375652267E+00  0.51100000000E-03 0. -1.
         11    1    4    4    0    0  0.67938605517E-02  0.17044280308E-01  0.62415718837E-02  0.19387686117E-01  0.51100000000E-03 0.  1.
</event>
<event>
 8    1  0.1072332E+005  0.1043930E+01  0.7957747E-01            NaN
         13   -1    0    0    0    0  0.00000000000E+00  0.00000000000E+00  0.74505805969E-08  0.10566000000E+00  0.10566000000E+00 0.  1.
     999900   -1    0    0    0    0 -0.00000000000E+00 -0.00000000000E+00 -0.74505805969E-08  0.93827000000E+00  0.93827000000E+00 0.  1.
     999902    2    1    2    0    0 -0.16945645988E-01 -0.34605725585E-02  0.15958440145E-01  0.10203969957E+01  0.10201255935E+01 0.  0.
     999903    2    3    3    0    0  0.35602536419E-01 -0.11600548575E-01  0.12499258569E+00  0.13207497323E+00  0.20458219574E-01 0.  0.
         14    1    1    2    0    0  0.16945645988E-01  0.34605725585E-02 -0.15958440145E-01  0.23533004319E-01  0.00000000000E+00 0. -1.
     999901    1    3    3    0    0 -0.52548182407E-01  0.81399760162E-02 -0.10903414555E+00  0.88832202246E+00  0.88000000000E+00 0.  1.
        -11    1    4    4    0    0  0.27123876892E-01 -0.32943446651E-02  0.59001815008E-01  0.65023324275E-01  0.51100000000E-03 0.  1.
         11    1    4    4    0    0  0.84786595265E-02 -0.83062039095E-02  0.65990770683E-01  0.67051648952E-01  0.51100000000E-03 0. -1.
</event>
<event>
 8    1  0.1072332E+005  0.1043930E+01  0.7957747E-01            NaN
         13   -1    0    0    0    0  0.00000000000E+00  0.00000000000E+00  0.74505805969E-08  0.10566000000E+00  0.10566000000E+00 0.  1.
     999900   -1    0    0    0    0 -0.00000000000E+00 -0.00000000000E+00 -0.74505805969E-08  0.93827000000E+00  0.93827000000E+00 0. -1.
     999902    2    1    2    0    0 -0.59826352525E-02  0.77225689219E-02  0.23539488830E-01  0.10184439738E+01  0.10181250367E+01 0.  0.
     999903    2    3    3    0    0 -0.88797487949E-01 -0.90654532463E-01  0.12137708177E-01  0.12902486312E+00  0.19921175190E-01 0.  0.
         14    1    1    2    0    0  0.59826352525E-02 -0.77225689219E-02 -0.23539488830E-01  0.25486026166E-01  0.00000000000E+00 0. -1.
     999901    1    3    3    0    0  0.82814852697E-01  0.98377101384E-01  0.11401780653E-01  0.88941911072E+00  0.88000000000E+00 0. -1.
        -11    1    4    4    0    0 -0.45491149427E-01 -0.42120212429E-01 -0.35894133300E-02  0.62102350844E-01  0.51100000000E-03 0.  1.
         11    1    4    4    0    0 -0.43306338522E-01 -0.48534320033E-01  0.15727121507E-01  0.66922512275E-01  0.51100000000E-03 0. -1.
</event>
<event>
 8    1  0.1072332E+005  0.1043930E+01  0.7957747E-01            NaN
         13   -1    0    0    0    0  0.00000000000E+00  0.00000000000E+00  0.74505805969E-08  0.10566000000E+00  0.10566000000E+00 0. -1.
     999900   -1    0    0    0    0 -0.00000000000E+00 -0.00000000000E+00 -0.74505805969E-08  0.93827000000E+00  0.93827000000E+00 0. -1.
     999902    2    1    2    0    0 -0.92421659552E-02  0.18277818312E-01  0.18014710387E-01  0.10166531588E+01  0.10162871736E+01 0.  0.
     999903    2    3    3    0    0 -0.12689910265E+00  0.11231505087E-02  0.30322415641E-02  0.12853046925E+00  0.20155478557E-01 0.  0.
         14    1    1    2    0    0  0.92421659552E-02 -0.18277818312E-01 -0.18014710387E-01  0.27276841168E-01  0.00000000000E+00 0.  1.
     999901    1    3    3    0    0  0.11765693670E+00  0.17154667803E-01  0.14982468823E-01  0.88812268958E+00  0.88000000000E+00 0. -1.
        -11    1    4    4    0    0 -0.36333379632E-01  0.77631851209E-02  0.61712071196E-02  0.37665985146E-01  0.51100000000E-03 0.  1.
         11    1    4    4    0    0 -0.90565723019E-01 -0.66400346123E-02 -0.31389655555E-02  0.90864484103E-01  0.51100000000E-03 0. -1.
</event>
<event>
 8    1  0.1072332E+005  0.1043930E+01  0.7957747E-01            NaN
         13   -1    0    0    0    0  0.00000000000E+00  0.00000000000E+00  0.74505805969E-08  0.10566000000E+00  0.10566000000E+00 0. -1.
     999900   -1    0    0    0    0 -0.00000000000E+00 -0.00000000000E+00 -0.74505805969E-08  0.93827000000E+00  0.93827000000E+00 0. -1.
     999902    2    1    2    0    0 -0.23143046367E-01  0.51648728478E-02 -0.32942460991E-02  0.10199898963E+01  0.10197089095E+01 0.  0.
     999903    2    3    3    0    0 -0.12856837745E-02  0.11542111167E+00 -0.58856328677E-01  0.13110220515E+00  0.20000869160E-01 0.  0.
         14    1    1    2    0    0  0.23143046367E-01 -0.51648728478E-02  0.32942460991E-02  0.23940103676E-01  0.00000000000E+00 0.  1.
     999901    1    3    3    0    0 -0.21857362592E-01 -0.11025623883E+00  0.55562082578E-01  0.88888769117E+00  0.88000000000E+00 0. -1.
        -11    1    4    4    0    0 -0.61187507887E-02  0.76295533474E-01 -0.29856230966E-01  0.82159011604E-01  0.51100000000E-03 0.  1.
         11    1    4    4    0    0  0.48330670143E-02  0.39125578200E-01 -0.29000097712E-01  0.48943193546E-01  0.51100000000E-03 0. -1.
</event>
<event>
 8    1  0.1072332E+005  0.1043930E+01  0.7957747E-01            NaN
         13   -1    0    0    0    0  0.00000000000E+00  0.00000000000E+00  0.74505805969E-08  0.10566000000E+00  0.10566000000E+00 0. -1.
     999900   -1    0    0    0    0 -0.00000000000E+00 -0.00000000000E+00 -0.74505805969E-08  0.93827000000E+00  0.93827000000E+00 0. -1.
     999902    2    1    2    0    0 -0.14491403376E-01  0.85337750309E-02  0.16316051243E-01  0.10204984056E+01  0.10202293645E+01 0.  0.
     999903    2    3    3    0    0 -0.76189232765E-01  0.66316048504E-01  0.85471606294E-01  0.13374708529E+00  0.19500509258E-01 0.  0.
         14    1    1    2    0    0  0.14491403376E-01 -0.85337750309E-02 -0.16316051243E-01  0.23431594403E-01  0.00000000000E+00 0.  1.
     999901    1    3    3    0    0  0.61697829389E-01 -0.57782273474E-01 -0.69155555051E-01  0.88675132031E+00  0.88000000000E+00 0. -1.
        -11    1    4    4    0    0 -0.14976207907E-01  0.50292899218E-02  0.17950678580E-01  0.23917954404E-01  0.51100000000E-03 0.  1.
         11    1    4    4    0    0 -0.61213024859E-01  0.61286758583E-01  0.67520927715E-01  0.10982913088E+00  0.51100000000E-03 0. -1.
</event>
<event>
 8    1  0.1072332E+005  0.1043930E+01  0.7957747E-01            NaN
         13   -1    0    0    0    0  0.00000000000E+00  0.00000000000E+00  0.74505805969E-08  0.10566000000E+00  0.10566000000E+00 0.  1.
     999900   -1    0    0    0    0 -0.00000000000E+00 -0.00000000000E+00 -0.74505805969E-08  0.93827000000E+00  0.93827000000E+00 0.  1.
     999902    2    1    2    0    0  0.16838871078E-01  0.39218807718E-02 -0.19089805572E-01  0.10181744296E+01  0.10178486232E+01 0.  0.
     999903    2    3    3    0    0  0.10704181512E+00 -0.33732629818E-01  0.61244259364E-01  0.12912550226E+00  0.18074720752E-01 0.  0.
         14    1    1    2    0    0 -0.16838871078E-01 -0.39218807718E-02  0.19089805572E-01  0.25755570364E-01  0.00000000000E+00 0.  1.
     999901    1    3    3    0    0 -0.90202944040E-01  0.37654510590E-01 -0.80334064936E-01  0.88904892738E+00  0.88000000000E+00 0. -1.
        -11    1    4    4    0    0  0.25693963982E-01 -0.39611577251E-02  0.70405939931E-02  0.26938850021E-01  0.51100000000E-03 0. -1.
         11    1    4    4    0    0  0.81347851136E-01 -0.29771472093E-01  0.54203665371E-01  0.10218665224E+00  0.51100000000E-03 0.  1.
</event>
<event>
 8    1  0.1072332E+005  0.1043930E+01  0.7957747E-01            NaN
         13   -1    0    0    0    0  0.00000000000E+00  0.00000000000E+00  0.74505805969E-08  0.10566000000E+00  0.10566000000E+00 0. -1.
     999900   -1    0    0    0    0 -0.00000000000E+00 -0.00000000000E+00 -0.74505805969E-08  0.93827000000E+00  0.93827000000E+00 0.  1.
     999902    2    1    2    0    0 -0.55597037268E-03  0.36506413910E-02  0.23171366773E-01  0.10204662295E+01  0.10201964405E+01 0.  0.
     999903    2    3    3    0    0 -0.30981601876E-01  0.12336514327E+00 -0.22549187072E-01  0.13066420097E+00  0.19643048399E-01 0.  0.
         14    1    1    2    0    0  0.55597037268E-03 -0.36506413910E-02 -0.23171366773E-01  0.23463770451E-01  0.00000000000E+00 0.  1.
     999901    1    3    3    0    0  0.30425631503E-01 -0.11971450188E+00  0.45720553845E-01  0.88980202857E+00  0.88000000000E+00 0.  1.
        -11    1    4    4    0    0 -0.31959524699E-01  0.10281879767E+00 -0.22919662930E-01  0.11008491470E+00  0.51100000000E-03 0.  1.
         11    1    4    4    0    0  0.97792282294E-03  0.20546345595E-01  0.37047585782E-03  0.20579286279E-01  0.51100000000E-03 0. -1.
</event>
<event>
 8    1  0.1072332E+005  0.1043930E+01  0.7957747E-01            NaN
         13   -1    0    0    0    0  0.00000000000E+00  0.00000000000E+00  0.74505805969E-08  0.10566000000E+00  0.10566000000E+00 0.  1.
     999900   -1    0    0    0    0 -0.00000000000E+00 -0.00000000000E+00 -0.74505805969E-08  0.93827000000E+00  0.93827000000E+00 0. -1.
     999902    2    1    2    0    0  0.95977331204E-02 -0.19256372387E-01  0.12013709373E-01  0.10192874845E+01  0.10189895595E+01 0.  0.
     999903    2    3    3    0    0 -0.42747379907E-01  0.11658749211E+00  0.19296999894E-01  0.12729723077E+00  0.20303422197E-01 0.  0.
         14    1    1    2    0    0 -0.95977331204E-02  0.19256372387E-01 -0.12013709373E-01  0.24642515526E-01  0.00000000000E+00 0. -1.
     999901    1    3    3    0    0  0.52345113027E-01 -0.13584386449E+00 -0.72832905210E-02  0.89199025370E+00  0.88000000000E+00 0.  1.
        -11    1    4    4    0    0 -0.22960122330E-01  0.77389206455E-01  0.20791078769E-01  0.83359382019E-01  0.51100000000E-03 0. -1.
         11    1    4    4    0    0 -0.19787257577E-01  0.39198285651E-01 -0.14940788758E-02  0.43937848753E-01  0.51100000000E-03 0.  1.
</event>
<event>
 8    1  0.1072332E+005  0.1043930E+01  0.7957747E-01            NaN
         13   -1    0    0    0    0  0.00000000000E+00  0.00000000000E+00  0.74505805969E-08  0.10566000000E+00  0.10566000000E+00 0.  1.
     999900   -1    0    0    0    0 -0.00000000000E+00 -0.00000000000E+00 -0.74505805969E-08  0.93827000000E+00  0.93827000000E+00 0.  1.
     999902    2    1    2    0    0  0.71092712915E-02  0.21043117861E-01  0.57087423458E-02  0.10209965248E+01  0.10207389281E+01 0.  0.
     999903    2    3    3    0    0 -0.73815560118E-01  0.10050541553E+00  0.40979798391E-01  0.13301728373E+00  0.21544800512E-01 0.  0.
         14    1    1    2    0    0 -0.71092712915E-02 -0.21043117861E-01 -0.57087423458E-02  0.22933475245E-01  0.00000000000E+00 0.  1.
     999901    1    3    3    0    0  0.80924831409E-01 -0.79462297671E-01 -0.35271056045E-01  0.88797924102E+00  0.88000000000E+00 0.  1.
        -11    1    4    4    0    0 -0.26217467889E-01  0.39601093225E-01  0.26450361392E-01  0.54364372027E-01  0.51100000000E-03 0. -1.
         11    1    4    4    0    0 -0.47598092229E-01  0.60904322308E-01  0.14529436999E-01  0.78652911708E-01  0.51100000000E-03 0.  1.
</event>
<event>
 8    1  0.1072332E+005  0.1043930E+01  0.7957747E-01            NaN
         13   -1    0    0    0    0  0.00000000000E+00  0.00000000000E+00  0.74505805969E-08  0.10566000000E+00  0.10566000000E+00 0. -1.
     999900   -1    0    0    0    0 -0.00000000000E+00 -0.00000000000E+00 -0.74505805969E-08  0.93827000000E+00  0.93827000000E+00 0.  1.
     999902    2    1    2    0    0  0.90582150625E-02  0.16061267223E-01  0.17952279074E-01  0.10181948122E+01  0.10178695279E+01 0.  0.
     999903    2    3    3    0    0  0.47558137150E-01  0.10699184613E+00 -0.54195967770E-01  0.12973773185E+00  0.13625145651E-01 0.  0.
         14    1    1    2    0    0 -0.90582150625E-02 -0.16061267223E-01 -0.17952279074E-01  0.25735187757E-01  0.00000000000E+00 0. -1.
     999901    1    3    3    0    0 -0.38499922088E-01 -0.90930578911E-01  0.72148246844E-01  0.88845708040E+00  0.88000000000E+00 0. -1.
        -11    1    4    4    0    0  0.40269829519E-01  0.76255796388E-01 -0.41259412807E-01  0.95599194131E-01  0.51100000000E-03 0.  1.
         11    1    4    4    0    0  0.72883076308E-02  0.30736049746E-01 -0.12936554963E-01  0.34138537717E-01  0.51100000000E-03 0. -1.
</event>
<event>
 8    1  0.1072332E+005  0.1043930E+01  0.7957747E-01            NaN
         13   -1    0    0    0    0  0.00000000000E+00  0.00000000000E+00  0.74505805969E-08  0.10566000000E+00  0.10566000000E+00 0.  1.
     999900   -1    0    0    0    0 -0.00000000000E+00 -0.00000000000E+00 -0.74505805969E-08  0.93827000000E+00  0.93827000000E+00 0. -1.
     999902    2    1    2    0    0 -0.95569387558E-02 -0.68661867790E-02  0.20635201122E-01  0.10201751873E+01  0.10198985840E+01 0.  0.
     999903    2    3    3    0    0 -0.54044169727E-01 -0.11542547965E+00  0.25063462672E-01  0.13237800144E+00  0.25533203277E-01 0.  0.
         14    1    1    2    0    0  0.95569387558E-02  0.68661867790E-02 -0.20635201122E-01  0.23754812662E-01  0.00000000000E+00 0. -1.
     999901    1    3    3    0    0  0.44487230971E-01  0.10855929287E+00 -0.44282615491E-02  0.88779718590E+00  0.88000000000E+00 0.  1.
        -11    1    4    4    0    0 -0.57944249018E-02 -0.12719539159E-01  0.11474758594E-01  0.18091247667E-01  0.51100000000E-03 0. -1.
         11    1    4    4    0    0 -0.48249744825E-01 -0.10270594049E+00  0.13588704077E-01  0.11428675377E+00  0.51100000000E-03 0.  1.
</event>
<event>
 8    1  0.1072332E+005  0.1043930E+01  0.7957747E-01            NaN
         13   -1    0    0    0    0  0.00000000000E+00  0.00000000000E+00  0.74505805969E-08  0.10566000000E+00  0.10566000000E+00 0.  1.
     999900   -1    0    0    0    0 -0.00000000000E+00 -0.00000000000E+00 -0.74505805969E-08  0.93827000000E+00  0.93827000000E+00 0. -1.
     999902    2    1    2    0    0 -0.21029103333E-01 -0.34284431067E-02  0.13157076716E-01  0.10188883132E+01  0.10185805362E+01 0.  0.
     999903    2    3    3    0    0 -0.11906983571E+00 -0.43026702063E-01 -0.29382718010E-01  0.13153852793E+00  0.20251354152E-01 0.  0.
         14    1    1    2    0    0  0.21029103333E-01  0.34284431067E-02 -0.13157076716E-01  0.25041686781E-01  0.00000000000E+00 0.  1.
     999901    1    3    3    0    0  0.98040732380E-01  0.39598258957E-01  0.42539794725E-01  0.88734978529E+00  0.88000000000E+00 0.  1.
        -11    1    4    4    0    0 -0.24674843834E-01 -0.17274942035E-01 -0.35055126998E-02  0.30328555535E-01  0.51100000000E-03 0.  1.
         11    1    4    4    0    0 -0.94394991879E-01 -0.25751760028E-01 -0.25877205310E-01  0.10120997239E+00  0.51100000000E-03 0. -1.
</event>
<event>
 8    1  0.1072332E+005  0.1043930E+01  0.7957747E-01            NaN
         13   -1    0    0    0    0  0.00000000000E+00  0.00000000000E+00  0.74505805969E-08  0.10566000000E+00  0.10566000000E+00 0.  1.
     999900   -1    0    0    0    0 -0.00000000000E+00 -0.00000000000E+00 -0.74505805969E-08  0.93827000000E+00  0.93827000000E+00 0. -1.
     999902    2    1    2    0    0  0.72354929066E-02  0.24414069912E-01  0.68777986408E-02  0.10175538122E+01  0.10172119039E+01 0.  0.
     999903    2    3    3    0    0  0.41283954316E-01 -0.30072292025E-01 -0.11440425593E+00  0.12691505374E+00  0.20258071454E-01 0.  0.
         14    1    1    2    0    0 -0.72354929066E-02 -0.24414069912E-01 -0.68777986408E-02  0.26376187773E-01  0.00000000000E+00 0. -1.
     999901    1    3    3    0    0 -0.34048461410E-01  0.54486361937E-01  0.12128205457E+00  0.89063875849E+00  0.88000000000E+00 0.  1.
        -11    1    4    4    0    0  0.43482367845E-01 -0.27687395879E-01 -0.10927754997E+00  0.12082695168E+00  0.51100000000E-03 0.  1.
         11    1    4    4    0    0 -0.21984135286E-02 -0.23848961457E-02 -0.51267059560E-02  0.60881020547E-02  0.51100000000E-03 0. -1.
</event>
<event>
 8    1  0.1072332E+005  0.1043930E+01  0.7957747E-01            NaN
         13   -1    0    0    0    0  0.00000000000E+00  0.00000000000E+00  0.74505805969E-08  0.10566000000E+00  0.10566000000E+00 0. -1.
     999900   -1    0    0    0    0 -0.00000000000E+00 -0.00000000000E+00 -0.74505805969E-08  0.93827000000E+00  0.93827000000E+00 0. -1.
     999902    2    1    2    0    0 -0.13482343658E-01  0.91874350504E-02  0.17761966725E-01  0.10198121640E+01  0.10195269392E+01 0.  0.
     999903    2    3    3    0    0  0.84818821738E-01 -0.92165659337E-01 -0.16875385419E-01  0.12788429971E+00  0.19515998495E-01 0.  0.
         14    1    1    2    0    0  0.13482343658E-01 -0.91874350504E-02 -0.17761966725E-01  0.24117836040E-01  0.00000000000E+00 0.  1.
     999901    1    3    3    0    0 -0.98301165397E-01  0.10135309439E+00  0.34637352144E-01  0.89192786425E+00  0.88000000000E+00 0. -1.
        -11    1    4    4    0    0  0.18211207893E-01 -0.31226326779E-01 -0.65078141076E-03  0.36158210886E-01  0.51100000000E-03 0. -1.
         11    1    4    4    0    0  0.66607613846E-01 -0.60939332558E-01 -0.16224604008E-01  0.91726088825E-01  0.51100000000E-03 0.  1.
</event>
<event>
 8    1  0.1072332E+005  0.1043930E+01  0.7957747E-01            NaN
         13   -1    0    0    0    0  0.00000000000E+00  0.00000000000E+00  0.74505805969E-08  0.10566000000E+00  0.10566000000E+00 0. -1.
     999900   -1    0    0    0    0 -0.00000000000E+00 -0.00000000000E+00 -0.74505805969E-08  0.93827000000E+00  0.93827000000E+00 0.  1.
     999902    2    1    2    0    0 -0.23206629751E-01 -0.32547765456E-02  0.40969232932E-02  0.10201408004E+01  0.10198633863E+01 0.  0.
     999903    2    3    3    0    0 -0.12183994634E+00 -0.40412999935E-01 -0.29160718237E-01  0.13322742507E+00  0.20518679648E-01 0.  0.
         14    1    1    2    0    0  0.23206629751E-01  0.32547765456E-02 -0.40969232932E-02  0.23789199550E-01  0.00000000000E+00 0.  1.
     999901    1    3    3    0    0  0.98633316590E-01  0.37158223389E-01  0.33257641530E-01  0.88691337538E+00  0.88000000000E+00 0.  1.
        -11    1    4    4    0    0 -0.73417019124E-01 -0.34794605007E-01 -0.18259137071E-01  0.83272927427E-01  0.51100000000E-03 0. -1.
         11    1    4    4    0    0 -0.48422927218E-01 -0.56183949278E-02 -0.10901581166E-01  0.49954497644E-01  0.51100000000E-03 0.  1.
</event>
<event>
 8    1  0.1072332E+005  0.1043930E+01  0.7957747E-01            NaN
         13   -1    0    0    0    0  0.00000000000E+00  0.00000000000E+00  0.74505805969E-08  0.10566000000E+00  0.10566000000E+00 0.  1.
     999900   -1    0    0    0    0 -0.00000000000E+00 -0.00000000000E+00 -0.74505805969E-08  0.93827000000E+00  0.93827000000E+00 0.  1.
     999902    2    1    2    0    0  0.23179280472E-01 -0.23247752190E-02  0.41779763025E-02  0.10202627418E+01  0.10199881976E+01 0.  0.
     999903    2    3    3    0    0 -0.12111288386E+00  0.24496361511E-01  0.26051942961E-01  0.12784015557E+00  0.19899730617E-01 0.  0.
         14    1    1    2    0    0 -0.23179280472E-01  0.23247752190E-02 -0.41779763025E-02  0.23667258164E-01  0.00000000000E+00 0.  1.
     999901    1    3    3    0    0  0.14429216434E+00 -0.26821136730E-01 -0.21873966658E-01  0.89242258627E+00  0.88000000000E+00 0. -1.
        -11    1    4    4    0    0 -0.10532374476E+00  0.27984788228E-01  0.22753971286E-01  0.11132943867E+00  0.51100000000E-03 0.  1.
         11    1    4    4    0    0 -0.15789139100E-01 -0.34884267176E-02  0.32979716747E-02  0.16510716903E-01  0.51100000000E-03 0. -1.
</event>
<event>
 8    1  0.1072332E+005  0.1043930E+01  0.7957747E-01            NaN
         13   -1    0    0    0    0  0.00000000000E+00  0.00000000000E+00  0.74505805969E-08  0.10566000000E+00  0.10566000000E+00 0.  1.
     999900   -1    0    0    0    0 -0.00000000000E+00 -0.00000000000E+00 -0.74505805969E-08  0.93827000000E+00  0.93827000000E+00 0. -1.
     999902    2    1    2    0    0  0.21319882515E-02 -0.23585805734E-01  0.12203313683E-02  0.10202166111E+01  0.10199409829E+01 0.  0.
     999903    2    3    3    0    0  0.38213332710E-01 -0.38249164355E-01  0.11823037570E+00  0.13161758565E+00  0.20530702403E-01 0.  0.
         14    1    1    2    0    0 -0.21319882515E-02  0.23585805734E-01 -0.12203313683E-02  0.23713388933E-01  0.00000000000E+00 0. -1.
     999901    1    3    3    0    0 -0.36081344458E-01  0.14663358621E-01 -0.11701004434E+00  0.88859902542E+00  0.88000000000E+00 0. -1.
        -11    1    4    4    0    0  0.36182465386E-01 -0.26688433019E-01  0.10296609863E+00  0.11235533742E+00  0.51100000000E-03 0. -1.
         11    1    4    4    0    0  0.20308673241E-02 -0.11560731336E-01  0.15264277072E-01  0.19262248224E-01  0.51100000000E-03 0.  1.
</event>
<event>
 8    1  0.1072332E+005  0.1043930E+01  0.7957747E-01            NaN
         13   -1    0    0    0    0  0.00000000000E+00  0.00000000000E+00  0.74505805969E-08  0.10566000000E+00  0.10566000000E+00 0. -1.
     999900   -1    0    0    0    0 -0.00000000000E+00 -0.00000000000E+00 -0.74505805969E-08  0.93827000000E+00  0.93827000000E+00 0. -1.
     999902    2    1    2    0    0 -0.20939091895E-03 -0.13225012074E-02 -0.24002753753E-01  0.10198899284E+01  0.10196065619E+01 0.  0.
     999903    2    3    3    0    0  0.38604914497E-03  0.12360787888E+00  0.34164163080E-01  0.12916474935E+00  0.15404079977E-01 0.  0.
         14    1    1    2    0    0  0.20939091895E-03  0.13225012074E-02  0.24002753753E-01  0.24040071583E-01  0.00000000000E+00 0. -1.
     999901    1    3    3    0    0 -0.59544006392E-03 -0.12493038009E+00 -0.58166916833E-01  0.89072517907E+00  0.88000000000E+00 0. -1.
        -11    1    4    4    0    0 -0.59381694432E-02  0.59718504867E-01  0.11703349323E-01  0.61145655498E-01  0.51100000000E-03 0.  1.
         11    1    4    4    0    0  0.63242185882E-02  0.63889374012E-01  0.22460813757E-01  0.68019093849E-01  0.51100000000E-03 0. -1.
</event>
<event>
 8    1  0.1072332E+005  0.1043930E+01  0.7957747E-01            NaN
         13   -1    0    0    0    0  0.00000000000E+00  0.00000000000E+00  0.74505805969E-08  0.10566000000E+00  0.10566000000E+00 0.  1.
     999900   -1    0    0    0    0 -0.00000000000E+00 -0.00000000000E+00 -0.74505805969E-08  0.93827000000E+00  0.93827000000E+00 0. -1.
     999902    2    1    2    0    0 -0.38370174300E-02  0.19652032230E-01  0.13176175737E-01  0.10199605052E+01  0.10196788198E+01 0.  0.
     999903    2    3    3    0    0 -0.25126338196E-01  0.10685882696E+00  0.73071493063E-01  0.13336831640E+00  0.19937977553E-01 0.  0.
         14    1    1    2    0    0  0.38370174300E-02 -0.19652032230E-01 -0.13176175737E-01  0.23969494791E-01  0.00000000000E+00 0. -1.
     999901    1    3    3    0    0  0.21289320766E-01 -0.87206794733E-01 -0.59895317326E-01  0.88659218881E+00  0.88000000000E+00 0. -1.
        -11    1    4    4    0    0 -0.10840009530E-01  0.24746490274E-01  0.26709667591E-01  0.37994237080E-01  0.51100000000E-03 0. -1.
         11    1    4    4    0    0 -0.14286328665E-01  0.82112336689E-01  0.46361825472E-01  0.95374079316E-01  0.51100000000E-03 0.  1.
</event>
<event>
 8    1  0.1072332E+005  0.1043930E+01  0.7957747E-01            NaN
         13   -1    0    0    0    0  0.00000000000E+00  0.00000000000E+00  0.74505805969E-08  0.10566000000E+00  0.10566000000E+00 0.  1.
     999900   -1    0    0    0    0 -0.00000000000E+00 -0.00000000000E+00 -0.74505805969E-08  0.93827000000E+00  0.93827000000E+00 0.  1.
     999902    2    1    2    0    0  0.10808839933E-01  0.20535473546E-02  0.20602885929E-01  0.10205734809E+01  0.10203061809E+01 0.  0.
     999903    2    3    3    0    0 -0.10223403750E+00 -0.51796212961E-01  0.59915605144E-01  0.13084094874E+00  0.19870280033E-01 0.  0.
         14    1    1    2    0    0 -0.10808839933E-01 -0.20535473546E-02 -0.20602885929E-01  0.23356519133E-01  0.00000000000E+00 0. -1.
     999901    1    3    3    0    0  0.11304287743E+00  0.53849760316E-01 -0.39312719216E-01  0.88973253212E+00  0.88000000000E+00 0. -1.
        -11    1    4    4    0    0 -0.58847055495E-01 -0.39968542899E-01  0.40461964344E-01  0.81840650300E-01  0.51100000000E-03 0.  1.
         11    1    4    4    0    0 -0.43386982002E-01 -0.11827670063E-01  0.19453640800E-01  0.49000298445E-01  0.51100000000E-03 0. -1.
</event>
<event>
 8    1  0.1072332E+005  0.1043930E+01  0.7957747E-01            NaN
         13   -1    0    0    0    0  0.00000000000E+00  0.00000000000E+00  0.74505805969E-08  0.10566000000E+00  0.10566000000E+00 0.  1.
     999900   -1    0    0    0    0 -0.00000000000E+00 -0.00000000000E+00 -0.74505805969E-08  0.93827000000E+00  0.93827000000E+00 0. -1.
     999902    2    1    2    0    0  0.34400491860E-02  0.12014093164E-01  0.64475381952E-02  0.10298678835E+01  0.10297718749E+01 0.  0.
     999903    2    3    3    0    0  0.12001474675E+00  0.36285060635E-01 -0.57856616419E-01  0.13952313883E+00  0.19979317891E-01 0.  0.
         14    1    1    2    0    0 -0.34400491860E-02 -0.12014093164E-01 -0.64475381952E-02  0.14062116545E-01  0.00000000000E+00 0. -1.
     999901    1    3    3    0    0 -0.11657469757E+00 -0.24270967472E-01  0.64304154615E-01  0.89034474462E+00  0.88000000000E+00 0. -1.
        -11    1    4    4    0    0  0.60894972871E-01  0.18094719621E-01 -0.18346790960E-01  0.66124749215E-01  0.51100000000E-03 0. -1.
         11    1    4    4    0    0  0.59119773880E-01  0.18190341014E-01 -0.39509825459E-01  0.73398389619E-01  0.51100000000E-03 0.  1.
</event>
<event>
 8    1  0.1072332E+005  0.1043930E+01  0.7957747E-01            NaN
         13   -1    0    0    0    0  0.00000000000E+00  0.00000000000E+00  0.74505805969E-08  0.10566000000E+00  0.10566000000E+00 0. -1.
     999900   -1    0    0    0    0 -0.00000000000E+00 -0.00000000000E+00 -0.74505805969E-08  0.93827000000E+00  0.93827000000E+00 0. -1.
     999902    2    1    2    0    0  0.16305217670E-01 -0.11794855568E-01 -0.11162937526E-01  0.10209171793E+01  0.10206577767E+01 0.  0.
     999903    2    3    3    0    0  0.56598454492E-01 -0.52697996816E-01 -0.10728093836E+00  0.13382345148E+00  0.20470772148E-01 0.  0.
         14    1    1    2    0    0 -0.16305217670E-01  0.11794855568E-01  0.11162937526E-01  0.23012820674E-01  0.00000000000E+00 0. -1.
     999901    1    3    3    0    0 -0.40293236821E-01  0.40903141248E-01  0.96118000831E-01  0.88709372784E+00  0.88000000000E+00 0.  1.
        -11    1    4    4    0    0  0.36847313329E-01 -0.42994487160E-01 -0.65384331714E-01  0.86496372065E-01  0.51100000000E-03 0.  1.
         11    1    4    4    0    0  0.19751141163E-01 -0.97035096563E-02 -0.41896606643E-01  0.47327079417E-01  0.51100000000E-03 0. -1.
</event>
<event>
 8    1  0.1072332E+005  0.1043930E+01  0.7957747E-01            NaN
         13   -1    0    0    0    0  0.00000000000E+00  0.00000000000E+00  0.74505805969E-08  0.10566000000E+00  0.10566000000E+00 0. -1.
     999900   -1    0    0    0    0 -0.00000000000E+00 -0.00000000000E+00 -0.74505805969E-08  0.93827000000E+00  0.93827000000E+00 0.  1.
     999902    2    1    2    0    0  0.45135402571E-02 -0.11475093964E-01  0.19859032432E-01  0.10205541365E+01  0.10202863884E+01 0.  0.
     999903    2    3    3    0    0  0.11105553920E+00 -0.64140949911E-01  0.23425737085E-01  0.13255773371E+00  0.23987358447E-01 0.  0.
         14    1    1    2    0    0 -0.45135402571E-02  0.11475093964E-01 -0.19859032432E-01  0.23375863541E-01  0.00000000000E+00 0.  1.
     999901    1    3    3    0    0 -0.10654199894E+00  0.52665855947E-01 -0.35667046527E-02  0.88799640275E+00  0.88000000000E+00 0.  1.
        -11    1    4    4    0    0  0.82165580634E-01 -0.36360445797E-01  0.10616793804E-01  0.90477854148E-01  0.51100000000E-03 0.  1.
         11    1    4    4    0    0  0.28889958563E-01 -0.27780504114E-01  0.12808943281E-01  0.42079879558E-01  0.51100000000E-03 0. -1.
</event>
<event>
 8    1  0.1072332E+005  0.1043930E+01  0.7957747E-01            NaN
         13   -1    0    0    0    0  0.00000000000E+00  0.00000000000E+00  0.74505805969E-08  0.10566000000E+00  0.10566000000E+00 0. -1.
     999900   -1    0    0    0    0 -0.00000000000E+00 -0.00000000000E+00 -0.74505805969E-08  0.93827000000E+00  0.93827000000E+00 0.  1.
     999902    2    1    2    0    0  0.97622133562E-02 -0.16378271361E-01 -0.15643816883E-01  0.10192667158E+01  0.10189682823E+01 0.  0.
     999903    2    3    3    0    0  0.85171130904E-01 -0.98359397591E-01 -0.12539655908E-01  0.13223963291E+00  0.20034592804E-01 0.  0.
         14    1    1    2    0    0 -0.97622133562E-02  0.16378271361E-01  0.15643816883E-01  0.24663284231E-01  0.00000000000E+00 0. -1.
     999901    1    3    3    0    0 -0.75408917548E-01  0.81981126231E-01 -0.31041609749E-02  0.88702708286E+00  0.88000000000E+00 0. -1.
        -11    1    4    4    0    0  0.31906225374E-01 -0.51835713616E-01 -0.76079290387E-02  0.61344030915E-01  0.51100000000E-03 0.  1.
         11    1    4    4    0    0  0.53264905531E-01 -0.46523683976E-01 -0.49317268696E-02  0.70895601999E-01  0.51100000000E-03 0. -1.
</event>
<event>
 8    1  0.1072332E+005  0.1043930E+01  0.7957747E-01            NaN
         13   -1    0    0    0    0  0.00000000000E+00  0.00000000000E+00  0.74505805969E-08  0.10566000000E+00  0.10566000000E+00 0. -1.
     999900   -1    0    0    0    0 -0.00000000000E+00 -0.00000000000E+00 -0.74505805969E-08  0.93827000000E+00  0.93827000000E+00 0.  1.
     999902    2    1    2    0    0 -0.67450817139E-02  0.34073753912E-02  0.22321410381E-01  0.10203640989E+01  0.10200919285E+01 0.  0.
     999903    2    3    3    0    0 -0.11178116597E+00 -0.14724892082E-01  0.67682108726E-01  0.13277244103E+00  0.18324894101E-01 0.  0.
         14    1    1    2    0    0  0.67450817139E-02 -0.34073753912E-02 -0.22321410381E-01  0.23565901124E-01  0.00000000000E+00 0.  1.
     999901    1    3    3    0    0  0.10503608426E+00  0.18132267474E-01 -0.45360698345E-01  0.88759165784E+00  0.88000000000E+00 0.  1.
        -11    1    4    4    0    0 -0.78655458096E-01 -0.21703119291E-02  0.49347565225E-01  0.92880755040E-01  0.51100000000E-03 0. -1.
         11    1    4    4    0    0 -0.33125707873E-01 -0.12554580153E-01  0.18334543501E-01  0.39891685992E-01  0.51100000000E-03 0.  1.
</event>
<event>
 8    1  0.1072332E+005  0.1043930E+01  0.7957747E-01            NaN
         13   -1    0    0    0    0  0.00000000000E+00  0.00000000000E+00  0.74505805969E-08  0.10566000000E+00  0.10566000000E+00 0. -1.
     999900   -1    0    0    0    0 -0.00000000000E+00 -0.00000000000E+00 -0.74505805969E-08  0.93827000000E+00  0.93827000000E+00 0.  1.
     999902    2    1    2    0    0 -0.10540538300E-01 -0.21437217020E-01  0.48010948239E-02  0.10195638815E+01  0.10192726822E+01 0.  0.
     999903    2    3    3    0    0  0.32077159300E-01  0.37940449560E-02  0.12444850590E+00  0.13008741313E+00  0.19798118855E-01 0.  0.
         14    1    1    2    0    0  0.10540538300E-01  0.21437217020E-01 -0.48010948239E-02  0.24366118540E-01  0.00000000000E+00 0.  1.
     999901    1    3    3    0    0 -0.42617697599E-01 -0.25231261976E-01 -0.11964741107E+00  0.88947646833E+00  0.88000000000E+00 0.  1.
        -11    1    4    4    0    0  0.13280197798E-01 -0.81630472928E-02  0.50201792500E-01  0.52568812864E-01  0.51100000000E-03 0.  1.
         11    1    4    4    0    0  0.18796961501E-01  0.11957092249E-01  0.74246713396E-01  0.77518600270E-01  0.51100000000E-03 0. -1.
</event>
<event>
 8    1  0.1072332E+005  0.1043930E+01  0.7957747E-01            NaN
         13   -1    0    0    0    0  0.00000000000E+00  0.00000000000E+00  0.74505805969E-08  0.10566000000E+00  0.10566000000E+00 0.  1.
     999900   -1    0    0    0    0 -0.00000000000E+00 -0.00000000000E+00 -0.74505805969E-08  0.93827000000E+00  0.93827000000E+00 0.  1.
     999902    2    1    2    0    0  0.28318787573E-02 -0.21946467418E-01 -0.16193268621E-02  0.10217424091E+01  0.10215014740E+01 0.  0.
     999903    2    3    3    0    0 -0.10141814575E+00 -0.44864411450E-01 -0.69960841031E-01  0.13266206274E+00  0.20155592547E-01 0.  0.
         14    1    1    2    0    0 -0.28318787573E-02  0.21946467418E-01  0.16193268621E-02  0.22187590877E-01  0.00000000000E+00 0.  1.
     999901    1    3    3    0    0  0.10425002450E+00  0.22917944031E-01  0.68341514169E-01  0.88908034638E+00  0.88000000000E+00 0. -1.
        -11    1    4    4    0    0 -0.17169053268E-01 -0.11558181715E-01 -0.21787318653E-01  0.30055221339E-01  0.51100000000E-03 0. -1.
         11    1    4    4    0    0 -0.84249092479E-01 -0.33306229735E-01 -0.48173522378E-01  0.10260684140E+00  0.51100000000E-03 0.  1.
</event>
<event>
 8    1  0.1072332E+005  0.1043930E+01  0.7957747E-01            NaN
         13   -1    0    0    0    0  0.00000000000E+00  0.00000000000E+00  0.74505805969E-08  0.10566000000E+00  0.10566000000E+00 0.  1.
     999900   -1    0    0    0    0 -0.00000000000E+00 -0.00000000000E+00 -0.74505805969E-08  0.93827000000E+00  0.93827000000E+00 0. -1.
     999902    2    1    2    0    0 -0.11772788024E-01 -0.10443395870E-01  0.18308052388E-01  0.10197877582E+01  0.10195019490E+01 0.  0.
     999903    2    3    3    0    0  0.56315707876E-01  0.75527507800E-01 -0.82897440188E-01  0.12722426398E+00  0.20932376056E-01 0.  0.
         14    1    1    2    0    0  0.11772788024E-01  0.10443395870E-01 -0.18308052388E-01  0.24142241764E-01  0.00000000000E+00 0. -1.
     999901    1    3    3    0    0 -0.68088495900E-01 -0.85970903670E-01  0.10120549258E+00  0.89256349426E+00  0.88000000000E+00 0.  1.
        -11    1    4    4    0    0  0.52453407444E-01  0.76235815898E-01 -0.79853055233E-01  0.12222942006E+00  0.51100000000E-03 0.  1.
         11    1    4    4    0    0  0.38623004320E-02 -0.70830809763E-03 -0.30443849544E-02  0.49948439154E-02  0.51100000000E-03 0. -1.
</event>
<event>
 8    1  0.1072332E+005  0.1043930E+01  0.7957747E-01            NaN
         13   -1    0    0    0    0  0.00000000000E+00  0.00000000000E+00  0.74505805969E-08  0.10566000000E+00  0.10566000000E+00 0.  1.
     999900   -1    0    0    0    0 -0.00000000000E+00 -0.00000000000E+00 -0.74505805969E-08  0.93827000000E+00  0.93827000000E+00 0.  1.
     999902    2    1    2    0    0  0.14021554667E-01 -0.17879993596E-01 -0.14692958361E-02  0.10211603492E+01  0.10209064609E+01 0.  0.
     999903    2    3    3    0    0 -0.29569802514E-01  0.49998772998E-01 -0.11474650172E+00  0.13023978107E+00  0.20527795656E-01 0.  0.
         14    1    1    2    0    0 -0.14021554667E-01  0.17879993596E-01  0.14692958361E-02  0.22769650778E-01  0.00000000000E+00 0.  1.
     999901    1    3    3    0    0  0.43591357180E-01 -0.67878766595E-01  0.11327720589E+00  0.89092056815E+00  0.88000000000E+00 0. -1.
        -11    1    4    4    0    0 -0.10574609209E-01  0.34157312228E-02 -0.24768305182E-01  0.27151788933E-01  0.51100000000E-03 0. -1.
         11    1    4    4    0    0 -0.18995193305E-01  0.46583041775E-01 -0.89978196542E-01  0.10308799214E+00  0.51100000000E-03 0.  1.
</event>
<event>
 8    1  0.1072332E+005  0.1043930E+01  0.7957747E-01            NaN
         13   -1    0    0    0    0  0.00000000000E+00  0.00000000000E+00  0.74505805969E-08  0.10566000000E+00  0.10566000000E+00 0. -1.
     999900   -1    0    0    0    0 -0.00000000000E+00 -0.00000000000E+00 -0.74505805969E-08  0.93827000000E+00  0.93827000000E+00 0. -1.
     999902    2    1    2    0    0 -0.22126519971E-01  0.82766264928E-02  0.17301404911E-02  0.10202428976E+01  0.10199678874E+01 0.  0.
     999903    2    3    3    0    0  0.66999278074E-01 -0.10134430582E+00  0.36804592068E-01  0.12828416887E+00  0.18511574769E-01 0.  0.
         14    1    1    2    0    0  0.22126519971E-01 -0.82766264928E-02 -0.17301404911E-02  0.23687102361E-01  0.00000000000E+00 0.  1.
     999901    1    3    3    0    0 -0.89125798045E-01  0.10962093231E+00 -0.35074451577E-01  0.89195872877E+00  0.88000000000E+00 0.  1.
        -11    1    4    4    0    0  0.26648233462E-01 -0.57047108514E-01  0.19252547910E-01  0.65843926512E-01  0.51100000000E-03 0. -1.
         11    1    4    4    0    0  0.40351044612E-01 -0.44297197305E-01  0.17552044158E-01  0.62440242356E-01  0.51100000000E-03 0.  1.
</event>
<event>
 8    1  0.1072332E+005  0.1043930E+01  0.7957747E-01            NaN
         13   -1    0    0    0    0  0.00000000000E+00  0.00000000000E+00  0.74505805969E-08  0.10566000000E+00  0.10566000000E+00 0. -1.
     999900   -1    0    0    0    0 -0.00000000000E+00 -0.00000000000E+00 -0.74505805969E-08  0.93827000000E+00  0.93827000000E+00 0. -1.
     999902    2    1    2    0    0 -0.88479927119E-02 -0.54461941227E-02  0.23097638196E-01  0.10186031586E+01  0.10182882430E+01 0.  0.
     999903    2    3    3    0    0 -0.90365350220E-01  0.58974219171E-01 -0.65756104738E-01  0.12804712057E+00  0.20696490740E-01 0.  0.
         14    1    1    2    0    0  0.88479927119E-02  0.54461941227E-02 -0.23097638196E-01  0.25326841408E-01  0.00000000000E+00 0.  1.
     999901    1    3    3    0    0  0.81517357508E-01 -0.64420413294E-01  0.88853742934E-01  0.89055603802E+00  0.88000000000E+00 0.  1.
        -11    1    4    4    0    0 -0.30442578996E-01  0.29444838415E-01 -0.32704800103E-01  0.53512747976E-01  0.51100000000E-03 0. -1.
         11    1    4    4    0    0 -0.59922771223E-01  0.29529380756E-01 -0.33051304635E-01  0.74534372594E-01  0.51100000000E-03 0.  1.
</event>
<event>
 8    1  0.1072332E+005  0.1043930E+01  0.7957747E-01            NaN
         13   -1    0    0    0    0  0.00000000000E+00  0.00000000000E+00  0.74505805969E-08  0.10566000000E+00  0.10566000000E+00 0. -1.
     999900   -1    0    0    0    0 -0.00000000000E+00 -0.00000000000E+00 -0.74505805969E-08  0.93827000000E+00  0.93827000000E+00 0.  1.
     999902    2    1    2    0    0 -0.74276055049E-02 -0.16363504278E-01  0.16534370115E-01  0.10195103565E+01  0.10192178609E+01 0.  0.
     999903    2    3    3    0    0 -0.41785755167E-01 -0.83687049195E-01 -0.88220753625E-01  0.13007987682E+00  0.19705365926E-01 0.  0.
         14    1    1    2    0    0  0.74276055049E-02  0.16363504278E-01 -0.16534370115E-01  0.24419643545E-01  0.00000000000E+00 0. -1.
     999901    1    3    3    0    0  0.34358149663E-01  0.67323544917E-01  0.10475512374E+00  0.88943047963E+00  0.88000000000E+00 0. -1.
        -11    1    4    4    0    0 -0.17540808526E-01 -0.28332231827E-01 -0.43993757757E-01  0.55191549776E-01  0.51100000000E-03 0.  1.
         11    1    4    4    0    0 -0.24244946641E-01 -0.55354817367E-01 -0.44226995867E-01  0.74888327047E-01  0.51100000000E-03 0. -1.
</event>
<event>
 8    1  0.1072332E+005  0.1043930E+01  0.7957747E-01            NaN
         13   -1    0    0    0    0  0.00000000000E+00  0.00000000000E+00  0.74505805969E-08  0.10566000000E+00  0.10566000000E+00 0. -1.
     999900   -1    0    0    0    0 -0.00000000000E+00 -0.00000000000E+00 -0.74505805969E-08  0.93827000000E+00  0.93827000000E+00 0.  1.
     999902    2    1    2    0    0  0.10934275801E-01 -0.20242967620E-01  0.74383588008E-02  0.10197501467E+01  0.10194634355E+01 0.  0.
     999903    2    3    3    0    0  0.27904675761E-01  0.76545646913E-02 -0.12420086009E+00  0.12935969820E+00  0.21698262182E-01 0.  0.
         14    1    1    2    0    0 -0.10934275801E-01  0.20242967620E-01 -0.74383588008E-02  0.24179853329E-01  0.00000000000E+00 0.  1.
     999901    1    3    3    0    0 -0.16970399960E-01 -0.27897532311E-01  0.13163921889E+00  0.89039044847E+00  0.88000000000E+00 0. -1.
        -11    1    4    4    0    0  0.75091187440E-02  0.12659681441E-01 -0.41628324631E-01  0.44156912608E-01  0.51100000000E-03 0. -1.
         11    1    4    4    0    0  0.20395557017E-01 -0.50051167497E-02 -0.82572535455E-01  0.85202785590E-01  0.51100000000E-03 0.  1.
</event>
<event>
 8    1  0.1072332E+005  0.1043930E+01  0.7957747E-01            NaN
         13   -1    0    0    0    0  0.00000000000E+00  0.00000000000E+00  0.74505805969E-08  0.10566000000E+00  0.10566000000E+00 0.  1.
     999900   -1    0    0    0    0 -0.00000000000E+00 -0.00000000000E+00 -0.74505805969E-08  0.93827000000E+00  0.93827000000E+00 0.  1.
     999902    2    1    2    0    0 -0.59297854559E-02  0.33919568154E-01  0.68073626829E-02  0.10088295777E+01  0.10082187645E+01 0.  0.
     999903    2    3    3    0    0  0.44076177207E-01  0.41203065258E-03 -0.10884763137E+00  0.11922324396E+00  0.20579015515E-01 0.  0.
         14    1    1    2    0    0  0.59297854559E-02 -0.33919568154E-01 -0.68073626829E-02  0.35100422305E-01  0.00000000000E+00 0. -1.
     999901    1    3    3    0    0 -0.50005962662E-01  0.33507537501E-01  0.11565499405E+00  0.88960633373E+00  0.88000000000E+00 0. -1.
        -11    1    4    4    0    0  0.69092261738E-02 -0.76689681593E-02 -0.18430782825E-01  0.21130673333E-01  0.51100000000E-03 0. -1.
         11    1    4    4    0    0  0.37166951033E-01  0.80809988119E-02 -0.90416848543E-01  0.98092570628E-01  0.51100000000E-03 0.  1.
</event>
<event>
 8    1  0.1072332E+005  0.1043930E+01  0.7957747E-01            NaN
         13   -1    0    0    0    0  0.00000000000E+00  0.00000000000E+00  0.74505805969E-08  0.10566000000E+00  0.10566000000E+00 0. -1.
     999900   -1    0    0    0    0 -0.00000000000E+00 -0.00000000000E+00 -0.74505805969E-08  0.93827000000E+00  0.93827000000E+00 0.  1.
     999902    2    1    2    0    0 -0.14040519161E-01 -0.27085483967E-02 -0.19052411119E-01  0.10201084387E+01  0.10198302604E+01 0.  0.
     999903    2    3    3    0    0  0.12611156910E+00 -0.87483845083E-02  0.12635325701E-01  0.12843405861E+00  0.18841280864E-01 0.  0.
         14    1    1    2    0    0  0.14040519161E-01  0.27085483967E-02  0.19052411119E-01  0.23821561288E-01  0.00000000000E+00 0. -1.
     999901    1    3    3    0    0 -0.14015208826E+00  0.60398361116E-02 -0.31687736820E-01  0.89167438010E+00  0.88000000000E+00 0. -1.
        -11    1    4    4    0    0  0.99889275225E-01 -0.31640171274E-02  0.16655983294E-01  0.10131910585E+00  0.51100000000E-03 0. -1.
         11    1    4    4    0    0  0.26222293870E-01 -0.55843673809E-02 -0.40206575930E-02  0.27114952763E-01  0.51100000000E-03 0.  1.
</event>
<event>
 8    1  0.1072332E+005  0.1043930E+01  0.7957747E-01            NaN
         13   -1    0    0    0    0  0.00000000000E+00  0.00000000000E+00  0.74505805969E-08  0.10566000000E+00  0.10566000000E+00 0. -1.
     999900   -1    0    0    0    0 -0.00000000000E+00 -0.00000000000E+00 -0.74505805969E-08  0.93827000000E+00  0.93827000000E+00 0.  1.
     999902    2    1    2    0    0 -0.13158363870E-01 -0.14870741600E-01 -0.15405610285E-01  0.10187980617E+01  0.10184880344E+01 0.  0.
     999903    2    3    3    0    0  0.64938063457E-01  0.54142396272E-01  0.90307252016E-01  0.12636482921E+00  0.25774389128E-01 0.  0.
         14    1    1    2    0    0  0.13158363870E-01  0.14870741600E-01  0.15405610285E-01  0.25131938320E-01  0.00000000000E+00 0. -1.
     999901    1    3    3    0    0 -0.78096427328E-01 -0.69013137872E-01 -0.10571286230E+00  0.89243323247E+00  0.88000000000E+00 0.  1.
        -11    1    4    4    0    0  0.32156154084E-01  0.10789430438E-01  0.31619930745E-01  0.46373604518E-01  0.51100000000E-03 0. -1.
         11    1    4    4    0    0  0.32781909373E-01  0.43352965835E-01  0.58687321271E-01  0.79991224692E-01  0.51100000000E-03 0.  1.
</event>
<event>
 8    1  0.1072332E+005  0.1043930E+01  0.7957747E-01            NaN
         13   -1    0    0    0    0  0.00000000000E+00  0.00000000000E+00  0.74505805969E-08  0.10566000000E+00  0.10566000000E+00 0.  1.
     999900   -1    0    0    0    0 -0.00000000000E+00 -0.00000000000E+00 -0.74505805969E-08  0.93827000000E+00  0.93827000000E+00 0. -1.
     999902    2    1    2    0    0 -0.20147781706E-01 -0.11275780217E-01  0.51721133069E-02  0.10202693347E+01  0.10199949452E+01 0.  0.
     999903    2    3    3    0    0  0.12268825950E+00  0.63130823007E-02 -0.29238142084E-01  0.12791538673E+00  0.20376780488E-01 0.  0.
         14    1    1    2    0    0  0.20147781706E-01  0.11275780217E-01 -0.51721133069E-02  0.23660665317E-01  0.00000000000E+00 0. -1.
     999901    1    3    3    0    0 -0.14283604120E+00 -0.17588862518E-01  0.34410255390E-01  0.89235394795E+00  0.88000000000E+00 0. -1.
        -11    1    4    4    0    0  0.37722864319E-01  0.73584893578E-02 -0.17137921185E-01  0.42084811056E-01  0.51100000000E-03 0.  1.
         11    1    4    4    0    0  0.84965395179E-01 -0.10454070570E-02 -0.12100220899E-01  0.85830575674E-01  0.51100000000E-03 0. -1.
</event>
<event>
 8    1  0.1072332E+005  0.1043930E+01  0.7957747E-01            NaN
         13   -1    0    0    0    0  0.00000000000E+00  0.00000000000E+00  0.74505805969E-08  0.10566000000E+00  0.10566000000E+00 0. -1.
     999900   -1    0    0    0    0 -0.00000000000E+00 -0.00000000000E+00 -0.74505805969E-08  0.93827000000E+00  0.93827000000E+00 0.  1.
     999902    2    1    2    0    0 -0.10946432535E-01 -0.59024711303E-02  0.21009873477E-01  0.10195152845E+01  0.10192229084E+01 0.  0.
     999903    2    3    3    0    0 -0.79344950032E-01 -0.10263184332E+00 -0.33236667072E-03  0.13132024967E+00  0.20395615829E-01 0.  0.
         14    1    1    2    0    0  0.10946432535E-01  0.59024711303E-02 -0.21009873477E-01  0.24414715526E-01  0.00000000000E+00 0. -1.
     999901    1    3    3    0    0  0.68398517497E-01  0.96729372195E-01  0.21342240148E-01  0.88819503481E+00  0.88000000000E+00 0. -1.
        -11    1    4    4    0    0 -0.66207818563E-01 -0.71694317523E-01  0.21490134089E-02  0.97613676212E-01  0.51100000000E-03 0.  1.
         11    1    4    4    0    0 -0.13137131470E-01 -0.30937525801E-01 -0.24813800797E-02  0.33706573455E-01  0.51100000000E-03 0. -1.
</event>
<event>
 8    1  0.1072332E+005  0.1043930E+01  0.7957747E-01            NaN
         13   -1    0    0    0    0  0.00000000000E+00  0.00000000000E+00  0.74505805969E-08  0.10566000000E+00  0.10566000000E+00 0. -1.
     999900   -1    0    0    0    0 -0.00000000000E+00 -0.00000000000E+00 -0.74505805969E-08  0.93827000000E+00  0.93827000000E+00 0. -1.
     999902    2    1    2    0    0 -0.15879362729E-01 -0.11787058796E-01  0.43704153149E-02  0.10236768658E+01  0.10234764951E+01 0.  0.
     999903    2    3    3    0    0 -0.11926610310E+00 -0.35452311780E-01 -0.50171142965E-01  0.13563202239E+00  0.19940715954E-01 0.  0.
         14    1    1    2    0    0  0.15879362729E-01  0.11787058796E-01 -0.43704153149E-02  0.20253134220E-01  0.00000000000E+00 0. -1.
     999901    1    3    3    0    0  0.10338674037E+00  0.23665252984E-01  0.54541558280E-01  0.88804484339E+00  0.88000000000E+00 0. -1.
        -11    1    4    4    0    0 -0.45413523823E-01 -0.43595821986E-02 -0.22367643058E-01  0.50813056195E-01  0.51100000000E-03 0.  1.
         11    1    4    4    0    0 -0.73852579279E-01 -0.31092729581E-01 -0.27803499907E-01  0.84818966199E-01  0.51100000000E-03 0. -1.
</event>
<event>
 8    1  0.1072332E+005  0.1043930E+01  0.7957747E-01            NaN
         13   -1    0    0    0    0  0.00000000000E+00  0.00000000000E+00  0.74505805969E-08  0.10566000000E+00  0.10566000000E+00 0. -1.
     999900   -1    0    0    0    0 -0.00000000000E+00 -0.00000000000E+00 -0.74505805969E-08  0.93827000000E+00  0.93827000000E+00 0. -1.
     999902    2    1    2    0    0 -0.14159732328E-01 -0.19411628534E-01 -0.19432691364E-02  0.10198242821E+01  0.10195393473E+01 0.  0.
     999903    2    3    3    0    0  0.98665276311E-01  0.24904990406E-01 -0.76177535950E-01  0.12841855421E+00  0.18254116958E-01 0.  0.
         14    1    1    2    0    0  0.14159732328E-01  0.19411628534E-01  0.19432691364E-02  0.24105717930E-01  0.00000000000E+00 0. -1.
     999901    1    3    3    0    0 -0.11282500864E+00 -0.44316618940E-01  0.74234266814E-01  0.89140572786E+00  0.88000000000E+00 0.  1.
        -11    1    4    4    0    0  0.29451258835E-01 -0.16470210451E-03 -0.26375656030E-01  0.39539096167E-01  0.51100000000E-03 0.  1.
         11    1    4    4    0    0  0.69214017476E-01  0.25069692510E-01 -0.49801879921E-01  0.88879458045E-01  0.51100000000E-03 0. -1.
</event>
<event>
 8    1  0.1072332E+005  0.1043930E+01  0.7957747E-01            NaN
         13   -1    0    0    0    0  0.00000000000E+00  0.00000000000E+00  0.74505805969E-08  0.10566000000E+00  0.10566000000E+00 0. -1.
     999900   -1    0    0    0    0 -0.00000000000E+00 -0.00000000000E+00 -0.74505805969E-08  0.93827000000E+00  0.93827000000E+00 0.  1.
     999902    2    1    2    0    0 -0.23858976054E-01  0.20141017923E-02  0.15704373128E-02  0.10199347168E+01  0.10196524177E+01 0.  0.
     999903    2    3    3    0    0 -0.12388789994E+00  0.78383640105E-02 -0.43886609429E-01  0.13308295308E+00  0.19374886094E-01 0.  0.
         14    1    1    2    0    0  0.23858976054E-01 -0.20141017923E-02 -0.15704373128E-02  0.23995283239E-01  0.00000000000E+00 0. -1.
     999901    1    3    3    0    0  0.10002892389E+00 -0.58242622182E-02  0.45457046742E-01  0.88685176368E+00  0.88000000000E+00 0.  1.
        -11    1    4    4    0    0 -0.10187188313E+00  0.65355893576E-02 -0.43644544545E-01  0.11102117766E+00  0.51100000000E-03 0.  1.
         11    1    4    4    0    0 -0.22016016813E-01  0.13027746529E-02 -0.24206488398E-03  0.22061775417E-01  0.51100000000E-03 0. -1.
</event>
<event>
 8    1  0.1072332E+005  0.1043930E+01  0.7957747E-01            NaN
         13   -1    0    0    0    0  0.00000000000E+00  0.00000000000E+00  0.74505805969E-08  0.10566000000E+00  0.10566000000E+00 0. -1.
     999900   -1    0    0    0    0 -0.00000000000E+00 -0.00000000000E+00 -0.74505805969E-08  0.93827000000E+00  0.93827000000E+00 0. -1.
     999902    2    1    2    0    0 -0.14329131702E-01 -0.29430256695E-04  0.18976448321E-01  0.10201512180E+01  0.10198740497E+01 0.  0.
     999903    2    3    3    0    0 -0.90186234609E-01 -0.84986341332E-01  0.42609863186E-01  0.13249671592E+00  0.19584283577E-01 0.  0.
         14    1    1    2    0    0  0.14329131702E-01  0.29430256695E-04 -0.18976448321E-01  0.23778781978E-01  0.00000000000E+00 0.  1.
     999901    1    3    3    0    0  0.75857102908E-01  0.84956911076E-01 -0.23633414864E-01  0.88765450210E+00  0.88000000000E+00 0. -1.
        -11    1    4    4    0    0 -0.75332849115E-01 -0.78824085772E-01  0.33798570193E-01  0.11415287610E+00  0.51100000000E-03 0. -1.
         11    1    4    4    0    0 -0.14853385494E-01 -0.61622555602E-02  0.88112929925E-02  0.18343839822E-01  0.51100000000E-03 0.  1.
</event>
<event>
 8    1  0.1072332E+005  0.1043930E+01  0.7957747E-01            NaN
         13   -1    0    0    0    0  0.00000000000E+00  0.00000000000E+00  0.74505805969E-08  0.10566000000E+00  0.10566000000E+00 0.  1.
     999900   -1    0    0    0    0 -0.00000000000E+00 -0.00000000000E+00 -0.74505805969E-08  0.93827000000E+00  0.93827000000E+00 0.  1.
     999902    2    1    2    0    0  0.33829585268E-02  0.19565213402E-01 -0.13714300355E-01  0.10197986093E+01  0.10195130600E+01 0.  0.
     999903    2    3    3    0    0  0.16339058270E-01 -0.10249485893E+00 -0.74413935236E-01  0.12920837385E+00  0.19626746620E-01 0.  0.
         14    1    1    2    0    0 -0.33829585268E-02 -0.19565213402E-01  0.13714300355E-01  0.24131390720E-01  0.00000000000E+00 0.  1.
     999901    1    3    3    0    0 -0.12956099743E-01  0.12206007233E+00  0.60699634882E-01  0.89059023543E+00  0.88000000000E+00 0.  1.
        -11    1    4    4    0    0  0.96070046604E-02 -0.75833325662E-01 -0.64353332941E-01  0.99922972339E-01  0.51100000000E-03 0.  1.
         11    1    4    4    0    0  0.67320536099E-02 -0.26661533264E-01 -0.10060602295E-01  0.29285401506E-01  0.51100000000E-03 0. -1.
</event>
<event>
 8    1  0.1072332E+005  0.1043930E+01  0.7957747E-01            NaN
         13   -1    0    0    0    0  0.00000000000E+00  0.00000000000E+00  0.74505805969E-08  0.10566000000E+00  0.10566000000E+00 0. -1.
     999900   -1    0    0    0    0 -0.00000000000E+00 -0.00000000000E+00 -0.74505805969E-08  0.93827000000E+00  0.93827000000E+00 0. -1.
     999902    2    1    2    0    0  0.11917690678E-01  0.37834179914E-02  0.18560106172E-01  0.10215509217E+01  0.10213057635E+01 0.  0.
     999903    2    3    3    0    0 -0.56926632234E-01 -0.84846595227E-01  0.81688580259E-01  0.13218034415E+00  0.18948167594E-01 0.  0.
         14    1    1    2    0    0 -0.11917690678E-01 -0.37834179914E-02 -0.18560106172E-01  0.22379078264E-01  0.00000000000E+00 0.  1.
     999901    1    3    3    0    0  0.68844322912E-01  0.88630013218E-01 -0.63128474087E-01  0.88937057759E+00  0.88000000000E+00 0. -1.
        -11    1    4    4    0    0 -0.15266959500E-01 -0.11773236457E-01  0.20621832631E-01  0.28234911920E-01  0.51100000000E-03 0. -1.
         11    1    4    4    0    0 -0.41659672734E-01 -0.73073358770E-01  0.61066747628E-01  0.10394543223E+00  0.51100000000E-03 0.  1.
</event>
<event>
 8    1  0.1072332E+005  0.1043930E+01  0.7957747E-01            NaN
         13   -1    0    0    0    0  0.00000000000E+00  0.00000000000E+00  0.74505805969E-08  0.10566000000E+00  0.10566000000E+00 0.  1.
     999900   -1    0    0    0    0 -0.00000000000E+00 -0.00000000000E+00 -0.74505805969E-08  0.93827000000E+00  0.93827000000E+00 0.  1.
     999902    2    1    2    0    0 -0.44140811856E-03 -0.28299452961E-01 -0.70873724877E-02  0.10147532159E+01  0.10143336751E+01 0.  0.
     999903    2    3    3    0    0 -0.51898016401E-01  0.24979172866E-01 -0.10980073410E+00  0.12568829753E+00  0.20590865513E-01 0.  0.
         14    1    1    2    0    0  0.44140811856E-03  0.28299452961E-01  0.70873724877E-02  0.29176784056E-01  0.00000000000E+00 0. -1.
     999901    1    3    3    0    0  0.51456608283E-01 -0.53278625827E-01  0.10271336161E+00  0.88906491842E+00  0.88000000000E+00 0. -1.
        -11    1    4    4    0    0 -0.15710096688E-01  0.98959071615E-02 -0.56807942793E-01  0.59767379078E-01  0.51100000000E-03 0. -1.
         11    1    4    4    0    0 -0.36187919713E-01  0.15083265704E-01 -0.52992791309E-01  0.65920918449E-01  0.51100000000E-03 0.  1.
</event>
<event>
 8    1  0.1072332E+005  0.1043930E+01  0.7957747E-01            NaN
         13   -1    0    0    0    0  0.00000000000E+00  0.00000000000E+00  0.74505805969E-08  0.10566000000E+00  0.10566000000E+00 0.  1.
     999900   -1    0    0    0    0 -0.00000000000E+00 -0.00000000000E+00 -0.74505805969E-08  0.93827000000E+00  0.93827000000E+00 0. -1.
     999902    2    1    2    0    0  0.54175577680E-02 -0.19497092064E-01  0.12190885262E-01  0.10203057706E+01  0.10200322354E+01 0.  0.
     999903    2    3    3    0    0  0.50286710925E-01 -0.41906091012E-01 -0.11130863670E+00  0.13026782980E+00  0.17181999799E-01 0.  0.
         14    1    1    2    0    0 -0.54175577680E-02  0.19497092064E-01 -0.12190885262E-01  0.23624229397E-01  0.00000000000E+00 0. -1.
     999901    1    3    3    0    0 -0.44869153157E-01  0.22408998947E-01  0.12349952197E+00  0.89003794080E+00  0.88000000000E+00 0.  1.
        -11    1    4    4    0    0  0.23800739608E-01 -0.19641551952E-01 -0.69157257382E-01  0.75731454089E-01  0.51100000000E-03 0.  1.
         11    1    4    4    0    0  0.26485971317E-01 -0.22264539060E-01 -0.42151379322E-01  0.54536375713E-01  0.51100000000E-03 0. -1.
</event>
<event>
 8    1  0.1072332E+005  0.1043930E+01  0.7957747E-01            NaN
         13   -1    0    0    0    0  0.00000000000E+00  0.00000000000E+00  0.74505805969E-08  0.10566000000E+00  0.10566000000E+00 0. -1.
     999900   -1    0    0    0    0 -0.00000000000E+00 -0.00000000000E+00 -0.74505805969E-08  0.93827000000E+00  0.93827000000E+00 0. -1.
     999902    2    1    2    0    0  0.18279392702E-01 -0.94470104280E-02  0.10985688504E-01  0.10206047443E+01  0.10203381677E+01 0.  0.
     999903    2    3    3    0    0  0.55586533915E-01 -0.96735351043E-01 -0.67468453272E-01  0.13202940724E+00  0.20788970516E-01 0.  0.
         14    1    1    2    0    0 -0.18279392702E-01  0.94470104280E-02 -0.10985688504E-01  0.23325255743E-01  0.00000000000E+00 0.  1.
     999901    1    3    3    0    0 -0.37307141213E-01  0.87288340615E-01  0.78454141776E-01  0.88857533702E+00  0.88000000000E+00 0.  1.
        -11    1    4    4    0    0  0.23916094153E-01 -0.23554325483E-01 -0.16675752944E-01  0.37485032556E-01  0.51100000000E-03 0.  1.
         11    1    4    4    0    0  0.31670439762E-01 -0.73181025560E-01 -0.50792700328E-01  0.94544374684E-01  0.51100000000E-03 0. -1.
</event>
<event>
 8    1  0.1072332E+005  0.1043930E+01  0.7957747E-01            NaN
         13   -1    0    0    0    0  0.00000000000E+00  0.00000000000E+00  0.74505805969E-08  0.10566000000E+00  0.10566000000E+00 0. -1.
     999900   -1    0    0    0    0 -0.00000000000E+00 -0.00000000000E+00 -0.74505805969E-08  0.93827000000E+00  0.93827000000E+00 0.  1.
     999902    2    1    2    0    0 -0.12774141329E-01 -0.18802726604E-01 -0.25786849419E-01  0.10095543863E+01  0.10089689669E+01 0.  0.
     999903    2    3    3    0    0  0.75304601108E-01  0.75443634942E-01 -0.50986057351E-01  0.11979304660E+00  0.19704592594E-01 0.  0.
         14    1    1    2    0    0  0.12774141329E-01  0.18802726604E-01  0.25786849419E-01  0.34375613702E-01  0.00000000000E+00 0. -1.
     999901    1    3    3    0    0 -0.88078742436E-01 -0.94246361546E-01  0.25199207932E-01  0.88976133969E+00  0.88000000000E+00 0. -1.
        -11    1    4    4    0    0  0.32611090063E-01  0.19413949341E-01 -0.18152819431E-01  0.42073395375E-01  0.51100000000E-03 0. -1.
         11    1    4    4    0    0  0.42693511044E-01  0.56029685600E-01 -0.32833237920E-01  0.77719651229E-01  0.51100000000E-03 0.  1.
</event>
<event>
 8    1  0.1072332E+005  0.1043930E+01  0.7957747E-01            NaN
         13   -1    0    0    0    0  0.00000000000E+00  0.00000000000E+00  0.74505805969E-08  0.10566000000E+00  0.10566000000E+00 0.  1.
     999900   -1    0    0    0    0 -0.00000000000E+00 -0.00000000000E+00 -0.74505805969E-08  0.93827000000E+00  0.93827000000E+00 0.  1.
     999902    2    1    2    0    0  0.23453853457E-01 -0.30920789614E-02 -0.21514310635E-02  0.10201755720E+01  0.10198989778E+01 0.  0.
     999903    2    3    3    0    0 -0.82505599780E-01 -0.53034857586E-01  0.80668911459E-01  0.12855856004E+00  0.19998999220E-01 0.  0.
         14    1    1    2    0    0 -0.23453853457E-01  0.30920789614E-02  0.21514310635E-02  0.23754428006E-01  0.00000000000E+00 0.  1.
     999901    1    3    3    0    0  0.10595945324E+00  0.49942778624E-01 -0.82820342522E-01  0.89161701195E+00  0.88000000000E+00 0.  1.
        -11    1    4    4    0    0 -0.11133487296E-01 -0.10117518238E-01  0.45369272179E-02  0.15721435819E-01  0.51100000000E-03 0.  1.
         11    1    4    4    0    0 -0.71372112485E-01 -0.42917339348E-01  0.76131984241E-01  0.11283712422E+00  0.51100000000E-03 0. -1.
</event>
<event>
 8    1  0.1072332E+005  0.1043930E+01  0.7957747E-01            NaN
         13   -1    0    0    0    0  0.00000000000E+00  0.00000000000E+00  0.74505805969E-08  0.10566000000E+00  0.10566000000E+00 0.  1.
     999900   -1    0    0    0    0 -0.00000000000E+00 -0.00000000000E+00 -0.74505805969E-08  0.93827000000E+00  0.93827000000E+00 0. -1.
     999902    2    1    2    0    0  0.17267319425E-01  0.15163694168E-01  0.50730045935E-04  0.10209495624E+01  0.10206908976E+01 0.  0.
     999903    2    3    3    0    0  0.49906107612E-01  0.31397890113E-01 -0.11691758098E+00  0.13246184415E+00  0.19999308276E-01 0.  0.
         14    1    1    2    0    0 -0.17267319425E-01 -0.15163694168E-01 -0.50730045935E-04  0.22980437648E-01  0.00000000000E+00 0.  1.
     999901    1    3    3    0    0 -0.32638788187E-01 -0.16234195945E-01  0.11696831103E+00  0.88848771820E+00  0.88000000000E+00 0.  1.
        -11    1    4    4    0    0  0.40097627338E-01  0.32171397117E-01 -0.88060409870E-01  0.10196918857E+00  0.51100000000E-03 0. -1.
         11    1    4    4    0    0  0.98084802744E-02 -0.77350700472E-03 -0.28857171115E-01  0.30492655577E-01  0.51100000000E-03 0.  1.
</event>
<event>
 8    1  0.1072332E+005  0.1043930E+01  0.7957747E-01            NaN
         13   -1    0    0    0    0  0.00000000000E+00  0.00000000000E+00  0.74505805969E-08  0.10566000000E+00  0.10566000000E+00 0.  1.
     999900   -1    0    0    0    0 -0.00000000000E+00 -0.00000000000E+00 -0.74505805969E-08  0.93827000000E+00  0.93827000000E+00 0. -1.
     999902    2    1    2    0    0  0.49685311922E-02 -0.19326727691E-01  0.12562522008E-01  0.10203498035E+01  0.10200772990E+01 0.  0.
     999903    2    3    3    0    0 -0.63869752974E-02 -0.35249162843E-02  0.13056446709E+00  0.13226022259E+00  0.19810803196E-01 0.  0.
         14    1    1    2    0    0 -0.49685311922E-02  0.19326727691E-01 -0.12562522008E-01  0.23580196451E-01  0.00000000000E+00 0.  1.
     999901    1    3    3    0    0  0.11355506490E-01 -0.15801811407E-01 -0.11800194508E+00  0.88808958096E+00  0.88000000000E+00 0. -1.
        -11    1    4    4    0    0 -0.11914499975E-01 -0.75654525531E-02  0.94275709477E-01  0.95327655486E-01  0.51100000000E-03 0.  1.
         11    1    4    4    0    0  0.55275246776E-02  0.40405362688E-02  0.36288757614E-01  0.36932567100E-01  0.51100000000E-03 0. -1.
</event>
<event>
 8    1  0.1072332E+005  0.1043930E+01  0.7957747E-01            NaN
         13   -1    0    0    0    0  0.00000000000E+00  0.00000000000E+00  0.74505805969E-08  0.10566000000E+00  0.10566000000E+00 0.  1.
     999900   -1    0    0    0    0 -0.00000000000E+00 -0.00000000000E+00 -0.74505805969E-08  0.93827000000E+00  0.93827000000E+00 0. -1.
     999902    2    1    2    0    0 -0.20435369084E-01  0.73468365464E-03  0.12921445467E-01  0.10197409979E+01  0.10194540671E+01 0.  0.
     999903    2    3    3    0    0 -0.86081369896E-01  0.47380542821E-01 -0.83958195855E-01  0.13076917692E+00  0.19916849620E-01 0.  0.
         14    1    1    2    0    0  0.20435369084E-01 -0.73468365464E-03 -0.12921445467E-01  0.24189002101E-01  0.00000000000E+00 0. -1.
     999901    1    3    3    0    0  0.65646000813E-01 -0.46645859166E-01  0.96879641322E-01  0.88897182098E+00  0.88000000000E+00 0.  1.
        -11    1    4    4    0    0 -0.68580903127E-01  0.43961879201E-01 -0.61404198480E-01  0.10201335113E+00  0.51100000000E-03 0.  1.
         11    1    4    4    0    0 -0.17500466770E-01  0.34186636201E-02 -0.22553997375E-01  0.28755825787E-01  0.51100000000E-03 0. -1.
</event>
<event>
 8    1  0.1072332E+005  0.1043930E+01  0.7957747E-01            NaN
         13   -1    0    0    0    0  0.00000000000E+00  0.00000000000E+00  0.74505805969E-08  0.10566000000E+00  0.10566000000E+00 0.  1.
     999900   -1    0    0    0    0 -0.00000000000E+00 -0.00000000000E+00 -0.74505805969E-08  0.93827000000E+00  0.93827000000E+00 0. -1.
     999902    2    1    2    0    0  0.67083789599E-02  0.22839991588E-01  0.49008037440E-02  0.10196259789E+01  0.10193362798E+01 0.  0.
     999903    2    3    3    0    0 -0.52201981960E-01 -0.28771518210E-01  0.11013341922E+00  0.12990238029E+00  0.34531307480E-01 0.  0.
         14    1    1    2    0    0 -0.67083789599E-02 -0.22839991588E-01 -0.49008037440E-02  0.24304021094E-01  0.00000000000E+00 0. -1.
     999901    1    3    3    0    0  0.58910360920E-01  0.51611509798E-01 -0.10523261548E+00  0.88972359861E+00  0.88000000000E+00 0. -1.
        -11    1    4    4    0    0 -0.55704606163E-01 -0.24726255049E-01  0.87467279663E-01  0.10660758401E+00  0.51100000000E-03 0. -1.
         11    1    4    4    0    0  0.35026242025E-02 -0.40452631618E-02  0.22666139557E-01  0.23294796281E-01  0.51100000000E-03 0.  1.
</event>
<event>
 8    1  0.1072332E+005  0.1043930E+01  0.7957747E-01            NaN
         13   -1    0    0    0    0  0.00000000000E+00  0.00000000000E+00  0.74505805969E-08  0.10566000000E+00  0.10566000000E+00 0.  1.
     999900   -1    0    0    0    0 -0.00000000000E+00 -0.00000000000E+00 -0.74505805969E-08  0.93827000000E+00  0.93827000000E+00 0.  1.
     999902    2    1    2    0    0 -0.11483162187E-01 -0.95092525258E-02  0.15468569997E-01  0.10224459232E+01  0.10222201819E+01 0.  0.
     999903    2    3    3    0    0 -0.11999793652E+00  0.22704147150E-01 -0.46820159342E-01  0.13301180808E+00  0.24187407911E-01 0.  0.
         14    1    1    2    0    0  0.11483162187E-01  0.95092525258E-02 -0.15468569997E-01  0.21484076782E-01  0.00000000000E+00 0. -1.
     999901    1    3    3    0    0  0.10851477433E+00 -0.32213399676E-01  0.62288729338E-01  0.88943411514E+00  0.88000000000E+00 0. -1.
        -11    1    4    4    0    0 -0.78617138241E-01  0.21192581843E-01 -0.20576178233E-01  0.83984642537E-01  0.51100000000E-03 0.  1.
         11    1    4    4    0    0 -0.41380798278E-01  0.15115653069E-02 -0.26243981109E-01  0.49027165544E-01  0.51100000000E-03 0. -1.
</event>
<event>
 7    1  0.1072332E+005  0.1043930E+01  0.7957747E-01            NaN
         13   -1    0    0    0    0  0.00000000000E+00  0.00000000000E+00  0.74505805969E-08  0.10566000000E+00  0.10566000000E+00 0. -1.
     999900   -1    0    0    0    0 -0.00000000000E+00 -0.00000000000E+00 -0.74505805969E-08  0.93827000000E+00  0.93827000000E+00 0. -1.
     999903    2    1    2    0    0 -0.44679433813E-01 -0.47015100909E-01 -0.90250931015E-01  0.11291130441E+00  0.19926379378E-01 0.  0.
         14    1    1    2    0    0 -0.24830801620E-01 -0.29252678496E-01 -0.91047742429E-02  0.39435831705E-01  0.00000000000E+00 0.  1.
     999901    1    1    2    0    0  0.69510235433E-01  0.76267779405E-01  0.99355705258E-01  0.89158286388E+00  0.88000000000E+00 0.  1.
        -11    1    3    3    0    0 -0.37524494785E-01 -0.29376639057E-01 -0.54446454486E-01  0.72358497485E-01  0.51100000000E-03 0. -1.
         11    1    3    3    0    0 -0.71549390288E-02 -0.17638461853E-01 -0.35804476529E-01  0.40552806925E-01  0.51100000000E-03 0.  1.
</event>
<event>
 8    1  0.1072332E+005  0.1043930E+01  0.7957747E-01            NaN
         13   -1    0    0    0    0  0.00000000000E+00  0.00000000000E+00  0.74505805969E-08  0.10566000000E+00  0.10566000000E+00 0. -1.
     999900   -1    0    0    0    0 -0.00000000000E+00 -0.00000000000E+00 -0.74505805969E-08  0.93827000000E+00  0.93827000000E+00 0.  1.
     999902    2    1    2    0    0  0.12939837809E-01  0.13699559604E-01  0.14517585960E-01  0.10201418173E+01  0.10198644271E+01 0.  0.
     999903    2    3    3    0    0 -0.59336957005E-01  0.11506586397E+00  0.96861968741E-02  0.13136602717E+00  0.20054504945E-01 0.  0.
         14    1    1    2    0    0 -0.12939837809E-01 -0.13699559604E-01 -0.14517585960E-01  0.23788182738E-01  0.00000000000E+00 0.  1.
     999901    1    3    3    0    0  0.72276794814E-01 -0.10136630436E+00  0.48313890859E-02  0.88877579009E+00  0.88000000000E+00 0. -1.
        -11    1    4    4    0    0 -0.24890422150E-01  0.66216187541E-01  0.10909916927E-01  0.71577957610E-01  0.51100000000E-03 0.  1.
         11    1    4    4    0    0 -0.34446534855E-01  0.48849676424E-01 -0.12237200527E-02  0.59788069563E-01  0.51100000000E-03 0. -1.
</event>
<event>
 8    1  0.1072332E+005  0.1043930E+01  0.7957747E-01            NaN
         13   -1    0    0    0    0  0.00000000000E+00  0.00000000000E+00  0.74505805969E-08  0.10566000000E+00  0.10566000000E+00 0. -1.
     999900   -1    0    0    0    0 -0.00000000000E+00 -0.00000000000E+00 -0.74505805969E-08  0.93827000000E+00  0.93827000000E+00 0. -1.
     999902    2    1    2    0    0 -0.19077224249E-01  0.11186689200E-01  0.94157424029E-02  0.10198938043E+01  0.10196105302E+01 0.  0.
     999903    2    3    3    0    0 -0.14564862881E-01 -0.21919273320E-01 -0.12477763959E+00  0.12909403444E+00  0.20080353861E-01 0.  0.
         14    1    1    2    0    0  0.19077224249E-01 -0.11186689200E-01 -0.94157424029E-02  0.24036195733E-01  0.00000000000E+00 0.  1.
     999901    1    3    3    0    0 -0.45123613680E-02  0.33105962520E-01  0.13419338199E+00  0.89079976983E+00  0.88000000000E+00 0.  1.
        -11    1    4    4    0    0 -0.10135052303E-01 -0.97976398063E-02 -0.10148065530E+00  0.10245632022E+00  0.51100000000E-03 0.  1.
         11    1    4    4    0    0 -0.44298105781E-02 -0.12121633513E-01 -0.23296984291E-01  0.26637714220E-01  0.51100000000E-03 0. -1.
</event>
<event>
 8    1  0.1072332E+005  0.1043930E+01  0.7957747E-01            NaN
         13   -1    0    0    0    0  0.00000000000E+00  0.00000000000E+00  0.74505805969E-08  0.10566000000E+00  0.10566000000E+00 0.  1.
     999900   -1    0    0    0    0 -0.00000000000E+00 -0.00000000000E+00 -0.74505805969E-08  0.93827000000E+00  0.93827000000E+00 0.  1.
     999902    2    1    2    0    0  0.19500897643E-01 -0.10827967798E-01 -0.85776342299E-02  0.10200321820E+01  0.10197521986E+01 0.  0.
     999903    2    3    3    0    0 -0.12410863654E+00  0.22697564571E-01  0.17090035425E-02  0.12770182024E+00  0.19664717052E-01 0.  0.
         14    1    1    2    0    0 -0.19500897643E-01  0.10827967798E-01  0.85776342299E-02  0.23897817986E-01  0.00000000000E+00 0. -1.
     999901    1    3    3    0    0  0.14360953419E+00 -0.33525532368E-01 -0.10286637772E-01  0.89233036178E+00  0.88000000000E+00 0. -1.
        -11    1    4    4    0    0 -0.61376771978E-01  0.15898101639E-02 -0.17164894901E-02  0.61423473460E-01  0.51100000000E-03 0.  1.
         11    1    4    4    0    0 -0.62731864567E-01  0.21107754407E-01  0.34254930326E-02  0.66278346778E-01  0.51100000000E-03 0. -1.
</event>
<event>
 8    1  0.1072332E+005  0.1043930E+01  0.7957747E-01            NaN
         13   -1    0    0    0    0  0.00000000000E+00  0.00000000000E+00  0.74505805969E-08  0.10566000000E+00  0.10566000000E+00 0.  1.
     999900   -1    0    0    0    0 -0.00000000000E+00 -0.00000000000E+00 -0.74505805969E-08  0.93827000000E+00  0.93827000000E+00 0. -1.
     999902    2    1    2    0    0 -0.17643666115E-01  0.24401177100E-02 -0.15802156109E-01  0.10201190515E+01  0.10198411239E+01 0.  0.
     999903    2    3    3    0    0 -0.44680668833E-01  0.66573942120E-01  0.10000061706E+00  0.12980762894E+00  0.20529130073E-01 0.  0.
         14    1    1    2    0    0  0.17643666115E-01 -0.24401177100E-02  0.15802156109E-01  0.23810948451E-01  0.00000000000E+00 0.  1.
     999901    1    3    3    0    0  0.27037002718E-01 -0.64133824410E-01 -0.11580277317E+00  0.89031142261E+00  0.88000000000E+00 0. -1.
        -11    1    4    4    0    0 -0.54231010031E-02  0.18429488727E-01  0.14277138159E-01  0.23940632286E-01  0.51100000000E-03 0. -1.
         11    1    4    4    0    0 -0.39257567830E-01  0.48144453393E-01  0.85723478905E-01  0.10586699666E+00  0.51100000000E-03 0.  1.
</event>
<event>
 8    1  0.1072332E+005  0.1043930E+01  0.7957747E-01            NaN
         13   -1    0    0    0    0  0.00000000000E+00  0.00000000000E+00  0.74505805969E-08  0.10566000000E+00  0.10566000000E+00 0.  1.
     999900   -1    0    0    0    0 -0.00000000000E+00 -0.00000000000E+00 -0.74505805969E-08  0.93827000000E+00  0.93827000000E+00 0.  1.
     999902    2    1    2    0    0 -0.47575121085E-02 -0.22384154742E-01 -0.42536185401E-02  0.10206538840E+01  0.10203884424E+01 0.  0.
     999903    2    3    3    0    0  0.71614700254E-01  0.48152427797E-01 -0.95008776751E-01  0.12989879812E+00  0.19992711113E-01 0.  0.
         14    1    1    2    0    0  0.47575121085E-02  0.22384154742E-01  0.42536185401E-02  0.23276115992E-01  0.00000000000E+00 0.  1.
     999901    1    3    3    0    0 -0.76372212362E-01 -0.70536582539E-01  0.90755158211E-01  0.89075508589E+00  0.88000000000E+00 0. -1.
        -11    1    4    4    0    0  0.36680302545E-01  0.12814654205E-01 -0.39952768266E-01  0.55732797977E-01  0.51100000000E-03 0. -1.
         11    1    4    4    0    0  0.34934397709E-01  0.35337773592E-01 -0.55056008485E-01  0.74166000141E-01  0.51100000000E-03 0.  1.
</event>
<event>
 8    1  0.1072332E+005  0.1043930E+01  0.7957747E-01            NaN
         13   -1    0    0    0    0  0.00000000000E+00  0.00000000000E+00  0.74505805969E-08  0.10566000000E+00  0.10566000000E+00 0.  1.
     999900   -1    0    0    0    0 -0.00000000000E+00 -0.00000000000E+00 -0.74505805969E-08  0.93827000000E+00  0.93827000000E+00 0. -1.
     999902    2    1    2    0    0 -0.11979465016E-01  0.13279007585E-01 -0.14401636181E-01  0.10209681458E+01  0.10207099039E+01 0.  0.
     999903    2    3    3    0    0 -0.41715756647E-01  0.68704702773E-01 -0.10560650692E+00  0.13402136994E+00  0.18666889413E-01 0.  0.
         14    1    1    2    0    0  0.11979465016E-01 -0.13279007585E-01  0.14401636181E-01  0.22961854220E-01  0.00000000000E+00 0.  1.
     999901    1    3    3    0    0  0.29736291631E-01 -0.55425695187E-01  0.91204870742E-01  0.88694677584E+00  0.88000000000E+00 0.  1.
        -11    1    4    4    0    0 -0.47862418397E-02  0.16841464303E-01 -0.13808525412E-01  0.22304249055E-01  0.51100000000E-03 0.  1.
         11    1    4    4    0    0 -0.36929514807E-01  0.51863238469E-01 -0.91797981511E-01  0.11171712089E+00  0.51100000000E-03 0. -1.
</event>
<event>
 8    1  0.1072332E+005  0.1043930E+01  0.7957747E-01            NaN
         13   -1    0    0    0    0  0.00000000000E+00  0.00000000000E+00  0.74505805969E-08  0.10566000000E+00  0.10566000000E+00 0.  1.
     999900   -1    0    0    0    0 -0.00000000000E+00 -0.00000000000E+00 -0.74505805969E-08  0.93827000000E+00  0.93827000000E+00 0. -1.
     999902    2    1    2    0    0 -0.30575420217E-02 -0.16045365349E-01 -0.12186249610E-01  0.10235509178E+01  0.10233480221E+01 0.  0.
     999903    2    3    3    0    0  0.10883443384E+00 -0.62063196362E-01  0.42231278530E-01  0.13360781713E+00  0.19256001142E-01 0.  0.
         14    1    1    2    0    0  0.30575420217E-02  0.16045365349E-01  0.12186249610E-01  0.20379082216E-01  0.00000000000E+00 0. -1.
     999901    1    3    3    0    0 -0.11189197586E+00  0.46017831013E-01 -0.54417528140E-01  0.88994310065E+00  0.88000000000E+00 0. -1.
        -11    1    4    4    0    0  0.39256561796E-01 -0.12512623630E-01  0.16615869540E-01  0.44429625653E-01  0.51100000000E-03 0. -1.
         11    1    4    4    0    0  0.69577872044E-01 -0.49550572732E-01  0.25615408991E-01  0.89178191477E-01  0.51100000000E-03 0.  1.
</event>
<event>
 8    1  0.1072332E+005  0.1043930E+01  0.7957747E-01            NaN
         13   -1    0    0    0    0  0.00000000000E+00  0.00000000000E+00  0.74505805969E-08  0.10566000000E+00  0.10566000000E+00 0. -1.
     999900   -1    0    0    0    0 -0.00000000000E+00 -0.00000000000E+00 -0.74505805969E-08  0.93827000000E+00  0.93827000000E+00 0. -1.
     999902    2    1    2    0    0  0.41123275033E-02  0.16712847624E-01  0.15883265208E-01  0.10205097390E+01  0.10202409611E+01 0.  0.
     999903    2    3    3    0    0 -0.25775791438E-01 -0.63279864553E-01 -0.10635841747E+00  0.12796553130E+00  0.19857783147E-01 0.  0.
         14    1    1    2    0    0 -0.41123275033E-02 -0.16712847624E-01 -0.15883265208E-01  0.23420261033E-01  0.00000000000E+00 0.  1.
     999901    1    3    3    0    0  0.29888118941E-01  0.79992712178E-01  0.12224168268E+00  0.89254420767E+00  0.88000000000E+00 0.  1.
        -11    1    4    4    0    0 -0.25596943444E-02 -0.25177927108E-02 -0.42049337760E-03  0.36509246709E-02  0.51100000000E-03 0. -1.
         11    1    4    4    0    0 -0.23216097093E-01 -0.60762071842E-01 -0.10593792409E+00  0.12431460663E+00  0.51100000000E-03 0.  1.
</event>
<event>
 8    1  0.1072332E+005  0.1043930E+01  0.7957747E-01            NaN
         13   -1    0    0    0    0  0.00000000000E+00  0.00000000000E+00  0.74505805969E-08  0.10566000000E+00  0.10566000000E+00 0.  1.
     999900   -1    0    0    0    0 -0.00000000000E+00 -0.00000000000E+00 -0.74505805969E-08  0.93827000000E+00  0.93827000000E+00 0.  1.
     999902    2    1    2    0    0  0.73288993971E-02  0.23075073733E-01  0.96232373536E-02  0.10178766223E+01  0.10175431390E+01 0.  0.
     999903    2    3    3    0    0 -0.11630043537E+00 -0.23873784504E-01  0.41676881114E-01  0.12741840102E+00  0.20068324469E-01 0.  0.
         14    1    1    2    0    0 -0.73288993971E-02 -0.23075073733E-01 -0.96232373536E-02  0.26053377733E-01  0.00000000000E+00 0.  1.
     999901    1    3    3    0    0  0.12362933476E+00  0.46948858236E-01 -0.32053643760E-01  0.89045822124E+00  0.88000000000E+00 0. -1.
        -11    1    4    4    0    0 -0.74129597621E-01 -0.12984765711E-01  0.16288957359E-01  0.77002549548E-01  0.51100000000E-03 0. -1.
         11    1    4    4    0    0 -0.42170837745E-01 -0.10889018792E-01  0.25387923754E-01  0.50415851475E-01  0.51100000000E-03 0.  1.
</event>
<event>
 8    1  0.1072332E+005  0.1043930E+01  0.7957747E-01            NaN
         13   -1    0    0    0    0  0.00000000000E+00  0.00000000000E+00  0.74505805969E-08  0.10566000000E+00  0.10566000000E+00 0.  1.
     999900   -1    0    0    0    0 -0.00000000000E+00 -0.00000000000E+00 -0.74505805969E-08  0.93827000000E+00  0.93827000000E+00 0.  1.
     999902    2    1    2    0    0 -0.82655940076E-02 -0.24297875745E-02 -0.22521658413E-01  0.10198167462E+01  0.10195316311E+01 0.  0.
     999903    2    3    3    0    0 -0.10230987845E+00  0.69250740524E-01  0.35007550014E-01  0.13004596932E+00  0.20577883437E-01 0.  0.
         14    1    1    2    0    0  0.82655940076E-02  0.24297875745E-02  0.22521658413E-01  0.24113253817E-01  0.00000000000E+00 0. -1.
     999901    1    3    3    0    0  0.94044284438E-01 -0.71680528098E-01 -0.57529208427E-01  0.88977077687E+00  0.88000000000E+00 0.  1.
        -11    1    4    4    0    0 -0.44417154382E-01  0.34203051547E-01  0.25910321602E-01  0.61760328894E-01  0.51100000000E-03 0. -1.
         11    1    4    4    0    0 -0.57892724064E-01  0.35047688976E-01  0.90972284116E-02  0.68285640422E-01  0.51100000000E-03 0.  1.
</event>
<event>
 8    1  0.1072332E+005  0.1043930E+01  0.7957747E-01            NaN
         13   -1    0    0    0    0  0.00000000000E+00  0.00000000000E+00  0.74505805969E-08  0.10566000000E+00  0.10566000000E+00 0. -1.
     999900   -1    0    0    0    0 -0.00000000000E+00 -0.00000000000E+00 -0.74505805969E-08  0.93827000000E+00  0.93827000000E+00 0. -1.
     999902    2    1    2    0    0 -0.15255791964E-02  0.15269638923E-01  0.19023646117E-01  0.10194884703E+01  0.10191954438E+01 0.  0.
     999903    2    3    3    0    0 -0.11490601127E+00 -0.15427688405E-01  0.57278295321E-01  0.13085982652E+00  0.20052084308E-01 0.  0.
         14    1    1    2    0    0  0.15255791964E-02 -0.15269638923E-01 -0.19023646117E-01  0.24441529746E-01  0.00000000000E+00 0.  1.
     999901    1    3    3    0    0  0.11338043208E+00  0.30697327329E-01 -0.38254649204E-01  0.88862864374E+00  0.88000000000E+00 0. -1.
        -11    1    4    4    0    0 -0.82591226045E-01 -0.19426612600E-02  0.41415587581E-01  0.92415348120E-01  0.51100000000E-03 0. -1.
         11    1    4    4    0    0 -0.32314785228E-01 -0.13485027145E-01  0.15862707740E-01  0.38444478398E-01  0.51100000000E-03 0.  1.
</event>
<event>
 8    1  0.1072332E+005  0.1043930E+01  0.7957747E-01            NaN
         13   -1    0    0    0    0  0.00000000000E+00  0.00000000000E+00  0.74505805969E-08  0.10566000000E+00  0.10566000000E+00 0. -1.
     999900   -1    0    0    0    0 -0.00000000000E+00 -0.00000000000E+00 -0.74505805969E-08  0.93827000000E+00  0.93827000000E+00 0. -1.
     999902    2    1    2    0    0  0.58090644856E-02 -0.95628308105E-02 -0.21704847017E-01  0.10195108815E+01  0.10192183987E+01 0.  0.
     999903    2    3    3    0    0  0.73719451137E-01  0.39915110110E-01  0.94462858126E-01  0.12790849089E+00  0.20238008451E-01 0.  0.
         14    1    1    2    0    0 -0.58090644856E-02  0.95628308105E-02  0.21704847017E-01  0.24419118480E-01  0.00000000000E+00 0.  1.
     999901    1    3    3    0    0 -0.67910386651E-01 -0.49477940921E-01 -0.11616770514E+00  0.89160239063E+00  0.88000000000E+00 0. -1.
        -11    1    4    4    0    0  0.51225739370E-02  0.36942361016E-04  0.89397866057E-03  0.52251743821E-02  0.51100000000E-03 0.  1.
         11    1    4    4    0    0  0.68596877200E-01  0.39878167749E-01  0.93568879466E-01  0.12268331651E+00  0.51100000000E-03 0. -1.
</event>
<event>
 8    1  0.1072332E+005  0.1043930E+01  0.7957747E-01            NaN
         13   -1    0    0    0    0  0.00000000000E+00  0.00000000000E+00  0.74505805969E-08  0.10566000000E+00  0.10566000000E+00 0.  1.
     999900   -1    0    0    0    0 -0.00000000000E+00 -0.00000000000E+00 -0.74505805969E-08  0.93827000000E+00  0.93827000000E+00 0.  1.
     999902    2    1    2    0    0 -0.14773947744E-01 -0.14813744474E-01 -0.14977982627E-01  0.10181995410E+01  0.10178743777E+01 0.  0.
     999903    2    3    3    0    0 -0.56720240155E-01 -0.23155944532E-02 -0.11667162701E+00  0.13126251250E+00  0.19875387199E-01 0.  0.
         14    1    1    2    0    0  0.14773947744E-01  0.14813744474E-01  0.14977982627E-01  0.25730459010E-01  0.00000000000E+00 0.  1.
     999901    1    3    3    0    0  0.41946292411E-01 -0.12498150021E-01  0.10169364439E+00  0.88693702849E+00  0.88000000000E+00 0. -1.
        -11    1    4    4    0    0 -0.37952980519E-01  0.69946617228E-02 -0.66472655596E-01  0.76865005600E-01  0.51100000000E-03 0.  1.
         11    1    4    4    0    0 -0.18767259636E-01 -0.93102561761E-02 -0.50198971418E-01  0.54397506899E-01  0.51100000000E-03 0. -1.
</event>
<event>
 8    1  0.1072332E+005  0.1043930E+01  0.7957747E-01            NaN
         13   -1    0    0    0    0  0.00000000000E+00  0.00000000000E+00  0.74505805969E-08  0.10566000000E+00  0.10566000000E+00 0.  1.
     999900   -1    0    0    0    0 -0.00000000000E+00 -0.00000000000E+00 -0.74505805969E-08  0.93827000000E+00  0.93827000000E+00 0. -1.
     999902    2    1    2    0    0 -0.79448958692E-02 -0.10882321638E-01 -0.19814010202E-01  0.10199687543E+01  0.10196872650E+01 0.  0.
     999903    2    3    3    0    0  0.55285875842E-01  0.93307284337E-01  0.64257443829E-01  0.12760021281E+00  0.19748869414E-01 0.  0.
         14    1    1    2    0    0  0.79448958692E-02  0.10882321638E-01  0.19814010202E-01  0.23961245688E-01  0.00000000000E+00 0. -1.
     999901    1    3    3    0    0 -0.63230771711E-01 -0.10418960598E+00 -0.84071454031E-01  0.89236854150E+00  0.88000000000E+00 0. -1.
        -11    1    4    4    0    0  0.26059600087E-01  0.59042845215E-01  0.30912579617E-01  0.71561225726E-01  0.51100000000E-03 0.  1.
         11    1    4    4    0    0  0.29226275755E-01  0.34264439122E-01  0.33344864212E-01  0.56038987081E-01  0.51100000000E-03 0. -1.
</event>
<event>
 8    1  0.1072332E+005  0.1043930E+01  0.7957747E-01            NaN
         13   -1    0    0    0    0  0.00000000000E+00  0.00000000000E+00  0.74505805969E-08  0.10566000000E+00  0.10566000000E+00 0. -1.
     999900   -1    0    0    0    0 -0.00000000000E+00 -0.00000000000E+00 -0.74505805969E-08  0.93827000000E+00  0.93827000000E+00 0.  1.
     999902    2    1    2    0    0 -0.20157925568E-01  0.16442790532E-02 -0.10178106026E-01  0.10212884572E+01  0.10210374496E+01 0.  0.
     999903    2    3    3    0    0 -0.10176108743E+00  0.69119464948E-01  0.46497385011E-01  0.13313076401E+00  0.20711691495E-01 0.  0.
         14    1    1    2    0    0  0.20157925568E-01 -0.16442790532E-02  0.10178106026E-01  0.22641542772E-01  0.00000000000E+00 0. -1.
     999901    1    3    3    0    0  0.81603161857E-01 -0.67475185895E-01 -0.56675491036E-01  0.88815769322E+00  0.88000000000E+00 0.  1.
        -11    1    4    4    0    0 -0.35216938111E-01  0.36081705726E-01  0.17392187752E-01  0.53337337146E-01  0.51100000000E-03 0.  1.
         11    1    4    4    0    0 -0.66544149314E-01  0.33037759222E-01  0.29105197258E-01  0.79793426865E-01  0.51100000000E-03 0. -1.
</event>
<event>
 8    1  0.1072332E+005  0.1043930E+01  0.7957747E-01            NaN
         13   -1    0    0    0    0  0.00000000000E+00  0.00000000000E+00  0.74505805969E-08  0.10566000000E+00  0.10566000000E+00 0. -1.
     999900   -1    0    0    0    0 -0.00000000000E+00 -0.00000000000E+00 -0.74505805969E-08  0.93827000000E+00  0.93827000000E+00 0.  1.
     999902    2    1    2    0    0 -0.67052742821E-02 -0.19022281797E-01 -0.80047805376E-03  0.10237446421E+01  0.10235456236E+01 0.  0.
     999903    2    3    3    0    0  0.67676504725E-01  0.11044978189E+00 -0.29034067295E-02  0.13116406500E+00  0.20403886064E-01 0.  0.
         14    1    1    2    0    0  0.67052742821E-02  0.19022281797E-01  0.80047805376E-03  0.20185357888E-01  0.00000000000E+00 0. -1.
     999901    1    3    3    0    0 -0.74381779007E-01 -0.12947206369E+00  0.21029286758E-02  0.89258057711E+00  0.88000000000E+00 0.  1.
        -11    1    4    4    0    0  0.13023257887E-01  0.39306844687E-01 -0.15423750159E-02  0.41439996705E-01  0.51100000000E-03 0. -1.
         11    1    4    4    0    0  0.54653246838E-01  0.71142937201E-01 -0.13610317137E-02  0.89724068298E-01  0.51100000000E-03 0.  1.
</event>
<event>
 8    1  0.1072332E+005  0.1043930E+01  0.7957747E-01            NaN
         13   -1    0    0    0    0  0.00000000000E+00  0.00000000000E+00  0.74505805969E-08  0.10566000000E+00  0.10566000000E+00 0.  1.
     999900   -1    0    0    0    0 -0.00000000000E+00 -0.00000000000E+00 -0.74505805969E-08  0.93827000000E+00  0.93827000000E+00 0. -1.
     999902    2    1    2    0    0 -0.15918332551E-01 -0.10353002021E-01 -0.11345320118E-01  0.10218100034E+01  0.10215705501E+01 0.  0.
     999903    2    3    3    0    0 -0.31041403950E-02  0.71779059811E-01 -0.10953611524E+00  0.13245556821E+00  0.19607342854E-01 0.  0.
         14    1    1    2    0    0  0.15918332551E-01  0.10353002021E-01  0.11345320118E-01  0.22119996624E-01  0.00000000000E+00 0. -1.
     999901    1    3    3    0    0 -0.12814192156E-01 -0.82132061832E-01  0.98190795120E-01  0.88935443516E+00  0.88000000000E+00 0.  1.
        -11    1    4    4    0    0 -0.53386761188E-03  0.63393004713E-01 -0.82613079215E-01  0.10413520077E+00  0.51100000000E-03 0. -1.
         11    1    4    4    0    0 -0.25702727831E-02  0.83860550988E-02 -0.26923036023E-01  0.28320367441E-01  0.51100000000E-03 0.  1.
</event>
<event>
 8    1  0.1072332E+005  0.1043930E+01  0.7957747E-01            NaN
         13   -1    0    0    0    0  0.00000000000E+00  0.00000000000E+00  0.74505805969E-08  0.10566000000E+00  0.10566000000E+00 0.  1.
     999900   -1    0    0    0    0 -0.00000000000E+00 -0.00000000000E+00 -0.74505805969E-08  0.93827000000E+00  0.93827000000E+00 0. -1.
     999902    2    1    2    0    0  0.23515975829E-02 -0.22108315377E-01  0.80806941822E-02  0.10202740232E+01  0.10199997437E+01 0.  0.
     999903    2    3    3    0    0 -0.19054228762E-01  0.16259272954E-01  0.12721968596E+00  0.13115964327E+00  0.19762994063E-01 0.  0.
         14    1    1    2    0    0 -0.23515975829E-02  0.22108315377E-01 -0.80806941822E-02  0.23655976802E-01  0.00000000000E+00 0. -1.
     999901    1    3    3    0    0  0.21405826345E-01 -0.38367588332E-01 -0.11913899178E+00  0.88911437993E+00  0.88000000000E+00 0. -1.
        -11    1    4    4    0    0 -0.92754122051E-02  0.14725963367E-01  0.43496662511E-01  0.46851980100E-01  0.51100000000E-03 0.  1.
         11    1    4    4    0    0 -0.97788165569E-02  0.15333095871E-02  0.83723023454E-01  0.84307663168E-01  0.51100000000E-03 0. -1.
</event>
<event>
 8    1  0.1072332E+005  0.1043930E+01  0.7957747E-01            NaN
         13   -1    0    0    0    0  0.00000000000E+00  0.00000000000E+00  0.74505805969E-08  0.10566000000E+00  0.10566000000E+00 0. -1.
     999900   -1    0    0    0    0 -0.00000000000E+00 -0.00000000000E+00 -0.74505805969E-08  0.93827000000E+00  0.93827000000E+00 0. -1.
     999902    2    1    2    0    0  0.11474104269E-01  0.55717063616E-02 -0.19582341295E-01  0.10205597824E+01  0.10202921652E+01 0.  0.
     999903    2    3    3    0    0 -0.12647828669E+00 -0.48963638040E-03  0.16273159725E-01  0.12907045604E+00  0.19934145227E-01 0.  0.
         14    1    1    2    0    0 -0.11474104269E-01 -0.55717063616E-02  0.19582341295E-01  0.23370217610E-01  0.00000000000E+00 0. -1.
     999901    1    3    3    0    0  0.13795239096E+00  0.60613427420E-02 -0.35855501020E-01  0.89148932635E+00  0.88000000000E+00 0. -1.
        -11    1    4    4    0    0 -0.93643055252E-02 -0.41841315455E-02 -0.20534059979E-02  0.10472572366E-01  0.51100000000E-03 0. -1.
         11    1    4    4    0    0 -0.11711398117E+00  0.36944951651E-02  0.18326565723E-01  0.11859788367E+00  0.51100000000E-03 0.  1.
</event>
<event>
 8    1  0.1072332E+005  0.1043930E+01  0.7957747E-01            NaN
         13   -1    0    0    0    0  0.00000000000E+00  0.00000000000E+00  0.74505805969E-08  0.10566000000E+00  0.10566000000E+00 0. -1.
     999900   -1    0    0    0    0 -0.00000000000E+00 -0.00000000000E+00 -0.74505805969E-08  0.93827000000E+00  0.93827000000E+00 0. -1.
     999902    2    1    2    0    0 -0.57067676384E-02 -0.11990462270E-01 -0.18802405812E-01  0.10209111198E+01  0.10206515790E+01 0.  0.
     999903    2    3    3    0    0 -0.10091910886E+00 -0.25502840507E-02  0.79819358714E-01  0.13024801887E+00  0.20056069190E-01 0.  0.
         14    1    1    2    0    0  0.57067676384E-02  0.11990462270E-01  0.18802405812E-01  0.23018880221E-01  0.00000000000E+00 0. -1.
     999901    1    3    3    0    0  0.95212341223E-01 -0.94401782193E-02 -0.98621764526E-01  0.89066310091E+00  0.88000000000E+00 0. -1.
        -11    1    4    4    0    0 -0.44028310689E-01  0.73133980597E-02  0.28197530385E-01  0.52795262800E-01  0.51100000000E-03 0.  1.
         11    1    4    4    0    0 -0.56890798173E-01 -0.98636821103E-02  0.51621828330E-01  0.77452756069E-01  0.51100000000E-03 0. -1.
</event>
<event>
 8    1  0.1072332E+005  0.1043930E+01  0.7957747E-01            NaN
         13   -1    0    0    0    0  0.00000000000E+00  0.00000000000E+00  0.74505805969E-08  0.10566000000E+00  0.10566000000E+00 0. -1.
     999900   -1    0    0    0    0 -0.00000000000E+00 -0.00000000000E+00 -0.74505805969E-08  0.93827000000E+00  0.93827000000E+00 0.  1.
     999902    2    1    2    0    0  0.40431593183E-02  0.12021288725E-01  0.19994293962E-01  0.10202523669E+01  0.10199775791E+01 0.  0.
     999903    2    3    3    0    0  0.56271053076E-01  0.11563422787E+00  0.26457091603E-01  0.13261214594E+00  0.18662729896E-01 0.  0.
         14    1    1    2    0    0 -0.40431593183E-02 -0.12021288725E-01 -0.19994293962E-01  0.23677633136E-01  0.00000000000E+00 0.  1.
     999901    1    3    3    0    0 -0.52227893758E-01 -0.10361293914E+00 -0.64627976408E-02  0.88764022092E+00  0.88000000000E+00 0. -1.
        -11    1    4    4    0    0  0.51448008279E-01  0.11213895078E+00  0.27829420993E-01  0.12647837614E+00  0.51100000000E-03 0.  1.
         11    1    4    4    0    0  0.48230447970E-02  0.34952770892E-02 -0.13723293903E-02  0.61337698033E-02  0.51100000000E-03 0. -1.
</event>
<event>
 8    1  0.1072332E+005  0.1043930E+01  0.7957747E-01            NaN
         13   -1    0    0    0    0  0.00000000000E+00  0.00000000000E+00  0.74505805969E-08  0.10566000000E+00  0.10566000000E+00 0.  1.
     999900   -1    0    0    0    0 -0.00000000000E+00 -0.00000000000E+00 -0.74505805969E-08  0.93827000000E+00  0.93827000000E+00 0.  1.
     999902    2    1    2    0    0  0.12343054239E-01 -0.15939763265E-01  0.12429670103E-01  0.10202461713E+01  0.10199712380E+01 0.  0.
     999903    2    3    3    0    0  0.75552649686E-01 -0.66604698723E-01  0.85214644834E-01  0.13353311675E+00  0.20619621931E-01 0.  0.
         14    1    1    2    0    0 -0.12343054239E-01  0.15939763265E-01 -0.12429670103E-01  0.23683828655E-01  0.00000000000E+00 0. -1.
     999901    1    3    3    0    0 -0.63209595448E-01  0.50664935458E-01 -0.72784974731E-01  0.88671305459E+00  0.88000000000E+00 0.  1.
        -11    1    4    4    0    0  0.11780373851E-01 -0.21973637580E-01  0.22087101152E-01  0.33312446846E-01  0.51100000000E-03 0.  1.
         11    1    4    4    0    0  0.63772275836E-01 -0.44631061143E-01  0.63127543682E-01  0.10022066991E+00  0.51100000000E-03 0. -1.
</event>
<event>
 8    1  0.1072332E+005  0.1043930E+01  0.7957747E-01            NaN
         13   -1    0    0    0    0  0.00000000000E+00  0.00000000000E+00  0.74505805969E-08  0.10566000000E+00  0.10566000000E+00 0. -1.
     999900   -1    0    0    0    0 -0.00000000000E+00 -0.00000000000E+00 -0.74505805969E-08  0.93827000000E+00  0.93827000000E+00 0. -1.
     999902    2    1    2    0    0  0.62887430549E-02  0.22762074678E-02  0.23091588263E-01  0.10198893915E+01  0.10196060121E+01 0.  0.
     999903    2    3    3    0    0 -0.11409960755E+00 -0.39453482110E-01 -0.39321358435E-01  0.12852521345E+00  0.19931471833E-01 0.  0.
         14    1    1    2    0    0 -0.62887430549E-02 -0.22762074678E-02 -0.23091588263E-01  0.24040608523E-01  0.00000000000E+00 0.  1.
     999901    1    3    3    0    0  0.12038835061E+00  0.41729689578E-01  0.62412946698E-01  0.89136417803E+00  0.88000000000E+00 0.  1.
        -11    1    4    4    0    0 -0.66841417834E-01 -0.18446982095E-01 -0.31711385671E-01  0.76249192708E-01  0.51100000000E-03 0.  1.
         11    1    4    4    0    0 -0.47258189717E-01 -0.21006500015E-01 -0.76099727644E-02  0.52276020742E-01  0.51100000000E-03 0. -1.
</event>
<event>
 8    1  0.1072332E+005  0.1043930E+01  0.7957747E-01            NaN
         13   -1    0    0    0    0  0.00000000000E+00  0.00000000000E+00  0.74505805969E-08  0.10566000000E+00  0.10566000000E+00 0. -1.
     999900   -1    0    0    0    0 -0.00000000000E+00 -0.00000000000E+00 -0.74505805969E-08  0.93827000000E+00  0.93827000000E+00 0. -1.
     999902    2    1    2    0    0  0.82180161238E-02 -0.76232535036E-02 -0.18882428515E-01  0.10219710408E+01  0.10217350989E+01 0.  0.
     999903    2    3    3    0    0  0.45833486792E-01  0.61509523199E-01 -0.10759892702E+00  0.13401559058E+00  0.22327549491E-01 0.  0.
         14    1    1    2    0    0 -0.82180161238E-02  0.76232535036E-02  0.18882428515E-01  0.21958959211E-01  0.00000000000E+00 0. -1.
     999901    1    3    3    0    0 -0.37615470668E-01 -0.69132776703E-01  0.88716498508E-01  0.88795545021E+00  0.88000000000E+00 0.  1.
        -11    1    4    4    0    0  0.38405266267E-01  0.56513194483E-01 -0.81140143481E-01  0.10607869547E+00  0.51100000000E-03 0. -1.
         11    1    4    4    0    0  0.74282205246E-02  0.49963287168E-02 -0.26458783542E-01  0.27936895109E-01  0.51100000000E-03 0.  1.
</event>
<event>
 8    1  0.1072332E+005  0.1043930E+01  0.7957747E-01            NaN
         13   -1    0    0    0    0  0.00000000000E+00  0.00000000000E+00  0.74505805969E-08  0.10566000000E+00  0.10566000000E+00 0.  1.
     999900   -1    0    0    0    0 -0.00000000000E+00 -0.00000000000E+00 -0.74505805969E-08  0.93827000000E+00  0.93827000000E+00 0.  1.
     999902    2    1    2    0    0  0.17743627692E-01 -0.15002466843E-01 -0.42699479205E-02  0.10203049542E+01  0.10200313999E+01 0.  0.
     999903    2    3    3    0    0  0.82190090230E-01  0.78390313182E-01  0.61277301207E-01  0.13060163297E+00  0.20040627688E-01 0.  0.
         14    1    1    2    0    0 -0.17743627692E-01  0.15002466843E-01  0.42699479205E-02  0.23625045826E-01  0.00000000000E+00 0. -1.
     999901    1    3    3    0    0 -0.64446462537E-01 -0.93392780025E-01 -0.65547249128E-01  0.88970332120E+00  0.88000000000E+00 0.  1.
        -11    1    4    4    0    0  0.68180665200E-01  0.65447315394E-01  0.41817413253E-01  0.10334849477E+00  0.51100000000E-03 0. -1.
         11    1    4    4    0    0  0.14009425029E-01  0.12942997788E-01  0.19459887954E-01  0.27253138197E-01  0.51100000000E-03 0.  1.
</event>
<event>
 8    1  0.1072332E+005  0.1043930E+01  0.7957747E-01            NaN
         13   -1    0    0    0    0  0.00000000000E+00  0.00000000000E+00  0.74505805969E-08  0.10566000000E+00  0.10566000000E+00 0.  1.
     999900   -1    0    0    0    0 -0.00000000000E+00 -0.00000000000E+00 -0.74505805969E-08  0.93827000000E+00  0.93827000000E+00 0. -1.
     999902    2    1    2    0    0 -0.16698093814E-01  0.14117400114E-01 -0.49419810600E-02  0.10215123619E+01  0.10212663487E+01 0.  0.
     999903    2    3    3    0    0 -0.96801804692E-01 -0.73163833089E-01 -0.49306534967E-01  0.13246633841E+00  0.19815664452E-01 0.  0.
         14    1    1    2    0    0  0.16698093814E-01 -0.14117400114E-01  0.49419810600E-02  0.22417638140E-01  0.00000000000E+00 0.  1.
     999901    1    3    3    0    0  0.80103710879E-01  0.87281233203E-01  0.44364553907E-01  0.88904602345E+00  0.88000000000E+00 0. -1.
        -11    1    4    4    0    0 -0.25111841583E-01 -0.90901896303E-02 -0.12769764132E-01  0.29606825771E-01  0.51100000000E-03 0. -1.
         11    1    4    4    0    0 -0.71689963109E-01 -0.64073643459E-01 -0.36536770835E-01  0.10285951264E+00  0.51100000000E-03 0.  1.
</event>
<event>
 8    1  0.1072332E+005  0.1043930E+01  0.7957747E-01            NaN
         13   -1    0    0    0    0  0.00000000000E+00  0.00000000000E+00  0.74505805969E-08  0.10566000000E+00  0.10566000000E+00 0. -1.
     999900   -1    0    0    0    0 -0.00000000000E+00 -0.00000000000E+00 -0.74505805969E-08  0.93827000000E+00  0.93827000000E+00 0.  1.
     999902    2    1    2    0    0  0.21727173274E-01 -0.71348213341E-02 -0.55531676977E-02  0.10203967596E+01  0.10201253519E+01 0.  0.
     999903    2    3    3    0    0  0.86897917868E-01  0.95070923006E-01  0.19255543107E-01  0.13174119510E+00  0.19880593907E-01 0.  0.
         14    1    1    2    0    0 -0.21727173274E-01  0.71348213341E-02  0.55531676977E-02  0.23533240436E-01  0.00000000000E+00 0. -1.
     999901    1    3    3    0    0 -0.65170744594E-01 -0.10220574434E+00 -0.24808710805E-01  0.88865556447E+00  0.88000000000E+00 0.  1.
        -11    1    4    4    0    0  0.81877637728E-01  0.84830675320E-01  0.22152522311E-01  0.11996327105E+00  0.51100000000E-03 0.  1.
         11    1    4    4    0    0  0.50202801403E-02  0.10240247686E-01 -0.28969792034E-02  0.11777924047E-01  0.51100000000E-03 0. -1.
</event>
<event>
 8    1  0.1089761E+005  0.1043930E+01  0.7957747E-01            NaN
         13   -1    0    0    0    0  0.00000000000E+00  0.00000000000E+00  0.74505805969E-08  0.10566000000E+00  0.10566000000E+00 0. -1.
     999900   -1    0    0    0    0 -0.00000000000E+00 -0.00000000000E+00 -0.74505805969E-08  0.93827000000E+00  0.93827000000E+00 0. -1.
     999902    2    1    2    0    0  0.20307558523E-01  0.86048308314E-02  0.10355929882E-01  0.10195643412E+01  0.10192731530E+01 0.  0.
     999903    2    3    3    0    0 -0.10747089093E+00 -0.56273899168E-01 -0.32139789786E-01  0.12696002348E+00  0.19212947480E-01 0.  0.
         14    1    1    2    0    0 -0.20307558523E-01 -0.86048308314E-02 -0.10355929882E-01  0.24365658836E-01  0.00000000000E+00 0.  1.
     999901    1    3    3    0    0  0.12777844945E+00  0.64878729999E-01  0.42495719668E-01  0.89260431768E+00  0.88000000000E+00 0.  1.
        -11    1    4    4    0    0 -0.37409183824E-01 -0.16930508703E-01 -0.19166627320E-02  0.41109899979E-01  0.51100000000E-03 0.  1.
         11    1    4    4    0    0 -0.70061707106E-01 -0.39343390465E-01 -0.30223127054E-01  0.85850123505E-01  0.51100000000E-03 0. -1.
</event>
<event>
 8    1  0.1072332E+005  0.1043930E+01  0.7957747E-01            NaN
         13   -1    0    0    0    0  0.00000000000E+00  0.00000000000E+00  0.74505805969E-08  0.10566000000E+00  0.10566000000E+00 0.  1.
     999900   -1    0    0    0    0 -0.00000000000E+00 -0.00000000000E+00 -0.74505805969E-08  0.93827000000E+00  0.93827000000E+00 0.  1.
     999902    2    1    2    0    0 -0.21414815179E-01 -0.19578297905E-02 -0.41731431331E-02  0.10220246917E+01  0.10217899138E+01 0.  0.
     999903    2    3    3    0    0 -0.11737029425E+00 -0.25652911964E-01  0.56953390893E-01  0.13438435689E+00  0.19534809351E-01 0.  0.
         14    1    1    2    0    0  0.21414815179E-01  0.19578297905E-02  0.41731431331E-02  0.21905308267E-01  0.00000000000E+00 0.  1.
     999901    1    3    3    0    0  0.95955479074E-01  0.23695082173E-01 -0.61126534026E-01  0.88764033485E+00  0.88000000000E+00 0.  1.
        -11    1    4    4    0    0 -0.10586938244E+00 -0.28140702312E-01  0.54494151668E-01  0.12235235572E+00  0.51100000000E-03 0.  1.
         11    1    4    4    0    0 -0.11500911816E-01  0.24877903477E-02  0.24592392246E-02  0.12032001163E-01  0.51100000000E-03 0. -1.
</event>
<event>
 8    1  0.1072332E+005  0.1043930E+01  0.7957747E-01            NaN
         13   -1    0    0    0    0  0.00000000000E+00  0.00000000000E+00  0.74505805969E-08  0.10566000000E+00  0.10566000000E+00 0. -1.
     999900   -1    0    0    0    0 -0.00000000000E+00 -0.00000000000E+00 -0.74505805969E-08  0.93827000000E+00  0.93827000000E+00 0. -1.
     999902    2    1    2    0    0  0.20833376182E-01  0.10019914803E-01 -0.26107591653E-02  0.10206653418E+01  0.10204001645E+01 0.  0.
     999903    2    3    3    0    0  0.90988746336E-01 -0.90860092367E-01  0.21361266733E-01  0.13180471731E+00  0.19536413317E-01 0.  0.
         14    1    1    2    0    0 -0.20833376182E-01 -0.10019914803E-01  0.26107591653E-02  0.23264658158E-01  0.00000000000E+00 0. -1.
     999901    1    3    3    0    0 -0.70155370154E-01  0.10088000717E+00 -0.23972025898E-01  0.88886062453E+00  0.88000000000E+00 0.  1.
        -11    1    4    4    0    0  0.36090349810E-01 -0.41911776443E-01  0.18031312225E-01  0.58176453103E-01  0.51100000000E-03 0.  1.
         11    1    4    4    0    0  0.54898396527E-01 -0.48948315923E-01  0.33299545079E-02  0.73628264212E-01  0.51100000000E-03 0. -1.
</event>
<event>
 8    1  0.1072332E+005  0.1043930E+01  0.7957747E-01            NaN
         13   -1    0    0    0    0  0.00000000000E+00  0.00000000000E+00  0.74505805969E-08  0.10566000000E+00  0.10566000000E+00 0.  1.
     999900   -1    0    0    0    0 -0.00000000000E+00 -0.00000000000E+00 -0.74505805969E-08  0.93827000000E+00  0.93827000000E+00 0. -1.
     999902    2    1    2    0    0  0.56758886524E-02 -0.87032676078E-02 -0.17877485507E-01  0.10232523051E+01  0.10230433582E+01 0.  0.
     999903    2    3    3    0    0  0.92698759886E-01 -0.75577670535E-01  0.55818538680E-01  0.13337800505E+00  0.19207774513E-01 0.  0.
         14    1    1    2    0    0 -0.56758886524E-02  0.87032676078E-02  0.17877485507E-01  0.20677694918E-01  0.00000000000E+00 0.  1.
     999901    1    3    3    0    0 -0.87022871233E-01  0.66874402927E-01 -0.73696024188E-01  0.88987430004E+00  0.88000000000E+00 0. -1.
        -11    1    4    4    0    0  0.35993224630E-01 -0.39661910320E-01  0.19089200613E-01  0.56861569189E-01  0.51100000000E-03 0. -1.
         11    1    4    4    0    0  0.56705535255E-01 -0.35915760214E-01  0.36729338068E-01  0.76516435857E-01  0.51100000000E-03 0.  1.
</event>
<event>
 8    1  0.1072332E+005  0.1043930E+01  0.7957747E-01            NaN
         13   -1    0    0    0    0  0.00000000000E+00  0.00000000000E+00  0.74505805969E-08  0.10566000000E+00  0.10566000000E+00 0. -1.
     999900   -1    0    0    0    0 -0.00000000000E+00 -0.00000000000E+00 -0.74505805969E-08  0.93827000000E+00  0.93827000000E+00 0.  1.
     999902    2    1    2    0    0  0.93656607342E-02  0.19108888581E-01  0.11814685804E-01  0.10195896626E+01  0.10192990867E+01 0.  0.
     999903    2    3    3    0    0  0.64276336859E-01  0.10810278146E+00  0.38104865614E-01  0.13300843741E+00  0.20533017265E-01 0.  0.
         14    1    1    2    0    0 -0.93656607342E-02 -0.19108888581E-01 -0.11814685804E-01  0.24340337394E-01  0.00000000000E+00 0. -1.
     999901    1    3    3    0    0 -0.54910676125E-01 -0.88993892880E-01 -0.26290179810E-01  0.88658122520E+00  0.88000000000E+00 0.  1.
        -11    1    4    4    0    0  0.38018719463E-01  0.80320609880E-01  0.22165325822E-01  0.91588133461E-01  0.51100000000E-03 0. -1.
         11    1    4    4    0    0  0.26257617396E-01  0.27782171581E-01  0.15939539792E-01  0.41420303945E-01  0.51100000000E-03 0.  1.
</event>
<event>
 8    1  0.1072332E+005  0.1043930E+01  0.7957747E-01            NaN
         13   -1    0    0    0    0  0.00000000000E+00  0.00000000000E+00  0.74505805969E-08  0.10566000000E+00  0.10566000000E+00 0.  1.
     999900   -1    0    0    0    0 -0.00000000000E+00 -0.00000000000E+00 -0.74505805969E-08  0.93827000000E+00  0.93827000000E+00 0. -1.
     999902    2    1    2    0    0  0.21213641046E-01  0.51683237670E-02 -0.79558343416E-02  0.10206915526E+01  0.10204269793E+01 0.  0.
     999903    2    3    3    0    0  0.23842160147E-01  0.12806698639E+00  0.83484972314E-02  0.13199766740E+00  0.19598091485E-01 0.  0.
         14    1    1    2    0    0 -0.21213641046E-01 -0.51683237670E-02  0.79558343416E-02  0.23238447389E-01  0.00000000000E+00 0.  1.
     999901    1    3    3    0    0 -0.26285191013E-02 -0.12289866262E+00 -0.16304331573E-01  0.88869388521E+00  0.88000000000E+00 0.  1.
        -11    1    4    4    0    0  0.38665219934E-03  0.44900515225E-01  0.78372075419E-02  0.45583864584E-01  0.51100000000E-03 0.  1.
         11    1    4    4    0    0  0.23455507948E-01  0.83166471162E-01  0.51128968953E-03  0.86413802814E-01  0.51100000000E-03 0. -1.
</event>
<event>
 8    1  0.1072332E+005  0.1043930E+01  0.7957747E-01            NaN
         13   -1    0    0    0    0  0.00000000000E+00  0.00000000000E+00  0.74505805969E-08  0.10566000000E+00  0.10566000000E+00 0. -1.
     999900   -1    0    0    0    0 -0.00000000000E+00 -0.00000000000E+00 -0.74505805969E-08  0.93827000000E+00  0.93827000000E+00 0. -1.
     999902    2    1    2    0    0 -0.16142192013E-01 -0.82755653753E-02  0.39208720967E-02  0.10253712128E+01  0.10252032459E+01 0.  0.
     999903    2    3    3    0    0  0.75155234045E-01 -0.80115899122E-01 -0.74709825702E-01  0.13426008604E+00  0.19425399609E-01 0.  0.
         14    1    1    2    0    0  0.16142192013E-01  0.82755653753E-02 -0.39208720967E-02  0.18558787225E-01  0.00000000000E+00 0. -1.
     999901    1    3    3    0    0 -0.91297426058E-01  0.71840333747E-01  0.78630697799E-01  0.89111112674E+00  0.88000000000E+00 0. -1.
        -11    1    4    4    0    0  0.52952502734E-01 -0.68038604424E-01 -0.59530088932E-01  0.10477266746E+00  0.51100000000E-03 0.  1.
         11    1    4    4    0    0  0.22202731311E-01 -0.12077294698E-01 -0.15179736770E-01  0.29487418577E-01  0.51100000000E-03 0. -1.
</event>
<event>
 7    1  0.1072332E+005  0.1043930E+01  0.7957747E-01            NaN
         13   -1    0    0    0    0  0.00000000000E+00  0.00000000000E+00  0.74505805969E-08  0.10566000000E+00  0.10566000000E+00 0. -1.
     999900   -1    0    0    0    0 -0.00000000000E+00 -0.00000000000E+00 -0.74505805969E-08  0.93827000000E+00  0.93827000000E+00 0. -1.
     999903    2    1    2    0    0  0.95564042533E-01 -0.35802201593E-01 -0.58384277476E-01  0.11920877138E+00  0.19690694611E-01 0.  0.
         14    1    1    2    0    0 -0.29384256894E-01  0.26929072437E-01  0.86895168466E-02  0.40793592617E-01  0.00000000000E+00 0. -1.
     999901    1    1    2    0    0 -0.66179785639E-01  0.88731291562E-02  0.49694760630E-01  0.88392763600E+00  0.88000000000E+00 0.  1.
        -11    1    3    3    0    0  0.42469222438E-01 -0.23980350717E-01 -0.34812518824E-01  0.59923823834E-01  0.51100000000E-03 0. -1.
         11    1    3    3    0    0  0.53094820095E-01 -0.11821850877E-01 -0.23571758652E-01  0.59284947550E-01  0.51100000000E-03 0.  1.
</event>
<event>
 8    1  0.1072332E+005  0.1043930E+01  0.7957747E-01            NaN
         13   -1    0    0    0    0  0.00000000000E+00  0.00000000000E+00  0.74505805969E-08  0.10566000000E+00  0.10566000000E+00 0.  1.
     999900   -1    0    0    0    0 -0.00000000000E+00 -0.00000000000E+00 -0.74505805969E-08  0.93827000000E+00  0.93827000000E+00 0. -1.
     999902    2    1    2    0    0  0.26129562632E-02  0.82092456406E-02  0.21973640512E-01  0.10203278787E+01  0.10200548612E+01 0.  0.
     999903    2    3    3    0    0 -0.11522049917E+00 -0.45542313614E-01 -0.30567305492E-01  0.12929785428E+00  0.20825686001E-01 0.  0.
         14    1    1    2    0    0 -0.26129562632E-02 -0.82092456406E-02 -0.21973640512E-01  0.23602121340E-01  0.00000000000E+00 0. -1.
     999901    1    3    3    0    0  0.11783345543E+00  0.53751559255E-01  0.52540946003E-01  0.89103002438E+00  0.88000000000E+00 0.  1.
        -11    1    4    4    0    0 -0.27259810839E-01 -0.49444899040E-02  0.56102289552E-05  0.27709320090E-01  0.51100000000E-03 0.  1.
         11    1    4    4    0    0 -0.87960688332E-01 -0.40597823710E-01 -0.30572915721E-01  0.10158853419E+00  0.51100000000E-03 0. -1.
</event>
<event>
 8    1  0.1072332E+005  0.1043930E+01  0.7957747E-01            NaN
         13   -1    0    0    0    0  0.00000000000E+00  0.00000000000E+00  0.74505805969E-08  0.10566000000E+00  0.10566000000E+00 0.  1.
     999900   -1    0    0    0    0 -0.00000000000E+00 -0.00000000000E+00 -0.74505805969E-08  0.93827000000E+00  0.93827000000E+00 0. -1.
     999902    2    1    2    0    0 -0.13196308241E-02  0.22508199720E-01 -0.82243496560E-02  0.10199299915E+01  0.10196475799E+01 0.  0.
     999903    2    3    3    0    0  0.12500867390E+00  0.53517076420E-02 -0.30301433949E-01  0.13046915289E+00  0.21171056465E-01 0.  0.
         14    1    1    2    0    0  0.13196308241E-02 -0.22508199720E-01  0.82243496560E-02  0.24000008487E-01  0.00000000000E+00 0.  1.
     999901    1    3    3    0    0 -0.12632830472E+00  0.17156492078E-01  0.22077084293E-01  0.88946083862E+00  0.88000000000E+00 0.  1.
        -11    1    4    4    0    0  0.98194319575E-01 -0.36179151873E-02 -0.19386469349E-01  0.10015642776E+00  0.51100000000E-03 0.  1.
         11    1    4    4    0    0  0.26814354322E-01  0.89696228293E-02 -0.10914964599E-01  0.30312725127E-01  0.51100000000E-03 0. -1.
</event>
<event>
 8    1  0.1072332E+005  0.1043930E+01  0.7957747E-01            NaN
         13   -1    0    0    0    0  0.00000000000E+00  0.00000000000E+00  0.74505805969E-08  0.10566000000E+00  0.10566000000E+00 0. -1.
     999900   -1    0    0    0    0 -0.00000000000E+00 -0.00000000000E+00 -0.74505805969E-08  0.93827000000E+00  0.93827000000E+00 0. -1.
     999902    2    1    2    0    0  0.10990640563E-01  0.17763370583E-01 -0.18938918164E-01  0.10157340050E+01  0.10153425800E+01 0.  0.
     999903    2    3    3    0    0 -0.62535875306E-01  0.27148602165E-01 -0.10670494305E+00  0.12826732603E+00  0.20464108937E-01 0.  0.
         14    1    1    2    0    0 -0.10990640563E-01 -0.17763370583E-01  0.18938918164E-01  0.28195995029E-01  0.00000000000E+00 0. -1.
     999901    1    3    3    0    0  0.73526515869E-01 -0.93852315815E-02  0.87766024890E-01  0.88746667894E+00  0.88000000000E+00 0.  1.
        -11    1    4    4    0    0 -0.44550374801E-01  0.13561292913E-01 -0.56414473640E-01  0.73153937129E-01  0.51100000000E-03 0.  1.
         11    1    4    4    0    0 -0.17985500505E-01  0.13587309251E-01 -0.50290469414E-01  0.55113388900E-01  0.51100000000E-03 0. -1.
</event>
<event>
 8    1  0.1072332E+005  0.1043930E+01  0.7957747E-01            NaN
         13   -1    0    0    0    0  0.00000000000E+00  0.00000000000E+00  0.74505805969E-08  0.10566000000E+00  0.10566000000E+00 0.  1.
     999900   -1    0    0    0    0 -0.00000000000E+00 -0.00000000000E+00 -0.74505805969E-08  0.93827000000E+00  0.93827000000E+00 0. -1.
     999902    2    1    2    0    0 -0.11200975676E-02 -0.18957300984E-01 -0.14406310512E-01  0.10200935644E+01  0.10198150344E+01 0.  0.
     999903    2    3    3    0    0  0.12259663070E+00 -0.41630749919E-01 -0.89483958393E-03  0.13104774220E+00  0.20239980222E-01 0.  0.
         14    1    1    2    0    0  0.11200975676E-02  0.18957300984E-01  0.14406310512E-01  0.23836435591E-01  0.00000000000E+00 0.  1.
     999901    1    3    3    0    0 -0.12371672827E+00  0.22673448936E-01 -0.13511470928E-01  0.88904582221E+00  0.88000000000E+00 0.  1.
        -11    1    4    4    0    0  0.54667275155E-01 -0.86462133905E-02 -0.37682415794E-02  0.55477281336E-01  0.51100000000E-03 0.  1.
         11    1    4    4    0    0  0.67929355547E-01 -0.32984536529E-01  0.28734019955E-02  0.75570460863E-01  0.51100000000E-03 0. -1.
</event>
<event>
 8    1  0.1072332E+005  0.1043930E+01  0.7957747E-01            NaN
         13   -1    0    0    0    0  0.00000000000E+00  0.00000000000E+00  0.74505805969E-08  0.10566000000E+00  0.10566000000E+00 0.  1.
     999900   -1    0    0    0    0 -0.00000000000E+00 -0.00000000000E+00 -0.74505805969E-08  0.93827000000E+00  0.93827000000E+00 0. -1.
     999902    2    1    2    0    0  0.16433491764E-01 -0.12611580819E-01  0.97243480627E-02  0.10210460631E+01  0.10207895907E+01 0.  0.
     999903    2    3    3    0    0  0.54352877299E-01  0.10936381694E+00  0.44466178483E-01  0.13114557865E+00  0.17528321220E-01 0.  0.
         14    1    1    2    0    0 -0.16433491764E-01  0.12611580819E-01 -0.97243480627E-02  0.22883936889E-01  0.00000000000E+00 0. -1.
     999901    1    3    3    0    0 -0.37919385536E-01 -0.12197539776E+00 -0.34741830420E-01  0.88990048446E+00  0.88000000000E+00 0. -1.
        -11    1    4    4    0    0  0.28137550452E-01  0.65127034667E-01  0.17470474858E-01  0.73066620304E-01  0.51100000000E-03 0.  1.
         11    1    4    4    0    0  0.26215326847E-01  0.44236782274E-01  0.26995703625E-01  0.58078958349E-01  0.51100000000E-03 0. -1.
</event>
<event>
 8    1  0.1072332E+005  0.1043930E+01  0.7957747E-01            NaN
         13   -1    0    0    0    0  0.00000000000E+00  0.00000000000E+00  0.74505805969E-08  0.10566000000E+00  0.10566000000E+00 0.  1.
     999900   -1    0    0    0    0 -0.00000000000E+00 -0.00000000000E+00 -0.74505805969E-08  0.93827000000E+00  0.93827000000E+00 0.  1.
     999902    2    1    2    0    0 -0.33012326303E-02 -0.43873918533E-02 -0.24024776997E-01  0.10192857866E+01  0.10189878201E+01 0.  0.
     999903    2    3    3    0    0 -0.66206183312E-01 -0.66710870014E-01 -0.91736792334E-01  0.13225356297E+00  0.15548857280E-01 0.  0.
         14    1    1    2    0    0  0.33012326303E-02  0.43873918533E-02  0.24024776997E-01  0.24644213396E-01  0.00000000000E+00 0.  1.
     999901    1    3    3    0    0  0.62904950682E-01  0.62323478160E-01  0.67712015337E-01  0.88703222364E+00  0.88000000000E+00 0. -1.
        -11    1    4    4    0    0 -0.54214909451E-01 -0.53007624548E-01 -0.64833345299E-01  0.99763161792E-01  0.51100000000E-03 0.  1.
         11    1    4    4    0    0 -0.11991273861E-01 -0.13703245466E-01 -0.26903447035E-01  0.32490401175E-01  0.51100000000E-03 0. -1.
</event>
<event>
 8    1  0.1072332E+005  0.1043930E+01  0.7957747E-01            NaN
         13   -1    0    0    0    0  0.00000000000E+00  0.00000000000E+00  0.74505805969E-08  0.10566000000E+00  0.10566000000E+00 0. -1.
     999900   -1    0    0    0    0 -0.00000000000E+00 -0.00000000000E+00 -0.74505805969E-08  0.93827000000E+00  0.93827000000E+00 0. -1.
     999902    2    1    2    0    0 -0.22890000018E-01  0.46057716503E-02  0.25693579041E-02  0.10204402824E+01  0.10201698893E+01 0.  0.
     999903    2    3    3    0    0  0.44502131633E-01 -0.11279023738E+00  0.40115439478E-01  0.12929875009E+00  0.20170298064E-01 0.  0.
         14    1    1    2    0    0  0.22890000018E-01 -0.46057716503E-02 -0.25693579041E-02  0.23489717609E-01  0.00000000000E+00 0. -1.
     999901    1    3    3    0    0 -0.67392131651E-01  0.11739600903E+00 -0.37546081574E-01  0.89114153230E+00  0.88000000000E+00 0. -1.
        -11    1    4    4    0    0  0.29796150245E-01 -0.55253121107E-01  0.27745628021E-01  0.68635260303E-01  0.51100000000E-03 0.  1.
         11    1    4    4    0    0  0.14705981388E-01 -0.57537116269E-01  0.12369811457E-01  0.60663489791E-01  0.51100000000E-03 0. -1.
</event>
<event>
 8    1  0.1072332E+005  0.1043930E+01  0.7957747E-01            NaN
         13   -1    0    0    0    0  0.00000000000E+00  0.00000000000E+00  0.74505805969E-08  0.10566000000E+00  0.10566000000E+00 0.  1.
     999900   -1    0    0    0    0 -0.00000000000E+00 -0.00000000000E+00 -0.74505805969E-08  0.93827000000E+00  0.93827000000E+00 0.  1.
     999902    2    1    2    0    0  0.18996559081E-01 -0.11414331510E-01  0.80506387378E-02  0.10203510050E+01  0.10200785286E+01 0.  0.
     999903    2    3    3    0    0 -0.11412725698E+00  0.47418949424E-01  0.28229963944E-01  0.12816800219E+00  0.18881694058E-01 0.  0.
         14    1    1    2    0    0 -0.18996559081E-01  0.11414331510E-01 -0.80506387378E-02  0.23578994992E-01  0.00000000000E+00 0.  1.
     999901    1    3    3    0    0  0.13312381606E+00 -0.58833280934E-01 -0.20179325206E-01  0.89218300282E+00  0.88000000000E+00 0.  1.
        -11    1    4    4    0    0 -0.11191958823E+00  0.44451539645E-01  0.24503160919E-01  0.12289263454E+00  0.51100000000E-03 0. -1.
         11    1    4    4    0    0 -0.22076687481E-02  0.29674097792E-02  0.37268030252E-02  0.52753676543E-02  0.51100000000E-03 0.  1.
</event>
<event>
 8    1  0.1072332E+005  0.1043930E+01  0.7957747E-01            NaN
         13   -1    0    0    0    0  0.00000000000E+00  0.00000000000E+00  0.74505805969E-08  0.10566000000E+00  0.10566000000E+00 0.  1.
     999900   -1    0    0    0    0 -0.00000000000E+00 -0.00000000000E+00 -0.74505805969E-08  0.93827000000E+00  0.93827000000E+00 0.  1.
     999902    2    1    2    0    0  0.18769155250E-01 -0.26342835983E-02  0.14511812490E-01  0.10200592367E+01  0.10197798944E+01 0.  0.
     999903    2    3    3    0    0  0.92911281235E-01 -0.45151925028E-01 -0.78261244824E-01  0.13106449833E+00  0.19541693052E-01 0.  0.
         14    1    1    2    0    0 -0.18769155250E-01  0.26342835983E-02 -0.14511812490E-01  0.23870763302E-01  0.00000000000E+00 0.  1.
     999901    1    3    3    0    0 -0.74142125985E-01  0.42517641429E-01  0.92773057314E-01  0.88899473837E+00  0.88000000000E+00 0. -1.
        -11    1    4    4    0    0  0.34621788131E-01 -0.26463878961E-01 -0.37771931366E-01  0.57671353575E-01  0.51100000000E-03 0.  1.
         11    1    4    4    0    0  0.58289493104E-01 -0.18688046066E-01 -0.40489313458E-01  0.73393144758E-01  0.51100000000E-03 0. -1.
</event>
<event>
 8    1  0.1072332E+005  0.1043930E+01  0.7957747E-01            NaN
         13   -1    0    0    0    0  0.00000000000E+00  0.00000000000E+00  0.74505805969E-08  0.10566000000E+00  0.10566000000E+00 0. -1.
     999900   -1    0    0    0    0 -0.00000000000E+00 -0.00000000000E+00 -0.74505805969E-08  0.93827000000E+00  0.93827000000E+00 0.  1.
     999902    2    1    2    0    0 -0.47619675222E-02  0.20804859173E-01 -0.83557582394E-02  0.10210097645E+01  0.10207524685E+01 0.  0.
     999903    2    3    3    0    0 -0.10574834916E+00 -0.42505133373E-01 -0.61800623854E-01  0.13136783760E+00  0.21184709878E-01 0.  0.
         14    1    1    2    0    0  0.47619675222E-02 -0.20804859173E-01  0.83557582394E-02  0.22920235506E-01  0.00000000000E+00 0. -1.
     999901    1    3    3    0    0  0.10098638164E+00  0.63309992547E-01  0.53444865615E-01  0.88964192690E+00  0.88000000000E+00 0. -1.
        -11    1    4    4    0    0 -0.84901616372E-01 -0.25288687563E-01 -0.43315268672E-01  0.98611742720E-01  0.51100000000E-03 0. -1.
         11    1    4    4    0    0 -0.20846732790E-01 -0.17216445810E-01 -0.18485355182E-01  0.32756094876E-01  0.51100000000E-03 0.  1.
</event>
<event>
 8    1  0.1072332E+005  0.1043930E+01  0.7957747E-01            NaN
         13   -1    0    0    0    0  0.00000000000E+00  0.00000000000E+00  0.74505805969E-08  0.10566000000E+00  0.10566000000E+00 0.  1.
     999900   -1    0    0    0    0 -0.00000000000E+00 -0.00000000000E+00 -0.74505805969E-08  0.93827000000E+00  0.93827000000E+00 0.  1.
     999902    2    1    2    0    0 -0.16520515460E-01 -0.15883138512E-01  0.10993025504E-01  0.10185125231E+01  0.10181953210E+01 0.  0.
     999903    2    3    3    0    0  0.80064300563E-01  0.63436061897E-01 -0.70772053364E-01  0.12592880698E+00  0.20370437302E-01 0.  0.
         14    1    1    2    0    0  0.16520515460E-01  0.15883138512E-01 -0.10993025504E-01  0.25417476857E-01  0.00000000000E+00 0.  1.
     999901    1    3    3    0    0 -0.96584816024E-01 -0.79319200409E-01  0.81765078868E-01  0.89258371616E+00  0.88000000000E+00 0. -1.
        -11    1    4    4    0    0  0.31089623212E-01  0.37533816721E-01 -0.32049917622E-01  0.58333613035E-01  0.51100000000E-03 0.  1.
         11    1    4    4    0    0  0.48974677351E-01  0.25902245176E-01 -0.38722135742E-01  0.67595193943E-01  0.51100000000E-03 0. -1.
</event>
<event>
 8    1  0.1072332E+005  0.1043930E+01  0.7957747E-01            NaN
         13   -1    0    0    0    0  0.00000000000E+00  0.00000000000E+00  0.74505805969E-08  0.10566000000E+00  0.10566000000E+00 0. -1.
     999900   -1    0    0    0    0 -0.00000000000E+00 -0.00000000000E+00 -0.74505805969E-08  0.93827000000E+00  0.93827000000E+00 0. -1.
     999902    2    1    2    0    0  0.11020220008E-01 -0.21929334726E-01 -0.10497112764E-01  0.10172367359E+01  0.10168864472E+01 0.  0.
     999903    2    3    3    0    0 -0.12394861299E-01 -0.62536234118E-01 -0.11171723148E+00  0.13019519307E+00  0.20140390414E-01 0.  0.
         14    1    1    2    0    0 -0.11020220008E-01  0.21929334726E-01  0.10497112764E-01  0.26693264074E-01  0.00000000000E+00 0. -1.
     999901    1    3    3    0    0  0.23415081307E-01  0.40606899393E-01  0.10122011872E+00  0.88704154285E+00  0.88000000000E+00 0.  1.
        -11    1    4    4    0    0 -0.10554618434E-01 -0.17942406509E-01 -0.23994425644E-01  0.31769852134E-01  0.51100000000E-03 0. -1.
         11    1    4    4    0    0 -0.18402428647E-02 -0.44593827609E-01 -0.87722805836E-01  0.98425340941E-01  0.51100000000E-03 0.  1.
</event>
<event>
 7    1  0.1072332E+005  0.1043930E+01  0.7957747E-01            NaN
         13   -1    0    0    0    0  0.00000000000E+00  0.00000000000E+00  0.74505805969E-08  0.10566000000E+00  0.10566000000E+00 0. -1.
     999900   -1    0    0    0    0 -0.00000000000E+00 -0.00000000000E+00 -0.74505805969E-08  0.93827000000E+00  0.93827000000E+00 0.  1.
     999902    2    1    2    0    0  0.88629700489E-02  0.17969298893E-01 -0.15035132413E-01  0.10188799871E+01  0.10185720028E+01 0.  0.
         14    1    1    2    0    0 -0.88629700489E-02 -0.17969298893E-01  0.15035132413E-01  0.25050012924E-01  0.00000000000E+00 0. -1.
     999901    1    3    3    0    0  0.36197117644E-01 -0.13318232982E-02  0.91843567359E-01  0.88552088961E+00  0.88000000000E+00 0. -1.
        -11    1    3    3    0    0  0.65292687897E-04  0.43217576261E-01 -0.53733257274E-01  0.68958590613E-01  0.51100000000E-03 0. -1.
         11    1    3    3    0    0 -0.27399440283E-01 -0.23916454070E-01 -0.53145442498E-01  0.64400506849E-01  0.51100000000E-03 0.  1.
</event>
<event>
 8    1  0.1072332E+005  0.1043930E+01  0.7957747E-01            NaN
         13   -1    0    0    0    0  0.00000000000E+00  0.00000000000E+00  0.74505805969E-08  0.10566000000E+00  0.10566000000E+00 0.  1.
     999900   -1    0    0    0    0 -0.00000000000E+00 -0.00000000000E+00 -0.74505805969E-08  0.93827000000E+00  0.93827000000E+00 0. -1.
     999902    2    1    2    0    0 -0.19481187613E-01  0.75371968046E-02  0.10419866330E-01  0.10205869149E+01  0.10203199260E+01 0.  0.
     999903    2    3    3    0    0  0.85602847247E-01  0.57153181012E-02 -0.93018269631E-01  0.12831710058E+00  0.21268932689E-01 0.  0.
         14    1    1    2    0    0  0.19481187613E-01 -0.75371968046E-02 -0.10419866330E-01  0.23343085075E-01  0.00000000000E+00 0. -1.
     999901    1    3    3    0    0 -0.10508403486E+00  0.18218787034E-02  0.10343813596E+00  0.89226981435E+00  0.88000000000E+00 0. -1.
        -11    1    4    4    0    0  0.12060455092E-01 -0.25506108297E-02 -0.24641760634E-01  0.27557896886E-01  0.51100000000E-03 0.  1.
         11    1    4    4    0    0  0.73542392155E-01  0.82659289309E-02 -0.68376508996E-01  0.10075920369E+00  0.51100000000E-03 0. -1.
</event>
<event>
 8    1  0.1072332E+005  0.1043930E+01  0.7957747E-01            NaN
         13   -1    0    0    0    0  0.00000000000E+00  0.00000000000E+00  0.74505805969E-08  0.10566000000E+00  0.10566000000E+00 0.  1.
     999900   -1    0    0    0    0 -0.00000000000E+00 -0.00000000000E+00 -0.74505805969E-08  0.93827000000E+00  0.93827000000E+00 0.  1.
     999902    2    1    2    0    0 -0.18470960290E-01 -0.82639982196E-02  0.13049044945E-01  0.10198520513E+01  0.10195677804E+01 0.  0.
     999903    2    3    3    0    0 -0.63021391365E-01 -0.76831960911E-01 -0.82889947906E-01  0.13086915113E+00  0.19522942035E-01 0.  0.
         14    1    1    2    0    0  0.18470960290E-01  0.82639982196E-02 -0.13049044945E-01  0.24077948720E-01  0.00000000000E+00 0. -1.
     999901    1    3    3    0    0  0.44550431075E-01  0.68567962691E-01  0.95938992850E-01  0.88898290015E+00  0.88000000000E+00 0. -1.
        -11    1    4    4    0    0 -0.50164873893E-01 -0.52415534493E-01 -0.68328624569E-01  0.99664260823E-01  0.51100000000E-03 0. -1.
         11    1    4    4    0    0 -0.12856517472E-01 -0.24416426418E-01 -0.14561323337E-01  0.31204890303E-01  0.51100000000E-03 0.  1.
</event>
<event>
 8    1  0.1072332E+005  0.1043930E+01  0.7957747E-01            NaN
         13   -1    0    0    0    0  0.00000000000E+00  0.00000000000E+00  0.74505805969E-08  0.10566000000E+00  0.10566000000E+00 0. -1.
     999900   -1    0    0    0    0 -0.00000000000E+00 -0.00000000000E+00 -0.74505805969E-08  0.93827000000E+00  0.93827000000E+00 0.  1.
     999902    2    1    2    0    0 -0.13275844829E-01 -0.10205544310E-01  0.15848832412E-01  0.10208738364E+01  0.10206134445E+01 0.  0.
     999903    2    3    3    0    0  0.36890208130E-01  0.56988750313E-02 -0.12198067653E+00  0.12859217855E+00  0.16226469235E-01 0.  0.
         14    1    1    2    0    0  0.13275844829E-01  0.10205544310E-01 -0.15848832412E-01  0.23056163588E-01  0.00000000000E+00 0.  1.
     999901    1    3    3    0    0 -0.50166052959E-01 -0.15904419342E-01  0.13782950894E+00  0.89228165786E+00  0.88000000000E+00 0. -1.
        -11    1    4    4    0    0  0.23964409080E-01 -0.21532345894E-02 -0.90773117629E-01  0.93909261135E-01  0.51100000000E-03 0.  1.
         11    1    4    4    0    0  0.12925799049E-01  0.78521096207E-02 -0.31207558904E-01  0.34682917413E-01  0.51100000000E-03 0. -1.
</event>
<event>
 8    1  0.1072332E+005  0.1043930E+01  0.7957747E-01            NaN
         13   -1    0    0    0    0  0.00000000000E+00  0.00000000000E+00  0.74505805969E-08  0.10566000000E+00  0.10566000000E+00 0. -1.
     999900   -1    0    0    0    0 -0.00000000000E+00 -0.00000000000E+00 -0.74505805969E-08  0.93827000000E+00  0.93827000000E+00 0.  1.
     999902    2    1    2    0    0  0.19714749002E-01  0.14644394814E-02  0.13260492808E-01  0.10201254504E+01  0.10198476739E+01 0.  0.
     999903    2    3    3    0    0 -0.10234474350E+00 -0.74356187676E-01 -0.75664878100E-02  0.12822800658E+00  0.19541769779E-01 0.  0.
         14    1    1    2    0    0 -0.19714749002E-01 -0.14644394814E-02 -0.13260492808E-01  0.23804549580E-01  0.00000000000E+00 0. -1.
     999901    1    3    3    0    0  0.12205949250E+00  0.75820627158E-01  0.20826980618E-01  0.89189744384E+00  0.88000000000E+00 0. -1.
        -11    1    4    4    0    0 -0.49638769670E-01 -0.29287169244E-01  0.45957535647E-02  0.57819787344E-01  0.51100000000E-03 0. -1.
         11    1    4    4    0    0 -0.52705973825E-01 -0.45069018432E-01 -0.12162241375E-01  0.70408219233E-01  0.51100000000E-03 0.  1.
</event>
<event>
 8    1  0.1072332E+005  0.1043930E+01  0.7957747E-01            NaN
         13   -1    0    0    0    0  0.00000000000E+00  0.00000000000E+00  0.74505805969E-08  0.10566000000E+00  0.10566000000E+00 0. -1.
     999900   -1    0    0    0    0 -0.00000000000E+00 -0.00000000000E+00 -0.74505805969E-08  0.93827000000E+00  0.93827000000E+00 0. -1.
     999902    2    1    2    0    0 -0.15958418434E-01  0.52061511583E-02  0.17318041712E-01  0.10198117559E+01  0.10195265214E+01 0.  0.
     999903    2    3    3    0    0 -0.67808492830E-01 -0.10501256750E+00 -0.30180460718E-01  0.13015299893E+00  0.20082626522E-01 0.  0.
         14    1    1    2    0    0  0.15958418434E-01 -0.52061511583E-02 -0.17318041712E-01  0.24118244081E-01  0.00000000000E+00 0.  1.
     999901    1    3    3    0    0  0.51850074395E-01  0.11021871866E+00  0.47498502430E-01  0.88965875699E+00  0.88000000000E+00 0.  1.
        -11    1    4    4    0    0 -0.51988520702E-01 -0.63511449270E-01 -0.16979165925E-01  0.83815652891E-01  0.51100000000E-03 0.  1.
         11    1    4    4    0    0 -0.15819972128E-01 -0.41501118231E-01 -0.13201294793E-01  0.46337346037E-01  0.51100000000E-03 0. -1.
</event>
<event>
 8    1  0.1072332E+005  0.1043930E+01  0.7957747E-01            NaN
         13   -1    0    0    0    0  0.00000000000E+00  0.00000000000E+00  0.74505805969E-08  0.10566000000E+00  0.10566000000E+00 0.  1.
     999900   -1    0    0    0    0 -0.00000000000E+00 -0.00000000000E+00 -0.74505805969E-08  0.93827000000E+00  0.93827000000E+00 0.  1.
     999902    2    1    2    0    0  0.11480490766E-01 -0.21112020195E-01 -0.43339367777E-03  0.10198944660E+01  0.10196112077E+01 0.  0.
     999903    2    3    3    0    0 -0.11527228339E+00 -0.77505454230E-02  0.55213491996E-01  0.12897282485E+00  0.15417184539E-01 0.  0.
         14    1    1    2    0    0 -0.11480490766E-01  0.21112020195E-01  0.43339367777E-03  0.24035534007E-01  0.00000000000E+00 0.  1.
     999901    1    3    3    0    0  0.12675277416E+00 -0.13361474772E-01 -0.55646885673E-01  0.89092164114E+00  0.88000000000E+00 0.  1.
        -11    1    4    4    0    0 -0.10186975605E+00 -0.54478991531E-02  0.43076499628E-01  0.11073830748E+00  0.51100000000E-03 0.  1.
         11    1    4    4    0    0 -0.13402527348E-01 -0.23026462698E-02  0.12136992367E-01  0.18234517374E-01  0.51100000000E-03 0. -1.
</event>
<event>
 8    1  0.1072332E+005  0.1043930E+01  0.7957747E-01            NaN
         13   -1    0    0    0    0  0.00000000000E+00  0.00000000000E+00  0.74505805969E-08  0.10566000000E+00  0.10566000000E+00 0.  1.
     999900   -1    0    0    0    0 -0.00000000000E+00 -0.00000000000E+00 -0.74505805969E-08  0.93827000000E+00  0.93827000000E+00 0.  1.
     999902    2    1    2    0    0 -0.10030225834E-01  0.20556694029E-01 -0.62118628892E-02  0.10202283051E+01  0.10199529520E+01 0.  0.
     999903    2    3    3    0    0 -0.10367312359E+00  0.37419442703E-01  0.70369554499E-01  0.13179256851E+00  0.16403526078E-01 0.  0.
         14    1    1    2    0    0  0.10030225834E-01 -0.20556694029E-01  0.62118628892E-02  0.23701694881E-01  0.00000000000E+00 0.  1.
     999901    1    3    3    0    0  0.93642897754E-01 -0.16862748674E-01 -0.76581417389E-01  0.88843573661E+00  0.88000000000E+00 0. -1.
        -11    1    4    4    0    0 -0.13803536126E-01 -0.35071854259E-03  0.10904847789E-01  0.17602199845E-01  0.51100000000E-03 0. -1.
         11    1    4    4    0    0 -0.89869587461E-01  0.37770161246E-01  0.59464706710E-01  0.11419036867E+00  0.51100000000E-03 0.  1.
</event>
<event>
 8    1  0.1072332E+005  0.1043930E+01  0.7957747E-01            NaN
         13   -1    0    0    0    0  0.00000000000E+00  0.00000000000E+00  0.74505805969E-08  0.10566000000E+00  0.10566000000E+00 0. -1.
     999900   -1    0    0    0    0 -0.00000000000E+00 -0.00000000000E+00 -0.74505805969E-08  0.93827000000E+00  0.93827000000E+00 0. -1.
     999902    2    1    2    0    0  0.72893867501E-02  0.18627285192E-02 -0.22058780450E-01  0.10206234620E+01  0.10203573181E+01 0.  0.
     999903    2    3    3    0    0  0.10058032033E+00 -0.60992967423E-01 -0.58548188023E-01  0.13271270433E+00  0.18660885719E-01 0.  0.
         14    1    1    2    0    0 -0.72893867501E-02 -0.18627285192E-02  0.22058780450E-01  0.23306537959E-01  0.00000000000E+00 0. -1.
     999901    1    3    3    0    0 -0.93290933580E-01  0.62855695942E-01  0.36489407574E-01  0.88791075771E+00  0.88000000000E+00 0. -1.
        -11    1    4    4    0    0  0.23689044810E-01 -0.17975459576E-01 -0.23437976752E-01  0.37866711849E-01  0.51100000000E-03 0.  1.
         11    1    4    4    0    0  0.76891275520E-01 -0.43017507847E-01 -0.35110211271E-01  0.94845992477E-01  0.51100000000E-03 0. -1.
</event>
<event>
 8    1  0.1072332E+005  0.1043930E+01  0.7957747E-01            NaN
         13   -1    0    0    0    0  0.00000000000E+00  0.00000000000E+00  0.74505805969E-08  0.10566000000E+00  0.10566000000E+00 0.  1.
     999900   -1    0    0    0    0 -0.00000000000E+00 -0.00000000000E+00 -0.74505805969E-08  0.93827000000E+00  0.93827000000E+00 0.  1.
     999902    2    1    2    0    0  0.10444900504E-01 -0.21800135055E-01  0.91091930250E-02  0.10180974772E+01  0.10177696959E+01 0.  0.
     999903    2    3    3    0    0  0.17288752231E-02 -0.11436439870E+00  0.62055834521E-01  0.13161710021E+00  0.19746639441E-01 0.  0.
         14    1    1    2    0    0 -0.10444900504E-01  0.21800135055E-01 -0.91091930250E-02  0.25832522767E-01  0.00000000000E+00 0. -1.
     999901    1    3    3    0    0  0.87160252808E-02  0.92564263648E-01 -0.52946641496E-01  0.88648037702E+00  0.88000000000E+00 0.  1.
        -11    1    4    4    0    0  0.69124280109E-02 -0.87329123925E-01  0.39830702867E-01  0.96233588514E-01  0.51100000000E-03 0. -1.
         11    1    4    4    0    0 -0.51835527878E-02 -0.27035274778E-01  0.22225131654E-01  0.35383511695E-01  0.51100000000E-03 0.  1.
</event>
<event>
 8    1  0.1072332E+005  0.1043930E+01  0.7957747E-01            NaN
         13   -1    0    0    0    0  0.00000000000E+00  0.00000000000E+00  0.74505805969E-08  0.10566000000E+00  0.10566000000E+00 0. -1.
     999900   -1    0    0    0    0 -0.00000000000E+00 -0.00000000000E+00 -0.74505805969E-08  0.93827000000E+00  0.93827000000E+00 0. -1.
     999902    2    1    2    0    0 -0.49917430967E-02  0.15696684167E-01 -0.16706124736E-01  0.10204694374E+01  0.10201997229E+01 0.  0.
     999903    2    3    3    0    0  0.61759664564E-01  0.55474067703E-01  0.97505977403E-01  0.12969314960E+00  0.20524840288E-01 0.  0.
         14    1    1    2    0    0  0.49917430967E-02 -0.15696684167E-01  0.16706124736E-01  0.23460562582E-01  0.00000000000E+00 0.  1.
     999901    1    3    3    0    0 -0.66751407660E-01 -0.39777383536E-01 -0.11421210214E+00  0.89077628782E+00  0.88000000000E+00 0. -1.
        -11    1    4    4    0    0  0.69341114774E-02 -0.51872303500E-03  0.10429108654E-01  0.12545054957E-01  0.51100000000E-03 0. -1.
         11    1    4    4    0    0  0.54825553086E-01  0.55992790738E-01  0.87076868750E-01  0.11714809464E+00  0.51100000000E-03 0.  1.
</event>
<event>
 8    1  0.1072332E+005  0.1043930E+01  0.7957747E-01            NaN
         13   -1    0    0    0    0  0.00000000000E+00  0.00000000000E+00  0.74505805969E-08  0.10566000000E+00  0.10566000000E+00 0.  1.
     999900   -1    0    0    0    0 -0.00000000000E+00 -0.00000000000E+00 -0.74505805969E-08  0.93827000000E+00  0.93827000000E+00 0.  1.
     999902    2    1    2    0    0 -0.12957373178E-01  0.97385828582E-02  0.16051091855E-01  0.10211183568E+01  0.10208635205E+01 0.  0.
     999903    2    3    3    0    0 -0.58503689494E-01 -0.44453858610E-01  0.10940115723E+00  0.13335401738E+00  0.20392486814E-01 0.  0.
         14    1    1    2    0    0  0.12957373178E-01 -0.97385828582E-02 -0.16051091855E-01  0.22811643200E-01  0.00000000000E+00 0. -1.
     999901    1    3    3    0    0  0.45546316316E-01  0.54192441468E-01 -0.93350065373E-01  0.88776433942E+00  0.88000000000E+00 0.  1.
        -11    1    4    4    0    0 -0.51363982147E-01 -0.34284737976E-01  0.77382056302E-01  0.99004776040E-01  0.51100000000E-03 0. -1.
         11    1    4    4    0    0 -0.71397073470E-02 -0.10169120633E-01  0.32019100926E-01  0.34349241339E-01  0.51100000000E-03 0.  1.
</event>
<event>
 8    1  0.1072332E+005  0.1043930E+01  0.7957747E-01            NaN
         13   -1    0    0    0    0  0.00000000000E+00  0.00000000000E+00  0.74505805969E-08  0.10566000000E+00  0.10566000000E+00 0.  1.
     999900   -1    0    0    0    0 -0.00000000000E+00 -0.00000000000E+00 -0.74505805969E-08  0.93827000000E+00  0.93827000000E+00 0. -1.
     999902    2    1    2    0    0 -0.19053916075E-01 -0.12037198109E-01  0.12097317397E-01  0.10183508885E+01  0.10180295876E+01 0.  0.
     999903    2    3    3    0    0  0.17212037326E-02 -0.51775551731E-01  0.11822368653E+00  0.13084114289E+00  0.21421818695E-01 0.  0.
         14    1    1    2    0    0  0.19053916075E-01  0.12037198109E-01 -0.12097317397E-01  0.25579111484E-01  0.00000000000E+00 0. -1.
     999901    1    3    3    0    0 -0.20775119808E-01  0.39738353622E-01 -0.10612636914E+00  0.88750974562E+00  0.88000000000E+00 0. -1.
        -11    1    4    4    0    0 -0.78574787969E-02 -0.14066404888E-01  0.46916806980E-01  0.49608987268E-01  0.51100000000E-03 0.  1.
         11    1    4    4    0    0  0.95786825295E-02 -0.37709146843E-01  0.71306879553E-01  0.81232155624E-01  0.51100000000E-03 0. -1.
</event>
<event>
 8    1  0.1072332E+005  0.1043930E+01  0.7957747E-01            NaN
         13   -1    0    0    0    0  0.00000000000E+00  0.00000000000E+00  0.74505805969E-08  0.10566000000E+00  0.10566000000E+00 0. -1.
     999900   -1    0    0    0    0 -0.00000000000E+00 -0.00000000000E+00 -0.74505805969E-08  0.93827000000E+00  0.93827000000E+00 0.  1.
     999902    2    1    2    0    0  0.19882458235E-01  0.35405622650E-02 -0.11466713325E-01  0.10207064507E+01  0.10204422205E+01 0.  0.
     999903    2    3    3    0    0 -0.13377785166E-01  0.10141278292E+00 -0.81112634334E-01  0.13192314210E+00  0.18998376203E-01 0.  0.
         14    1    1    2    0    0 -0.19882458235E-01 -0.35405622650E-02  0.11466713325E-01  0.23223549279E-01  0.00000000000E+00 0. -1.
     999901    1    3    3    0    0  0.33260243401E-01 -0.97872220653E-01  0.69645921009E-01  0.88878330862E+00  0.88000000000E+00 0.  1.
        -11    1    4    4    0    0  0.30730074020E-02  0.43904716457E-01 -0.30282454934E-01  0.53426170549E-01  0.51100000000E-03 0. -1.
         11    1    4    4    0    0 -0.16450792568E-01  0.57508066461E-01 -0.50830179400E-01  0.78496971553E-01  0.51100000000E-03 0.  1.
</event>
<event>
 8    1  0.1072332E+005  0.1043930E+01  0.7957747E-01            NaN
         13   -1    0    0    0    0  0.00000000000E+00  0.00000000000E+00  0.74505805969E-08  0.10566000000E+00  0.10566000000E+00 0.  1.
     999900   -1    0    0    0    0 -0.00000000000E+00 -0.00000000000E+00 -0.74505805969E-08  0.93827000000E+00  0.93827000000E+00 0.  1.
     999902    2    1    2    0    0 -0.16237375320E-01 -0.24926506871E-02 -0.18066757854E-01  0.10195112899E+01  0.10192188169E+01 0.  0.
     999903    2    3    3    0    0 -0.25323726694E-01 -0.14005607227E-02 -0.12856818928E+00  0.13255338739E+00  0.19934104181E-01 0.  0.
         14    1    1    2    0    0  0.16237375320E-01  0.24926506871E-02  0.18066757854E-01  0.24418710124E-01  0.00000000000E+00 0.  1.
     999901    1    3    3    0    0  0.90863513734E-02 -0.10920899644E-02  0.11050143142E+00  0.88695790249E+00  0.88000000000E+00 0. -1.
        -11    1    4    4    0    0 -0.90925502473E-02 -0.99941068514E-02 -0.44898655320E-01  0.46890372277E-01  0.51100000000E-03 0. -1.
         11    1    4    4    0    0 -0.16231176447E-01  0.85935461287E-02 -0.83669533958E-01  0.85663015109E-01  0.51100000000E-03 0.  1.
</event>
<event>
 8    1  0.1072332E+005  0.1043930E+01  0.7957747E-01            NaN
         13   -1    0    0    0    0  0.00000000000E+00  0.00000000000E+00  0.74505805969E-08  0.10566000000E+00  0.10566000000E+00 0.  1.
     999900   -1    0    0    0    0 -0.00000000000E+00 -0.00000000000E+00 -0.74505805969E-08  0.93827000000E+00  0.93827000000E+00 0.  1.
     999902    2    1    2    0    0 -0.10921517818E-01  0.85810003834E-02 -0.85869383128E-02  0.10276006207E+01  0.10274708692E+01 0.  0.
     999903    2    3    3    0    0  0.10582092234E+00  0.45948420194E-01  0.68607885798E-01  0.13575749420E+00  0.20340361718E-01 0.  0.
         14    1    1    2    0    0  0.10921517818E-01 -0.85810003834E-02  0.85869383128E-02  0.16329379309E-01  0.00000000000E+00 0.  1.
     999901    1    3    3    0    0 -0.11674244016E+00 -0.37367419811E-01 -0.77194824111E-01  0.89184312649E+00  0.88000000000E+00 0.  1.
        -11    1    4    4    0    0  0.45093212714E-01  0.30293071907E-01  0.34702225290E-01  0.64463738641E-01  0.51100000000E-03 0.  1.
         11    1    4    4    0    0  0.60727709626E-01  0.15655348287E-01  0.33905660508E-01  0.71293755560E-01  0.51100000000E-03 0. -1.
</event>
<event>
 8    1  0.1072332E+005  0.1043930E+01  0.7957747E-01            NaN
         13   -1    0    0    0    0  0.00000000000E+00  0.00000000000E+00  0.74505805969E-08  0.10566000000E+00  0.10566000000E+00 0. -1.
     999900   -1    0    0    0    0 -0.00000000000E+00 -0.00000000000E+00 -0.74505805969E-08  0.93827000000E+00  0.93827000000E+00 0. -1.
     999902    2    1    2    0    0 -0.41086145570E-02 -0.21344149120E-01 -0.12255229141E-01  0.10189771634E+01  0.10186715935E+01 0.  0.
     999903    2    3    3    0    0  0.69564875130E-02  0.56342513259E-02  0.12569364758E+00  0.12775319422E+00  0.21020182782E-01 0.  0.
         14    1    1    2    0    0  0.41086145570E-02  0.21344149120E-01  0.12255229141E-01  0.24952836643E-01  0.00000000000E+00 0. -1.
     999901    1    3    3    0    0 -0.11065102070E-01 -0.26978400446E-01 -0.13794887672E+00  0.89122396914E+00  0.88000000000E+00 0. -1.
        -11    1    4    4    0    0  0.99761233452E-02 -0.54257930158E-02  0.61491661865E-01  0.62533573917E-01  0.51100000000E-03 0. -1.
         11    1    4    4    0    0 -0.30196358322E-02  0.11060044342E-01  0.64201985718E-01  0.65219620304E-01  0.51100000000E-03 0.  1.
</event>
<event>
 8    1  0.1072332E+005  0.1043930E+01  0.7957747E-01            NaN
         13   -1    0    0    0    0  0.00000000000E+00  0.00000000000E+00  0.74505805969E-08  0.10566000000E+00  0.10566000000E+00 0.  1.
     999900   -1    0    0    0    0 -0.00000000000E+00 -0.00000000000E+00 -0.74505805969E-08  0.93827000000E+00  0.93827000000E+00 0. -1.
     999902    2    1    2    0    0  0.13426457741E-01 -0.17125161850E-01 -0.81041018600E-02  0.10207089448E+01  0.10204447720E+01 0.  0.
     999903    2    3    3    0    0  0.80760897844E-01 -0.95955997823E-01  0.40540637153E-01  0.13328878609E+00  0.19811135682E-01 0.  0.
         14    1    1    2    0    0 -0.13426457741E-01  0.17125161850E-01  0.81041018600E-02  0.23221055162E-01  0.00000000000E+00 0.  1.
     999901    1    3    3    0    0 -0.67334440103E-01  0.78830835973E-01 -0.48644739013E-01  0.88742015875E+00  0.88000000000E+00 0. -1.
        -11    1    4    4    0    0  0.60789645691E-01 -0.57990044606E-01  0.24930203496E-01  0.87635623259E-01  0.51100000000E-03 0.  1.
         11    1    4    4    0    0  0.19971252153E-01 -0.37965953217E-01  0.15610433657E-01  0.45653162828E-01  0.51100000000E-03 0. -1.
</event>
<event>
 8    1  0.1072332E+005  0.1043930E+01  0.7957747E-01            NaN
         13   -1    0    0    0    0  0.00000000000E+00  0.00000000000E+00  0.74505805969E-08  0.10566000000E+00  0.10566000000E+00 0. -1.
     999900   -1    0    0    0    0 -0.00000000000E+00 -0.00000000000E+00 -0.74505805969E-08  0.93827000000E+00  0.93827000000E+00 0. -1.
     999902    2    1    2    0    0  0.13818735059E-01 -0.10508325428E-01  0.14860117394E-01  0.10210781854E+01  0.10208224406E+01 0.  0.
     999903    2    3    3    0    0 -0.10436846459E+00 -0.16304136005E-02 -0.72682922694E-01  0.12882776351E+00  0.20453624362E-01 0.  0.
         14    1    1    2    0    0 -0.13818735059E-01  0.10508325428E-01 -0.14860117394E-01  0.22851814608E-01  0.00000000000E+00 0.  1.
     999901    1    3    3    0    0  0.11818719965E+00 -0.88779118274E-02  0.87543040088E-01  0.89225042188E+00  0.88000000000E+00 0.  1.
        -11    1    4    4    0    0 -0.59965443995E-01 -0.55931116060E-02 -0.52466733810E-01  0.79875882772E-01  0.51100000000E-03 0.  1.
         11    1    4    4    0    0 -0.44403020599E-01  0.39626980055E-02 -0.20216188884E-01  0.48951880738E-01  0.51100000000E-03 0. -1.
</event>
<event>
 8    1  0.1072332E+005  0.1043930E+01  0.7957747E-01            NaN
         13   -1    0    0    0    0  0.00000000000E+00  0.00000000000E+00  0.74505805969E-08  0.10566000000E+00  0.10566000000E+00 0. -1.
     999900   -1    0    0    0    0 -0.00000000000E+00 -0.00000000000E+00 -0.74505805969E-08  0.93827000000E+00  0.93827000000E+00 0.  1.
     999902    2    1    2    0    0  0.14886855432E-01  0.44137783378E-02  0.18262487660E-01  0.10199588015E+01  0.10196770755E+01 0.  0.
     999903    2    3    3    0    0 -0.10678813604E+00  0.65284157692E-01 -0.22631258288E-01  0.12856533890E+00  0.18738870629E-01 0.  0.
         14    1    1    2    0    0 -0.14886855432E-01 -0.44137783378E-02 -0.18262487660E-01  0.23971198539E-01  0.00000000000E+00 0.  1.
     999901    1    3    3    0    0  0.12167499147E+00 -0.60870379354E-01  0.40893745947E-01  0.89139346256E+00  0.88000000000E+00 0.  1.
        -11    1    4    4    0    0 -0.54020354900E-01  0.26799449785E-01 -0.30566901311E-02  0.60382230233E-01  0.51100000000E-03 0. -1.
         11    1    4    4    0    0 -0.52767781135E-01  0.38484707907E-01 -0.19574568157E-01  0.68183108671E-01  0.51100000000E-03 0.  1.
</event>
<event>
 8    1  0.1072332E+005  0.1043930E+01  0.7957747E-01            NaN
         13   -1    0    0    0    0  0.00000000000E+00  0.00000000000E+00  0.74505805969E-08  0.10566000000E+00  0.10566000000E+00 0. -1.
     999900   -1    0    0    0    0 -0.00000000000E+00 -0.00000000000E+00 -0.74505805969E-08  0.93827000000E+00  0.93827000000E+00 0. -1.
     999902    2    1    2    0    0  0.85894056436E-03  0.21686780157E-01  0.14394528332E-01  0.10178866389E+01  0.10175534153E+01 0.  0.
     999903    2    3    3    0    0 -0.10191681132E+00 -0.72631758076E-01  0.50065002042E-02  0.12684961558E+00  0.20083605668E-01 0.  0.
         14    1    1    2    0    0 -0.85894056436E-03 -0.21686780157E-01 -0.14394528332E-01  0.26043361119E-01  0.00000000000E+00 0.  1.
     999901    1    3    3    0    0  0.10277575188E+00  0.94318538233E-01  0.93880281279E-02  0.89103702331E+00  0.88000000000E+00 0. -1.
        -11    1    4    4    0    0 -0.97829319556E-01 -0.65533109824E-01  0.82143326808E-02  0.11803770851E+00  0.51100000000E-03 0. -1.
         11    1    4    4    0    0 -0.40874917633E-02 -0.70986482528E-02 -0.32078324765E-02  0.88119070654E-02  0.51100000000E-03 0.  1.
</event>
<event>
 8    1  0.1072332E+005  0.1043930E+01  0.7957747E-01            NaN
         13   -1    0    0    0    0  0.00000000000E+00  0.00000000000E+00  0.74505805969E-08  0.10566000000E+00  0.10566000000E+00 0.  1.
     999900   -1    0    0    0    0 -0.00000000000E+00 -0.00000000000E+00 -0.74505805969E-08  0.93827000000E+00  0.93827000000E+00 0.  1.
     999902    2    1    2    0    0  0.52306036269E-02 -0.20061850710E-01 -0.16862279577E-01  0.10172059745E+01  0.10168548672E+01 0.  0.
     999903    2    3    3    0    0 -0.93905364000E-01  0.64663336447E-01  0.47898164032E-01  0.12524173052E+00  0.19791222255E-01 0.  0.
         14    1    1    2    0    0 -0.52306036269E-02  0.20061850710E-01  0.16862279577E-01  0.26724025534E-01  0.00000000000E+00 0.  1.
     999901    1    3    3    0    0  0.99135967627E-01 -0.84725187157E-01 -0.64760443610E-01  0.89196424394E+00  0.88000000000E+00 0. -1.
        -11    1    4    4    0    0 -0.54162484634E-01  0.44719046510E-01  0.21182328763E-01  0.73364296734E-01  0.51100000000E-03 0.  1.
         11    1    4    4    0    0 -0.39742879365E-01  0.19944289937E-01  0.26715835269E-01  0.51877433789E-01  0.51100000000E-03 0. -1.
</event>
<event>
 8    1  0.1072332E+005  0.1043930E+01  0.7957747E-01            NaN
         13   -1    0    0    0    0  0.00000000000E+00  0.00000000000E+00  0.74505805969E-08  0.10566000000E+00  0.10566000000E+00 0.  1.
     999900   -1    0    0    0    0 -0.00000000000E+00 -0.00000000000E+00 -0.74505805969E-08  0.93827000000E+00  0.93827000000E+00 0.  1.
     999902    2    1    2    0    0 -0.16513160739E-02  0.44501935407E-02 -0.23814451331E-01  0.10196471015E+01  0.10193579118E+01 0.  0.
     999903    2    3    3    0    0  0.11026480105E+00 -0.64771558637E-01 -0.55069441452E-02  0.12967404962E+00  0.20769004653E-01 0.  0.
         14    1    1    2    0    0  0.16513160739E-02 -0.44501935407E-02  0.23814451331E-01  0.24282898499E-01  0.00000000000E+00 0.  1.
     999901    1    3    3    0    0 -0.11191611712E+00  0.69221752178E-01 -0.18307507186E-01  0.88997305188E+00  0.88000000000E+00 0. -1.
        -11    1    4    4    0    0  0.35639340146E-01 -0.31817375823E-01 -0.55069152537E-02  0.48094648422E-01  0.51100000000E-03 0.  1.
         11    1    4    4    0    0  0.74625460900E-01 -0.32954182815E-01 -0.28891505464E-07  0.81579401202E-01  0.51100000000E-03 0. -1.
</event>
<event>
 8    1  0.1072332E+005  0.1043930E+01  0.7957747E-01            NaN
         13   -1    0    0    0    0  0.00000000000E+00  0.00000000000E+00  0.74505805969E-08  0.10566000000E+00  0.10566000000E+00 0.  1.
     999900   -1    0    0    0    0 -0.00000000000E+00 -0.00000000000E+00 -0.74505805969E-08  0.93827000000E+00  0.93827000000E+00 0. -1.
     999902    2    1    2    0    0 -0.76478663168E-02  0.12018781013E-01 -0.18568901351E-01  0.10205260462E+01  0.10202576468E+01 0.  0.
     999903    2    3    3    0    0 -0.12863852442E-01 -0.10257794702E+00  0.72684257856E-01  0.12840119190E+00  0.22718953015E-01 0.  0.
         14    1    1    2    0    0  0.76478663168E-02 -0.12018781013E-01  0.18568901351E-01  0.23403953803E-01  0.00000000000E+00 0.  1.
     999901    1    3    3    0    0  0.52159861257E-02  0.11459672804E+00 -0.91253159208E-01  0.89212485430E+00  0.88000000000E+00 0. -1.
        -11    1    4    4    0    0 -0.12746507260E-01 -0.26661938503E-01  0.25327255275E-01  0.38923815240E-01  0.51100000000E-03 0.  1.
         11    1    4    4    0    0 -0.11734518280E-03 -0.75916008520E-01  0.47357002581E-01  0.89477376660E-01  0.51100000000E-03 0. -1.
</event>
<event>
 8    1  0.1072332E+005  0.1043930E+01  0.7957747E-01            NaN
         13   -1    0    0    0    0  0.00000000000E+00  0.00000000000E+00  0.74505805969E-08  0.10566000000E+00  0.10566000000E+00 0.  1.
     999900   -1    0    0    0    0 -0.00000000000E+00 -0.00000000000E+00 -0.74505805969E-08  0.93827000000E+00  0.93827000000E+00 0.  1.
     999902    2    1    2    0    0  0.97965507347E-02  0.55274929604E-02 -0.21032781735E-01  0.10200783021E+01  0.10197994111E+01 0.  0.
     999903    2    3    3    0    0  0.63565772353E-01 -0.47579935353E-01 -0.10471929632E+00  0.13288330615E+00  0.19682082390E-01 0.  0.
         14    1    1    2    0    0 -0.97965507347E-02 -0.55274929604E-02  0.21032781735E-01  0.23851697890E-01  0.00000000000E+00 0.  1.
     999901    1    3    3    0    0 -0.53769221619E-01  0.53107428314E-01  0.83686514589E-01  0.88719499596E+00  0.88000000000E+00 0.  1.
        -11    1    4    4    0    0  0.83364557889E-02 -0.16327646220E-01 -0.23976207672E-01  0.30186225029E-01  0.51100000000E-03 0. -1.
         11    1    4    4    0    0  0.55229316565E-01 -0.31252289134E-01 -0.80743088652E-01  0.10269708112E+00  0.51100000000E-03 0.  1.
</event>
<event>
 8    1  0.1072332E+005  0.1043930E+01  0.7957747E-01            NaN
         13   -1    0    0    0    0  0.00000000000E+00  0.00000000000E+00  0.74505805969E-08  0.10566000000E+00  0.10566000000E+00 0. -1.
     999900   -1    0    0    0    0 -0.00000000000E+00 -0.00000000000E+00 -0.74505805969E-08  0.93827000000E+00  0.93827000000E+00 0.  1.
     999902    2    1    2    0    0  0.13668157712E-01  0.99731791846E-02 -0.17884357598E-01  0.10193102298E+01  0.10190128613E+01 0.  0.
     999903    2    3    3    0    0  0.10833437715E-01  0.26097852525E-01 -0.12777019679E+00  0.13232492079E+00  0.19651976910E-01 0.  0.
         14    1    1    2    0    0 -0.13668157712E-01 -0.99731791846E-02  0.17884357598E-01  0.24619770206E-01  0.00000000000E+00 0.  1.
     999901    1    3    3    0    0  0.28347199977E-02 -0.16124673341E-01  0.10988583919E+00  0.88698530900E+00  0.88000000000E+00 0. -1.
        -11    1    4    4    0    0  0.76697184742E-02  0.15737239529E-02 -0.52815982008E-01  0.53395601551E-01  0.51100000000E-03 0. -1.
         11    1    4    4    0    0  0.31637192405E-02  0.24524128573E-01 -0.74954214781E-01  0.78929319243E-01  0.51100000000E-03 0.  1.
</event>
<event>
 8    1  0.1072332E+005  0.1043930E+01  0.7957747E-01            NaN
         13   -1    0    0    0    0  0.00000000000E+00  0.00000000000E+00  0.74505805969E-08  0.10566000000E+00  0.10566000000E+00 0. -1.
     999900   -1    0    0    0    0 -0.00000000000E+00 -0.00000000000E+00 -0.74505805969E-08  0.93827000000E+00  0.93827000000E+00 0.  1.
     999902    2    1    2    0    0 -0.17207949895E-01  0.13014818922E-01 -0.93878113582E-02  0.10204006555E+01  0.10201293387E+01 0.  0.
     999903    2    3    3    0    0  0.11347378987E+00 -0.40296185786E-01 -0.40960514288E-01  0.12859539877E+00  0.18945428944E-01 0.  0.
         14    1    1    2    0    0  0.17207949895E-01 -0.13014818922E-01  0.93878113582E-02  0.23529344514E-01  0.00000000000E+00 0.  1.
     999901    1    3    3    0    0 -0.13068173977E+00  0.53311004709E-01  0.31572702929E-01  0.89180525671E+00  0.88000000000E+00 0.  1.
        -11    1    4    4    0    0  0.66414568225E-01 -0.32194785359E-01 -0.29499700060E-01  0.79485171583E-01  0.51100000000E-03 0. -1.
         11    1    4    4    0    0  0.47059221647E-01 -0.81014004276E-02 -0.11460814227E-01  0.49110227190E-01  0.51100000000E-03 0.  1.
</event>
<event>
 8    1  0.1072332E+005  0.1043930E+01  0.7957747E-01            NaN
         13   -1    0    0    0    0  0.00000000000E+00  0.00000000000E+00  0.74505805969E-08  0.10566000000E+00  0.10566000000E+00 0. -1.
     999900   -1    0    0    0    0 -0.00000000000E+00 -0.00000000000E+00 -0.74505805969E-08  0.93827000000E+00  0.93827000000E+00 0. -1.
     999902    2    1    2    0    0  0.11428773009E-01  0.23245724123E-01 -0.72886527794E-03  0.10180164555E+01  0.10176865883E+01 0.  0.
     999903    2    3    3    0    0  0.24061836228E-01  0.11428304915E+00  0.57133570549E-01  0.13133982320E+00  0.18609593993E-01 0.  0.
         14    1    1    2    0    0 -0.11428773009E-01 -0.23245724123E-01  0.72886527794E-03  0.25913544472E-01  0.00000000000E+00 0.  1.
     999901    1    3    3    0    0 -0.12633063218E-01 -0.91037325030E-01 -0.57862435827E-01  0.88667663233E+00  0.88000000000E+00 0. -1.
        -11    1    4    4    0    0  0.18090006736E-01  0.73726081943E-01  0.46357546516E-01  0.88949799002E-01  0.51100000000E-03 0. -1.
         11    1    4    4    0    0  0.59718294916E-02  0.40556967209E-01  0.10776024033E-01  0.42390024200E-01  0.51100000000E-03 0.  1.
</event>
<event>
 8    1  0.1072332E+005  0.1043930E+01  0.7957747E-01            NaN
         13   -1    0    0    0    0  0.00000000000E+00  0.00000000000E+00  0.74505805969E-08  0.10566000000E+00  0.10566000000E+00 0.  1.
     999900   -1    0    0    0    0 -0.00000000000E+00 -0.00000000000E+00 -0.74505805969E-08  0.93827000000E+00  0.93827000000E+00 0. -1.
     999902    2    1    2    0    0  0.15606972003E-01 -0.12849851438E-01 -0.10719756533E-01  0.10210474862E+01  0.10207910460E+01 0.  0.
     999903    2    3    3    0    0  0.12066950367E+00 -0.31016015004E-01  0.41934444483E-01  0.13304939503E+00  0.20506622890E-01 0.  0.
         14    1    1    2    0    0 -0.15606972003E-01  0.12849851438E-01  0.10719756533E-01  0.22882513787E-01  0.00000000000E+00 0. -1.
     999901    1    3    3    0    0 -0.10506253166E+00  0.18166163567E-01 -0.52654201016E-01  0.88799809118E+00  0.88000000000E+00 0. -1.
        -11    1    4    4    0    0  0.81949957657E-01 -0.16662370708E-01  0.37035929327E-01  0.91462294634E-01  0.51100000000E-03 0. -1.
         11    1    4    4    0    0  0.38719546009E-01 -0.14353644296E-01  0.48985151564E-02  0.41587100398E-01  0.51100000000E-03 0.  1.
</event>
<event>
 8    1  0.1072332E+005  0.1043930E+01  0.7957747E-01            NaN
         13   -1    0    0    0    0  0.00000000000E+00  0.00000000000E+00  0.74505805969E-08  0.10566000000E+00  0.10566000000E+00 0.  1.
     999900   -1    0    0    0    0 -0.00000000000E+00 -0.00000000000E+00 -0.74505805969E-08  0.93827000000E+00  0.93827000000E+00 0.  1.
     999902    2    1    2    0    0  0.10989862502E-01 -0.13289310270E-01 -0.16990048626E-01  0.10197216420E+01  0.10194342463E+01 0.  0.
     999903    2    3    3    0    0  0.15580052254E-02 -0.12700498422E+00 -0.30863205438E-01  0.13224618942E+00  0.20095366859E-01 0.  0.
         14    1    1    2    0    0 -0.10989862502E-01  0.13289310270E-01  0.16990048626E-01  0.24208358011E-01  0.00000000000E+00 0.  1.
     999901    1    3    3    0    0  0.94318572768E-02  0.11371567395E+00  0.13873156811E-01  0.88747545257E+00  0.88000000000E+00 0. -1.
        -11    1    4    4    0    0 -0.36320690305E-02 -0.65632064986E-01 -0.66734772354E-02  0.66072356543E-01  0.51100000000E-03 0. -1.
         11    1    4    4    0    0  0.51900742558E-02 -0.61372919234E-01 -0.24189728202E-01  0.66173832876E-01  0.51100000000E-03 0.  1.
</event>
<event>
 8    1  0.1072332E+005  0.1043930E+01  0.7957747E-01            NaN
         13   -1    0    0    0    0  0.00000000000E+00  0.00000000000E+00  0.74505805969E-08  0.10566000000E+00  0.10566000000E+00 0. -1.
     999900   -1    0    0    0    0 -0.00000000000E+00 -0.00000000000E+00 -0.74505805969E-08  0.93827000000E+00  0.93827000000E+00 0. -1.
     999902    2    1    2    0    0 -0.13907971537E-01 -0.10857876688E-01 -0.15916817153E-01  0.10201672092E+01  0.10198904179E+01 0.  0.
     999903    2    3    3    0    0 -0.11440461211E+00  0.26859361249E-01  0.54901609067E-01  0.13082058707E+00  0.17029350064E-01 0.  0.
         14    1    1    2    0    0  0.13907971537E-01  0.10857876688E-01  0.15916817153E-01  0.23762790803E-01  0.00000000000E+00 0. -1.
     999901    1    3    3    0    0  0.10049664057E+00 -0.37717237937E-01 -0.70818426221E-01  0.88934662213E+00  0.88000000000E+00 0.  1.
        -11    1    4    4    0    0 -0.31571710712E-01  0.12447739933E-01  0.93969025589E-02  0.35217638271E-01  0.51100000000E-03 0.  1.
         11    1    4    4    0    0 -0.82832901397E-01  0.14411621316E-01  0.45504706509E-01  0.95602948794E-01  0.51100000000E-03 0. -1.
</event>
<event>
 8    1  0.1072332E+005  0.1043930E+01  0.7957747E-01            NaN
         13   -1    0    0    0    0  0.00000000000E+00  0.00000000000E+00  0.74505805969E-08  0.10566000000E+00  0.10566000000E+00 0.  1.
     999900   -1    0    0    0    0 -0.00000000000E+00 -0.00000000000E+00 -0.74505805969E-08  0.93827000000E+00  0.93827000000E+00 0. -1.
     999902    2    1    2    0    0 -0.21022557978E-02 -0.11586309941E-01  0.12619933989E-01  0.10266695020E+01  0.10265243989E+01 0.  0.
     999903    2    3    3    0    0  0.42196893146E-01  0.63047804790E-01  0.11210854038E+00  0.13682083594E+00  0.19900071385E-01 0.  0.
         14    1    1    2    0    0  0.21022557978E-02  0.11586309941E-01 -0.12619933989E-01  0.17260498005E-01  0.00000000000E+00 0. -1.
     999901    1    3    3    0    0 -0.44299148944E-01 -0.74634114731E-01 -0.99488606390E-01  0.88984866606E+00  0.88000000000E+00 0.  1.
        -11    1    4    4    0    0  0.20581216153E-01  0.47577591080E-01  0.73357921907E-01  0.89826830395E-01  0.51100000000E-03 0.  1.
         11    1    4    4    0    0  0.21615676993E-01  0.15470213710E-01  0.38750618473E-01  0.46994005545E-01  0.51100000000E-03 0. -1.
</event>
<event>
 8    1  0.1072332E+005  0.1043930E+01  0.7957747E-01            NaN
         13   -1    0    0    0    0  0.00000000000E+00  0.00000000000E+00  0.74505805969E-08  0.10566000000E+00  0.10566000000E+00 0.  1.
     999900   -1    0    0    0    0 -0.00000000000E+00 -0.00000000000E+00 -0.74505805969E-08  0.93827000000E+00  0.93827000000E+00 0.  1.
     999902    2    1    2    0    0  0.19329727846E-01  0.91945093061E-02 -0.90532766090E-02  0.10206891051E+01  0.10204244754E+01 0.  0.
     999903    2    3    3    0    0  0.54177732563E-01 -0.90718422906E-01  0.74011332407E-01  0.13046626402E+00  0.19460466632E-01 0.  0.
         14    1    1    2    0    0 -0.19329727846E-01 -0.91945093061E-02  0.90532766090E-02  0.23240894934E-01  0.00000000000E+00 0.  1.
     999901    1    3    3    0    0 -0.34848004717E-01  0.99912932212E-01 -0.83064609016E-01  0.89022284105E+00  0.88000000000E+00 0.  1.
        -11    1    4    4    0    0  0.37546426173E-01 -0.44484781262E-01  0.42805562277E-01  0.72257921123E-01  0.51100000000E-03 0. -1.
         11    1    4    4    0    0  0.16631306390E-01 -0.46233641644E-01  0.31205770130E-01  0.58208342893E-01  0.51100000000E-03 0.  1.
</event>
<event>
 8    1  0.1072332E+005  0.1043930E+01  0.7957747E-01            NaN
         13   -1    0    0    0    0  0.00000000000E+00  0.00000000000E+00  0.74505805969E-08  0.10566000000E+00  0.10566000000E+00 0.  1.
     999900   -1    0    0    0    0 -0.00000000000E+00 -0.00000000000E+00 -0.74505805969E-08  0.93827000000E+00  0.93827000000E+00 0.  1.
     999902    2    1    2    0    0 -0.12808311964E-01  0.15992372650E-01  0.59273005290E-03  0.10234321912E+01  0.10232269004E+01 0.  0.
     999903    2    3    3    0    0 -0.10820605858E+00 -0.72790556203E-01 -0.21373778651E-01  0.13356384920E+00  0.19376460295E-01 0.  0.
         14    1    1    2    0    0  0.12808311964E-01 -0.15992372650E-01 -0.59273005290E-03  0.20497808841E-01  0.00000000000E+00 0.  1.
     999901    1    3    3    0    0  0.95397746617E-01  0.88782928853E-01  0.21966508704E-01  0.88986834196E+00  0.88000000000E+00 0. -1.
        -11    1    4    4    0    0 -0.96543930039E-01 -0.56707832601E-01 -0.17872650010E-01  0.11338519059E+00  0.51100000000E-03 0. -1.
         11    1    4    4    0    0 -0.11662128542E-01 -0.16082723602E-01 -0.35011286405E-02  0.20178658611E-01  0.51100000000E-03 0.  1.
</event>
<event>
 8    1  0.1072332E+005  0.1043930E+01  0.7957747E-01            NaN
         13   -1    0    0    0    0  0.00000000000E+00  0.00000000000E+00  0.74505805969E-08  0.10566000000E+00  0.10566000000E+00 0. -1.
     999900   -1    0    0    0    0 -0.00000000000E+00 -0.00000000000E+00 -0.74505805969E-08  0.93827000000E+00  0.93827000000E+00 0. -1.
     999902    2    1    2    0    0 -0.17855678181E-01  0.22444006881E-02  0.15280138478E-01  0.10203218402E+01  0.10200486814E+01 0.  0.
     999903    2    3    3    0    0  0.11155475453E+00 -0.95027430379E-02 -0.58164768304E-01  0.12775295780E+00  0.20072682210E-01 0.  0.
         14    1    1    2    0    0  0.17855678181E-01 -0.22444006881E-02 -0.15280138478E-01  0.23608159810E-01  0.00000000000E+00 0.  1.
     999901    1    3    3    0    0 -0.12941043271E+00  0.11747143726E-01  0.73444906782E-01  0.89256888239E+00  0.88000000000E+00 0.  1.
        -11    1    4    4    0    0  0.11455656115E-01 -0.34030296809E-02 -0.28911462513E-03  0.11964839168E-01  0.51100000000E-03 0. -1.
         11    1    4    4    0    0  0.10009909841E+00 -0.60997133570E-02 -0.57875653679E-01  0.11578811863E+00  0.51100000000E-03 0.  1.
</event>
<event>
 8    1  0.1072332E+005  0.1043930E+01  0.7957747E-01            NaN
         13   -1    0    0    0    0  0.00000000000E+00  0.00000000000E+00  0.74505805969E-08  0.10566000000E+00  0.10566000000E+00 0. -1.
     999900   -1    0    0    0    0 -0.00000000000E+00 -0.00000000000E+00 -0.74505805969E-08  0.93827000000E+00  0.93827000000E+00 0. -1.
     999902    2    1    2    0    0 -0.13794064646E-01 -0.87438379576E-02 -0.17771305777E-01  0.10197939226E+01  0.10195082611E+01 0.  0.
     999903    2    3    3    0    0 -0.53861996954E-01 -0.11878247111E+00  0.58867759730E-02  0.13172092742E+00  0.17474508017E-01 0.  0.
         14    1    1    2    0    0  0.13794064646E-01  0.87438379576E-02  0.17771305777E-01  0.24136077367E-01  0.00000000000E+00 0. -1.
     999901    1    3    3    0    0  0.40067932309E-01  0.11003863316E+00 -0.23658081750E-01  0.88807299521E+00  0.88000000000E+00 0.  1.
        -11    1    4    4    0    0 -0.46329111842E-01 -0.97763252801E-01  0.11196674021E-01  0.10876427186E+00  0.51100000000E-03 0. -1.
         11    1    4    4    0    0 -0.75328851124E-02 -0.21019218312E-01 -0.53098980484E-02  0.22956655568E-01  0.51100000000E-03 0.  1.
</event>
<event>
 8    1  0.1072332E+005  0.1043930E+01  0.7957747E-01            NaN
         13   -1    0    0    0    0  0.00000000000E+00  0.00000000000E+00  0.74505805969E-08  0.10566000000E+00  0.10566000000E+00 0. -1.
     999900   -1    0    0    0    0 -0.00000000000E+00 -0.00000000000E+00 -0.74505805969E-08  0.93827000000E+00  0.93827000000E+00 0. -1.
     999902    2    1    2    0    0 -0.69810941355E-02  0.22813004490E-01 -0.33780458676E-02  0.10198347714E+01  0.10195500875E+01 0.  0.
     999903    2    3    3    0    0  0.48378761993E-01  0.92350148104E-01  0.77818547663E-01  0.13163827575E+00  0.20096139329E-01 0.  0.
         14    1    1    2    0    0  0.69810941355E-02 -0.22813004490E-01  0.33780458676E-02  0.24095228637E-01  0.00000000000E+00 0. -1.
     999901    1    3    3    0    0 -0.55359856129E-01 -0.69537143614E-01 -0.81196593531E-01  0.88819649561E+00  0.88000000000E+00 0. -1.
        -11    1    4    4    0    0  0.23972663184E-01  0.65321051272E-01  0.47506050793E-01  0.84253274728E-01  0.51100000000E-03 0. -1.
         11    1    4    4    0    0  0.24406098809E-01  0.27029096832E-01  0.30312496870E-01  0.47385001025E-01  0.51100000000E-03 0.  1.
</event>
<event>
 8    1  0.1072332E+005  0.1043930E+01  0.7957747E-01            NaN
         13   -1    0    0    0    0  0.00000000000E+00  0.00000000000E+00  0.74505805969E-08  0.10566000000E+00  0.10566000000E+00 0.  1.
     999900   -1    0    0    0    0 -0.00000000000E+00 -0.00000000000E+00 -0.74505805969E-08  0.93827000000E+00  0.93827000000E+00 0. -1.
     999902    2    1    2    0    0 -0.87155072553E-02  0.21973496535E-01  0.49365001947E-02  0.10197812184E+01  0.10194952525E+01 0.  0.
     999903    2    3    3    0    0  0.44604560573E-01  0.32451340011E-02  0.12087372662E+00  0.13037960968E+00  0.19705002234E-01 0.  0.
         14    1    1    2    0    0  0.87155072553E-02 -0.21973496535E-01 -0.49365001947E-02  0.24148781561E-01  0.00000000000E+00 0. -1.
     999901    1    3    3    0    0 -0.53320067828E-01  0.18728362534E-01 -0.11593722643E+00  0.88940160876E+00  0.88000000000E+00 0. -1.
        -11    1    4    4    0    0  0.37326249914E-01 -0.25087306756E-02  0.77979863864E-01  0.86490825823E-01  0.51100000000E-03 0. -1.
         11    1    4    4    0    0  0.72783106590E-02  0.57538646767E-02  0.42893862760E-01  0.43888783854E-01  0.51100000000E-03 0.  1.
</event>
<event>
 8    1  0.1072332E+005  0.1043930E+01  0.7957747E-01            NaN
         13   -1    0    0    0    0  0.00000000000E+00  0.00000000000E+00  0.74505805969E-08  0.10566000000E+00  0.10566000000E+00 0. -1.
     999900   -1    0    0    0    0 -0.00000000000E+00 -0.00000000000E+00 -0.74505805969E-08  0.93827000000E+00  0.93827000000E+00 0.  1.
     999902    2    1    2    0    0  0.20609517772E-01 -0.81966614203E-02  0.83047855096E-02  0.10202465259E+01  0.10199716010E+01 0.  0.
     999903    2    3    3    0    0 -0.64604810928E-01  0.52036400160E-01  0.97728422662E-01  0.12958043227E+00  0.18938724763E-01 0.  0.
         14    1    1    2    0    0 -0.20609517772E-01  0.81966614203E-02 -0.83047855096E-02  0.23683474061E-01  0.00000000000E+00 0. -1.
     999901    1    3    3    0    0  0.85214328700E-01 -0.60233061580E-01 -0.89423637152E-01  0.89066609367E+00  0.88000000000E+00 0.  1.
        -11    1    4    4    0    0 -0.34746829191E-02  0.10507367778E-01  0.10642767221E-01  0.15362545822E-01  0.51100000000E-03 0.  1.
         11    1    4    4    0    0 -0.61130128009E-01  0.41529032382E-01  0.87085655441E-01  0.11421788645E+00  0.51100000000E-03 0. -1.
</event>
<event>
 8    1  0.1072332E+005  0.1043930E+01  0.7957747E-01            NaN
         13   -1    0    0    0    0  0.00000000000E+00  0.00000000000E+00  0.74505805969E-08  0.10566000000E+00  0.10566000000E+00 0. -1.
     999900   -1    0    0    0    0 -0.00000000000E+00 -0.00000000000E+00 -0.74505805969E-08  0.93827000000E+00  0.93827000000E+00 0.  1.
     999902    2    1    2    0    0  0.11181567508E-01  0.41027316994E-02  0.19885337637E-01  0.10207505584E+01  0.10204873424E+01 0.  0.
     999903    2    3    3    0    0  0.60906977942E-01 -0.10489392563E+00  0.48055884995E-01  0.13218628528E+00  0.21247360690E-01 0.  0.
         14    1    1    2    0    0 -0.11181567508E-01 -0.41027316994E-02 -0.19885337637E-01  0.23179441587E-01  0.00000000000E+00 0.  1.
     999901    1    3    3    0    0 -0.49725410434E-01  0.10899665733E+00 -0.28170547358E-01  0.88856427313E+00  0.88000000000E+00 0.  1.
        -11    1    4    4    0    0  0.48437699801E-01 -0.64313227241E-01  0.28139347422E-01  0.85290597105E-01  0.51100000000E-03 0. -1.
         11    1    4    4    0    0  0.12469278141E-01 -0.40580698393E-01  0.19916537573E-01  0.46895688174E-01  0.51100000000E-03 0.  1.
</event>
<event>
 8    1  0.1072332E+005  0.1043930E+01  0.7957747E-01            NaN
         13   -1    0    0    0    0  0.00000000000E+00  0.00000000000E+00  0.74505805969E-08  0.10566000000E+00  0.10566000000E+00 0.  1.
     999900   -1    0    0    0    0 -0.00000000000E+00 -0.00000000000E+00 -0.74505805969E-08  0.93827000000E+00  0.93827000000E+00 0. -1.
     999902    2    1    2    0    0  0.17700967955E-01  0.16183461014E-01  0.54297924546E-02  0.10193391211E+01  0.10190424587E+01 0.  0.
     999903    2    3    3    0    0  0.10445766397E+00  0.17596680672E-01  0.76499085533E-01  0.13222043353E+00  0.20225880014E-01 0.  0.
         14    1    1    2    0    0 -0.17700967955E-01 -0.16183461014E-01 -0.54297924546E-02  0.24590878859E-01  0.00000000000E+00 0. -1.
     999901    1    3    3    0    0 -0.86756696015E-01 -0.14132196582E-02 -0.71069293078E-01  0.88711868761E+00  0.88000000000E+00 0. -1.
        -11    1    4    4    0    0  0.67926433703E-01  0.19406783011E-02  0.51480515781E-01  0.85254156813E-01  0.51100000000E-03 0. -1.
         11    1    4    4    0    0  0.36531230268E-01  0.15656002371E-01  0.25018569752E-01  0.46966276716E-01  0.51100000000E-03 0.  1.
</event>
<event>
 8    1  0.1072332E+005  0.1043930E+01  0.7957747E-01            NaN
         13   -1    0    0    0    0  0.00000000000E+00  0.00000000000E+00  0.74505805969E-08  0.10566000000E+00  0.10566000000E+00 0.  1.
     999900   -1    0    0    0    0 -0.00000000000E+00 -0.00000000000E+00 -0.74505805969E-08  0.93827000000E+00  0.93827000000E+00 0. -1.
     999902    2    1    2    0    0  0.22164776289E-01 -0.32836756051E-02  0.10019932472E-02  0.10215009157E+01  0.10212546484E+01 0.  0.
     999903    2    3    3    0    0 -0.38600939680E-01  0.31984280744E-01 -0.11801401441E+00  0.13071412240E+00  0.25413528688E-01 0.  0.
         14    1    1    2    0    0 -0.22164776289E-01  0.32836756051E-02 -0.10019932472E-02  0.22429084330E-01  0.00000000000E+00 0.  1.
     999901    1    3    3    0    0  0.60765715968E-01 -0.35267956349E-01  0.11901600765E+00  0.89078679327E+00  0.88000000000E+00 0.  1.
        -11    1    4    4    0    0 -0.31852859229E-01  0.25249135525E-01 -0.63684050089E-01  0.75551590603E-01  0.51100000000E-03 0. -1.
         11    1    4    4    0    0 -0.67480804507E-02  0.67351452184E-02 -0.54329964317E-01  0.55162531800E-01  0.51100000000E-03 0.  1.
</event>
<event>
 8    1  0.1072332E+005  0.1043930E+01  0.7957747E-01            NaN
         13   -1    0    0    0    0  0.00000000000E+00  0.00000000000E+00  0.74505805969E-08  0.10566000000E+00  0.10566000000E+00 0.  1.
     999900   -1    0    0    0    0 -0.00000000000E+00 -0.00000000000E+00 -0.74505805969E-08  0.93827000000E+00  0.93827000000E+00 0.  1.
     999902    2    1    2    0    0  0.72458375679E-02 -0.17544000112E-01  0.12583053054E-01  0.10211566093E+01  0.10209026365E+01 0.  0.
     999903    2    3    3    0    0  0.12913110597E+00 -0.15670881738E-01 -0.14504610284E-01  0.13234095416E+00  0.19578696710E-01 0.  0.
         14    1    1    2    0    0 -0.72458375679E-02  0.17544000112E-01 -0.12583053054E-01  0.22773390748E-01  0.00000000000E+00 0. -1.
     999901    1    3    3    0    0 -0.12188526841E+00 -0.18731183745E-02  0.27087663338E-01  0.88881565509E+00  0.88000000000E+00 0. -1.
        -11    1    4    4    0    0  0.53618191738E-01  0.31163364513E-02 -0.49087854874E-02  0.53934954660E-01  0.51100000000E-03 0. -1.
         11    1    4    4    0    0  0.75512914235E-01 -0.18787218189E-01 -0.95958247968E-02  0.78405999503E-01  0.51100000000E-03 0.  1.
</event>
<event>
 8    1  0.1072332E+005  0.1043930E+01  0.7957747E-01            NaN
         13   -1    0    0    0    0  0.00000000000E+00  0.00000000000E+00  0.74505805969E-08  0.10566000000E+00  0.10566000000E+00 0.  1.
     999900   -1    0    0    0    0 -0.00000000000E+00 -0.00000000000E+00 -0.74505805969E-08  0.93827000000E+00  0.93827000000E+00 0. -1.
     999902    2    1    2    0    0 -0.11035076735E-01 -0.29382697619E-02  0.20801486610E-01  0.10202000992E+01  0.10199240826E+01 0.  0.
     999903    2    3    3    0    0 -0.66789113460E-01 -0.10314881385E+00  0.44803760742E-01  0.13243505429E+00  0.20765431706E-01 0.  0.
         14    1    1    2    0    0  0.11035076735E-01  0.29382697619E-02 -0.20801486610E-01  0.23729900820E-01  0.00000000000E+00 0. -1.
     999901    1    3    3    0    0  0.55754036725E-01  0.10021054409E+00 -0.24002274132E-01  0.88776504489E+00  0.88000000000E+00 0. -1.
        -11    1    4    4    0    0 -0.29029646270E-01 -0.62586578856E-01  0.20988138284E-01  0.72114931082E-01  0.51100000000E-03 0. -1.
         11    1    4    4    0    0 -0.37759467191E-01 -0.40562234993E-01  0.23815622459E-01  0.60320123212E-01  0.51100000000E-03 0.  1.
</event>
<event>
 8    1  0.1072332E+005  0.1043930E+01  0.7957747E-01            NaN
         13   -1    0    0    0    0  0.00000000000E+00  0.00000000000E+00  0.74505805969E-08  0.10566000000E+00  0.10566000000E+00 0. -1.
     999900   -1    0    0    0    0 -0.00000000000E+00 -0.00000000000E+00 -0.74505805969E-08  0.93827000000E+00  0.93827000000E+00 0.  1.
     999902    2    1    2    0    0  0.18305997151E-01  0.25512737008E-02 -0.11708106080E-01  0.10220508255E+01  0.10218166135E+01 0.  0.
     999903    2    3    3    0    0  0.70129372146E-01 -0.58929102414E-01 -0.96126761836E-01  0.13436168605E+00  0.20541187601E-01 0.  0.
         14    1    1    2    0    0 -0.18305997151E-01 -0.25512737008E-02  0.11708106080E-01  0.21879174509E-01  0.00000000000E+00 0. -1.
     999901    1    3    3    0    0 -0.51823374995E-01  0.61480376115E-01  0.84418655756E-01  0.88768913944E+00  0.88000000000E+00 0. -1.
        -11    1    4    4    0    0  0.41325103513E-01 -0.39721318116E-01 -0.46297767751E-01  0.73683727600E-01  0.51100000000E-03 0.  1.
         11    1    4    4    0    0  0.28804268633E-01 -0.19207784298E-01 -0.49828994085E-01  0.60677958450E-01  0.51100000000E-03 0. -1.
</event>
<event>
 8    1  0.1072332E+005  0.1043930E+01  0.7957747E-01            NaN
         13   -1    0    0    0    0  0.00000000000E+00  0.00000000000E+00  0.74505805969E-08  0.10566000000E+00  0.10566000000E+00 0.  1.
     999900   -1    0    0    0    0 -0.00000000000E+00 -0.00000000000E+00 -0.74505805969E-08  0.93827000000E+00  0.93827000000E+00 0. -1.
     999902    2    1    2    0    0  0.36893087781E-02 -0.20458350143E-01  0.18564809976E-01  0.10160587378E+01  0.10156764009E+01 0.  0.
     999903    2    3    3    0    0  0.11696261126E-01 -0.12734343518E+00  0.91316008876E-02  0.12950500666E+00  0.18303213027E-01 0.  0.
         14    1    1    2    0    0 -0.36893087781E-02  0.20458350143E-01 -0.18564809976E-01  0.27871262247E-01  0.00000000000E+00 0. -1.
     999901    1    3    3    0    0 -0.80069523480E-02  0.10688508503E+00  0.94332090881E-02  0.88655373110E+00  0.88000000000E+00 0. -1.
        -11    1    4    4    0    0  0.83459418667E-02 -0.31033757951E-01 -0.34193496383E-02  0.32321849438E-01  0.51100000000E-03 0.  1.
         11    1    4    4    0    0  0.33503192594E-02 -0.96309677226E-01  0.12550950526E-01  0.97183157217E-01  0.51100000000E-03 0. -1.
</event>
<event>
 8    1  0.1072332E+005  0.1043930E+01  0.7957747E-01            NaN
         13   -1    0    0    0    0  0.00000000000E+00  0.00000000000E+00  0.74505805969E-08  0.10566000000E+00  0.10566000000E+00 0.  1.
     999900   -1    0    0    0    0 -0.00000000000E+00 -0.00000000000E+00 -0.74505805969E-08  0.93827000000E+00  0.93827000000E+00 0.  1.
     999902    2    1    2    0    0  0.72089057553E-02 -0.15905441653E-01 -0.15757103985E-01  0.10204089940E+01  0.10201378717E+01 0.  0.
     999903    2    3    3    0    0  0.10632377058E+00 -0.56110026094E-01  0.49013707306E-01  0.13156962550E+00  0.21334095492E-01 0.  0.
         14    1    1    2    0    0 -0.72089057553E-02  0.15905441653E-01  0.15757103985E-01  0.23521005981E-01  0.00000000000E+00 0. -1.
     999901    1    3    3    0    0 -0.99114864827E-01  0.40204584441E-01 -0.64770811291E-01  0.88883936852E+00  0.88000000000E+00 0. -1.
        -11    1    4    4    0    0  0.56548791186E-01 -0.18412525730E-01  0.27529785332E-01  0.65535769544E-01  0.51100000000E-03 0.  1.
         11    1    4    4    0    0  0.49774979396E-01 -0.37697500364E-01  0.21483921974E-01  0.66033855952E-01  0.51100000000E-03 0. -1.
</event>
<event>
 8    1  0.1072332E+005  0.1043930E+01  0.7957747E-01            NaN
         13   -1    0    0    0    0  0.00000000000E+00  0.00000000000E+00  0.74505805969E-08  0.10566000000E+00  0.10566000000E+00 0.  1.
     999900   -1    0    0    0    0 -0.00000000000E+00 -0.00000000000E+00 -0.74505805969E-08  0.93827000000E+00  0.93827000000E+00 0. -1.
     999902    2    1    2    0    0  0.99754950086E-02  0.61684756097E-02 -0.20200385603E-01  0.10205715717E+01  0.10203042276E+01 0.  0.
     999903    2    3    3    0    0  0.80832329878E-01 -0.93600013346E-01 -0.41135177990E-01  0.13185749626E+00  0.19986705567E-01 0.  0.
         14    1    1    2    0    0 -0.99754950086E-02 -0.61684756097E-02  0.20200385603E-01  0.23358428255E-01  0.00000000000E+00 0.  1.
     999901    1    3    3    0    0 -0.70856834870E-01  0.99768488955E-01  0.20934792387E-01  0.88871407549E+00  0.88000000000E+00 0.  1.
        -11    1    4    4    0    0  0.73056980211E-01 -0.82355981154E-01 -0.42712787264E-01  0.11808671943E+00  0.51100000000E-03 0. -1.
         11    1    4    4    0    0  0.77753496669E-02 -0.11244032192E-01  0.15776092740E-02  0.13770776826E-01  0.51100000000E-03 0.  1.
</event>
<event>
 8    1  0.1072332E+005  0.1043930E+01  0.7957747E-01            NaN
         13   -1    0    0    0    0  0.00000000000E+00  0.00000000000E+00  0.74505805969E-08  0.10566000000E+00  0.10566000000E+00 0.  1.
     999900   -1    0    0    0    0 -0.00000000000E+00 -0.00000000000E+00 -0.74505805969E-08  0.93827000000E+00  0.93827000000E+00 0. -1.
     999902    2    1    2    0    0 -0.20617021197E-02 -0.12583923850E-01  0.18444184329E-01  0.10215069384E+01  0.10212608049E+01 0.  0.
     999903    2    3    3    0    0 -0.18427610726E-01 -0.13025594897E+00  0.90941611888E-02  0.13347429747E+00  0.20651761123E-01 0.  0.
         14    1    1    2    0    0  0.20617021197E-02  0.12583923850E-01 -0.18444184329E-01  0.22423061581E-01  0.00000000000E+00 0. -1.
     999901    1    3    3    0    0  0.16365908606E-01  0.11767202512E+00  0.93500231400E-02  0.88803264095E+00  0.88000000000E+00 0. -1.
        -11    1    4    4    0    0 -0.87334464528E-03 -0.75150364889E-01  0.17890137282E-02  0.75178466099E-01  0.51100000000E-03 0. -1.
         11    1    4    4    0    0 -0.17554266081E-01 -0.55105584082E-01  0.73051474606E-02  0.58295831370E-01  0.51100000000E-03 0.  1.
</event>
<event>
 8    1  0.1072332E+005  0.1043930E+01  0.7957747E-01            NaN
         13   -1    0    0    0    0  0.00000000000E+00  0.00000000000E+00  0.74505805969E-08  0.10566000000E+00  0.10566000000E+00 0.  1.
     999900   -1    0    0    0    0 -0.00000000000E+00 -0.00000000000E+00 -0.74505805969E-08  0.93827000000E+00  0.93827000000E+00 0. -1.
     999902    2    1    2    0    0 -0.12879802875E-01  0.12707719141E-01 -0.15317055464E-01  0.10202237216E+01  0.10199482607E+01 0.  0.
     999903    2    3    3    0    0 -0.16772445109E-01  0.12944660470E+00 -0.10950819280E-01  0.13249505579E+00  0.19931908649E-01 0.  0.
         14    1    1    2    0    0  0.12879802875E-01 -0.12707719141E-01  0.15317055464E-01  0.23706278408E-01  0.00000000000E+00 0.  1.
     999901    1    3    3    0    0  0.38926422340E-02 -0.11673888556E+00 -0.43662361835E-02  0.88772866580E+00  0.88000000000E+00 0. -1.
        -11    1    4    4    0    0 -0.17465722569E-01  0.93610780854E-01 -0.76817512555E-03  0.95230672427E-01  0.51100000000E-03 0.  1.
         11    1    4    4    0    0  0.69327745997E-03  0.35835823849E-01 -0.10182644155E-01  0.37264383364E-01  0.51100000000E-03 0. -1.
</event>
<event>
 8    1  0.1072332E+005  0.1043930E+01  0.7957747E-01            NaN
         13   -1    0    0    0    0  0.00000000000E+00  0.00000000000E+00  0.74505805969E-08  0.10566000000E+00  0.10566000000E+00 0. -1.
     999900   -1    0    0    0    0 -0.00000000000E+00 -0.00000000000E+00 -0.74505805969E-08  0.93827000000E+00  0.93827000000E+00 0. -1.
     999902    2    1    2    0    0  0.16226686188E-01 -0.98130697111E-02 -0.13921280332E-01  0.10204054654E+01  0.10201342608E+01 0.  0.
     999903    2    3    3    0    0  0.98982448911E-01 -0.68606483509E-01  0.50904728366E-01  0.13220076311E+00  0.19528840878E-01 0.  0.
         14    1    1    2    0    0 -0.16226686188E-01  0.98130697111E-02  0.13921280332E-01  0.23524534594E-01  0.00000000000E+00 0. -1.
     999901    1    3    3    0    0 -0.82755762722E-01  0.58793413797E-01 -0.64826008698E-01  0.88820470229E+00  0.88000000000E+00 0. -1.
        -11    1    4    4    0    0  0.84108789078E-01 -0.65950521761E-01  0.44149124125E-01  0.11564240573E+00  0.51100000000E-03 0.  1.
         11    1    4    4    0    0  0.14873659832E-01 -0.26559617472E-02  0.67556042412E-02  0.16558357384E-01  0.51100000000E-03 0. -1.
</event>
<event>
 7    1  0.1072332E+005  0.1043930E+01  0.7957747E-01            NaN
         13   -1    0    0    0    0  0.00000000000E+00  0.00000000000E+00  0.74505805969E-08  0.10566000000E+00  0.10566000000E+00 0.  1.
     999900   -1    0    0    0    0 -0.00000000000E+00 -0.00000000000E+00 -0.74505805969E-08  0.93827000000E+00  0.93827000000E+00 0. -1.
     999902    2    1    2    0    0  0.55190192777E-03 -0.25621499553E-01 -0.19773434923E-02  0.10182263870E+01  0.10179019105E+01 0.  0.
         14    1    1    2    0    0 -0.55190192777E-03  0.25621499553E-01  0.19773434923E-02  0.25703613021E-01  0.00000000000E+00 0. -1.
     999901    1    3    3    0    0 -0.10883841954E+00  0.10932747834E-02 -0.55957762776E-01  0.88846962133E+00  0.88000000000E+00 0. -1.
        -11    1    3    3    0    0  0.77926777476E-01 -0.61770922413E-02  0.24270654901E-01  0.81853924320E-01  0.51100000000E-03 0.  1.
         11    1    3    3    0    0  0.31463543992E-01 -0.20537682095E-01  0.29709764382E-01  0.47902841325E-01  0.51100000000E-03 0. -1.
</event>
<event>
 8    1  0.1072332E+005  0.1043930E+01  0.7957747E-01            NaN
         13   -1    0    0    0    0  0.00000000000E+00  0.00000000000E+00  0.74505805969E-08  0.10566000000E+00  0.10566000000E+00 0.  1.
     999900   -1    0    0    0    0 -0.00000000000E+00 -0.00000000000E+00 -0.74505805969E-08  0.93827000000E+00  0.93827000000E+00 0.  1.
     999902    2    1    2    0    0 -0.72040999853E-02 -0.20768436155E-01 -0.86294450649E-02  0.10203144475E+01  0.10200411156E+01 0.  0.
     999903    2    3    3    0    0 -0.57234574435E-01 -0.43033772469E-01 -0.11003480656E+00  0.13280003022E+00  0.20012178448E-01 0.  0.
         14    1    1    2    0    0  0.72040999853E-02  0.20768436155E-01  0.86294450649E-02  0.23615552483E-01  0.00000000000E+00 0. -1.
     999901    1    3    3    0    0  0.50030474450E-01  0.22265336314E-01  0.10140536150E+00  0.88751441730E+00  0.88000000000E+00 0. -1.
        -11    1    4    4    0    0 -0.57854215579E-02 -0.20656953597E-02 -0.23064237065E-02  0.65817103579E-02  0.51100000000E-03 0. -1.
         11    1    4    4    0    0 -0.51449152877E-01 -0.40968077110E-01 -0.10772838286E+00  0.12621831986E+00  0.51100000000E-03 0.  1.
</event>
<event>
 8    1  0.1072332E+005  0.1043930E+01  0.7957747E-01            NaN
         13   -1    0    0    0    0  0.00000000000E+00  0.00000000000E+00  0.74505805969E-08  0.10566000000E+00  0.10566000000E+00 0. -1.
     999900   -1    0    0    0    0 -0.00000000000E+00 -0.00000000000E+00 -0.74505805969E-08  0.93827000000E+00  0.93827000000E+00 0.  1.
     999902    2    1    2    0    0 -0.66417889928E-02 -0.19319660600E-02  0.22240623527E-01  0.10206385598E+01  0.10203727645E+01 0.  0.
     999903    2    3    3    0    0 -0.73528968156E-01 -0.10497462215E+00 -0.18728452295E-01  0.13116110142E+00  0.20647013025E-01 0.  0.
         14    1    1    2    0    0  0.66417889928E-02  0.19319660600E-02 -0.22240623527E-01  0.23291440246E-01  0.00000000000E+00 0.  1.
     999901    1    3    3    0    0  0.66887179163E-01  0.10304265609E+00  0.40969075822E-01  0.88947745833E+00  0.88000000000E+00 0. -1.
        -11    1    4    4    0    0 -0.56806233946E-01 -0.86093896142E-01 -0.71235134708E-02  0.10339300137E+00  0.51100000000E-03 0.  1.
         11    1    4    4    0    0 -0.16722734211E-01 -0.18880726007E-01 -0.11604938824E-01  0.27768100046E-01  0.51100000000E-03 0. -1.
</event>
<event>
 8    1  0.1072332E+005  0.1043930E+01  0.7957747E-01            NaN
         13   -1    0    0    0    0  0.00000000000E+00  0.00000000000E+00  0.74505805969E-08  0.10566000000E+00  0.10566000000E+00 0. -1.
     999900   -1    0    0    0    0 -0.00000000000E+00 -0.00000000000E+00 -0.74505805969E-08  0.93827000000E+00  0.93827000000E+00 0. -1.
     999902    2    1    2    0    0  0.30645004186E-01  0.18143441401E-01 -0.57504207108E-02  0.10078555203E+01  0.10072097010E+01 0.  0.
     999903    2    3    3    0    0 -0.79141660262E-01  0.74338836466E-01 -0.42988684212E-01  0.11847499297E+00  0.19965770548E-01 0.  0.
         14    1    1    2    0    0 -0.30645004186E-01 -0.18143441401E-01  0.57504207108E-02  0.36074479702E-01  0.00000000000E+00 0. -1.
     999901    1    3    3    0    0  0.10978666445E+00 -0.56195395064E-01  0.37238263501E-01  0.88938052733E+00  0.88000000000E+00 0.  1.
        -11    1    4    4    0    0 -0.25225566590E-01  0.36056651014E-01 -0.13169371886E-01  0.45935876709E-01  0.51100000000E-03 0.  1.
         11    1    4    4    0    0 -0.53916093672E-01  0.38282185452E-01 -0.29819312325E-01  0.72539116264E-01  0.51100000000E-03 0. -1.
</event>
<event>
 8    1  0.1072332E+005  0.1043930E+01  0.7957747E-01            NaN
         13   -1    0    0    0    0  0.00000000000E+00  0.00000000000E+00  0.74505805969E-08  0.10566000000E+00  0.10566000000E+00 0. -1.
     999900   -1    0    0    0    0 -0.00000000000E+00 -0.00000000000E+00 -0.74505805969E-08  0.93827000000E+00  0.93827000000E+00 0.  1.
     999902    2    1    2    0    0 -0.30782182619E-02  0.19958302458E-01 -0.10886485035E-01  0.10209882298E+01  0.10207304446E+01 0.  0.
     999903    2    3    3    0    0  0.83957908669E-01  0.93101597936E-01  0.37590241652E-01  0.13235150867E+00  0.19673779844E-01 0.  0.
         14    1    1    2    0    0  0.30782182619E-02 -0.19958302458E-01  0.10886485035E-01  0.22941770226E-01  0.00000000000E+00 0. -1.
     999901    1    3    3    0    0 -0.87036126931E-01 -0.73143295478E-01 -0.48476726687E-01  0.88863672110E+00  0.88000000000E+00 0. -1.
        -11    1    4    4    0    0  0.28293578425E-01  0.38887331986E-01  0.22913408165E-01  0.53273225581E-01  0.51100000000E-03 0.  1.
         11    1    4    4    0    0  0.55664330244E-01  0.54214265951E-01  0.14676833487E-01  0.79078283089E-01  0.51100000000E-03 0. -1.
</event>
<event>
 8    1  0.1072332E+005  0.1043930E+01  0.7957747E-01            NaN
         13   -1    0    0    0    0  0.00000000000E+00  0.00000000000E+00  0.74505805969E-08  0.10566000000E+00  0.10566000000E+00 0. -1.
     999900   -1    0    0    0    0 -0.00000000000E+00 -0.00000000000E+00 -0.74505805969E-08  0.93827000000E+00  0.93827000000E+00 0. -1.
     999902    2    1    2    0    0 -0.52239491317E-02  0.82345950760E-03 -0.23623052216E-01  0.10197222259E+01  0.10194348443E+01 0.  0.
     999903    2    3    3    0    0  0.84888481652E-01  0.34559511066E-01  0.86265134391E-01  0.12768310967E+00  0.21468324599E-01 0.  0.
         14    1    1    2    0    0  0.52239491317E-02 -0.82345950760E-03  0.23623052216E-01  0.24207774084E-01  0.00000000000E+00 0. -1.
     999901    1    3    3    0    0 -0.90112430784E-01 -0.33736051559E-01 -0.10988818661E+00  0.89203911625E+00  0.88000000000E+00 0. -1.
        -11    1    4    4    0    0  0.22316933919E-01  0.18327883446E-01  0.20156206921E-01  0.35220599791E-01  0.51100000000E-03 0. -1.
         11    1    4    4    0    0  0.62571547734E-01  0.16231627620E-01  0.66108927470E-01  0.92462509879E-01  0.51100000000E-03 0.  1.
</event>
<event>
 8    1  0.1072332E+005  0.1043930E+01  0.7957747E-01            NaN
         13   -1    0    0    0    0  0.00000000000E+00  0.00000000000E+00  0.74505805969E-08  0.10566000000E+00  0.10566000000E+00 0. -1.
     999900   -1    0    0    0    0 -0.00000000000E+00 -0.00000000000E+00 -0.74505805969E-08  0.93827000000E+00  0.93827000000E+00 0.  1.
     999902    2    1    2    0    0  0.15101376096E-02  0.17639101660E-01 -0.16486151960E-01  0.10197388523E+01  0.10194518700E+01 0.  0.
     999903    2    3    3    0    0  0.76988622727E-02 -0.23485707756E-01 -0.12785056360E+00  0.13174584415E+00  0.20008745284E-01 0.  0.
         14    1    1    2    0    0 -0.15101376096E-02 -0.17639101660E-01  0.16486151960E-01  0.24191147749E-01  0.00000000000E+00 0. -1.
     999901    1    3    3    0    0 -0.61887246631E-02  0.41124809416E-01  0.11136441164E+00  0.88799300810E+00  0.88000000000E+00 0. -1.
        -11    1    4    4    0    0 -0.21959082485E-02 -0.13742986334E-01 -0.32081320555E-01  0.34973760678E-01  0.51100000000E-03 0.  1.
         11    1    4    4    0    0  0.98947705212E-02 -0.97427214224E-02 -0.95769243045E-01  0.96772083468E-01  0.51100000000E-03 0. -1.
</event>
<event>
 8    1  0.1072332E+005  0.1043930E+01  0.7957747E-01            NaN
         13   -1    0    0    0    0  0.00000000000E+00  0.00000000000E+00  0.74505805969E-08  0.10566000000E+00  0.10566000000E+00 0.  1.
     999900   -1    0    0    0    0 -0.00000000000E+00 -0.00000000000E+00 -0.74505805969E-08  0.93827000000E+00  0.93827000000E+00 0. -1.
     999902    2    1    2    0    0  0.14208818967E-01  0.13069186891E-01 -0.13512612321E-01  0.10203655167E+01  0.10200933794E+01 0.  0.
     999903    2    3    3    0    0 -0.22768193212E-01  0.81536217269E-01 -0.10012732258E+00  0.13269601641E+00  0.20401144456E-01 0.  0.
         14    1    1    2    0    0 -0.14208818967E-01 -0.13069186891E-01  0.13512612321E-01  0.23564483320E-01  0.00000000000E+00 0. -1.
     999901    1    3    3    0    0  0.36977012179E-01 -0.68467030378E-01  0.86614710259E-01  0.88766950027E+00  0.88000000000E+00 0.  1.
        -11    1    4    4    0    0  0.23820486173E-02  0.25965999718E-01 -0.30128421663E-01  0.39848340115E-01  0.51100000000E-03 0.  1.
         11    1    4    4    0    0 -0.25150241829E-01  0.55570217551E-01 -0.69998900917E-01  0.92847676294E-01  0.51100000000E-03 0. -1.
</event>
<event>
 8    1  0.1072332E+005  0.1043930E+01  0.7957747E-01            NaN
         13   -1    0    0    0    0  0.00000000000E+00  0.00000000000E+00  0.74505805969E-08  0.10566000000E+00  0.10566000000E+00 0. -1.
     999900   -1    0    0    0    0 -0.00000000000E+00 -0.00000000000E+00 -0.74505805969E-08  0.93827000000E+00  0.93827000000E+00 0. -1.
     999902    2    1    2    0    0  0.15963830756E-02 -0.30383605497E-02 -0.24050698204E-01  0.10196356353E+01  0.10193461691E+01 0.  0.
     999903    2    3    3    0    0 -0.67641594269E-01 -0.26069955679E-02  0.10608499811E+00  0.12737480847E+00  0.19701099142E-01 0.  0.
         14    1    1    2    0    0 -0.15963830756E-02  0.30383605497E-02  0.24050698204E-01  0.24294364734E-01  0.00000000000E+00 0. -1.
     999901    1    3    3    0    0  0.69237977345E-01 -0.43136498176E-03 -0.13013569631E+00  0.89226082680E+00  0.88000000000E+00 0.  1.
        -11    1    4    4    0    0 -0.24093990092E-01  0.75024429333E-02  0.46152345341E-01  0.52603299422E-01  0.51100000000E-03 0. -1.
         11    1    4    4    0    0 -0.43547604177E-01 -0.10109438501E-01  0.59932652768E-01  0.74771509047E-01  0.51100000000E-03 0.  1.
</event>
<event>
 8    1  0.1072332E+005  0.1043930E+01  0.7957747E-01            NaN
         13   -1    0    0    0    0  0.00000000000E+00  0.00000000000E+00  0.74505805969E-08  0.10566000000E+00  0.10566000000E+00 0.  1.
     999900   -1    0    0    0    0 -0.00000000000E+00 -0.00000000000E+00 -0.74505805969E-08  0.93827000000E+00  0.93827000000E+00 0. -1.
     999902    2    1    2    0    0 -0.20072249564E-01  0.12967378518E-01 -0.22919094115E-02  0.10199237309E+01  0.10196411701E+01 0.  0.
     999903    2    3    3    0    0 -0.18807347464E-01  0.99958618934E-01 -0.82137183181E-01  0.13203615713E+00  0.18482102430E-01 0.  0.
         14    1    1    2    0    0  0.20072249564E-01 -0.12967378518E-01  0.22919094115E-02  0.24006269117E-01  0.00000000000E+00 0.  1.
     999901    1    3    3    0    0 -0.12649021000E-02 -0.86991240415E-01  0.79845273769E-01  0.88788757376E+00  0.88000000000E+00 0. -1.
        -11    1    4    4    0    0 -0.22041514250E-01  0.74974848579E-01 -0.63494459006E-01  0.10069192478E+00  0.51100000000E-03 0.  1.
         11    1    4    4    0    0  0.32341667864E-02  0.24983770355E-01 -0.18642724175E-01  0.31344232350E-01  0.51100000000E-03 0. -1.
</event>
<event>
 8    1  0.1072332E+005  0.1043930E+01  0.7957747E-01            NaN
         13   -1    0    0    0    0  0.00000000000E+00  0.00000000000E+00  0.74505805969E-08  0.10566000000E+00  0.10566000000E+00 0. -1.
     999900   -1    0    0    0    0 -0.00000000000E+00 -0.00000000000E+00 -0.74505805969E-08  0.93827000000E+00  0.93827000000E+00 0.  1.
     999902    2    1    2    0    0 -0.30679122037E-02 -0.20577273954E-01 -0.10418935894E-01  0.10206622001E+01  0.10203969503E+01 0.  0.
     999903    2    3    3    0    0 -0.34980882549E-01 -0.12272650341E+00 -0.34930881294E-01  0.13383993026E+00  0.20186720394E-01 0.  0.
         14    1    1    2    0    0  0.30679122037E-02  0.20577273954E-01  0.10418935894E-01  0.23267799935E-01  0.00000000000E+00 0. -1.
     999901    1    3    3    0    0  0.31912970345E-01  0.10214922946E+00  0.24511945400E-01  0.88682226981E+00  0.88000000000E+00 0. -1.
        -11    1    4    4    0    0 -0.23798545383E-01 -0.75603161919E-01 -0.11695310108E-01  0.80120223752E-01  0.51100000000E-03 0. -1.
         11    1    4    4    0    0 -0.11182337166E-01 -0.47123341493E-01 -0.23235571186E-01  0.53719706508E-01  0.51100000000E-03 0.  1.
</event>
<event>
 8    1  0.1072332E+005  0.1043930E+01  0.7957747E-01            NaN
         13   -1    0    0    0    0  0.00000000000E+00  0.00000000000E+00  0.74505805969E-08  0.10566000000E+00  0.10566000000E+00 0. -1.
     999900   -1    0    0    0    0 -0.00000000000E+00 -0.00000000000E+00 -0.74505805969E-08  0.93827000000E+00  0.93827000000E+00 0. -1.
     999902    2    1    2    0    0  0.11230907826E-01 -0.20739426675E-01  0.36053321873E-02  0.10200709235E+01  0.10197918579E+01 0.  0.
     999903    2    3    3    0    0 -0.34528536253E-01  0.21560950010E-02  0.12403120334E+00  0.13039653250E+00  0.20558397895E-01 0.  0.
         14    1    1    2    0    0 -0.11230907826E-01  0.20739426675E-01 -0.36053321873E-02  0.23859076461E-01  0.00000000000E+00 0. -1.
     999901    1    3    3    0    0  0.45759444079E-01 -0.22895521676E-01 -0.12042587115E+00  0.88967439104E+00  0.88000000000E+00 0. -1.
        -11    1    4    4    0    0 -0.21828557430E-01 -0.16118349446E-02  0.42636400322E-01  0.47929194494E-01  0.51100000000E-03 0.  1.
         11    1    4    4    0    0 -0.12699978823E-01  0.37679299456E-02  0.81394803016E-01  0.82467338002E-01  0.51100000000E-03 0. -1.
</event>
<event>
 8    1  0.1072332E+005  0.1043930E+01  0.7957747E-01            NaN
         13   -1    0    0    0    0  0.00000000000E+00  0.00000000000E+00  0.74505805969E-08  0.10566000000E+00  0.10566000000E+00 0.  1.
     999900   -1    0    0    0    0 -0.00000000000E+00 -0.00000000000E+00 -0.74505805969E-08  0.93827000000E+00  0.93827000000E+00 0. -1.
     999902    2    1    2    0    0 -0.11984225429E-01  0.19673597940E-01  0.10671134710E-01  0.10185421046E+01  0.10182256497E+01 0.  0.
     999903    2    3    3    0    0  0.99699850296E-01  0.16545024273E-01 -0.74884840363E-01  0.12736145762E+00  0.19985084286E-01 0.  0.
         14    1    1    2    0    0  0.11984225429E-01 -0.19673597940E-01 -0.10671134710E-01  0.25387895364E-01  0.00000000000E+00 0. -1.
     999901    1    3    3    0    0 -0.11168407572E+00  0.31285736671E-02  0.85555975072E-01  0.89118064702E+00  0.88000000000E+00 0. -1.
        -11    1    4    4    0    0  0.51001833404E-01  0.45458385824E-02 -0.49191511696E-01  0.71006461699E-01  0.51100000000E-03 0. -1.
         11    1    4    4    0    0  0.48698016892E-01  0.11999185690E-01 -0.25693328666E-01  0.56354995922E-01  0.51100000000E-03 0.  1.
</event>
<event>
 8    1  0.1072332E+005  0.1043930E+01  0.7957747E-01            NaN
         13   -1    0    0    0    0  0.00000000000E+00  0.00000000000E+00  0.74505805969E-08  0.10566000000E+00  0.10566000000E+00 0. -1.
     999900   -1    0    0    0    0 -0.00000000000E+00 -0.00000000000E+00 -0.74505805969E-08  0.93827000000E+00  0.93827000000E+00 0. -1.
     999902    2    1    2    0    0 -0.17981255156E-01  0.53051710556E-02  0.15212630146E-01  0.10197867920E+01  0.10195009596E+01 0.  0.
     999903    2    3    3    0    0 -0.62190226524E-01  0.11239936885E+00  0.23469563133E-01  0.13215411048E+00  0.20313693150E-01 0.  0.
         14    1    1    2    0    0  0.17981255156E-01 -0.53051710556E-02 -0.15212630146E-01  0.24143208007E-01  0.00000000000E+00 0.  1.
     999901    1    3    3    0    0  0.44208971368E-01 -0.10709419780E+00 -0.82569329867E-02  0.88763268151E+00  0.88000000000E+00 0. -1.
        -11    1    4    4    0    0 -0.81260219537E-02  0.33026078086E-01  0.59998383578E-02  0.34540023854E-01  0.51100000000E-03 0.  1.
         11    1    4    4    0    0 -0.54064204571E-01  0.79373290765E-01  0.17469724775E-01  0.97614086624E-01  0.51100000000E-03 0. -1.
</event>
<event>
 8    1  0.1072332E+005  0.1043930E+01  0.7957747E-01            NaN
         13   -1    0    0    0    0  0.00000000000E+00  0.00000000000E+00  0.74505805969E-08  0.10566000000E+00  0.10566000000E+00 0. -1.
     999900   -1    0    0    0    0 -0.00000000000E+00 -0.00000000000E+00 -0.74505805969E-08  0.93827000000E+00  0.93827000000E+00 0.  1.
     999902    2    1    2    0    0 -0.18596931920E-01  0.17799118895E-02  0.13465892821E-01  0.10209007961E+01  0.10206410198E+01 0.  0.
     999903    2    3    3    0    0  0.19107129494E-01 -0.76180281783E-01 -0.10084873871E+00  0.12929145169E+00  0.19424048238E-01 0.  0.
         14    1    1    2    0    0  0.18596931920E-01 -0.17799118895E-02 -0.13465892821E-01  0.23029203909E-01  0.00000000000E+00 0.  1.
     999901    1    3    3    0    0 -0.37704061415E-01  0.77960193672E-01  0.11431463153E+00  0.89160934440E+00  0.88000000000E+00 0. -1.
        -11    1    4    4    0    0 -0.10689069609E-02 -0.15032507873E-01 -0.10626648259E-01  0.18447374590E-01  0.51100000000E-03 0.  1.
         11    1    4    4    0    0  0.20176036455E-01 -0.61147773910E-01 -0.90222090453E-01  0.11084407710E+00  0.51100000000E-03 0. -1.
</event>
<event>
 8    1  0.1072332E+005  0.1043930E+01  0.7957747E-01            NaN
         13   -1    0    0    0    0  0.00000000000E+00  0.00000000000E+00  0.74505805969E-08  0.10566000000E+00  0.10566000000E+00 0.  1.
     999900   -1    0    0    0    0 -0.00000000000E+00 -0.00000000000E+00 -0.74505805969E-08  0.93827000000E+00  0.93827000000E+00 0. -1.
     999902    2    1    2    0    0  0.20462295109E-02 -0.96908795777E-02 -0.93169450385E-02  0.10303319977E+01  0.10302422627E+01 0.  0.
     999903    2    3    3    0    0 -0.11893950727E+00 -0.58757127704E-02  0.69632534685E-01  0.13854439721E+00  0.12834707683E-01 0.  0.
         14    1    1    2    0    0 -0.20462295109E-02  0.96908795777E-02  0.93169450385E-02  0.13598002318E-01  0.00000000000E+00 0.  1.
     999901    1    3    3    0    0  0.12098573678E+00 -0.38151668073E-02 -0.78949479724E-01  0.89178760047E+00  0.88000000000E+00 0. -1.
        -11    1    4    4    0    0 -0.96562402523E-01 -0.97635242010E-02  0.56466708107E-01  0.11228701720E+00  0.51100000000E-03 0. -1.
         11    1    4    4    0    0 -0.22377104749E-01  0.38878114306E-02  0.13165826578E-01  0.26257380013E-01  0.51100000000E-03 0.  1.
</event>
<event>
 8    1  0.1072332E+005  0.1043930E+01  0.7957747E-01            NaN
         13   -1    0    0    0    0  0.00000000000E+00  0.00000000000E+00  0.74505805969E-08  0.10566000000E+00  0.10566000000E+00 0. -1.
     999900   -1    0    0    0    0 -0.00000000000E+00 -0.00000000000E+00 -0.74505805969E-08  0.93827000000E+00  0.93827000000E+00 0.  1.
     999902    2    1    2    0    0  0.51985187628E-02  0.22211445071E-01 -0.49127355769E-02  0.10205953078E+01  0.10203285130E+01 0.  0.
     999903    2    3    3    0    0  0.10766505247E+00  0.75242411031E-01 -0.67863130121E-02  0.13306210606E+00  0.20156539493E-01 0.  0.
         14    1    1    2    0    0 -0.51985187628E-02 -0.22211445071E-01  0.49127355769E-02  0.23334692205E-01  0.00000000000E+00 0. -1.
     999901    1    3    3    0    0 -0.10246653371E+00 -0.53030965960E-01  0.18735774353E-02  0.88753320173E+00  0.88000000000E+00 0.  1.
        -11    1    4    4    0    0  0.53528014112E-01  0.27140213559E-01 -0.85226523079E-02  0.60619602524E-01  0.51100000000E-03 0. -1.
         11    1    4    4    0    0  0.54137038361E-01  0.48102197472E-01  0.17363392957E-02  0.72442503541E-01  0.51100000000E-03 0.  1.
</event>
<event>
 8    1  0.1072332E+005  0.1043930E+01  0.7957747E-01            NaN
         13   -1    0    0    0    0  0.00000000000E+00  0.00000000000E+00  0.74505805969E-08  0.10566000000E+00  0.10566000000E+00 0.  1.
     999900   -1    0    0    0    0 -0.00000000000E+00 -0.00000000000E+00 -0.74505805969E-08  0.93827000000E+00  0.93827000000E+00 0.  1.
     999902    2    1    2    0    0  0.16417155726E-01  0.14243058862E-01  0.93892637387E-02  0.10202541473E+01  0.10199794013E+01 0.  0.
     999903    2    3    3    0    0 -0.50557654494E-01  0.10507860331E+00 -0.55537865565E-01  0.13067432881E+00  0.19842792062E-01 0.  0.
         14    1    1    2    0    0 -0.16417155726E-01 -0.14243058862E-01 -0.93892637387E-02  0.23675852707E-01  0.00000000000E+00 0.  1.
     999901    1    3    3    0    0  0.66974810220E-01 -0.90835544444E-01  0.64927129304E-01  0.88957981849E+00  0.88000000000E+00 0.  1.
        -11    1    4    4    0    0 -0.22799126104E-01  0.29199913690E-01 -0.22747624342E-01  0.43475862784E-01  0.51100000000E-03 0. -1.
         11    1    4    4    0    0 -0.27758528391E-01  0.75878689615E-01 -0.32790241223E-01  0.87198466022E-01  0.51100000000E-03 0.  1.
</event>
<event>
 8    1  0.1072332E+005  0.1043930E+01  0.7957747E-01            NaN
         13   -1    0    0    0    0  0.00000000000E+00  0.00000000000E+00  0.74505805969E-08  0.10566000000E+00  0.10566000000E+00 0.  1.
     999900   -1    0    0    0    0 -0.00000000000E+00 -0.00000000000E+00 -0.74505805969E-08  0.93827000000E+00  0.93827000000E+00 0. -1.
     999902    2    1    2    0    0  0.18300565638E-01  0.14295970527E-01 -0.43142397785E-02  0.10203101325E+01  0.10200366995E+01 0.  0.
     999903    2    3    3    0    0  0.31893123260E-01  0.12665697129E+00  0.14304997781E-01  0.13286637196E+00  0.19740317852E-01 0.  0.
         14    1    1    2    0    0 -0.18300565638E-01 -0.14295970527E-01  0.43142397785E-02  0.23619867503E-01  0.00000000000E+00 0. -1.
     999901    1    3    3    0    0 -0.13592557622E-01 -0.11236100076E+00 -0.18619237560E-01  0.88744376054E+00  0.88000000000E+00 0. -1.
        -11    1    4    4    0    0  0.18441394013E-01  0.60408094780E-01  0.16309143400E-01  0.65233980467E-01  0.51100000000E-03 0.  1.
         11    1    4    4    0    0  0.13451729247E-01  0.66248876506E-01 -0.20041456187E-02  0.67632391490E-01  0.51100000000E-03 0. -1.
</event>
<event>
 8    1  0.1072332E+005  0.1043930E+01  0.7957747E-01            NaN
         13   -1    0    0    0    0  0.00000000000E+00  0.00000000000E+00  0.74505805969E-08  0.10566000000E+00  0.10566000000E+00 0. -1.
     999900   -1    0    0    0    0 -0.00000000000E+00 -0.00000000000E+00 -0.74505805969E-08  0.93827000000E+00  0.93827000000E+00 0. -1.
     999902    2    1    2    0    0 -0.10247462049E-02 -0.21236159055E-01  0.93458934692E-02  0.10207056533E+01  0.10204414047E+01 0.  0.
     999903    2    3    3    0    0  0.95397251985E-01  0.20646022018E-01  0.85617721498E-01  0.13117279240E+00  0.18681898169E-01 0.  0.
         14    1    1    2    0    0  0.10247462049E-02  0.21236159055E-01 -0.93458934692E-02  0.23224346728E-01  0.00000000000E+00 0.  1.
     999901    1    3    3    0    0 -0.96421998190E-01 -0.41882181073E-01 -0.76271828029E-01  0.88953286088E+00  0.88000000000E+00 0. -1.
        -11    1    4    4    0    0  0.82604633940E-01  0.13426254043E-01  0.78876512104E-01  0.11500241358E+00  0.51100000000E-03 0. -1.
         11    1    4    4    0    0  0.12792618045E-01  0.72197679747E-02  0.67412093935E-02  0.16170378819E-01  0.51100000000E-03 0.  1.
</event>
<event>
 8    1  0.1072332E+005  0.1043930E+01  0.7957747E-01            NaN
         13   -1    0    0    0    0  0.00000000000E+00  0.00000000000E+00  0.74505805969E-08  0.10566000000E+00  0.10566000000E+00 0. -1.
     999900   -1    0    0    0    0 -0.00000000000E+00 -0.00000000000E+00 -0.74505805969E-08  0.93827000000E+00  0.93827000000E+00 0. -1.
     999902    2    1    2    0    0 -0.12647821887E-01  0.16755168069E-01  0.11512041924E-01  0.10199877744E+01  0.10197067372E+01 0.  0.
     999903    2    3    3    0    0 -0.43494144317E-01 -0.10157634076E+00 -0.62160767900E-01  0.12848257283E+00  0.20840270203E-01 0.  0.
         14    1    1    2    0    0  0.12647821887E-01 -0.16755168069E-01 -0.11512041924E-01  0.23942225560E-01  0.00000000000E+00 0.  1.
     999901    1    3    3    0    0  0.30846322429E-01  0.11833150883E+00  0.73672809824E-01  0.89150520161E+00  0.88000000000E+00 0.  1.
        -11    1    4    4    0    0 -0.32171263489E-01 -0.58437280994E-01 -0.28214436433E-01  0.72430805247E-01  0.51100000000E-03 0. -1.
         11    1    4    4    0    0 -0.11322880827E-01 -0.43139059770E-01 -0.33946331467E-01  0.56051767583E-01  0.51100000000E-03 0.  1.
</event>
<event>
 8    1  0.1072332E+005  0.1043930E+01  0.7957747E-01            NaN
         13   -1    0    0    0    0  0.00000000000E+00  0.00000000000E+00  0.74505805969E-08  0.10566000000E+00  0.10566000000E+00 0. -1.
     999900   -1    0    0    0    0 -0.00000000000E+00 -0.00000000000E+00 -0.74505805969E-08  0.93827000000E+00  0.93827000000E+00 0. -1.
     999902    2    1    2    0    0 -0.11390221733E-01  0.21349544981E-01 -0.50874432927E-02  0.10192030450E+01  0.10189030497E+01 0.  0.
     999903    2    3    3    0    0 -0.43440605337E-02  0.12504756531E+00  0.37452689069E-01  0.13206574413E+00  0.19567636608E-01 0.  0.
         14    1    1    2    0    0  0.11390221733E-01 -0.21349544981E-01  0.50874432927E-02  0.24726954953E-01  0.00000000000E+00 0. -1.
     999901    1    3    3    0    0 -0.70461611990E-02 -0.10369802033E+00 -0.42540132362E-01  0.88713730091E+00  0.88000000000E+00 0.  1.
        -11    1    4    4    0    0 -0.12028896962E-01  0.65637531137E-01  0.20261755252E-01  0.69740803715E-01  0.51100000000E-03 0. -1.
         11    1    4    4    0    0  0.76848364279E-02  0.59410034177E-01  0.17190933817E-01  0.62324940420E-01  0.51100000000E-03 0.  1.
</event>
<event>
 8    1  0.1072332E+005  0.1043930E+01  0.7957747E-01            NaN
         13   -1    0    0    0    0  0.00000000000E+00  0.00000000000E+00  0.74505805969E-08  0.10566000000E+00  0.10566000000E+00 0.  1.
     999900   -1    0    0    0    0 -0.00000000000E+00 -0.00000000000E+00 -0.74505805969E-08  0.93827000000E+00  0.93827000000E+00 0.  1.
     999902    2    1    2    0    0 -0.17352264730E-01 -0.70363302409E-02  0.14383743539E-01  0.10203184962E+01  0.10200452591E+01 0.  0.
     999903    2    3    3    0    0  0.83839499401E-01 -0.84224614750E-01  0.49152149058E-01  0.13048331683E+00  0.22070677901E-01 0.  0.
         14    1    1    2    0    0  0.17352264730E-01  0.70363302409E-02 -0.14383743539E-01  0.23611503821E-01  0.00000000000E+00 0. -1.
     999901    1    3    3    0    0 -0.10119176413E+00  0.77188284509E-01 -0.34768405519E-01  0.88983517935E+00  0.88000000000E+00 0.  1.
        -11    1    4    4    0    0  0.64639770857E-01 -0.50380485278E-01  0.33007979308E-01  0.88353161190E-01  0.51100000000E-03 0. -1.
         11    1    4    4    0    0  0.19199728544E-01 -0.33844129473E-01  0.16144169750E-01  0.42130155635E-01  0.51100000000E-03 0.  1.
</event>
<event>
 8    1  0.1072332E+005  0.1043930E+01  0.7957747E-01            NaN
         13   -1    0    0    0    0  0.00000000000E+00  0.00000000000E+00  0.74505805969E-08  0.10566000000E+00  0.10566000000E+00 0.  1.
     999900   -1    0    0    0    0 -0.00000000000E+00 -0.00000000000E+00 -0.74505805969E-08  0.93827000000E+00  0.93827000000E+00 0.  1.
     999902    2    1    2    0    0 -0.22825305677E-03  0.19159249417E-01 -0.15637248192E-01  0.10191983913E+01  0.10188982817E+01 0.  0.
     999903    2    3    3    0    0 -0.72870909540E-01  0.10305166122E+00 -0.33886254353E-01  0.13204117946E+00  0.18888634186E-01 0.  0.
         14    1    1    2    0    0  0.22825305677E-03 -0.19159249417E-01  0.15637248192E-01  0.24731608696E-01  0.00000000000E+00 0.  1.
     999901    1    3    3    0    0  0.72642656483E-01 -0.83892411806E-01  0.18249006162E-01  0.88715721184E+00  0.88000000000E+00 0.  1.
        -11    1    4    4    0    0 -0.36791641902E-01  0.66768618753E-01 -0.16533267871E-01  0.78008226691E-01  0.51100000000E-03 0.  1.
         11    1    4    4    0    0 -0.36079267638E-01  0.36283042469E-01 -0.17352986482E-01  0.54032952770E-01  0.51100000000E-03 0. -1.
</event>
<event>
 8    1  0.1072332E+005  0.1043930E+01  0.7957747E-01            NaN
         13   -1    0    0    0    0  0.00000000000E+00  0.00000000000E+00  0.74505805969E-08  0.10566000000E+00  0.10566000000E+00 0.  1.
     999900   -1    0    0    0    0 -0.00000000000E+00 -0.00000000000E+00 -0.74505805969E-08  0.93827000000E+00  0.93827000000E+00 0.  1.
     999902    2    1    2    0    0  0.13854401018E-02 -0.23615155577E-01  0.23530241182E-02  0.10201575003E+01  0.10198804801E+01 0.  0.
     999903    2    3    3    0    0  0.95862890334E-01  0.72776272843E-01 -0.41151875390E-01  0.12880461156E+00  0.20274897731E-01 0.  0.
         14    1    1    2    0    0 -0.13854401018E-02  0.23615155577E-01 -0.23530241182E-02  0.23772499652E-01  0.00000000000E+00 0. -1.
     999901    1    3    3    0    0 -0.94477450232E-01 -0.96391428420E-01  0.43504899509E-01  0.89135288879E+00  0.88000000000E+00 0.  1.
        -11    1    4    4    0    0  0.21642491209E-01  0.95422833826E-02 -0.14396182709E-01  0.27694111206E-01  0.51100000000E-03 0. -1.
         11    1    4    4    0    0  0.74220399126E-01  0.63233989461E-01 -0.26755692681E-01  0.10111050035E+00  0.51100000000E-03 0.  1.
</event>
<event>
 8    1  0.1072332E+005  0.1043930E+01  0.7957747E-01            NaN
         13   -1    0    0    0    0  0.00000000000E+00  0.00000000000E+00  0.74505805969E-08  0.10566000000E+00  0.10566000000E+00 0. -1.
     999900   -1    0    0    0    0 -0.00000000000E+00 -0.00000000000E+00 -0.74505805969E-08  0.93827000000E+00  0.93827000000E+00 0.  1.
     999902    2    1    2    0    0  0.56678410470E-02  0.21323355889E-01  0.57211048384E-02  0.10211365586E+01  0.10208821335E+01 0.  0.
     999903    2    3    3    0    0  0.12355561893E+00  0.36623245127E-01  0.25822160166E-01  0.13291605268E+00  0.19815146989E-01 0.  0.
         14    1    1    2    0    0 -0.56678410470E-02 -0.21323355889E-01 -0.57211048384E-02  0.22793441361E-01  0.00000000000E+00 0.  1.
     999901    1    3    3    0    0 -0.11788777789E+00 -0.15299889238E-01 -0.20101055328E-01  0.88822050596E+00  0.88000000000E+00 0.  1.
        -11    1    4    4    0    0  0.35388731609E-01  0.22881935382E-02  0.30559691938E-02  0.35597727782E-01  0.51100000000E-03 0.  1.
         11    1    4    4    0    0  0.88166887324E-01  0.34335051589E-01  0.22766190973E-01  0.97318324895E-01  0.51100000000E-03 0. -1.
</event>
<event>
 8    1  0.1072332E+005  0.1043930E+01  0.7957747E-01            NaN
         13   -1    0    0    0    0  0.00000000000E+00  0.00000000000E+00  0.74505805969E-08  0.10566000000E+00  0.10566000000E+00 0. -1.
     999900   -1    0    0    0    0 -0.00000000000E+00 -0.00000000000E+00 -0.74505805969E-08  0.93827000000E+00  0.93827000000E+00 0. -1.
     999902    2    1    2    0    0 -0.62815095354E-02  0.18368303518E-02 -0.22312795049E-01  0.10206772124E+01  0.10204123087E+01 0.  0.
     999903    2    3    3    0    0  0.10913555819E+00  0.53696466857E-01 -0.45550130916E-01  0.13132323609E+00  0.19418993176E-01 0.  0.
         14    1    1    2    0    0  0.62815095354E-02 -0.18368303518E-02  0.22312795049E-01  0.23252787589E-01  0.00000000000E+00 0. -1.
     999901    1    3    3    0    0 -0.11541706773E+00 -0.51859636505E-01  0.23237335868E-01  0.88935397632E+00  0.88000000000E+00 0. -1.
        -11    1    4    4    0    0  0.57328897735E-01  0.30383759618E-01 -0.14146729193E-01  0.66409083956E-01  0.51100000000E-03 0. -1.
         11    1    4    4    0    0  0.51806660455E-01  0.23312707239E-01 -0.31403401723E-01  0.64914152133E-01  0.51100000000E-03 0.  1.
</event>
<event>
 8    1  0.1072332E+005  0.1043930E+01  0.7957747E-01            NaN
         13   -1    0    0    0    0  0.00000000000E+00  0.00000000000E+00  0.74505805969E-08  0.10566000000E+00  0.10566000000E+00 0. -1.
     999900   -1    0    0    0    0 -0.00000000000E+00 -0.00000000000E+00 -0.74505805969E-08  0.93827000000E+00  0.93827000000E+00 0. -1.
     999902    2    1    2    0    0 -0.61267237979E-02  0.18123295683E-01 -0.14176800179E-01  0.10201188208E+01  0.10198408877E+01 0.  0.
     999903    2    3    3    0    0 -0.91404582317E-01 -0.85866503990E-01 -0.26881022452E-01  0.12981123978E+00  0.20012856575E-01 0.  0.
         14    1    1    2    0    0  0.61267237979E-02 -0.18123295683E-01  0.14176800179E-01  0.23811179186E-01  0.00000000000E+00 0. -1.
     999901    1    3    3    0    0  0.85277858519E-01  0.10398979967E+00  0.12704222273E-01  0.89030758104E+00  0.88000000000E+00 0.  1.
        -11    1    4    4    0    0 -0.59995979564E-01 -0.67777953663E-01 -0.22705989277E-01  0.93323049868E-01  0.51100000000E-03 0.  1.
         11    1    4    4    0    0 -0.31408602752E-01 -0.18088550327E-01 -0.41750331754E-02  0.36488189908E-01  0.51100000000E-03 0. -1.
</event>
<event>
 8    1  0.1072332E+005  0.1043930E+01  0.7957747E-01            NaN
         13   -1    0    0    0    0  0.00000000000E+00  0.00000000000E+00  0.74505805969E-08  0.10566000000E+00  0.10566000000E+00 0. -1.
     999900   -1    0    0    0    0 -0.00000000000E+00 -0.00000000000E+00 -0.74505805969E-08  0.93827000000E+00  0.93827000000E+00 0.  1.
     999902    2    1    2    0    0  0.17849657885E-01 -0.35512019911E-02  0.15132632631E-01  0.10202610775E+01  0.10199864942E+01 0.  0.
     999903    2    3    3    0    0  0.98353035289E-01  0.61568616313E-01 -0.57816601253E-01  0.13119247765E+00  0.20116976552E-01 0.  0.
         14    1    1    2    0    0 -0.17849657885E-01  0.35512019911E-02 -0.15132632631E-01  0.23668922505E-01  0.00000000000E+00 0.  1.
     999901    1    3    3    0    0 -0.80503377403E-01 -0.65119818304E-01  0.72949233885E-01  0.88906859985E+00  0.88000000000E+00 0.  1.
        -11    1    4    4    0    0  0.30925715010E-01  0.17340206120E-01 -0.78207031821E-02  0.36311253303E-01  0.51100000000E-03 0.  1.
         11    1    4    4    0    0  0.67427320279E-01  0.44228410194E-01 -0.49995898071E-01  0.94881224345E-01  0.51100000000E-03 0. -1.
</event>
<event>
 8    1  0.1072332E+005  0.1043930E+01  0.7957747E-01            NaN
         13   -1    0    0    0    0  0.00000000000E+00  0.00000000000E+00  0.74505805969E-08  0.10566000000E+00  0.10566000000E+00 0. -1.
     999900   -1    0    0    0    0 -0.00000000000E+00 -0.00000000000E+00 -0.74505805969E-08  0.93827000000E+00  0.93827000000E+00 0. -1.
     999902    2    1    2    0    0 -0.37565258560E-02  0.23074431405E-01 -0.33681853348E-02  0.10203103992E+01  0.10200369724E+01 0.  0.
     999903    2    3    3    0    0 -0.10385077863E+00  0.71697767312E-01 -0.26712621014E-01  0.13299531933E+00  0.32382661738E-01 0.  0.
         14    1    1    2    0    0  0.37565258560E-02 -0.23074431405E-01  0.33681853348E-02  0.23619600835E-01  0.00000000000E+00 0.  1.
     999901    1    3    3    0    0  0.10009425277E+00 -0.48623335907E-01  0.23344435679E-01  0.88731507984E+00  0.88000000000E+00 0. -1.
        -11    1    4    4    0    0 -0.17248398104E-01  0.24069808044E-01  0.30548953695E-02  0.29773417727E-01  0.51100000000E-03 0. -1.
         11    1    4    4    0    0 -0.86602380527E-01  0.47627959269E-01 -0.29767516383E-01  0.10322190160E+00  0.51100000000E-03 0.  1.
</event>
<event>
 8    1  0.1072332E+005  0.1043930E+01  0.7957747E-01            NaN
         13   -1    0    0    0    0  0.00000000000E+00  0.00000000000E+00  0.74505805969E-08  0.10566000000E+00  0.10566000000E+00 0. -1.
     999900   -1    0    0    0    0 -0.00000000000E+00 -0.00000000000E+00 -0.74505805969E-08  0.93827000000E+00  0.93827000000E+00 0. -1.
     999902    2    1    2    0    0 -0.61400413087E-02 -0.13726077563E-01  0.10088689968E-01  0.10258223503E+01  0.10256625212E+01 0.  0.
     999903    2    3    3    0    0  0.12821613761E+00 -0.36685000780E-01 -0.89970289466E-02  0.13512433209E+00  0.19810890149E-01 0.  0.
         14    1    1    2    0    0  0.61400413087E-02  0.13726077563E-01 -0.10088689968E-01  0.18107649704E-01  0.00000000000E+00 0.  1.
     999901    1    3    3    0    0 -0.13435617891E+00  0.22958923217E-01  0.19085718915E-01  0.89069801820E+00  0.88000000000E+00 0. -1.
        -11    1    4    4    0    0  0.74290220269E-01 -0.29940935868E-01 -0.39497963617E-03  0.80099398239E-01  0.51100000000E-03 0.  1.
         11    1    4    4    0    0  0.53925917336E-01 -0.67440649114E-02 -0.86020493104E-02  0.55024933852E-01  0.51100000000E-03 0. -1.
</event>
<event>
 8    1  0.1072332E+005  0.1043930E+01  0.7957747E-01            NaN
         13   -1    0    0    0    0  0.00000000000E+00  0.00000000000E+00  0.74505805969E-08  0.10566000000E+00  0.10566000000E+00 0.  1.
     999900   -1    0    0    0    0 -0.00000000000E+00 -0.00000000000E+00 -0.74505805969E-08  0.93827000000E+00  0.93827000000E+00 0.  1.
     999902    2    1    2    0    0 -0.19373190534E-01 -0.63961211027E-02 -0.80034062926E-02  0.10220145856E+01  0.10217795886E+01 0.  0.
     999903    2    3    3    0    0 -0.18901745033E-01  0.96283909821E-01  0.85050938878E-01  0.13117087193E+00  0.18554465294E-01 0.  0.
         14    1    1    2    0    0  0.19373190534E-01  0.63961211027E-02  0.80034062926E-02  0.21915414414E-01  0.00000000000E+00 0.  1.
     999901    1    3    3    0    0 -0.47144550168E-03 -0.10268003092E+00 -0.93054345171E-01  0.89084371366E+00  0.88000000000E+00 0.  1.
        -11    1    4    4    0    0 -0.10788644482E-01  0.37113243326E-01  0.44685157391E-01  0.59083094808E-01  0.51100000000E-03 0.  1.
         11    1    4    4    0    0 -0.81131005502E-02  0.59170666495E-01  0.40365781487E-01  0.72087777119E-01  0.51100000000E-03 0. -1.
</event>
<event>
 8    1  0.1072332E+005  0.1043930E+01  0.7957747E-01            NaN
         13   -1    0    0    0    0  0.00000000000E+00  0.00000000000E+00  0.74505805969E-08  0.10566000000E+00  0.10566000000E+00 0.  1.
     999900   -1    0    0    0    0 -0.00000000000E+00 -0.00000000000E+00 -0.74505805969E-08  0.93827000000E+00  0.93827000000E+00 0. -1.
     999902    2    1    2    0    0  0.11671380482E-01 -0.10114570205E-01 -0.18371387673E-01  0.10199293013E+01  0.10196468732E+01 0.  0.
     999903    2    3    3    0    0 -0.52624508612E-01  0.82300888479E-01 -0.83752786821E-01  0.13035113964E+00  0.20835430260E-01 0.  0.
         14    1    1    2    0    0 -0.11671380482E-01  0.10114570205E-01  0.18371387673E-01  0.24000698694E-01  0.00000000000E+00 0.  1.
     999901    1    3    3    0    0  0.64295889094E-01 -0.92415458684E-01  0.65381399148E-01  0.88957816167E+00  0.88000000000E+00 0.  1.
        -11    1    4    4    0    0 -0.29876349402E-01  0.39769341000E-01 -0.29830288035E-01  0.58002620134E-01  0.51100000000E-03 0.  1.
         11    1    4    4    0    0 -0.22748159209E-01  0.42531547479E-01 -0.53922498785E-01  0.72348519506E-01  0.51100000000E-03 0. -1.
</event>
<event>
 8    1  0.1072332E+005  0.1043930E+01  0.7957747E-01            NaN
         13   -1    0    0    0    0  0.00000000000E+00  0.00000000000E+00  0.74505805969E-08  0.10566000000E+00  0.10566000000E+00 0.  1.
     999900   -1    0    0    0    0 -0.00000000000E+00 -0.00000000000E+00 -0.74505805969E-08  0.93827000000E+00  0.93827000000E+00 0. -1.
     999902    2    1    2    0    0  0.22659526794E-01  0.99426876752E-02  0.58088992473E-02  0.10185123978E+01  0.10181951924E+01 0.  0.
     999903    2    3    3    0    0  0.10488836841E-01  0.11603754699E+00  0.55306674408E-01  0.13067554642E+00  0.21036686748E-01 0.  0.
         14    1    1    2    0    0 -0.22659526794E-01 -0.99426876752E-02 -0.58088992473E-02  0.25417602232E-01  0.00000000000E+00 0. -1.
     999901    1    3    3    0    0  0.12170689953E-01 -0.10609485931E+00 -0.49497775161E-01  0.88783685135E+00  0.88000000000E+00 0. -1.
        -11    1    4    4    0    0  0.96430691569E-02  0.51536694148E-01  0.14717489050E-01  0.54459941529E-01  0.51100000000E-03 0. -1.
         11    1    4    4    0    0  0.84576768390E-03  0.64500852838E-01  0.40589185358E-01  0.76215604891E-01  0.51100000000E-03 0.  1.
</event>
<event>
 8    1  0.1072332E+005  0.1043930E+01  0.7957747E-01            NaN
         13   -1    0    0    0    0  0.00000000000E+00  0.00000000000E+00  0.74505805969E-08  0.10566000000E+00  0.10566000000E+00 0. -1.
     999900   -1    0    0    0    0 -0.00000000000E+00 -0.00000000000E+00 -0.74505805969E-08  0.93827000000E+00  0.93827000000E+00 0. -1.
     999902    2    1    2    0    0 -0.11204322834E-01  0.93215616974E-02  0.19220726430E-01  0.10198081284E+01  0.10195228071E+01 0.  0.
     999903    2    3    3    0    0 -0.72275170125E-01 -0.10124422377E+00  0.34868456705E-01  0.13065162211E+00  0.19492152874E-01 0.  0.
         14    1    1    2    0    0  0.11204322834E-01 -0.93215616974E-02 -0.19220726430E-01  0.24121871551E-01  0.00000000000E+00 0.  1.
     999901    1    3    3    0    0  0.61070847291E-01  0.11056578547E+00 -0.15647730276E-01  0.88915650634E+00  0.88000000000E+00 0. -1.
        -11    1    4    4    0    0 -0.56569970333E-01 -0.88341327205E-01  0.34095739159E-01  0.11030472422E+00  0.51100000000E-03 0.  1.
         11    1    4    4    0    0 -0.15705199792E-01 -0.12902896562E-01  0.77271754665E-03  0.20346897887E-01  0.51100000000E-03 0. -1.
</event>
<event>
 8    1  0.1072332E+005  0.1043930E+01  0.7957747E-01            NaN
         13   -1    0    0    0    0  0.00000000000E+00  0.00000000000E+00  0.74505805969E-08  0.10566000000E+00  0.10566000000E+00 0.  1.
     999900   -1    0    0    0    0 -0.00000000000E+00 -0.00000000000E+00 -0.74505805969E-08  0.93827000000E+00  0.93827000000E+00 0.  1.
     999902    2    1    2    0    0 -0.14346808315E-01  0.18769482278E-01 -0.31382495524E-02  0.10200978162E+01  0.10198193868E+01 0.  0.
     999903    2    3    3    0    0 -0.90597863479E-02  0.73657875025E-01  0.10682118698E+00  0.13154181576E+00  0.19619404290E-01 0.  0.
         14    1    1    2    0    0  0.14346808315E-01 -0.18769482278E-01  0.31382495524E-02  0.23832183787E-01  0.00000000000E+00 0.  1.
     999901    1    3    3    0    0 -0.52870219673E-02 -0.54888392747E-01 -0.10995943653E+00  0.88855600045E+00  0.88000000000E+00 0.  1.
        -11    1    4    4    0    0 -0.10243532172E-01  0.17382031271E-01  0.33418241813E-01  0.39039787005E-01  0.51100000000E-03 0.  1.
         11    1    4    4    0    0  0.11837458237E-02  0.56275843754E-01  0.73402945162E-01  0.92502028755E-01  0.51100000000E-03 0. -1.
</event>
<event>
 8    1  0.1072332E+005  0.1043930E+01  0.7957747E-01            NaN
         13   -1    0    0    0    0  0.00000000000E+00  0.00000000000E+00  0.74505805969E-08  0.10566000000E+00  0.10566000000E+00 0. -1.
     999900   -1    0    0    0    0 -0.00000000000E+00 -0.00000000000E+00 -0.74505805969E-08  0.93827000000E+00  0.93827000000E+00 0. -1.
     999902    2    1    2    0    0 -0.20363012095E-01 -0.12508532092E-01 -0.67590640649E-02  0.10190945297E+01  0.10187918629E+01 0.  0.
     999903    2    3    3    0    0  0.85949910775E-01  0.43851843892E-01 -0.81432850008E-01  0.12777241968E+00  0.19598744748E-01 0.  0.
         14    1    1    2    0    0  0.20363012095E-01  0.12508532092E-01  0.67590640649E-02  0.24835470273E-01  0.00000000000E+00 0. -1.
     999901    1    3    3    0    0 -0.10631292287E+00 -0.56360375983E-01  0.74673785943E-01  0.89132211005E+00  0.88000000000E+00 0.  1.
        -11    1    4    4    0    0  0.50741876525E-01  0.23714757423E-01 -0.59269863026E-01  0.81549405498E-01  0.51100000000E-03 0. -1.
         11    1    4    4    0    0  0.35208034250E-01  0.20137086469E-01 -0.22162986982E-01  0.46223014183E-01  0.51100000000E-03 0.  1.
</event>
<event>
 8    1  0.1072332E+005  0.1043930E+01  0.7957747E-01            NaN
         13   -1    0    0    0    0  0.00000000000E+00  0.00000000000E+00  0.74505805969E-08  0.10566000000E+00  0.10566000000E+00 0.  1.
     999900   -1    0    0    0    0 -0.00000000000E+00 -0.00000000000E+00 -0.74505805969E-08  0.93827000000E+00  0.93827000000E+00 0.  1.
     999902    2    1    2    0    0 -0.76797973429E-02 -0.14984264709E-01  0.15854395453E-01  0.10208027578E+01  0.10205407395E+01 0.  0.
     999903    2    3    3    0    0  0.51672685790E-01 -0.65542678161E-01  0.10185690372E+00  0.13317935690E+00  0.19899827879E-01 0.  0.
         14    1    1    2    0    0  0.76797973429E-02  0.14984264709E-01 -0.15854395453E-01  0.23127242189E-01  0.00000000000E+00 0. -1.
     999901    1    3    3    0    0 -0.59352483133E-01  0.50558413452E-01 -0.86002508270E-01  0.88762340092E+00  0.88000000000E+00 0.  1.
        -11    1    4    4    0    0  0.13252867057E-01 -0.32284805566E-01  0.38646073860E-01  0.52074247968E-01  0.51100000000E-03 0.  1.
         11    1    4    4    0    0  0.38419818733E-01 -0.33257872595E-01  0.63210829863E-01  0.81105108927E-01  0.51100000000E-03 0. -1.
</event>
<event>
 8    1  0.1072332E+005  0.1043930E+01  0.7957747E-01            NaN
         13   -1    0    0    0    0  0.00000000000E+00  0.00000000000E+00  0.74505805969E-08  0.10566000000E+00  0.10566000000E+00 0.  1.
     999900   -1    0    0    0    0 -0.00000000000E+00 -0.00000000000E+00 -0.74505805969E-08  0.93827000000E+00  0.93827000000E+00 0.  1.
     999902    2    1    2    0    0 -0.18480880947E-01  0.95912754558E-02 -0.11103197937E-01  0.10203330398E+01  0.10200601431E+01 0.  0.
     999903    2    3    3    0    0  0.14772094773E-01  0.53486267882E-01 -0.11809998645E+00  0.13214339593E+00  0.20863236869E-01 0.  0.
         14    1    1    2    0    0  0.18480880947E-01 -0.95912754558E-02  0.11103197937E-01  0.23596960183E-01  0.00000000000E+00 0.  1.
     999901    1    3    3    0    0 -0.33252975720E-01 -0.43894992426E-01  0.10699678851E+00  0.88818964389E+00  0.88000000000E+00 0. -1.
        -11    1    4    4    0    0 -0.55169682307E-03  0.31906127683E-01 -0.53006629828E-01  0.61873009300E-01  0.51100000000E-03 0.  1.
         11    1    4    4    0    0  0.15323791596E-01  0.21580140199E-01 -0.65093356623E-01  0.70270386631E-01  0.51100000000E-03 0. -1.
</event>
<event>
 8    1  0.1072332E+005  0.1043930E+01  0.7957747E-01            NaN
         13   -1    0    0    0    0  0.00000000000E+00  0.00000000000E+00  0.74505805969E-08  0.10566000000E+00  0.10566000000E+00 0.  1.
     999900   -1    0    0    0    0 -0.00000000000E+00 -0.00000000000E+00 -0.74505805969E-08  0.93827000000E+00  0.93827000000E+00 0. -1.
     999902    2    1    2    0    0 -0.20210874621E-01 -0.11917560770E-01  0.40552936658E-02  0.10201192227E+01  0.10198412992E+01 0.  0.
     999903    2    3    3    0    0 -0.67363063224E-01 -0.38860589179E-01  0.10525694301E+00  0.13265596743E+00  0.21694560714E-01 0.  0.
         14    1    1    2    0    0  0.20210874621E-01  0.11917560770E-01 -0.40552936658E-02  0.23810777273E-01  0.00000000000E+00 0. -1.
     999901    1    3    3    0    0  0.47152188603E-01  0.26943028410E-01 -0.10120164935E+00  0.88746325530E+00  0.88000000000E+00 0. -1.
        -11    1    4    4    0    0 -0.33078983151E-02 -0.37754204811E-02  0.18866311908E-01  0.19529332735E-01  0.51100000000E-03 0. -1.
         11    1    4    4    0    0 -0.64055164908E-01 -0.35085168698E-01  0.86390631105E-01  0.11312663470E+00  0.51100000000E-03 0.  1.
</event>
<event>
 7    1  0.1072332E+005  0.1043930E+01  0.7957747E-01            NaN
         13   -1    0    0    0    0  0.00000000000E+00  0.00000000000E+00  0.74505805969E-08  0.10566000000E+00  0.10566000000E+00 0. -1.
     999900   -1    0    0    0    0 -0.00000000000E+00 -0.00000000000E+00 -0.74505805969E-08  0.93827000000E+00  0.93827000000E+00 0. -1.
     999903    2    1    2    0    0 -0.10732153250E-01 -0.82596715169E-01  0.37216970577E-01  0.93182209307E-01  0.18984856131E-01 0.  0.
         14    1    1    2    0    0 -0.37318087652E-01  0.51336354192E-01  0.21293441676E-01  0.66943794232E-01  0.00000000000E+00 0.  1.
     999901    1    1    2    0    0  0.48050240902E-01  0.31260360977E-01 -0.58510412254E-01  0.88380399646E+00  0.88000000000E+00 0. -1.
        -11    1    3    3    0    0  0.80753926464E-03 -0.20933296538E-01  0.17843905181E-01  0.27523101146E-01  0.51100000000E-03 0.  1.
         11    1    3    3    0    0 -0.11539692515E-01 -0.61663418631E-01  0.19373065396E-01  0.65659108161E-01  0.51100000000E-03 0. -1.
</event>
<event>
 8    1  0.1072332E+005  0.1043930E+01  0.7957747E-01            NaN
         13   -1    0    0    0    0  0.00000000000E+00  0.00000000000E+00  0.74505805969E-08  0.10566000000E+00  0.10566000000E+00 0.  1.
     999900   -1    0    0    0    0 -0.00000000000E+00 -0.00000000000E+00 -0.74505805969E-08  0.93827000000E+00  0.93827000000E+00 0. -1.
     999902    2    1    2    0    0  0.21064231920E-01  0.92158816521E-02 -0.54745477861E-02  0.10202951737E+01  0.10200213902E+01 0.  0.
     999903    2    3    3    0    0 -0.70571778776E-01 -0.10436520885E+00 -0.13616873528E-01  0.12823905436E+00  0.19681540606E-01 0.  0.
         14    1    1    2    0    0 -0.21064231920E-01 -0.92158816521E-02  0.54745477861E-02  0.23634826305E-01  0.00000000000E+00 0. -1.
     999901    1    3    3    0    0  0.91636010696E-01  0.11358109050E+00  0.81423257421E-02  0.89205611934E+00  0.88000000000E+00 0. -1.
        -11    1    4    4    0    0 -0.15671815363E-01 -0.16479997160E-01 -0.91474601643E-02  0.24518018917E-01  0.51100000000E-03 0. -1.
         11    1    4    4    0    0 -0.54899963412E-01 -0.87885211689E-01 -0.44694133638E-02  0.10372103544E+00  0.51100000000E-03 0.  1.
</event>
<event>
 8    1  0.1072332E+005  0.1043930E+01  0.7957747E-01            NaN
         13   -1    0    0    0    0  0.00000000000E+00  0.00000000000E+00  0.74505805969E-08  0.10566000000E+00  0.10566000000E+00 0. -1.
     999900   -1    0    0    0    0 -0.00000000000E+00 -0.00000000000E+00 -0.74505805969E-08  0.93827000000E+00  0.93827000000E+00 0. -1.
     999902    2    1    2    0    0 -0.13458004688E-02 -0.22939610821E-01  0.30447018326E-02  0.10207501136E+01  0.10204868874E+01 0.  0.
     999903    2    3    3    0    0 -0.45356116447E-02  0.92069079131E-01 -0.87619596067E-01  0.12864183063E+00  0.19345280252E-01 0.  0.
         14    1    1    2    0    0  0.13458004688E-02  0.22939610821E-01 -0.30447018326E-02  0.23179886383E-01  0.00000000000E+00 0. -1.
     999901    1    3    3    0    0  0.31898111760E-02 -0.11500868995E+00  0.90664297899E-01  0.89210828299E+00  0.88000000000E+00 0.  1.
        -11    1    4    4    0    0 -0.11022432117E-01  0.33790431547E-01 -0.32706882237E-01  0.48304125503E-01  0.51100000000E-03 0. -1.
         11    1    4    4    0    0  0.64868204721E-02  0.58278647584E-01 -0.54912713830E-01  0.80337705127E-01  0.51100000000E-03 0.  1.
</event>
<event>
 8    1  0.1072332E+005  0.1043930E+01  0.7957747E-01            NaN
         13   -1    0    0    0    0  0.00000000000E+00  0.00000000000E+00  0.74505805969E-08  0.10566000000E+00  0.10566000000E+00 0.  1.
     999900   -1    0    0    0    0 -0.00000000000E+00 -0.00000000000E+00 -0.74505805969E-08  0.93827000000E+00  0.93827000000E+00 0. -1.
     999902    2    1    2    0    0  0.94674288035E-02 -0.56263657890E-02 -0.20979445456E-01  0.10202355844E+01  0.10199604023E+01 0.  0.
     999903    2    3    3    0    0 -0.50167851896E-01  0.51034493328E-01  0.10375619691E+00  0.12764060336E+00  0.20135599179E-01 0.  0.
         14    1    1    2    0    0 -0.94674288035E-02  0.56263657890E-02  0.20979445456E-01  0.23694415625E-01  0.00000000000E+00 0.  1.
     999901    1    3    3    0    0  0.59635280700E-01 -0.56660859117E-01 -0.12473564237E+00  0.89259498102E+00  0.88000000000E+00 0. -1.
        -11    1    4    4    0    0 -0.23097460566E-01  0.14684374847E-01  0.26684103805E-01  0.38228602722E-01  0.51100000000E-03 0.  1.
         11    1    4    4    0    0 -0.27070391330E-01  0.36350118481E-01  0.77072093110E-01  0.89412000635E-01  0.51100000000E-03 0. -1.
</event>
<event>
 8    1  0.1072332E+005  0.1043930E+01  0.7957747E-01            NaN
         13   -1    0    0    0    0  0.00000000000E+00  0.00000000000E+00  0.74505805969E-08  0.10566000000E+00  0.10566000000E+00 0. -1.
     999900   -1    0    0    0    0 -0.00000000000E+00 -0.00000000000E+00 -0.74505805969E-08  0.93827000000E+00  0.93827000000E+00 0.  1.
     999902    2    1    2    0    0 -0.22072213443E-01  0.87392695943E-02 -0.26013513108E-02  0.10200485330E+01  0.10197689371E+01 0.  0.
     999903    2    3    3    0    0 -0.53018910045E-01 -0.46447931892E-01 -0.10902219788E+00  0.13138171023E+00  0.20171736485E-01 0.  0.
         14    1    1    2    0    0  0.22072213443E-01 -0.87392695943E-02  0.26013513108E-02  0.23881467039E-01  0.00000000000E+00 0.  1.
     999901    1    3    3    0    0  0.30946696602E-01  0.55187201487E-01  0.10642084657E+00  0.88866682273E+00  0.88000000000E+00 0. -1.
        -11    1    4    4    0    0 -0.15501323795E-01 -0.11093583648E-01 -0.47064280195E-01  0.50780569403E-01  0.51100000000E-03 0.  1.
         11    1    4    4    0    0 -0.37517586249E-01 -0.35354348244E-01 -0.61957917685E-01  0.80601140827E-01  0.51100000000E-03 0. -1.
</event>
<event>
 8    1  0.1072332E+005  0.1043930E+01  0.7957747E-01            NaN
         13   -1    0    0    0    0  0.00000000000E+00  0.00000000000E+00  0.74505805969E-08  0.10566000000E+00  0.10566000000E+00 0. -1.
     999900   -1    0    0    0    0 -0.00000000000E+00 -0.00000000000E+00 -0.74505805969E-08  0.93827000000E+00  0.93827000000E+00 0. -1.
     999902    2    1    2    0    0 -0.12628824229E-01  0.22494307958E-02 -0.20317909938E-01  0.10199015876E+01  0.10196184991E+01 0.  0.
     999903    2    3    3    0    0  0.94900564906E-01 -0.31483190589E-01  0.76274779189E-01  0.12747197864E+00  0.20831583940E-01 0.  0.
         14    1    1    2    0    0  0.12628824229E-01 -0.22494307958E-02  0.20317909938E-01  0.24028412444E-01  0.00000000000E+00 0. -1.
     999901    1    3    3    0    0 -0.10752938913E+00  0.33732621384E-01 -0.96592689128E-01  0.89242960891E+00  0.88000000000E+00 0. -1.
        -11    1    4    4    0    0  0.49424588299E-01 -0.16899872730E-01  0.26816074948E-01  0.58717617658E-01  0.51100000000E-03 0.  1.
         11    1    4    4    0    0  0.45475976607E-01 -0.14583317859E-01  0.49458704242E-01  0.68754360985E-01  0.51100000000E-03 0. -1.
</event>
<event>
 8    1  0.1072332E+005  0.1043930E+01  0.7957747E-01            NaN
         13   -1    0    0    0    0  0.00000000000E+00  0.00000000000E+00  0.74505805969E-08  0.10566000000E+00  0.10566000000E+00 0.  1.
     999900   -1    0    0    0    0 -0.00000000000E+00 -0.00000000000E+00 -0.74505805969E-08  0.93827000000E+00  0.93827000000E+00 0. -1.
     999902    2    1    2    0    0  0.20171618638E-01  0.39413401781E-02 -0.70216503398E-02  0.10222106093E+01  0.10219798421E+01 0.  0.
     999903    2    3    3    0    0 -0.78015665768E-01 -0.39286686501E-01  0.93965033370E-01  0.12996192453E+00  0.20755396624E-01 0.  0.
         14    1    1    2    0    0 -0.20171618638E-01 -0.39413401781E-02  0.70216503398E-02  0.21719390746E-01  0.00000000000E+00 0.  1.
     999901    1    3    3    0    0  0.98187284407E-01  0.43228026679E-01 -0.10098668371E+00  0.89224868473E+00  0.88000000000E+00 0.  1.
        -11    1    4    4    0    0 -0.77659048553E-01 -0.34859336844E-01  0.87272119687E-01  0.12191302302E+00  0.51100000000E-03 0.  1.
         11    1    4    4    0    0 -0.35661721499E-03 -0.44273496564E-02  0.66929136835E-02  0.80489015023E-02  0.51100000000E-03 0. -1.
</event>
<event>
 8    1  0.1072332E+005  0.1043930E+01  0.7957747E-01            NaN
         13   -1    0    0    0    0  0.00000000000E+00  0.00000000000E+00  0.74505805969E-08  0.10566000000E+00  0.10566000000E+00 0. -1.
     999900   -1    0    0    0    0 -0.00000000000E+00 -0.00000000000E+00 -0.74505805969E-08  0.93827000000E+00  0.93827000000E+00 0. -1.
     999902    2    1    2    0    0 -0.19231306816E-01  0.84465887068E-03  0.21269138473E-01  0.10152431936E+01  0.10148378241E+01 0.  0.
     999903    2    3    3    0    0  0.93904689386E-01 -0.70160253906E-01 -0.33973227027E-01  0.12345108204E+00  0.18585951316E-01 0.  0.
         14    1    1    2    0    0  0.19231306816E-01 -0.84465887068E-03 -0.21269138473E-01  0.28686806407E-01  0.00000000000E+00 0.  1.
     999901    1    3    3    0    0 -0.11313599620E+00  0.71004912776E-01  0.55242365500E-01  0.89179211155E+00  0.88000000000E+00 0. -1.
        -11    1    4    4    0    0  0.24045852409E-01 -0.25723672194E-01 -0.16227341339E-01  0.38774966888E-01  0.51100000000E-03 0.  1.
         11    1    4    4    0    0  0.69858836978E-01 -0.44436581711E-01 -0.17745885688E-01  0.84676115156E-01  0.51100000000E-03 0. -1.
</event>
<event>
 8    1  0.1072332E+005  0.1043930E+01  0.7957747E-01            NaN
         13   -1    0    0    0    0  0.00000000000E+00  0.00000000000E+00  0.74505805969E-08  0.10566000000E+00  0.10566000000E+00 0. -1.
     999900   -1    0    0    0    0 -0.00000000000E+00 -0.00000000000E+00 -0.74505805969E-08  0.93827000000E+00  0.93827000000E+00 0.  1.
     999902    2    1    2    0    0  0.66343833658E-02 -0.71796916733E-02  0.21453227394E-01  0.10203545047E+01  0.10200821100E+01 0.  0.
     999903    2    3    3    0    0 -0.18639342141E-01 -0.12259784264E+00 -0.35282167620E-01  0.13064724054E+00  0.21123778391E-01 0.  0.
         14    1    1    2    0    0 -0.66343833658E-02  0.71796916733E-02 -0.21453227394E-01  0.23575495345E-01  0.00000000000E+00 0. -1.
     999901    1    3    3    0    0  0.25273725507E-01  0.11541815096E+00  0.56735395014E-01  0.88970726412E+00  0.88000000000E+00 0. -1.
        -11    1    4    4    0    0  0.16254261077E-02 -0.28730409016E-01 -0.14033971323E-02  0.28815083841E-01  0.51100000000E-03 0. -1.
         11    1    4    4    0    0 -0.20264768249E-01 -0.93867433622E-01 -0.33878770488E-01  0.10183215670E+00  0.51100000000E-03 0.  1.
</event>
<event>
 8    1  0.1072332E+005  0.1043930E+01  0.7957747E-01            NaN
         13   -1    0    0    0    0  0.00000000000E+00  0.00000000000E+00  0.74505805969E-08  0.10566000000E+00  0.10566000000E+00 0. -1.
     999900   -1    0    0    0    0 -0.00000000000E+00 -0.00000000000E+00 -0.74505805969E-08  0.93827000000E+00  0.93827000000E+00 0.  1.
     999902    2    1    2    0    0 -0.66619775895E-02  0.14507417600E-01 -0.16264124735E-01  0.10211403343E+01  0.10208859943E+01 0.  0.
     999903    2    3    3    0    0  0.11164312891E+00 -0.12295497858E-01 -0.65419650758E-01  0.13146018936E+00  0.19664261500E-01 0.  0.
         14    1    1    2    0    0  0.66619775895E-02 -0.14507417600E-01  0.16264124735E-01  0.22789665733E-01  0.00000000000E+00 0. -1.
     999901    1    3    3    0    0 -0.11830510650E+00  0.26802915458E-01  0.49155526023E-01  0.88968014491E+00  0.88000000000E+00 0.  1.
        -11    1    4    4    0    0  0.43891809933E-01  0.41343540605E-02 -0.21390263442E-01  0.49003962634E-01  0.51100000000E-03 0. -1.
         11    1    4    4    0    0  0.67751318981E-01 -0.16429851918E-01 -0.44029387315E-01  0.82456226727E-01  0.51100000000E-03 0.  1.
</event>
<event>
 8    1  0.1072332E+005  0.1043930E+01  0.7957747E-01            NaN
         13   -1    0    0    0    0  0.00000000000E+00  0.00000000000E+00  0.74505805969E-08  0.10566000000E+00  0.10566000000E+00 0.  1.
     999900   -1    0    0    0    0 -0.00000000000E+00 -0.00000000000E+00 -0.74505805969E-08  0.93827000000E+00  0.93827000000E+00 0. -1.
     999902    2    1    2    0    0  0.46259237640E-02  0.17439671784E-01  0.13127585586E-01  0.10216168912E+01  0.10213731921E+01 0.  0.
     999903    2    3    3    0    0  0.84556362769E-02  0.74637209991E-01  0.10971683921E+00  0.13447783273E+00  0.20107008480E-01 0.  0.
         14    1    1    2    0    0 -0.46259237640E-02 -0.17439671784E-01 -0.13127585586E-01  0.22313108836E-01  0.00000000000E+00 0. -1.
     999901    1    3    3    0    0 -0.38297125129E-02 -0.57197538207E-01 -0.96589253627E-01  0.88713905843E+00  0.88000000000E+00 0. -1.
        -11    1    4    4    0    0  0.67925972773E-02  0.34777266132E-01  0.35182324839E-01  0.49936506881E-01  0.51100000000E-03 0.  1.
         11    1    4    4    0    0  0.16630389996E-02  0.39859943859E-01  0.74534514374E-01  0.84541325854E-01  0.51100000000E-03 0. -1.
</event>
<event>
 8    1  0.1072332E+005  0.1043930E+01  0.7957747E-01            NaN
         13   -1    0    0    0    0  0.00000000000E+00  0.00000000000E+00  0.74505805969E-08  0.10566000000E+00  0.10566000000E+00 0. -1.
     999900   -1    0    0    0    0 -0.00000000000E+00 -0.00000000000E+00 -0.74505805969E-08  0.93827000000E+00  0.93827000000E+00 0.  1.
     999902    2    1    2    0    0  0.19475137854E-01  0.77813069204E-02 -0.10893447402E-01  0.10202974604E+01  0.10200237305E+01 0.  0.
     999903    2    3    3    0    0  0.10343403473E+00  0.81217909845E-01  0.35472291205E-02  0.13313875748E+00  0.20454766899E-01 0.  0.
         14    1    1    2    0    0 -0.19475137854E-01 -0.77813069204E-02  0.10893447402E-01  0.23632539604E-01  0.00000000000E+00 0. -1.
     999901    1    3    3    0    0 -0.83958896881E-01 -0.73436602925E-01 -0.14440676522E-01  0.88715870291E+00  0.88000000000E+00 0.  1.
        -11    1    4    4    0    0  0.29405126021E-01  0.22731629144E-01  0.10240969277E-01  0.38555505088E-01  0.51100000000E-03 0. -1.
         11    1    4    4    0    0  0.74028908713E-01  0.58486280701E-01 -0.66937401563E-02  0.94583252396E-01  0.51100000000E-03 0.  1.
</event>
<event>
 8    1  0.1072332E+005  0.1043930E+01  0.7957747E-01            NaN
         13   -1    0    0    0    0  0.00000000000E+00  0.00000000000E+00  0.74505805969E-08  0.10566000000E+00  0.10566000000E+00 0.  1.
     999900   -1    0    0    0    0 -0.00000000000E+00 -0.00000000000E+00 -0.74505805969E-08  0.93827000000E+00  0.93827000000E+00 0. -1.
     999902    2    1    2    0    0 -0.11926654200E-01 -0.61842022391E-02  0.19434080485E-01  0.10203043165E+01  0.10200307472E+01 0.  0.
     999903    2    3    3    0    0 -0.76979975237E-01  0.74179328672E-01  0.76325856171E-01  0.13242656260E+00  0.16812756256E-01 0.  0.
         14    1    1    2    0    0  0.11926654200E-01  0.61842022391E-02 -0.19434080485E-01  0.23625683525E-01  0.00000000000E+00 0. -1.
     999901    1    3    3    0    0  0.65053321037E-01 -0.80363530912E-01 -0.56891775686E-01  0.88787775387E+00  0.88000000000E+00 0. -1.
        -11    1    4    4    0    0 -0.39781979253E-02  0.32028992013E-03  0.10315862835E-02  0.41537856981E-02  0.51100000000E-03 0. -1.
         11    1    4    4    0    0 -0.73001777312E-01  0.73859038752E-01  0.75294269887E-01  0.12827277691E+00  0.51100000000E-03 0.  1.
</event>
<event>
 8    1  0.1072332E+005  0.1043930E+01  0.7957747E-01            NaN
         13   -1    0    0    0    0  0.00000000000E+00  0.00000000000E+00  0.74505805969E-08  0.10566000000E+00  0.10566000000E+00 0.  1.
     999900   -1    0    0    0    0 -0.00000000000E+00 -0.00000000000E+00 -0.74505805969E-08  0.93827000000E+00  0.93827000000E+00 0.  1.
     999902    2    1    2    0    0 -0.10829986305E-01  0.11109131803E-01 -0.11718050110E-01  0.10244874150E+01  0.10243029090E+01 0.  0.
     999903    2    3    3    0    0 -0.11805525495E+00  0.20934621701E-01 -0.62512958757E-01  0.13647056763E+00  0.18467382330E-01 0.  0.
         14    1    1    2    0    0  0.10829986305E-01 -0.11109131803E-01  0.11718050110E-01  0.19442584992E-01  0.00000000000E+00 0.  1.
     999901    1    3    3    0    0  0.10722526864E+00 -0.98254898972E-02  0.50794908647E-01  0.88801684738E+00  0.88000000000E+00 0.  1.
        -11    1    4    4    0    0 -0.80976757985E-01  0.22465717856E-01 -0.40095741828E-01  0.93112155201E-01  0.51100000000E-03 0.  1.
         11    1    4    4    0    0 -0.37078496960E-01 -0.15310961552E-02 -0.22417216929E-01  0.43358412426E-01  0.51100000000E-03 0. -1.
</event>
<event>
 8    1  0.1072332E+005  0.1043930E+01  0.7957747E-01            NaN
         13   -1    0    0    0    0  0.00000000000E+00  0.00000000000E+00  0.74505805969E-08  0.10566000000E+00  0.10566000000E+00 0.  1.
     999900   -1    0    0    0    0 -0.00000000000E+00 -0.00000000000E+00 -0.74505805969E-08  0.93827000000E+00  0.93827000000E+00 0.  1.
     999902    2    1    2    0    0 -0.22272892567E-01 -0.56146965886E-02  0.48780635059E-03  0.10209551329E+01  0.10206965950E+01 0.  0.
     999903    2    3    3    0    0  0.33825545801E-01  0.32921552915E-01 -0.11957235191E+00  0.13019898286E+00  0.20645377280E-01 0.  0.
         14    1    1    2    0    0  0.22272892567E-01  0.56146965886E-02 -0.48780635059E-03  0.22974867054E-01  0.00000000000E+00 0. -1.
     999901    1    3    3    0    0 -0.56098438369E-01 -0.38536249503E-01  0.12006015826E+00  0.89075615008E+00  0.88000000000E+00 0. -1.
        -11    1    4    4    0    0  0.22498596961E-01  0.19264689996E-01 -0.47561946748E-01  0.56033160230E-01  0.51100000000E-03 0. -1.
         11    1    4    4    0    0  0.11326948840E-01  0.13656862919E-01 -0.72010405157E-01  0.74165822632E-01  0.51100000000E-03 0.  1.
</event>
<event>
 8    1  0.1072332E+005  0.1043930E+01  0.7957747E-01            NaN
         13   -1    0    0    0    0  0.00000000000E+00  0.00000000000E+00  0.74505805969E-08  0.10566000000E+00  0.10566000000E+00 0. -1.
     999900   -1    0    0    0    0 -0.00000000000E+00 -0.00000000000E+00 -0.74505805969E-08  0.93827000000E+00  0.93827000000E+00 0.  1.
     999902    2    1    2    0    0 -0.10296202465E-01  0.20232833574E-01  0.83020299326E-02  0.10197576389E+01  0.10194711075E+01 0.  0.
     999903    2    3    3    0    0  0.10828426650E+00 -0.53025342678E-01  0.39549303363E-01  0.12823956276E+00  0.18549089557E-01 0.  0.
         14    1    1    2    0    0  0.10296202465E-01 -0.20232833574E-01 -0.83020299326E-02  0.24172361089E-01  0.00000000000E+00 0. -1.
     999901    1    3    3    0    0 -0.11858046896E+00  0.73258176252E-01 -0.31247273430E-01  0.89151807615E+00  0.88000000000E+00 0. -1.
        -11    1    4    4    0    0  0.46254578686E-01 -0.31626878168E-01  0.13498271263E-01  0.57638614836E-01  0.51100000000E-03 0. -1.
         11    1    4    4    0    0  0.62029687811E-01 -0.21398464510E-01  0.26051032099E-01  0.70600947924E-01  0.51100000000E-03 0.  1.
</event>
<event>
 8    1  0.1072332E+005  0.1043930E+01  0.7957747E-01            NaN
         13   -1    0    0    0    0  0.00000000000E+00  0.00000000000E+00  0.74505805969E-08  0.10566000000E+00  0.10566000000E+00 0. -1.
     999900   -1    0    0    0    0 -0.00000000000E+00 -0.00000000000E+00 -0.74505805969E-08  0.93827000000E+00  0.93827000000E+00 0.  1.
     999902    2    1    2    0    0  0.17702647207E-01  0.73881840030E-02 -0.66267170407E-02  0.10236351149E+01  0.10234339090E+01 0.  0.
     999903    2    3    3    0    0 -0.28607470323E-02  0.12629896110E+00 -0.42583945686E-01  0.13467192763E+00  0.19066310982E-01 0.  0.
         14    1    1    2    0    0 -0.17702647207E-01 -0.73881840030E-02  0.66267170407E-02  0.20294885063E-01  0.00000000000E+00 0.  1.
     999901    1    3    3    0    0  0.20563394239E-01 -0.11891077709E+00  0.35957228645E-01  0.88896318730E+00  0.88000000000E+00 0. -1.
        -11    1    4    4    0    0 -0.63565088989E-05  0.90959042203E-01 -0.39214705205E-01  0.99053529085E-01  0.51100000000E-03 0.  1.
         11    1    4    4    0    0 -0.28543905234E-02  0.35339918893E-01 -0.33692404803E-02  0.35618398547E-01  0.51100000000E-03 0. -1.
</event>
<event>
 8    1  0.1072332E+005  0.1043930E+01  0.7957747E-01            NaN
         13   -1    0    0    0    0  0.00000000000E+00  0.00000000000E+00  0.74505805969E-08  0.10566000000E+00  0.10566000000E+00 0. -1.
     999900   -1    0    0    0    0 -0.00000000000E+00 -0.00000000000E+00 -0.74505805969E-08  0.93827000000E+00  0.93827000000E+00 0. -1.
     999902    2    1    2    0    0 -0.14675944462E-01  0.32950624311E-02 -0.17990995135E-01  0.10204796975E+01  0.10202102216E+01 0.  0.
     999903    2    3    3    0    0  0.55760603407E-01 -0.98161545217E-01  0.58160017671E-01  0.12859757115E+00  0.20243858312E-01 0.  0.
         14    1    1    2    0    0  0.14675944462E-01 -0.32950624311E-02  0.17990995135E-01  0.23450302519E-01  0.00000000000E+00 0. -1.
     999901    1    3    3    0    0 -0.70436547869E-01  0.10145660765E+00 -0.76151012807E-01  0.89188212633E+00  0.88000000000E+00 0. -1.
        -11    1    4    4    0    0  0.27766104468E-01 -0.40063395065E-01  0.35247231039E-01  0.60155303992E-01  0.51100000000E-03 0.  1.
         11    1    4    4    0    0  0.27994498939E-01 -0.58098150152E-01  0.22912786632E-01  0.68442267161E-01  0.51100000000E-03 0. -1.
</event>
<event>
 8    1  0.1072332E+005  0.1043930E+01  0.7957747E-01            NaN
         13   -1    0    0    0    0  0.00000000000E+00  0.00000000000E+00  0.74505805969E-08  0.10566000000E+00  0.10566000000E+00 0. -1.
     999900   -1    0    0    0    0 -0.00000000000E+00 -0.00000000000E+00 -0.74505805969E-08  0.93827000000E+00  0.93827000000E+00 0. -1.
     999902    2    1    2    0    0 -0.17941729430E-01  0.41724147963E-02  0.15522299990E-01  0.10198414862E+01  0.10195569628E+01 0.  0.
     999903    2    3    3    0    0  0.22064801655E-01  0.40785220223E-01 -0.11771156656E+00  0.12816201282E+00  0.20474348972E-01 0.  0.
         14    1    1    2    0    0  0.17941729430E-01 -0.41724147963E-02 -0.15522299990E-01  0.24088513801E-01  0.00000000000E+00 0.  1.
     999901    1    3    3    0    0 -0.40006531085E-01 -0.36612805427E-01  0.13323386655E+00  0.89167947338E+00  0.88000000000E+00 0.  1.
        -11    1    4    4    0    0  0.14063803093E-01  0.26882254891E-01 -0.49270244060E-01  0.57864188029E-01  0.51100000000E-03 0. -1.
         11    1    4    4    0    0  0.80009985627E-02  0.13902965332E-01 -0.68441322504E-01  0.70297824790E-01  0.51100000000E-03 0.  1.
</event>
<event>
 8    1  0.1167348E+005  0.1043930E+01  0.7957747E-01            NaN
         13   -1    0    0    0    0  0.00000000000E+00  0.00000000000E+00  0.74505805969E-08  0.10566000000E+00  0.10566000000E+00 0. -1.
     999900   -1    0    0    0    0 -0.00000000000E+00 -0.00000000000E+00 -0.74505805969E-08  0.93827000000E+00  0.93827000000E+00 0.  1.
     999902    2    1    2    0    0 -0.48890485305E-02  0.16634834316E-01  0.16795865616E-01  0.10197903726E+01  0.10195046260E+01 0.  0.
     999903    2    3    3    0    0  0.10409668848E+00  0.73670547070E-01 -0.20120137751E-01  0.13046829671E+00  0.18806553204E-01 0.  0.
         14    1    1    2    0    0  0.48890485305E-02 -0.16634834316E-01 -0.16795865616E-01  0.24139627380E-01  0.00000000000E+00 0.  1.
     999901    1    3    3    0    0 -0.10898573702E+00 -0.57035712754E-01  0.36916003366E-01  0.88932207591E+00  0.88000000000E+00 0. -1.
        -11    1    4    4    0    0  0.37803496034E-01  0.37802552811E-01 -0.62720018625E-02  0.53830627340E-01  0.51100000000E-03 0. -1.
         11    1    4    4    0    0  0.66293192451E-01  0.35867994259E-01 -0.13848135888E-01  0.76637669367E-01  0.51100000000E-03 0.  1.
</event>
<event>
 8    1  0.1072332E+005  0.1043930E+01  0.7957747E-01            NaN
         13   -1    0    0    0    0  0.00000000000E+00  0.00000000000E+00  0.74505805969E-08  0.10566000000E+00  0.10566000000E+00 0.  1.
     999900   -1    0    0    0    0 -0.00000000000E+00 -0.00000000000E+00 -0.74505805969E-08  0.93827000000E+00  0.93827000000E+00 0.  1.
     999902    2    1    2    0    0 -0.23833392737E-01 -0.83001614710E-02 -0.69567422568E-02  0.10177513913E+01  0.10174146524E+01 0.  0.
     999903    2    3    3    0    0 -0.66156708433E-01  0.83544400715E-01 -0.70923275873E-01  0.12965319625E+00  0.20578223342E-01 0.  0.
         14    1    1    2    0    0  0.23833392737E-01  0.83001614710E-02  0.69567422568E-02  0.26178608684E-01  0.00000000000E+00 0. -1.
     999901    1    3    3    0    0  0.42323315696E-01 -0.91844562186E-01  0.63966533617E-01  0.88809819506E+00  0.88000000000E+00 0. -1.
        -11    1    4    4    0    0 -0.59718271695E-01  0.80092774376E-01 -0.60117547810E-01  0.11659976482E+00  0.51100000000E-03 0. -1.
         11    1    4    4    0    0 -0.64384367379E-02  0.34516263387E-02 -0.10805728064E-01  0.13053431426E-01  0.51100000000E-03 0.  1.
</event>
<event>
 8    1  0.1072332E+005  0.1043930E+01  0.7957747E-01            NaN
         13   -1    0    0    0    0  0.00000000000E+00  0.00000000000E+00  0.74505805969E-08  0.10566000000E+00  0.10566000000E+00 0. -1.
     999900   -1    0    0    0    0 -0.00000000000E+00 -0.00000000000E+00 -0.74505805969E-08  0.93827000000E+00  0.93827000000E+00 0.  1.
     999902    2    1    2    0    0  0.18998479679E-01  0.13207255462E-01  0.26955559683E-02  0.10206353687E+01  0.10203694997E+01 0.  0.
     999903    2    3    3    0    0  0.85863952018E-01 -0.95659462247E-01 -0.17997639952E-01  0.13116858347E+00  0.18919071632E-01 0.  0.
         14    1    1    2    0    0 -0.18998479679E-01 -0.13207255462E-01 -0.26955559683E-02  0.23294631333E-01  0.00000000000E+00 0. -1.
     999901    1    3    3    0    0 -0.66865472339E-01  0.10886671771E+00  0.20693195920E-01  0.88946678520E+00  0.88000000000E+00 0.  1.
        -11    1    4    4    0    0  0.67449283519E-01 -0.84247753732E-01 -0.18477759049E-01  0.10949328087E+00  0.51100000000E-03 0.  1.
         11    1    4    4    0    0  0.18414668499E-01 -0.11411708516E-01  0.48011909649E-03  0.21675302594E-01  0.51100000000E-03 0. -1.
</event>
<event>
 8    1  0.1072332E+005  0.1043930E+01  0.7957747E-01            NaN
         13   -1    0    0    0    0  0.00000000000E+00  0.00000000000E+00  0.74505805969E-08  0.10566000000E+00  0.10566000000E+00 0. -1.
     999900   -1    0    0    0    0 -0.00000000000E+00 -0.00000000000E+00 -0.74505805969E-08  0.93827000000E+00  0.93827000000E+00 0.  1.
     999902    2    1    2    0    0  0.99811121424E-02 -0.66505864659E-02  0.18913160709E-01  0.10215344525E+01  0.10212889293E+01 0.  0.
     999903    2    3    3    0    0  0.57586083210E-01  0.86570975938E-01 -0.77044360887E-01  0.13015106757E+00  0.13884379423E-01 0.  0.
         14    1    1    2    0    0 -0.99811121424E-02  0.66505864659E-02 -0.18913160709E-01  0.22395547502E-01  0.00000000000E+00 0.  1.
     999901    1    3    3    0    0 -0.47604971067E-01 -0.93221562404E-01  0.95957521595E-01  0.89138338492E+00  0.88000000000E+00 0.  1.
        -11    1    4    4    0    0  0.31328026442E-01  0.57183080070E-01 -0.52573301190E-01  0.83758957766E-01  0.51100000000E-03 0. -1.
         11    1    4    4    0    0  0.26258056768E-01  0.29387895868E-01 -0.24471059697E-01  0.46392109808E-01  0.51100000000E-03 0.  1.
</event>
<event>
 8    1  0.1072332E+005  0.1043930E+01  0.7957747E-01            NaN
         13   -1    0    0    0    0  0.00000000000E+00  0.00000000000E+00  0.74505805969E-08  0.10566000000E+00  0.10566000000E+00 0. -1.
     999900   -1    0    0    0    0 -0.00000000000E+00 -0.00000000000E+00 -0.74505805969E-08  0.93827000000E+00  0.93827000000E+00 0.  1.
     999902    2    1    2    0    0 -0.82208412323E-02 -0.57219691524E-02  0.20381121375E-01  0.10212206788E+01  0.10209681491E+01 0.  0.
     999903    2    3    3    0    0 -0.20289290291E-01 -0.91930167929E-01  0.93569810468E-01  0.13390219864E+00  0.17654412847E-01 0.  0.
         14    1    1    2    0    0  0.82208412323E-02  0.57219691524E-02 -0.20381121375E-01  0.22709321215E-01  0.00000000000E+00 0.  1.
     999901    1    3    3    0    0  0.12068449058E-01  0.86208198777E-01 -0.73188689094E-01  0.88731848015E+00  0.88000000000E+00 0.  1.
        -11    1    4    4    0    0 -0.11396401225E-01 -0.24470984723E-01  0.19389394531E-01  0.33240288739E-01  0.51100000000E-03 0. -1.
         11    1    4    4    0    0 -0.88928890659E-02 -0.67459183207E-01  0.74180415937E-01  0.10066190990E+00  0.51100000000E-03 0.  1.
</event>
<event>
 8    1  0.1072332E+005  0.1043930E+01  0.7957747E-01            NaN
         13   -1    0    0    0    0  0.00000000000E+00  0.00000000000E+00  0.74505805969E-08  0.10566000000E+00  0.10566000000E+00 0.  1.
     999900   -1    0    0    0    0 -0.00000000000E+00 -0.00000000000E+00 -0.74505805969E-08  0.93827000000E+00  0.93827000000E+00 0.  1.
     999902    2    1    2    0    0  0.15954297414E-01  0.97434345546E-02  0.12912136405E-01  0.10212100222E+01  0.10209572528E+01 0.  0.
     999903    2    3    3    0    0  0.45413202937E-01 -0.32809199420E-01 -0.11595749299E+00  0.13031949296E+00  0.19955638254E-01 0.  0.
         14    1    1    2    0    0 -0.15954297414E-01 -0.97434345546E-02 -0.12912136405E-01  0.22719977761E-01  0.00000000000E+00 0. -1.
     999901    1    3    3    0    0 -0.29458905523E-01  0.42552633975E-01  0.12886962939E+00  0.89089052928E+00  0.88000000000E+00 0. -1.
        -11    1    4    4    0    0  0.41584877551E-01 -0.23408913865E-01 -0.82027782311E-01  0.94900460911E-01  0.51100000000E-03 0.  1.
         11    1    4    4    0    0  0.38283253864E-02 -0.94002855550E-02 -0.33929710678E-01  0.35419032052E-01  0.51100000000E-03 0. -1.
</event>
<event>
 8    1  0.1072332E+005  0.1043930E+01  0.7957747E-01            NaN
         13   -1    0    0    0    0  0.00000000000E+00  0.00000000000E+00  0.74505805969E-08  0.10566000000E+00  0.10566000000E+00 0. -1.
     999900   -1    0    0    0    0 -0.00000000000E+00 -0.00000000000E+00 -0.74505805969E-08  0.93827000000E+00  0.93827000000E+00 0. -1.
     999902    2    1    2    0    0 -0.12936519659E-01 -0.10200188627E-01 -0.16245431844E-01  0.10207932015E+01  0.10205309642E+01 0.  0.
     999903    2    3    3    0    0 -0.21829929975E-01  0.76041579207E-01  0.99867394039E-01  0.12894179931E+00  0.19839949728E-01 0.  0.
         14    1    1    2    0    0  0.12936519659E-01  0.10200188627E-01  0.16245431844E-01  0.23136798497E-01  0.00000000000E+00 0. -1.
     999901    1    3    3    0    0  0.88934103161E-02 -0.86241767834E-01 -0.11611282588E+00  0.89185140220E+00  0.88000000000E+00 0. -1.
        -11    1    4    4    0    0 -0.33042114175E-02  0.28416054933E-01  0.49586714275E-01  0.57249396020E-01  0.51100000000E-03 0.  1.
         11    1    4    4    0    0 -0.18525718558E-01  0.47625524274E-01  0.50280679764E-01  0.71692403286E-01  0.51100000000E-03 0. -1.
</event>
<event>
 8    1  0.1072332E+005  0.1043930E+01  0.7957747E-01            NaN
         13   -1    0    0    0    0  0.00000000000E+00  0.00000000000E+00  0.74505805969E-08  0.10566000000E+00  0.10566000000E+00 0.  1.
     999900   -1    0    0    0    0 -0.00000000000E+00 -0.00000000000E+00 -0.74505805969E-08  0.93827000000E+00  0.93827000000E+00 0. -1.
     999902    2    1    2    0    0  0.46864305522E-02 -0.15399275722E-01  0.13018312370E-01  0.10232279039E+01  0.10230184586E+01 0.  0.
     999903    2    3    3    0    0 -0.93544362667E-01  0.19962964235E-01 -0.86561537511E-01  0.13147910341E+00  0.25392658972E-01 0.  0.
         14    1    1    2    0    0 -0.46864305522E-02  0.15399275722E-01 -0.13018312370E-01  0.20702096055E-01  0.00000000000E+00 0. -1.
     999901    1    3    3    0    0  0.98230793219E-01 -0.35362239958E-01  0.99579849882E-01  0.89174880053E+00  0.88000000000E+00 0.  1.
        -11    1    4    4    0    0 -0.15485355183E-01 -0.15959274804E-02 -0.26181128580E-01  0.30464008672E-01  0.51100000000E-03 0.  1.
         11    1    4    4    0    0 -0.78059007484E-01  0.21558891716E-01 -0.60380408932E-01  0.10101509474E+00  0.51100000000E-03 0. -1.
</event>
<event>
 8    1  0.1072332E+005  0.1043930E+01  0.7957747E-01            NaN
         13   -1    0    0    0    0  0.00000000000E+00  0.00000000000E+00  0.74505805969E-08  0.10566000000E+00  0.10566000000E+00 0.  1.
     999900   -1    0    0    0    0 -0.00000000000E+00 -0.00000000000E+00 -0.74505805969E-08  0.93827000000E+00  0.93827000000E+00 0.  1.
     999902    2    1    2    0    0 -0.81282815737E-02  0.30084228951E-02  0.22417894054E-01  0.10198949934E+01  0.10196117477E+01 0.  0.
     999903    2    3    3    0    0 -0.17171375311E-01 -0.99176517173E-01 -0.77148319616E-01  0.12835869550E+00  0.19830627895E-01 0.  0.
         14    1    1    2    0    0  0.81282815737E-02 -0.30084228951E-02 -0.22417894054E-01  0.24035006625E-01  0.00000000000E+00 0.  1.
     999901    1    3    3    0    0  0.90430937374E-02  0.10218494007E+00  0.99566213670E-01  0.89153629787E+00  0.88000000000E+00 0. -1.
        -11    1    4    4    0    0 -0.17764212783E-02 -0.62692277369E-01 -0.42753548540E-01  0.75905232679E-01  0.51100000000E-03 0. -1.
         11    1    4    4    0    0 -0.15394954033E-01 -0.36484239803E-01 -0.34394771076E-01  0.52453462822E-01  0.51100000000E-03 0.  1.
</event>
<event>
 8    1  0.1072332E+005  0.1043930E+01  0.7957747E-01            NaN
         13   -1    0    0    0    0  0.00000000000E+00  0.00000000000E+00  0.74505805969E-08  0.10566000000E+00  0.10566000000E+00 0. -1.
     999900   -1    0    0    0    0 -0.00000000000E+00 -0.00000000000E+00 -0.74505805969E-08  0.93827000000E+00  0.93827000000E+00 0. -1.
     999902    2    1    2    0    0 -0.19622526429E-01  0.64296629086E-02  0.85631676361E-02  0.10215757622E+01  0.10213311539E+01 0.  0.
     999903    2    3    3    0    0  0.10578506128E-01  0.82378059645E-01 -0.99558909889E-01  0.13119907505E+00  0.20079124807E-01 0.  0.
         14    1    1    2    0    0  0.19622526429E-01 -0.64296629086E-02 -0.85631676361E-02  0.22354237821E-01  0.00000000000E+00 0.  1.
     999901    1    3    3    0    0 -0.30201032557E-01 -0.75948396736E-01  0.10812207752E+00  0.89037668713E+00  0.88000000000E+00 0.  1.
        -11    1    4    4    0    0 -0.91366812576E-03  0.51071465104E-01 -0.69831944457E-01  0.86521043249E-01  0.51100000000E-03 0.  1.
         11    1    4    4    0    0  0.11492174253E-01  0.31306594541E-01 -0.29726965432E-01  0.44678031801E-01  0.51100000000E-03 0. -1.
</event>
<event>
 8    1  0.1072332E+005  0.1043930E+01  0.7957747E-01            NaN
         13   -1    0    0    0    0  0.00000000000E+00  0.00000000000E+00  0.74505805969E-08  0.10566000000E+00  0.10566000000E+00 0. -1.
     999900   -1    0    0    0    0 -0.00000000000E+00 -0.00000000000E+00 -0.74505805969E-08  0.93827000000E+00  0.93827000000E+00 0. -1.
     999902    2    1    2    0    0 -0.23773668927E-01 -0.51591394653E-02 -0.50236220084E-02  0.10190896934E+01  0.10187869072E+01 0.  0.
     999903    2    3    3    0    0 -0.17550751929E-01  0.95767346412E-01  0.82255725078E-01  0.12900960448E+00  0.19951446273E-01 0.  0.
         14    1    1    2    0    0  0.23773668927E-01  0.51591394653E-02  0.50236220084E-02  0.24840306608E-01  0.00000000000E+00 0.  1.
     999901    1    3    3    0    0 -0.62229169978E-02 -0.10092648588E+00 -0.87279347086E-01  0.89008008891E+00  0.88000000000E+00 0. -1.
        -11    1    4    4    0    0 -0.17699216239E-01  0.53433788054E-01  0.54728243245E-01  0.78510341299E-01  0.51100000000E-03 0. -1.
         11    1    4    4    0    0  0.14846430948E-03  0.42333558358E-01  0.27527481833E-01  0.50499263182E-01  0.51100000000E-03 0.  1.
</event>
<event>
 8    1  0.1072332E+005  0.1043930E+01  0.7957747E-01            NaN
         13   -1    0    0    0    0  0.00000000000E+00  0.00000000000E+00  0.74505805969E-08  0.10566000000E+00  0.10566000000E+00 0.  1.
     999900   -1    0    0    0    0 -0.00000000000E+00 -0.00000000000E+00 -0.74505805969E-08  0.93827000000E+00  0.93827000000E+00 0. -1.
     999902    2    1    2    0    0  0.13254207000E-01  0.12985258478E-01  0.16313053267E-01  0.10192235910E+01  0.10189241001E+01 0.  0.
     999903    2    3    3    0    0  0.35653986790E-01 -0.35089208619E-01  0.12029864901E+00  0.13151535699E+00  0.17946164925E-01 0.  0.
         14    1    1    2    0    0 -0.13254207000E-01 -0.12985258478E-01 -0.16313053267E-01  0.24706409044E-01  0.00000000000E+00 0. -1.
     999901    1    3    3    0    0 -0.22399779790E-01  0.48074467097E-01 -0.10398559575E+00  0.88770823396E+00  0.88000000000E+00 0. -1.
        -11    1    4    4    0    0  0.34152044369E-01 -0.37169283386E-01  0.11301959504E+00  0.12378048209E+00  0.51100000000E-03 0.  1.
         11    1    4    4    0    0  0.15019424211E-02  0.20800747673E-02  0.72790539685E-02  0.77348749020E-02  0.51100000000E-03 0. -1.
</event>
<event>
 8    1  0.1072332E+005  0.1043930E+01  0.7957747E-01            NaN
         13   -1    0    0    0    0  0.00000000000E+00  0.00000000000E+00  0.74505805969E-08  0.10566000000E+00  0.10566000000E+00 0.  1.
     999900   -1    0    0    0    0 -0.00000000000E+00 -0.00000000000E+00 -0.74505805969E-08  0.93827000000E+00  0.93827000000E+00 0. -1.
     999902    2    1    2    0    0 -0.11342348456E-01  0.11689154621E-01  0.12752811190E-01  0.10232437873E+01  0.10230346665E+01 0.  0.
     999903    2    3    3    0    0  0.98439349288E-01  0.37191385085E-01  0.79802261364E-01  0.13352584674E+00  0.19678572502E-01 0.  0.
         14    1    1    2    0    0  0.11342348456E-01 -0.11689154621E-01 -0.12752811190E-01  0.20686212740E-01  0.00000000000E+00 0.  1.
     999901    1    3    3    0    0 -0.10978169774E+00 -0.25502230463E-01 -0.67049450174E-01  0.88971794052E+00  0.88000000000E+00 0. -1.
        -11    1    4    4    0    0  0.74911218590E-01  0.34328911228E-01  0.54188367945E-01  0.98624566708E-01  0.51100000000E-03 0.  1.
         11    1    4    4    0    0  0.23528130697E-01  0.28624738564E-02  0.25613893418E-01  0.34901280030E-01  0.51100000000E-03 0. -1.
</event>
<event>
 8    1  0.1072332E+005  0.1043930E+01  0.7957747E-01            NaN
         13   -1    0    0    0    0  0.00000000000E+00  0.00000000000E+00  0.74505805969E-08  0.10566000000E+00  0.10566000000E+00 0. -1.
     999900   -1    0    0    0    0 -0.00000000000E+00 -0.00000000000E+00 -0.74505805969E-08  0.93827000000E+00  0.93827000000E+00 0.  1.
     999902    2    1    2    0    0  0.79668045140E-02 -0.14117136506E-02 -0.22247121155E-01  0.10202572877E+01  0.10199826154E+01 0.  0.
     999903    2    3    3    0    0 -0.47794459528E-01 -0.69015060703E-01  0.94660403135E-01  0.12821082008E+00  0.20737249042E-01 0.  0.
         14    1    1    2    0    0 -0.79668045140E-02  0.14117136506E-02  0.22247121155E-01  0.23672712335E-01  0.00000000000E+00 0. -1.
     999901    1    3    3    0    0  0.55761264042E-01  0.67603347053E-01 -0.11690752429E+00  0.89204646759E+00  0.88000000000E+00 0.  1.
        -11    1    4    4    0    0 -0.60953220153E-02 -0.10159924552E-01  0.26218921391E-01  0.28776205054E-01  0.51100000000E-03 0.  1.
         11    1    4    4    0    0 -0.41699137513E-01 -0.58855136151E-01  0.68441481744E-01  0.99434615024E-01  0.51100000000E-03 0. -1.
</event>
<event>
 8    1  0.1072332E+005  0.1043930E+01  0.7957747E-01            NaN
         13   -1    0    0    0    0  0.00000000000E+00  0.00000000000E+00  0.74505805969E-08  0.10566000000E+00  0.10566000000E+00 0. -1.
     999900   -1    0    0    0    0 -0.00000000000E+00 -0.00000000000E+00 -0.74505805969E-08  0.93827000000E+00  0.93827000000E+00 0.  1.
     999902    2    1    2    0    0 -0.16837286824E-02 -0.21856683089E-01  0.95302077933E-02  0.10200265609E+01  0.10197464443E+01 0.  0.
     999903    2    3    3    0    0  0.79265746967E-01 -0.44098001486E-01  0.93704076018E-01  0.13203290447E+00  0.20604407862E-01 0.  0.
         14    1    1    2    0    0  0.16837286824E-02  0.21856683089E-01 -0.95302077933E-02  0.23903439052E-01  0.00000000000E+00 0. -1.
     999901    1    3    3    0    0 -0.80949475649E-01  0.22241318397E-01 -0.84173868225E-01  0.88799365648E+00  0.88000000000E+00 0.  1.
        -11    1    4    4    0    0  0.68506384161E-01 -0.41096654111E-01  0.89790696286E-01  0.12018606371E+00  0.51100000000E-03 0. -1.
         11    1    4    4    0    0  0.10759362805E-01 -0.30013473745E-02  0.39133797317E-02  0.11846840759E-01  0.51100000000E-03 0.  1.
</event>
<event>
 8    1  0.1072332E+005  0.1043930E+01  0.7957747E-01            NaN
         13   -1    0    0    0    0  0.00000000000E+00  0.00000000000E+00  0.74505805969E-08  0.10566000000E+00  0.10566000000E+00 0.  1.
     999900   -1    0    0    0    0 -0.00000000000E+00 -0.00000000000E+00 -0.74505805969E-08  0.93827000000E+00  0.93827000000E+00 0. -1.
     999902    2    1    2    0    0 -0.91345580257E-02  0.13532983360E-01 -0.17568300418E-01  0.10199461102E+01  0.10196640823E+01 0.  0.
     999903    2    3    3    0    0  0.81382528803E-01 -0.27286723519E-01  0.92223251355E-01  0.12758196017E+00  0.20108386175E-01 0.  0.
         14    1    1    2    0    0  0.91345580257E-02 -0.13532983360E-01  0.17568300418E-01  0.23983889770E-01  0.00000000000E+00 0.  1.
     999901    1    3    3    0    0 -0.90517086828E-01  0.40819706879E-01 -0.10979155177E+00  0.89236415006E+00  0.88000000000E+00 0. -1.
        -11    1    4    4    0    0  0.17924644329E-01 -0.20120183545E-03  0.11126315122E-01  0.21104249944E-01  0.51100000000E-03 0. -1.
         11    1    4    4    0    0  0.63457884474E-01 -0.27085521684E-01  0.81096936233E-01  0.10647771022E+00  0.51100000000E-03 0.  1.
</event>
<event>
 8    1  0.1072332E+005  0.1043930E+01  0.7957747E-01            NaN
         13   -1    0    0    0    0  0.00000000000E+00  0.00000000000E+00  0.74505805969E-08  0.10566000000E+00  0.10566000000E+00 0.  1.
     999900   -1    0    0    0    0 -0.00000000000E+00 -0.00000000000E+00 -0.74505805969E-08  0.93827000000E+00  0.93827000000E+00 0.  1.
     999902    2    1    2    0    0 -0.35295209153E-01  0.24350185048E-02  0.11278903886E-01  0.10067965275E+01  0.10061115013E+01 0.  0.
     999903    2    3    3    0    0 -0.10074381745E+00  0.61832314038E-01  0.24690208615E-01  0.12226760085E+00  0.19162672145E-01 0.  0.
         14    1    1    2    0    0  0.35295209153E-01 -0.24350185048E-02 -0.11278903886E-01  0.37133472463E-01  0.00000000000E+00 0. -1.
     999901    1    3    3    0    0  0.65448608296E-01 -0.59397295533E-01 -0.13411304729E-01  0.88452892668E+00  0.88000000000E+00 0.  1.
        -11    1    4    4    0    0 -0.31328449473E-01  0.98054599197E-02  0.96824897161E-02  0.34229088781E-01  0.51100000000E-03 0. -1.
         11    1    4    4    0    0 -0.69415367976E-01  0.52026854118E-01  0.15007718899E-01  0.88038512074E-01  0.51100000000E-03 0.  1.
</event>
<event>
 8    1  0.1072332E+005  0.1043930E+01  0.7957747E-01            NaN
         13   -1    0    0    0    0  0.00000000000E+00  0.00000000000E+00  0.74505805969E-08  0.10566000000E+00  0.10566000000E+00 0.  1.
     999900   -1    0    0    0    0 -0.00000000000E+00 -0.00000000000E+00 -0.74505805969E-08  0.93827000000E+00  0.93827000000E+00 0.  1.
     999902    2    1    2    0    0 -0.25166115540E-02 -0.15269351676E-01 -0.18698121003E-01  0.10196584907E+01  0.10193695755E+01 0.  0.
     999903    2    3    3    0    0  0.16864463631E-01  0.12281534082E+00 -0.27642432805E-01  0.12863491689E+00  0.20367122486E-01 0.  0.
         14    1    1    2    0    0  0.25166115540E-02  0.15269351676E-01  0.18698121003E-01  0.24271509293E-01  0.00000000000E+00 0.  1.
     999901    1    3    3    0    0 -0.19381075185E-01 -0.13808469250E+00  0.89443118029E-02  0.89102357381E+00  0.88000000000E+00 0.  1.
        -11    1    4    4    0    0  0.20311590062E-01  0.11738042707E+00 -0.26995637186E-01  0.12214643219E+00  0.51100000000E-03 0.  1.
         11    1    4    4    0    0 -0.34471264312E-02  0.54349137543E-02 -0.64679561913E-03  0.64884847016E-02  0.51100000000E-03 0. -1.
</event>
<event>
 8    1  0.1072332E+005  0.1043930E+01  0.7957747E-01            NaN
         13   -1    0    0    0    0  0.00000000000E+00  0.00000000000E+00  0.74505805969E-08  0.10566000000E+00  0.10566000000E+00 0. -1.
     999900   -1    0    0    0    0 -0.00000000000E+00 -0.00000000000E+00 -0.74505805969E-08  0.93827000000E+00  0.93827000000E+00 0.  1.
     999902    2    1    2    0    0  0.82504526753E-03  0.81389062324E-02 -0.22471896118E-01  0.10200153892E+01  0.10197350075E+01 0.  0.
     999903    2    3    3    0    0  0.49912329748E-01  0.10829486243E+00 -0.53866427710E-01  0.13241953879E+00  0.20354958355E-01 0.  0.
         14    1    1    2    0    0 -0.82504526753E-03 -0.81389062324E-02  0.22471896118E-01  0.23914610795E-01  0.00000000000E+00 0. -1.
     999901    1    3    3    0    0 -0.49087284480E-01 -0.10015595620E+00  0.31394531592E-01  0.88759585041E+00  0.88000000000E+00 0. -1.
        -11    1    4    4    0    0  0.18462418465E-02  0.21659220780E-01 -0.12246236387E-01  0.24955197463E-01  0.51100000000E-03 0.  1.
         11    1    4    4    0    0  0.48066087901E-01  0.86635641649E-01 -0.41620191323E-01  0.10746434133E+00  0.51100000000E-03 0. -1.
</event>
<event>
 8    1  0.1072332E+005  0.1043930E+01  0.7957747E-01            NaN
         13   -1    0    0    0    0  0.00000000000E+00  0.00000000000E+00  0.74505805969E-08  0.10566000000E+00  0.10566000000E+00 0. -1.
     999900   -1    0    0    0    0 -0.00000000000E+00 -0.00000000000E+00 -0.74505805969E-08  0.93827000000E+00  0.93827000000E+00 0.  1.
     999902    2    1    2    0    0  0.41558862493E-04 -0.10815438229E-01  0.19123586387E-01  0.10219598615E+01  0.10217236767E+01 0.  0.
     999903    2    3    3    0    0 -0.32281186884E-01  0.12455322085E+00  0.16364842389E-01  0.13101819983E+00  0.18503534010E-01 0.  0.
         14    1    1    2    0    0 -0.41558862493E-04  0.10815438229E-01 -0.19123586387E-01  0.21970138541E-01  0.00000000000E+00 0.  1.
     999901    1    3    3    0    0  0.32322745746E-01 -0.13536865908E+00  0.27587439982E-02  0.89094166163E+00  0.88000000000E+00 0. -1.
        -11    1    4    4    0    0 -0.33404774126E-02  0.54004842913E-02  0.45573228853E-02  0.78329006636E-02  0.51100000000E-03 0.  1.
         11    1    4    4    0    0 -0.28940709471E-01  0.11915273656E+00  0.11807519503E-01  0.12318529917E+00  0.51100000000E-03 0. -1.
</event>
<event>
 8    1  0.1072332E+005  0.1043930E+01  0.7957747E-01            NaN
         13   -1    0    0    0    0  0.00000000000E+00  0.00000000000E+00  0.74505805969E-08  0.10566000000E+00  0.10566000000E+00 0. -1.
     999900   -1    0    0    0    0 -0.00000000000E+00 -0.00000000000E+00 -0.74505805969E-08  0.93827000000E+00  0.93827000000E+00 0.  1.
     999902    2    1    2    0    0  0.55941294592E-02  0.52552707806E-04 -0.24440239664E-01  0.10188576574E+01  0.10185491170E+01 0.  0.
     999903    2    3    3    0    0  0.65349694340E-01  0.17758072136E-01 -0.11229853849E+00  0.13228938956E+00  0.17423810328E-01 0.  0.
         14    1    1    2    0    0 -0.55941294592E-02 -0.52552707806E-04  0.24440239664E-01  0.25072342551E-01  0.00000000000E+00 0. -1.
     999901    1    3    3    0    0 -0.59755564881E-01 -0.17705519428E-01  0.87858298830E-01  0.88656826789E+00  0.88000000000E+00 0.  1.
        -11    1    4    4    0    0  0.32081613524E-01  0.57196697655E-02 -0.38468115235E-01  0.50418266128E-01  0.51100000000E-03 0.  1.
         11    1    4    4    0    0  0.33268080816E-01  0.12038402370E-01 -0.73830423258E-01  0.81871123433E-01  0.51100000000E-03 0. -1.
</event>
<event>
 8    1  0.1072332E+005  0.1043930E+01  0.7957747E-01            NaN
         13   -1    0    0    0    0  0.00000000000E+00  0.00000000000E+00  0.74505805969E-08  0.10566000000E+00  0.10566000000E+00 0.  1.
     999900   -1    0    0    0    0 -0.00000000000E+00 -0.00000000000E+00 -0.74505805969E-08  0.93827000000E+00  0.93827000000E+00 0.  1.
     999902    2    1    2    0    0  0.10376888339E-01 -0.15013332637E-01  0.15426692060E-01  0.10200330798E+01  0.10197531177E+01 0.  0.
     999903    2    3    3    0    0  0.39576347994E-01 -0.24472885615E-01  0.12291395366E+00  0.13296171681E+00  0.20143700785E-01 0.  0.
         14    1    1    2    0    0 -0.10376888339E-01  0.15013332637E-01 -0.15426692060E-01  0.23896920228E-01  0.00000000000E+00 0.  1.
     999901    1    3    3    0    0 -0.29199459655E-01  0.94595529780E-02 -0.10748726160E+00  0.88707136296E+00  0.88000000000E+00 0.  1.
        -11    1    4    4    0    0  0.28483355517E-02 -0.11239295996E-01  0.30870653575E-01  0.32980193497E-01  0.51100000000E-03 0. -1.
         11    1    4    4    0    0  0.36728012443E-01 -0.13233589619E-01  0.92043300083E-01  0.99981523310E-01  0.51100000000E-03 0.  1.
</event>
<event>
 8    1  0.1072332E+005  0.1043930E+01  0.7957747E-01            NaN
         13   -1    0    0    0    0  0.00000000000E+00  0.00000000000E+00  0.74505805969E-08  0.10566000000E+00  0.10566000000E+00 0. -1.
     999900   -1    0    0    0    0 -0.00000000000E+00 -0.00000000000E+00 -0.74505805969E-08  0.93827000000E+00  0.93827000000E+00 0.  1.
     999902    2    1    2    0    0 -0.66185273765E-02 -0.82960008895E-02  0.20856338477E-01  0.10205288165E+01  0.10202604814E+01 0.  0.
     999903    2    3    3    0    0  0.10124276579E+00 -0.17276299438E-01 -0.74412536014E-01  0.12879406737E+00  0.22407992470E-01 0.  0.
         14    1    1    2    0    0  0.66185273765E-02  0.82960008895E-02 -0.20856338477E-01  0.23401183518E-01  0.00000000000E+00 0.  1.
     999901    1    3    3    0    0 -0.10786129317E+00  0.89802985481E-02  0.95268874491E-01  0.89173474911E+00  0.88000000000E+00 0. -1.
        -11    1    4    4    0    0  0.86441440318E-01 -0.86727444791E-02 -0.54623810272E-01  0.10262241895E+00  0.51100000000E-03 0. -1.
         11    1    4    4    0    0  0.14801325473E-01 -0.86035549585E-02 -0.19788725742E-01  0.26171648423E-01  0.51100000000E-03 0.  1.
</event>
<event>
 8    1  0.1072332E+005  0.1043930E+01  0.7957747E-01            NaN
         13   -1    0    0    0    0  0.00000000000E+00  0.00000000000E+00  0.74505805969E-08  0.10566000000E+00  0.10566000000E+00 0. -1.
     999900   -1    0    0    0    0 -0.00000000000E+00 -0.00000000000E+00 -0.74505805969E-08  0.93827000000E+00  0.93827000000E+00 0. -1.
     999902    2    1    2    0    0  0.21756274068E-01 -0.93942298420E-03  0.11272640676E-01  0.10194087764E+01  0.10191138126E+01 0.  0.
     999903    2    3    3    0    0 -0.91240564968E-01  0.74258053049E-01 -0.40047114994E-01  0.12752500411E+00  0.28631383397E-01 0.  0.
         14    1    1    2    0    0 -0.21756274068E-01  0.93942298420E-03 -0.11272640676E-01  0.24521223556E-01  0.00000000000E+00 0.  1.
     999901    1    3    3    0    0  0.11299683904E+00 -0.75197476033E-01  0.51319755670E-01  0.89188377234E+00  0.88000000000E+00 0. -1.
        -11    1    4    4    0    0 -0.32549159616E-01  0.24115082913E-01 -0.28352287302E-01  0.49447935567E-01  0.51100000000E-03 0.  1.
         11    1    4    4    0    0 -0.58691405353E-01  0.50142970136E-01 -0.11694827692E-01  0.78077068542E-01  0.51100000000E-03 0. -1.
</event>
<event>
 8    1  0.1072332E+005  0.1043930E+01  0.7957747E-01            NaN
         13   -1    0    0    0    0  0.00000000000E+00  0.00000000000E+00  0.74505805969E-08  0.10566000000E+00  0.10566000000E+00 0. -1.
     999900   -1    0    0    0    0 -0.00000000000E+00 -0.00000000000E+00 -0.74505805969E-08  0.93827000000E+00  0.93827000000E+00 0.  1.
     999902    2    1    2    0    0 -0.20795701271E-01 -0.44954957611E-02  0.47911301180E-02  0.10221211577E+01  0.10218884653E+01 0.  0.
     999903    2    3    3    0    0 -0.19189794204E-01 -0.12975109589E+00  0.11596046283E-01  0.13322417203E+00  0.20263677735E-01 0.  0.
         14    1    1    2    0    0  0.20795701271E-01  0.44954957611E-02 -0.47911301180E-02  0.21808842273E-01  0.00000000000E+00 0.  1.
     999901    1    3    3    0    0 -0.16059070675E-02  0.12525560013E+00 -0.68049161648E-02  0.88889698570E+00  0.88000000000E+00 0.  1.
        -11    1    4    4    0    0 -0.12836043517E-01 -0.41784530939E-01 -0.30424164241E-02  0.43820411427E-01  0.51100000000E-03 0.  1.
         11    1    4    4    0    0 -0.63537506869E-02 -0.87966564956E-01  0.14638462707E-01  0.89403760600E-01  0.51100000000E-03 0. -1.
</event>
<event>
 8    1  0.1072332E+005  0.1043930E+01  0.7957747E-01            NaN
         13   -1    0    0    0    0  0.00000000000E+00  0.00000000000E+00  0.74505805969E-08  0.10566000000E+00  0.10566000000E+00 0. -1.
     999900   -1    0    0    0    0 -0.00000000000E+00 -0.00000000000E+00 -0.74505805969E-08  0.93827000000E+00  0.93827000000E+00 0.  1.
     999902    2    1    2    0    0 -0.11071607727E-01  0.11137745003E-01 -0.21505632606E-01  0.10173006535E+01  0.10169520625E+01 0.  0.
     999903    2    3    3    0    0  0.33918111004E-01  0.15114556657E-01  0.11782049085E+00  0.12519546996E+00  0.20330999908E-01 0.  0.
         14    1    1    2    0    0  0.11071607727E-01 -0.11137745003E-01  0.21505632606E-01  0.26629346504E-01  0.00000000000E+00 0. -1.
     999901    1    3    3    0    0 -0.44989718731E-01 -0.39768116537E-02 -0.13932612345E+00  0.89210518354E+00  0.88000000000E+00 0.  1.
        -11    1    4    4    0    0  0.29371380742E-01  0.11805003294E-01  0.11415378465E+00  0.11846258388E+00  0.51100000000E-03 0. -1.
         11    1    4    4    0    0  0.45467302617E-02  0.33095533630E-02  0.36667061966E-02  0.67328860727E-02  0.51100000000E-03 0.  1.
</event>
<event>
 8    1  0.1072332E+005  0.1043930E+01  0.7957747E-01            NaN
         13   -1    0    0    0    0  0.00000000000E+00  0.00000000000E+00  0.74505805969E-08  0.10566000000E+00  0.10566000000E+00 0. -1.
     999900   -1    0    0    0    0 -0.00000000000E+00 -0.00000000000E+00 -0.74505805969E-08  0.93827000000E+00  0.93827000000E+00 0. -1.
     999902    2    1    2    0    0  0.22107273252E-01 -0.12945202847E-02  0.23704767481E-01  0.10114904668E+01  0.10109701485E+01 0.  0.
     999903    2    3    3    0    0 -0.57563222931E-02 -0.11231286404E+00  0.47813102202E-01  0.12375026583E+00  0.19512069984E-01 0.  0.
         14    1    1    2    0    0 -0.22107273252E-01  0.12945202847E-02 -0.23704767481E-01  0.32439533208E-01  0.00000000000E+00 0.  1.
     999901    1    3    3    0    0  0.27863595546E-01  0.11101834375E+00 -0.24108334721E-01  0.88774020097E+00  0.88000000000E+00 0.  1.
        -11    1    4    4    0    0 -0.50622573734E-02 -0.76165573838E-02  0.63186928012E-02  0.11127686004E-01  0.51100000000E-03 0.  1.
         11    1    4    4    0    0 -0.69406491969E-03 -0.10469630666E+00  0.41494409401E-01  0.11262257982E+00  0.51100000000E-03 0. -1.
</event>
<event>
 8    1  0.1072332E+005  0.1043930E+01  0.7957747E-01            NaN
         13   -1    0    0    0    0  0.00000000000E+00  0.00000000000E+00  0.74505805969E-08  0.10566000000E+00  0.10566000000E+00 0.  1.
     999900   -1    0    0    0    0 -0.00000000000E+00 -0.00000000000E+00 -0.74505805969E-08  0.93827000000E+00  0.93827000000E+00 0. -1.
     999902    2    1    2    0    0  0.63858578453E-02 -0.13863622273E-01  0.18044942548E-01  0.10202952977E+01  0.10200215171E+01 0.  0.
     999903    2    3    3    0    0 -0.28181920468E-01 -0.32048957495E-01 -0.11748360468E+00  0.12906377621E+00  0.32151277480E-01 0.  0.
         14    1    1    2    0    0 -0.63858578453E-02  0.13863622273E-01 -0.18044942548E-01  0.23634702336E-01  0.00000000000E+00 0. -1.
     999901    1    3    3    0    0  0.34567778313E-01  0.18185335221E-01  0.13552854723E+00  0.89123152145E+00  0.88000000000E+00 0.  1.
        -11    1    4    4    0    0 -0.34301544178E-01 -0.26263125240E-01 -0.83100074228E-01  0.93660189718E-01  0.51100000000E-03 0. -1.
         11    1    4    4    0    0  0.61196237103E-02 -0.57858322547E-02 -0.34383530453E-01  0.35403586494E-01  0.51100000000E-03 0.  1.
</event>
<event>
 8    1  0.1072332E+005  0.1043930E+01  0.7957747E-01            NaN
         13   -1    0    0    0    0  0.00000000000E+00  0.00000000000E+00  0.74505805969E-08  0.10566000000E+00  0.10566000000E+00 0. -1.
     999900   -1    0    0    0    0 -0.00000000000E+00 -0.00000000000E+00 -0.74505805969E-08  0.93827000000E+00  0.93827000000E+00 0.  1.
     999902    2    1    2    0    0  0.10315535718E-01 -0.21911959531E-01 -0.10832065490E-02  0.10196871127E+01  0.10193988867E+01 0.  0.
     999903    2    3    3    0    0  0.73062757975E-01  0.88706214719E-01 -0.54928626347E-01  0.12891614124E+00  0.19881105308E-01 0.  0.
         14    1    1    2    0    0 -0.10315535718E-01  0.21911959531E-01  0.10832065490E-02  0.24242887289E-01  0.00000000000E+00 0.  1.
     999901    1    3    3    0    0 -0.62747222257E-01 -0.11061817425E+00  0.53845419798E-01  0.89077097147E+00  0.88000000000E+00 0.  1.
        -11    1    4    4    0    0  0.41050457322E-01  0.34795857327E-01 -0.28189443048E-01  0.60751934569E-01  0.51100000000E-03 0. -1.
         11    1    4    4    0    0  0.32012300653E-01  0.53910357392E-01 -0.26739183298E-01  0.68164206675E-01  0.51100000000E-03 0.  1.
</event>
<event>
 8    1  0.1072332E+005  0.1043930E+01  0.7957747E-01            NaN
         13   -1    0    0    0    0  0.00000000000E+00  0.00000000000E+00  0.74505805969E-08  0.10566000000E+00  0.10566000000E+00 0.  1.
     999900   -1    0    0    0    0 -0.00000000000E+00 -0.00000000000E+00 -0.74505805969E-08  0.93827000000E+00  0.93827000000E+00 0.  1.
     999902    2    1    2    0    0  0.10185346010E-01 -0.19323934987E-01  0.87761288320E-02  0.10203890532E+01  0.10201174657E+01 0.  0.
     999903    2    3    3    0    0  0.97114381919E-01 -0.82704899480E-01  0.32868436284E-01  0.13351011945E+00  0.21755788127E-01 0.  0.
         14    1    1    2    0    0 -0.10185346010E-01  0.19323934987E-01 -0.87761288320E-02  0.23540946752E-01  0.00000000000E+00 0. -1.
     999901    1    3    3    0    0 -0.86929035909E-01  0.63380964493E-01 -0.24092307452E-01  0.88687893380E+00  0.88000000000E+00 0. -1.
        -11    1    4    4    0    0  0.17239047222E-01 -0.15684346990E-01 -0.24060070685E-02  0.23435730853E-01  0.51100000000E-03 0.  1.
         11    1    4    4    0    0  0.79875334697E-01 -0.67020552490E-01  0.35274443353E-01  0.11007438859E+00  0.51100000000E-03 0. -1.
</event>
<event>
 8    1  0.1072332E+005  0.1043930E+01  0.7957747E-01            NaN
         13   -1    0    0    0    0  0.00000000000E+00  0.00000000000E+00  0.74505805969E-08  0.10566000000E+00  0.10566000000E+00 0.  1.
     999900   -1    0    0    0    0 -0.00000000000E+00 -0.00000000000E+00 -0.74505805969E-08  0.93827000000E+00  0.93827000000E+00 0.  1.
     999902    2    1    2    0    0  0.91604495540E-02  0.92264611731E-02  0.19878346955E-01  0.10201773138E+01  0.10199007607E+01 0.  0.
     999903    2    3    3    0    0 -0.98357011782E-01  0.24153893048E-01 -0.76261068364E-01  0.12831094499E+00  0.19759446877E-01 0.  0.
         14    1    1    2    0    0 -0.91604495540E-02 -0.92264611731E-02 -0.19878346955E-01  0.23752686153E-01  0.00000000000E+00 0.  1.
     999901    1    3    3    0    0  0.10751746134E+00 -0.14927431875E-01  0.96139415319E-01  0.89186636885E+00  0.88000000000E+00 0. -1.
        -11    1    4    4    0    0 -0.54742592017E-01  0.36757040923E-02 -0.37320135873E-01  0.66357485213E-01  0.51100000000E-03 0.  1.
         11    1    4    4    0    0 -0.43614419766E-01  0.20478188955E-01 -0.38940932491E-01  0.61953459780E-01  0.51100000000E-03 0. -1.
</event>
<event>
 8    1  0.1072332E+005  0.1043930E+01  0.7957747E-01            NaN
         13   -1    0    0    0    0  0.00000000000E+00  0.00000000000E+00  0.74505805969E-08  0.10566000000E+00  0.10566000000E+00 0. -1.
     999900   -1    0    0    0    0 -0.00000000000E+00 -0.00000000000E+00 -0.74505805969E-08  0.93827000000E+00  0.93827000000E+00 0.  1.
     999902    2    1    2    0    0 -0.10738410694E-01  0.16106046331E-01 -0.13818254734E-01  0.10201463427E+01  0.10198690593E+01 0.  0.
     999903    2    3    3    0    0 -0.30247378954E-02  0.11299735644E+00 -0.67326670665E-01  0.13317927602E+00  0.20646727974E-01 0.  0.
         14    1    1    2    0    0  0.10738410694E-01 -0.16106046331E-01  0.13818254734E-01  0.23783657341E-01  0.00000000000E+00 0. -1.
     999901    1    3    3    0    0 -0.77136727983E-02 -0.96891310113E-01  0.53508415931E-01  0.88696706664E+00  0.88000000000E+00 0.  1.
        -11    1    4    4    0    0  0.67248112487E-02  0.28495773219E-01 -0.23148804358E-01  0.37327743595E-01  0.51100000000E-03 0.  1.
         11    1    4    4    0    0 -0.97495491441E-02  0.84501583225E-01 -0.44177866307E-01  0.95851532427E-01  0.51100000000E-03 0. -1.
</event>
<event>
 8    1  0.1072332E+005  0.1043930E+01  0.7957747E-01            NaN
         13   -1    0    0    0    0  0.00000000000E+00  0.00000000000E+00  0.74505805969E-08  0.10566000000E+00  0.10566000000E+00 0. -1.
     999900   -1    0    0    0    0 -0.00000000000E+00 -0.00000000000E+00 -0.74505805969E-08  0.93827000000E+00  0.93827000000E+00 0. -1.
     999902    2    1    2    0    0  0.54723822174E-02  0.22434503102E-01  0.25002511558E-02  0.10207027498E+01  0.10204384343E+01 0.  0.
     999903    2    3    3    0    0  0.12171800678E+00  0.45554770262E-01  0.16168670091E-01  0.13265184040E+00  0.21084937779E-01 0.  0.
         14    1    1    2    0    0 -0.54723822174E-02 -0.22434503102E-01 -0.25002511558E-02  0.23227250212E-01  0.00000000000E+00 0.  1.
     999901    1    3    3    0    0 -0.11624562456E+00 -0.23120267160E-01 -0.13668418936E-01  0.88805090939E+00  0.88000000000E+00 0.  1.
        -11    1    4    4    0    0  0.72920388130E-01  0.30509747425E-01 -0.12872724446E-03  0.79047488162E-01  0.51100000000E-03 0.  1.
         11    1    4    4    0    0  0.48797618652E-01  0.15045022837E-01  0.16297397336E-01  0.53604352241E-01  0.51100000000E-03 0. -1.
</event>
<event>
 8    1  0.1072332E+005  0.1043930E+01  0.7957747E-01            NaN
         13   -1    0    0    0    0  0.00000000000E+00  0.00000000000E+00  0.74505805969E-08  0.10566000000E+00  0.10566000000E+00 0.  1.
     999900   -1    0    0    0    0 -0.00000000000E+00 -0.00000000000E+00 -0.74505805969E-08  0.93827000000E+00  0.93827000000E+00 0.  1.
     999902    2    1    2    0    0  0.76659488961E-02 -0.92850977436E-02 -0.20709517793E-01  0.10199745426E+01  0.10196931909E+01 0.  0.
     999903    2    3    3    0    0  0.12467412743E+00 -0.22338348983E-01 -0.31233057982E-01  0.13207136875E+00  0.20608315023E-01 0.  0.
         14    1    1    2    0    0 -0.76659488961E-02  0.92850977436E-02  0.20709517793E-01  0.23955457412E-01  0.00000000000E+00 0.  1.
     999901    1    3    3    0    0 -0.11700817853E+00  0.13053251239E-01  0.10523540189E-01  0.88790317384E+00  0.88000000000E+00 0. -1.
        -11    1    4    4    0    0  0.48800746705E-01 -0.90699449362E-02 -0.22668694760E-01  0.54570208202E-01  0.51100000000E-03 0.  1.
         11    1    4    4    0    0  0.75873380722E-01 -0.13268404047E-01 -0.85643632225E-02  0.77501160550E-01  0.51100000000E-03 0. -1.
</event>
<event>
 8    1  0.1072332E+005  0.1043930E+01  0.7957747E-01            NaN
         13   -1    0    0    0    0  0.00000000000E+00  0.00000000000E+00  0.74505805969E-08  0.10566000000E+00  0.10566000000E+00 0.  1.
     999900   -1    0    0    0    0 -0.00000000000E+00 -0.00000000000E+00 -0.74505805969E-08  0.93827000000E+00  0.93827000000E+00 0.  1.
     999902    2    1    2    0    0 -0.31409789533E-02 -0.53741798885E-03 -0.22515812922E-01  0.10211898065E+01  0.10209365821E+01 0.  0.
     999903    2    3    3    0    0  0.48902782556E-01 -0.10707443502E+00  0.51487977409E-01  0.13015936369E+00  0.20833419328E-01 0.  0.
         14    1    1    2    0    0  0.31409789533E-02  0.53741798885E-03  0.22515812922E-01  0.22740193456E-01  0.00000000000E+00 0.  1.
     999901    1    3    3    0    0 -0.52043761510E-01  0.10653701703E+00 -0.74003790331E-01  0.89103044285E+00  0.88000000000E+00 0.  1.
        -11    1    4    4    0    0  0.20161785644E-01 -0.38572903444E-01  0.85642375723E-02  0.44361850352E-01  0.51100000000E-03 0. -1.
         11    1    4    4    0    0  0.28740996913E-01 -0.68501531579E-01  0.42923739837E-01  0.85797513337E-01  0.51100000000E-03 0.  1.
</event>
<event>
 7    1  0.1072332E+005  0.1043930E+01  0.7957747E-01            NaN
         13   -1    0    0    0    0  0.00000000000E+00  0.00000000000E+00  0.74505805969E-08  0.10566000000E+00  0.10566000000E+00 0.  1.
     999900   -1    0    0    0    0 -0.00000000000E+00 -0.00000000000E+00 -0.74505805969E-08  0.93827000000E+00  0.93827000000E+00 0. -1.
     999902    2    1    2    0    0  0.82532963724E-02  0.21796668605E-02 -0.22023570967E-01  0.10203099761E+01  0.10200365395E+01 0.  0.
         14    1    1    2    0    0 -0.82532963724E-02 -0.21796668605E-02  0.22023570967E-01  0.23620023852E-01  0.00000000000E+00 0.  1.
     999901    1    3    3    0    0  0.12780065829E+00  0.83313846662E-02 -0.31352693732E-01  0.88982324741E+00  0.88000000000E+00 0.  1.
        -11    1    3    3    0    0 -0.43296676815E-01  0.20706328145E-02 -0.20806769804E-01  0.48084015370E-01  0.51100000000E-03 0.  1.
         11    1    3    3    0    0 -0.76250685101E-01 -0.82223506202E-02  0.30135892569E-01  0.82402713366E-01  0.51100000000E-03 0. -1.
</event>
<event>
 8    1  0.1072332E+005  0.1043930E+01  0.7957747E-01            NaN
         13   -1    0    0    0    0  0.00000000000E+00  0.00000000000E+00  0.74505805969E-08  0.10566000000E+00  0.10566000000E+00 0.  1.
     999900   -1    0    0    0    0 -0.00000000000E+00 -0.00000000000E+00 -0.74505805969E-08  0.93827000000E+00  0.93827000000E+00 0. -1.
     999902    2    1    2    0    0  0.19046318624E-01 -0.13729926795E-01 -0.56722464292E-02  0.10197753416E+01  0.10194892348E+01 0.  0.
     999903    2    3    3    0    0  0.83052143107E-02 -0.96316693344E-01  0.86240651017E-01  0.13107745927E+00  0.19949146361E-01 0.  0.
         14    1    1    2    0    0 -0.19046318624E-01  0.13729926795E-01  0.56722464292E-02  0.24154658401E-01  0.00000000000E+00 0. -1.
     999901    1    3    3    0    0  0.10741104313E-01  0.82586766549E-01 -0.91912897446E-01  0.88869788232E+00  0.88000000000E+00 0. -1.
        -11    1    4    4    0    0 -0.19674634014E-02 -0.63728694221E-01  0.48113007637E-01  0.79877030517E-01  0.51100000000E-03 0.  1.
         11    1    4    4    0    0  0.10272677712E-01 -0.32587999123E-01  0.38127643380E-01  0.51200428757E-01  0.51100000000E-03 0. -1.
</event>
<event>
 8    1  0.1072332E+005  0.1043930E+01  0.7957747E-01            NaN
         13   -1    0    0    0    0  0.00000000000E+00  0.00000000000E+00  0.74505805969E-08  0.10566000000E+00  0.10566000000E+00 0. -1.
     999900   -1    0    0    0    0 -0.00000000000E+00 -0.00000000000E+00 -0.74505805969E-08  0.93827000000E+00  0.93827000000E+00 0. -1.
     999902    2    1    2    0    0 -0.23965864952E-03 -0.18678073231E-01 -0.19927970754E-01  0.10166160498E+01  0.10162490546E+01 0.  0.
     999903    2    3    3    0    0 -0.22279719126E-01 -0.12507196429E+00 -0.18084660646E-01  0.12993187713E+00  0.20392538025E-01 0.  0.
         14    1    1    2    0    0  0.23965864952E-03  0.18678073231E-01  0.19927970754E-01  0.27313950177E-01  0.00000000000E+00 0. -1.
     999901    1    3    3    0    0  0.22040060477E-01  0.10639389106E+00 -0.18433101082E-02  0.88668417270E+00  0.88000000000E+00 0.  1.
        -11    1    4    4    0    0 -0.23158100787E-01 -0.10049659761E+00 -0.20727644158E-01  0.10519391672E+00  0.51100000000E-03 0.  1.
         11    1    4    4    0    0  0.87838166036E-03 -0.24575366684E-01  0.26429835121E-02  0.24737960402E-01  0.51100000000E-03 0. -1.
</event>
<event>
 8    1  0.1072332E+005  0.1043930E+01  0.7957747E-01            NaN
         13   -1    0    0    0    0  0.00000000000E+00  0.00000000000E+00  0.74505805969E-08  0.10566000000E+00  0.10566000000E+00 0.  1.
     999900   -1    0    0    0    0 -0.00000000000E+00 -0.00000000000E+00 -0.74505805969E-08  0.93827000000E+00  0.93827000000E+00 0. -1.
     999902    2    1    2    0    0 -0.60773270800E-02 -0.12278684670E-01 -0.15677923663E-01  0.10231094022E+01  0.10228975274E+01 0.  0.
     999903    2    3    3    0    0 -0.11910737628E+00 -0.59341380964E-01 -0.34854821777E-02  0.13454913694E+00  0.19579455707E-01 0.  0.
         14    1    1    2    0    0  0.60773270800E-02  0.12278684670E-01  0.15677923663E-01  0.20820597783E-01  0.00000000000E+00 0.  1.
     999901    1    3    3    0    0  0.11303004920E+00  0.47062696294E-01 -0.12192441486E-01  0.88856026528E+00  0.88000000000E+00 0.  1.
        -11    1    4    4    0    0 -0.74370563805E-01 -0.38718199586E-01  0.71451772068E-02  0.84151021492E-01  0.51100000000E-03 0.  1.
         11    1    4    4    0    0 -0.44736812473E-01 -0.20623181378E-01 -0.10630659384E-01  0.50398115445E-01  0.51100000000E-03 0. -1.
</event>
<event>
 8    1  0.1072332E+005  0.1043930E+01  0.7957747E-01            NaN
         13   -1    0    0    0    0  0.00000000000E+00  0.00000000000E+00  0.74505805969E-08  0.10566000000E+00  0.10566000000E+00 0.  1.
     999900   -1    0    0    0    0 -0.00000000000E+00 -0.00000000000E+00 -0.74505805969E-08  0.93827000000E+00  0.93827000000E+00 0. -1.
     999902    2    1    2    0    0 -0.12913679659E-01  0.15598277190E-01  0.13047034082E-01  0.10198406980E+01  0.10195561558E+01 0.  0.
     999903    2    3    3    0    0  0.79030090924E-01 -0.71205340180E-01 -0.66811682152E-01  0.12722323260E+00  0.20149300223E-01 0.  0.
         14    1    1    2    0    0  0.12913679659E-01 -0.15598277190E-01 -0.13047034082E-01  0.24089302023E-01  0.00000000000E+00 0.  1.
     999901    1    3    3    0    0 -0.91943770583E-01  0.86803617371E-01  0.79858716234E-01  0.89261746538E+00  0.88000000000E+00 0.  1.
        -11    1    4    4    0    0  0.65699906417E-01 -0.64694844804E-01 -0.63661158840E-01  0.11204867207E+00  0.51100000000E-03 0.  1.
         11    1    4    4    0    0  0.13330184507E-01 -0.65104953758E-02 -0.31505233118E-02  0.15174560527E-01  0.51100000000E-03 0. -1.
</event>
<event>
 8    1  0.1072332E+005  0.1043930E+01  0.7957747E-01            NaN
         13   -1    0    0    0    0  0.00000000000E+00  0.00000000000E+00  0.74505805969E-08  0.10566000000E+00  0.10566000000E+00 0.  1.
     999900   -1    0    0    0    0 -0.00000000000E+00 -0.00000000000E+00 -0.74505805969E-08  0.93827000000E+00  0.93827000000E+00 0. -1.
     999902    2    1    2    0    0 -0.76328480273E-02 -0.21339098895E-01 -0.67369924618E-02  0.10202867223E+01  0.10200127407E+01 0.  0.
     999903    2    3    3    0    0 -0.79616170592E-01  0.42197526004E-01  0.90950377939E-01  0.12969067263E+00  0.20696219477E-01 0.  0.
         14    1    1    2    0    0  0.76328480273E-02  0.21339098895E-01  0.67369924618E-02  0.23643277652E-01  0.00000000000E+00 0.  1.
     999901    1    3    3    0    0  0.71983322564E-01 -0.63536624899E-01 -0.97687370400E-01  0.89059604971E+00  0.88000000000E+00 0. -1.
        -11    1    4    4    0    0 -0.77876688841E-01  0.44032543813E-01  0.85937652058E-01  0.12405315289E+00  0.51100000000E-03 0.  1.
         11    1    4    4    0    0 -0.17394817509E-02 -0.18350178097E-02  0.50127258805E-02  0.56375197451E-02  0.51100000000E-03 0. -1.
</event>
<event>
 8    1  0.1072332E+005  0.1043930E+01  0.7957747E-01            NaN
         13   -1    0    0    0    0  0.00000000000E+00  0.00000000000E+00  0.74505805969E-08  0.10566000000E+00  0.10566000000E+00 0. -1.
     999900   -1    0    0    0    0 -0.00000000000E+00 -0.00000000000E+00 -0.74505805969E-08  0.93827000000E+00  0.93827000000E+00 0. -1.
     999902    2    1    2    0    0 -0.20812625479E-02  0.15444911370E-01 -0.18066562260E-01  0.10200704608E+01  0.10197913842E+01 0.  0.
     999903    2    3    3    0    0  0.66014225889E-01 -0.57951846847E-01  0.90865479788E-01  0.12771948191E+00  0.18423790868E-01 0.  0.
         14    1    1    2    0    0  0.20812625479E-02 -0.15444911370E-01  0.18066562260E-01  0.23859539243E-01  0.00000000000E+00 0.  1.
     999901    1    3    3    0    0 -0.68095488437E-01  0.73396758216E-01 -0.10893204205E+00  0.89235097885E+00  0.88000000000E+00 0. -1.
        -11    1    4    4    0    0  0.16149921090E-01 -0.93761651471E-02  0.29504333115E-01  0.34921328979E-01  0.51100000000E-03 0.  1.
         11    1    4    4    0    0  0.49864304799E-01 -0.48575681699E-01  0.61361146673E-01  0.92798152932E-01  0.51100000000E-03 0. -1.
</event>
<event>
 8    1  0.1072332E+005  0.1043930E+01  0.7957747E-01            NaN
         13   -1    0    0    0    0  0.00000000000E+00  0.00000000000E+00  0.74505805969E-08  0.10566000000E+00  0.10566000000E+00 0. -1.
     999900   -1    0    0    0    0 -0.00000000000E+00 -0.00000000000E+00 -0.74505805969E-08  0.93827000000E+00  0.93827000000E+00 0.  1.
     999902    2    1    2    0    0  0.28467029679E-02 -0.23751769706E-01 -0.16435966420E-02  0.10199518497E+01  0.10196699584E+01 0.  0.
     999903    2    3    3    0    0  0.11898574174E+00 -0.33983226060E-01 -0.39872964625E-01  0.13143936042E+00  0.19338711654E-01 0.  0.
         14    1    1    2    0    0 -0.28467029679E-02  0.23751769706E-01  0.16435966420E-02  0.23978150301E-01  0.00000000000E+00 0. -1.
     999901    1    3    3    0    0 -0.11613903877E+00  0.10231456354E-01  0.38229367983E-01  0.88851248928E+00  0.88000000000E+00 0. -1.
        -11    1    4    4    0    0  0.72236125219E-01 -0.26958245682E-01 -0.32136258782E-01  0.83533257128E-01  0.51100000000E-03 0. -1.
         11    1    4    4    0    0  0.46749616524E-01 -0.70249803777E-02 -0.77367058422E-02  0.47906103293E-01  0.51100000000E-03 0.  1.
</event>
<event>
 8    1  0.1072332E+005  0.1043930E+01  0.7957747E-01            NaN
         13   -1    0    0    0    0  0.00000000000E+00  0.00000000000E+00  0.74505805969E-08  0.10566000000E+00  0.10566000000E+00 0. -1.
     999900   -1    0    0    0    0 -0.00000000000E+00 -0.00000000000E+00 -0.74505805969E-08  0.93827000000E+00  0.93827000000E+00 0.  1.
     999902    2    1    2    0    0  0.14688051045E-01  0.46095471581E-02 -0.17877423465E-01  0.10203378607E+01  0.10200650768E+01 0.  0.
     999903    2    3    3    0    0  0.30266104985E-01  0.10527981641E+00 -0.72361710187E-01  0.13278745851E+00  0.19910177854E-01 0.  0.
         14    1    1    2    0    0 -0.14688051045E-01 -0.46095471581E-02  0.17877423465E-01  0.23592139332E-01  0.00000000000E+00 0.  1.
     999901    1    3    3    0    0 -0.15578053940E-01 -0.10067026925E+00  0.54484286722E-01  0.88755040216E+00  0.88000000000E+00 0.  1.
        -11    1    4    4    0    0  0.11857529526E-02  0.33522708866E-01 -0.26895679759E-01  0.42997868906E-01  0.51100000000E-03 0.  1.
         11    1    4    4    0    0  0.29080352032E-01  0.71757107541E-01 -0.45466030428E-01  0.89789589602E-01  0.51100000000E-03 0. -1.
</event>
<event>
 8    1  0.1072332E+005  0.1043930E+01  0.7957747E-01            NaN
         13   -1    0    0    0    0  0.00000000000E+00  0.00000000000E+00  0.74505805969E-08  0.10566000000E+00  0.10566000000E+00 0. -1.
     999900   -1    0    0    0    0 -0.00000000000E+00 -0.00000000000E+00 -0.74505805969E-08  0.93827000000E+00  0.93827000000E+00 0.  1.
     999902    2    1    2    0    0  0.13348317197E-01  0.79811142061E-02  0.17778940716E-01  0.10203086857E+01  0.10200352188E+01 0.  0.
     999903    2    3    3    0    0 -0.65463540922E-01  0.11061169164E+00 -0.10813301975E-01  0.13038629541E+00  0.19058777879E-01 0.  0.
         14    1    1    2    0    0 -0.13348317197E-01 -0.79811142061E-02 -0.17778940716E-01  0.23621314293E-01  0.00000000000E+00 0.  1.
     999901    1    3    3    0    0  0.78811858118E-01 -0.10263057743E+00  0.28592242691E-01  0.88992239029E+00  0.88000000000E+00 0. -1.
        -11    1    4    4    0    0 -0.36087693756E-01  0.77526820303E-01 -0.39238412712E-02  0.85605999546E-01  0.51100000000E-03 0. -1.
         11    1    4    4    0    0 -0.29375847166E-01  0.33084871337E-01 -0.68894607038E-02  0.44780295867E-01  0.51100000000E-03 0.  1.
</event>
<event>
 7    1  0.1072332E+005  0.1043930E+01  0.7957747E-01            NaN
         13   -1    0    0    0    0  0.00000000000E+00  0.00000000000E+00  0.74505805969E-08  0.10566000000E+00  0.10566000000E+00 0.  1.
     999900   -1    0    0    0    0 -0.00000000000E+00 -0.00000000000E+00 -0.74505805969E-08  0.93827000000E+00  0.93827000000E+00 0. -1.
     999902    2    1    2    0    0 -0.14506421344E-01 -0.71932728932E-02 -0.18091698219E-01  0.10196506059E+01  0.10193615007E+01 0.  0.
         14    1    1    2    0    0  0.14506421344E-01  0.71932728932E-02  0.18091698219E-01  0.24279394135E-01  0.00000000000E+00 0.  1.
     999901    1    3    3    0    0  0.44367899567E-01 -0.26608233191E-01 -0.12507797796E+00  0.89034881319E+00  0.88000000000E+00 0. -1.
        -11    1    3    3    0    0 -0.60038673660E-01  0.84080134131E-02  0.96986429567E-01  0.11437642093E+00  0.51100000000E-03 0. -1.
         11    1    3    3    0    0  0.11643527486E-02  0.11006946885E-01  0.99998501720E-02  0.14925371738E-01  0.51100000000E-03 0.  1.
</event>
<event>
 8    1  0.1072332E+005  0.1043930E+01  0.7957747E-01            NaN
         13   -1    0    0    0    0  0.00000000000E+00  0.00000000000E+00  0.74505805969E-08  0.10566000000E+00  0.10566000000E+00 0.  1.
     999900   -1    0    0    0    0 -0.00000000000E+00 -0.00000000000E+00 -0.74505805969E-08  0.93827000000E+00  0.93827000000E+00 0.  1.
     999902    2    1    2    0    0 -0.20777782372E-01 -0.48921948514E-02 -0.68064384134E-02  0.10215251475E+01  0.10212794180E+01 0.  0.
     999903    2    3    3    0    0  0.80843895648E-01  0.90219205543E-01 -0.42080056325E-01  0.12988768081E+00  0.20611598013E-01 0.  0.
         14    1    1    2    0    0  0.20777782372E-01  0.48921948514E-02  0.68064384134E-02  0.22404852480E-01  0.00000000000E+00 0.  1.
     999901    1    3    3    0    0 -0.10162167802E+00 -0.95111400394E-01  0.35273617911E-01  0.89163746671E+00  0.88000000000E+00 0. -1.
        -11    1    4    4    0    0  0.49447526626E-01  0.40274220232E-01 -0.24615664801E-01  0.68361266660E-01  0.51100000000E-03 0.  1.
         11    1    4    4    0    0  0.31396369022E-01  0.49944985310E-01 -0.17464391524E-01  0.61526414146E-01  0.51100000000E-03 0. -1.
</event>
<event>
 8    1  0.1072332E+005  0.1043930E+01  0.7957747E-01            NaN
         13   -1    0    0    0    0  0.00000000000E+00  0.00000000000E+00  0.74505805969E-08  0.10566000000E+00  0.10566000000E+00 0.  1.
     999900   -1    0    0    0    0 -0.00000000000E+00 -0.00000000000E+00 -0.74505805969E-08  0.93827000000E+00  0.93827000000E+00 0.  1.
     999902    2    1    2    0    0 -0.12740015123E-01  0.14296735531E-01 -0.13626266486E-01  0.10204272391E+01  0.10201565422E+01 0.  0.
     999903    2    3    3    0    0 -0.52939878645E-01  0.16325200879E-01  0.11585544788E+00  0.13004212126E+00  0.20477440366E-01 0.  0.
         14    1    1    2    0    0  0.12740015123E-01 -0.14296735531E-01  0.13626266486E-01  0.23502760913E-01  0.00000000000E+00 0.  1.
     999901    1    3    3    0    0  0.40199863522E-01 -0.20284653488E-02 -0.12948171436E+00  0.89038511783E+00  0.88000000000E+00 0.  1.
        -11    1    4    4    0    0 -0.41386813693E-01  0.12115770377E-01  0.10544256091E+00  0.11392126672E+00  0.51100000000E-03 0.  1.
         11    1    4    4    0    0 -0.11553064953E-01  0.42094305025E-02  0.10412886964E-01  0.16120854533E-01  0.51100000000E-03 0. -1.
</event>
<event>
 8    1  0.1072332E+005  0.1043930E+01  0.7957747E-01            NaN
         13   -1    0    0    0    0  0.00000000000E+00  0.00000000000E+00  0.74505805969E-08  0.10566000000E+00  0.10566000000E+00 0.  1.
     999900   -1    0    0    0    0 -0.00000000000E+00 -0.00000000000E+00 -0.74505805969E-08  0.93827000000E+00  0.93827000000E+00 0.  1.
     999902    2    1    2    0    0 -0.24681684959E-01 -0.58399194057E-02 -0.24807260646E-01  0.10084519728E+01  0.10078277090E+01 0.  0.
     999903    2    3    3    0    0 -0.56340808621E-01 -0.90484287442E-01 -0.58423740180E-01  0.12318532552E+00  0.19989947874E-01 0.  0.
         14    1    1    2    0    0  0.24681684959E-01  0.58399194057E-02  0.24807260646E-01  0.35478027169E-01  0.00000000000E+00 0.  1.
     999901    1    3    3    0    0  0.31659123662E-01  0.84644368036E-01  0.33616479534E-01  0.88526664731E+00  0.88000000000E+00 0. -1.
        -11    1    4    4    0    0 -0.30561445265E-01 -0.60132021892E-01 -0.45295438240E-01  0.81251460540E-01  0.51100000000E-03 0.  1.
         11    1    4    4    0    0 -0.25779363355E-01 -0.30352265550E-01 -0.13128301940E-01  0.41933864977E-01  0.51100000000E-03 0. -1.
</event>
<event>
 8    1  0.1072332E+005  0.1043930E+01  0.7957747E-01            NaN
         13   -1    0    0    0    0  0.00000000000E+00  0.00000000000E+00  0.74505805969E-08  0.10566000000E+00  0.10566000000E+00 0.  1.
     999900   -1    0    0    0    0 -0.00000000000E+00 -0.00000000000E+00 -0.74505805969E-08  0.93827000000E+00  0.93827000000E+00 0.  1.
     999902    2    1    2    0    0 -0.63367509925E-04  0.34292633642E-02 -0.23575560507E-01  0.10201062531E+01  0.10198280231E+01 0.  0.
     999903    2    3    3    0    0  0.75718845436E-01 -0.79932620668E-02  0.10125468866E+00  0.12799863124E+00  0.18272980953E-01 0.  0.
         14    1    1    2    0    0  0.63367509925E-04 -0.34292633642E-02  0.23575560507E-01  0.23823746890E-01  0.00000000000E+00 0.  1.
     999901    1    3    3    0    0 -0.75782212946E-01  0.11422525431E-01 -0.12483024916E+00  0.89210762187E+00  0.88000000000E+00 0.  1.
        -11    1    4    4    0    0  0.26899554905E-01  0.29976092947E-02  0.46611253741E-01  0.53902150345E-01  0.51100000000E-03 0. -1.
         11    1    4    4    0    0  0.48819290531E-01 -0.10990871362E-01  0.54643434915E-01  0.74096480898E-01  0.51100000000E-03 0.  1.
</event>
<event>
 8    1  0.1072332E+005  0.1043930E+01  0.7957747E-01            NaN
         13   -1    0    0    0    0  0.00000000000E+00  0.00000000000E+00  0.74505805969E-08  0.10566000000E+00  0.10566000000E+00 0.  1.
     999900   -1    0    0    0    0 -0.00000000000E+00 -0.00000000000E+00 -0.74505805969E-08  0.93827000000E+00  0.93827000000E+00 0.  1.
     999902    2    1    2    0    0  0.44179119538E-02 -0.59472250417E-02 -0.20783907168E-01  0.10218651359E+01  0.10216268877E+01 0.  0.
     999903    2    3    3    0    0  0.75922898855E-01 -0.56859574138E-01 -0.93315477364E-01  0.13452875145E+00  0.19821930032E-01 0.  0.
         14    1    1    2    0    0 -0.44179119538E-02  0.59472250417E-02  0.20783907168E-01  0.22064864126E-01  0.00000000000E+00 0.  1.
     999901    1    3    3    0    0 -0.71504986901E-01  0.50912349096E-01  0.72531570196E-01  0.88733638442E+00  0.88000000000E+00 0. -1.
        -11    1    4    4    0    0  0.90457321885E-02 -0.14584239877E-01 -0.22828580575E-01  0.28564497819E-01  0.51100000000E-03 0.  1.
         11    1    4    4    0    0  0.66877166666E-01 -0.42275334261E-01 -0.70486896789E-01  0.10596425363E+00  0.51100000000E-03 0. -1.
</event>
<event>
 8    1  0.1072332E+005  0.1043930E+01  0.7957747E-01            NaN
         13   -1    0    0    0    0  0.00000000000E+00  0.00000000000E+00  0.74505805969E-08  0.10566000000E+00  0.10566000000E+00 0. -1.
     999900   -1    0    0    0    0 -0.00000000000E+00 -0.00000000000E+00 -0.74505805969E-08  0.93827000000E+00  0.93827000000E+00 0.  1.
     999902    2    1    2    0    0 -0.61282847287E-02 -0.32982818285E-02 -0.22065134043E-01  0.10207933478E+01  0.10205311138E+01 0.  0.
     999903    2    3    3    0    0 -0.11920150440E-01  0.96425625607E-01 -0.88384010488E-01  0.13266239075E+00  0.18643640974E-01 0.  0.
         14    1    1    2    0    0  0.61282847287E-02  0.32982818285E-02  0.22065134043E-01  0.23136652244E-01  0.00000000000E+00 0. -1.
     999901    1    3    3    0    0  0.57918657111E-02 -0.99723907435E-01  0.66318876445E-01  0.88813095701E+00  0.88000000000E+00 0.  1.
        -11    1    4    4    0    0 -0.14040772358E-01  0.44227340234E-01 -0.46595693012E-01  0.65761847912E-01  0.51100000000E-03 0.  1.
         11    1    4    4    0    0  0.21206219181E-02  0.52198285373E-01 -0.41788317477E-01  0.66900542836E-01  0.51100000000E-03 0. -1.
</event>
<event>
 8    1  0.1072332E+005  0.1043930E+01  0.7957747E-01            NaN
         13   -1    0    0    0    0  0.00000000000E+00  0.00000000000E+00  0.74505805969E-08  0.10566000000E+00  0.10566000000E+00 0. -1.
     999900   -1    0    0    0    0 -0.00000000000E+00 -0.00000000000E+00 -0.74505805969E-08  0.93827000000E+00  0.93827000000E+00 0. -1.
     999902    2    1    2    0    0 -0.29583008043E-02 -0.20778067068E-01 -0.90214610843E-02  0.10210856052E+01  0.10208300283E+01 0.  0.
     999903    2    3    3    0    0  0.42831829059E-01 -0.21814548637E-01  0.11970727247E+00  0.13054144730E+00  0.20019946729E-01 0.  0.
         14    1    1    2    0    0  0.29583008043E-02  0.20778067068E-01  0.90214610843E-02  0.22844394823E-01  0.00000000000E+00 0. -1.
     999901    1    3    3    0    0 -0.45790129863E-01  0.10364815688E-02 -0.12872873356E+00  0.89054415788E+00  0.88000000000E+00 0. -1.
        -11    1    4    4    0    0  0.35463031287E-01 -0.11583362528E-01  0.10337591242E+00  0.10990287196E+00  0.51100000000E-03 0.  1.
         11    1    4    4    0    0  0.73687977720E-02 -0.10231186109E-01  0.16331360055E-01  0.20638575340E-01  0.51100000000E-03 0. -1.
</event>
<event>
 8    1  0.1072332E+005  0.1043930E+01  0.7957747E-01            NaN
         13   -1    0    0    0    0  0.00000000000E+00  0.00000000000E+00  0.74505805969E-08  0.10566000000E+00  0.10566000000E+00 0.  1.
     999900   -1    0    0    0    0 -0.00000000000E+00 -0.00000000000E+00 -0.74505805969E-08  0.93827000000E+00  0.93827000000E+00 0. -1.
     999902    2    1    2    0    0 -0.21323596963E-01 -0.89938429179E-02  0.46852449453E-02  0.10203177888E+01  0.10200445351E+01 0.  0.
     999903    2    3    3    0    0 -0.28962856415E-01 -0.73012450053E-01 -0.10358831232E+00  0.13134090296E+00  0.18714417598E-01 0.  0.
         14    1    1    2    0    0  0.21323596963E-01  0.89938429179E-02 -0.46852449453E-02  0.23612211207E-01  0.00000000000E+00 0. -1.
     999901    1    3    3    0    0  0.76392594522E-02  0.64018607135E-01  0.10827355727E+00  0.88897688583E+00  0.88000000000E+00 0.  1.
        -11    1    4    4    0    0 -0.15947335839E-01 -0.60669938184E-01 -0.78248809831E-01  0.10029105783E+00  0.51100000000E-03 0. -1.
         11    1    4    4    0    0 -0.13015520577E-01 -0.12342511870E-01 -0.25339502489E-01  0.31049845129E-01  0.51100000000E-03 0.  1.
</event>
<event>
 8    1  0.1072332E+005  0.1043930E+01  0.7957747E-01            NaN
         13   -1    0    0    0    0  0.00000000000E+00  0.00000000000E+00  0.74505805969E-08  0.10566000000E+00  0.10566000000E+00 0. -1.
     999900   -1    0    0    0    0 -0.00000000000E+00 -0.00000000000E+00 -0.74505805969E-08  0.93827000000E+00  0.93827000000E+00 0. -1.
     999902    2    1    2    0    0  0.83796719605E-02  0.19938225441E-01  0.11897311468E-01  0.10192460425E+01  0.10189471024E+01 0.  0.
     999903    2    3    3    0    0 -0.11539806687E+00  0.43403677853E-01  0.36384196405E-01  0.12993666801E+00  0.18950853697E-01 0.  0.
         14    1    1    2    0    0 -0.83796719605E-02 -0.19938225441E-01 -0.11897311468E-01  0.24683957463E-01  0.00000000000E+00 0.  1.
     999901    1    3    3    0    0  0.12377773883E+00 -0.23465452413E-01 -0.24486884937E-01  0.88930937453E+00  0.88000000000E+00 0.  1.
        -11    1    4    4    0    0 -0.90486586724E-01  0.31493536162E-01  0.35895972632E-01  0.10231542977E+00  0.51100000000E-03 0. -1.
         11    1    4    4    0    0 -0.24911480150E-01  0.11910141692E-01  0.48822377254E-03  0.27621238239E-01  0.51100000000E-03 0.  1.
</event>
<event>
 8    1  0.1072332E+005  0.1043930E+01  0.7957747E-01            NaN
         13   -1    0    0    0    0  0.00000000000E+00  0.00000000000E+00  0.74505805969E-08  0.10566000000E+00  0.10566000000E+00 0. -1.
     999900   -1    0    0    0    0 -0.00000000000E+00 -0.00000000000E+00 -0.74505805969E-08  0.93827000000E+00  0.93827000000E+00 0.  1.
     999902    2    1    2    0    0 -0.30251351226E-02  0.20953777972E-01  0.10973720016E-01  0.10200839357E+01  0.10198051780E+01 0.  0.
     999903    2    3    3    0    0 -0.30080612718E-01  0.82156850224E-01  0.98476303125E-01  0.13321612308E+00  0.19858546583E-01 0.  0.
         14    1    1    2    0    0  0.30251351226E-02 -0.20953777972E-01 -0.10973720016E-01  0.23846064346E-01  0.00000000000E+00 0.  1.
     999901    1    3    3    0    0  0.27055477595E-01 -0.61203072252E-01 -0.87502583108E-01  0.88686781257E+00  0.88000000000E+00 0.  1.
        -11    1    4    4    0    0 -0.24818774482E-01  0.59592844031E-01  0.59085515207E-01  0.87513643820E-01  0.51100000000E-03 0.  1.
         11    1    4    4    0    0 -0.52618382360E-02  0.22564006193E-01  0.39390787918E-01  0.45702479264E-01  0.51100000000E-03 0. -1.
</event>
<event>
 8    1  0.1072332E+005  0.1043930E+01  0.7957747E-01            NaN
         13   -1    0    0    0    0  0.00000000000E+00  0.00000000000E+00  0.74505805969E-08  0.10566000000E+00  0.10566000000E+00 0.  1.
     999900   -1    0    0    0    0 -0.00000000000E+00 -0.00000000000E+00 -0.74505805969E-08  0.93827000000E+00  0.93827000000E+00 0.  1.
     999902    2    1    2    0    0 -0.33983725799E-02 -0.23220724595E-01 -0.50676690373E-03  0.10204564447E+01  0.10201864279E+01 0.  0.
     999903    2    3    3    0    0 -0.40166054818E-01 -0.10326761171E+00 -0.71479833619E-01  0.13321547245E+00  0.18960060591E-01 0.  0.
         14    1    1    2    0    0  0.33983725799E-02  0.23220724595E-01  0.50676690373E-03  0.23473555326E-01  0.00000000000E+00 0. -1.
     999901    1    3    3    0    0  0.36767682238E-01  0.80046887116E-01  0.70973066716E-01  0.88724097222E+00  0.88000000000E+00 0. -1.
        -11    1    4    4    0    0 -0.17789350244E-01 -0.49951279332E-01 -0.23175579869E-01  0.57870198827E-01  0.51100000000E-03 0.  1.
         11    1    4    4    0    0 -0.22376704573E-01 -0.53316332380E-01 -0.48304253750E-01  0.75345273623E-01  0.51100000000E-03 0. -1.
</event>
<event>
 8    1  0.1072332E+005  0.1043930E+01  0.7957747E-01            NaN
         13   -1    0    0    0    0  0.00000000000E+00  0.00000000000E+00  0.74505805969E-08  0.10566000000E+00  0.10566000000E+00 0. -1.
     999900   -1    0    0    0    0 -0.00000000000E+00 -0.00000000000E+00 -0.74505805969E-08  0.93827000000E+00  0.93827000000E+00 0.  1.
     999902    2    1    2    0    0 -0.10671668856E-01  0.28143015310E-02 -0.20648678990E-01  0.10205169106E+01  0.10202482993E+01 0.  0.
     999903    2    3    3    0    0  0.66764259433E-01  0.10505094072E+00 -0.34884341666E-01  0.13110625888E+00  0.21880752720E-01 0.  0.
         14    1    1    2    0    0  0.10671668856E-01 -0.28143015310E-02  0.20648678990E-01  0.23413089358E-01  0.00000000000E+00 0. -1.
     999901    1    3    3    0    0 -0.77435928289E-01 -0.10223663919E+00  0.14235662676E-01  0.88941065177E+00  0.88000000000E+00 0. -1.
        -11    1    4    4    0    0  0.35804356400E-02  0.20199150437E-01 -0.72445676380E-02  0.21761665355E-01  0.51100000000E-03 0. -1.
         11    1    4    4    0    0  0.63183823793E-01  0.84851790281E-01 -0.27639774028E-01  0.10934459352E+00  0.51100000000E-03 0.  1.
</event>
<event>
 8    1  0.1072332E+005  0.1043930E+01  0.7957747E-01            NaN
         13   -1    0    0    0    0  0.00000000000E+00  0.00000000000E+00  0.74505805969E-08  0.10566000000E+00  0.10566000000E+00 0. -1.
     999900   -1    0    0    0    0 -0.00000000000E+00 -0.00000000000E+00 -0.74505805969E-08  0.93827000000E+00  0.93827000000E+00 0.  1.
     999902    2    1    2    0    0 -0.55392562143E-02  0.19258817661E-01  0.12586290577E-01  0.10202656782E+01  0.10199912029E+01 0.  0.
     999903    2    3    3    0    0  0.49669895901E-01 -0.58451519748E-03  0.12043392301E+00  0.13174279149E+00  0.19605945041E-01 0.  0.
         14    1    1    2    0    0  0.55392562143E-02 -0.19258817661E-01 -0.12586290577E-01  0.23664321828E-01  0.00000000000E+00 0.  1.
     999901    1    3    3    0    0 -0.55209152115E-01  0.19843332858E-01 -0.10784763243E+00  0.88852288668E+00  0.88000000000E+00 0.  1.
        -11    1    4    4    0    0  0.22152473176E-01 -0.33519539791E-02  0.77455443087E-01  0.80632341204E-01  0.51100000000E-03 0. -1.
         11    1    4    4    0    0  0.27517422725E-01  0.27674387816E-02  0.42978479924E-01  0.51110450285E-01  0.51100000000E-03 0.  1.
</event>
<event>
 8    1  0.1072332E+005  0.1043930E+01  0.7957747E-01            NaN
         13   -1    0    0    0    0  0.00000000000E+00  0.00000000000E+00  0.74505805969E-08  0.10566000000E+00  0.10566000000E+00 0.  1.
     999900   -1    0    0    0    0 -0.00000000000E+00 -0.00000000000E+00 -0.74505805969E-08  0.93827000000E+00  0.93827000000E+00 0. -1.
     999902    2    1    2    0    0 -0.17973833124E-01 -0.42121035408E-02  0.14509399258E-01  0.10204497283E+01  0.10201795552E+01 0.  0.
     999903    2    3    3    0    0 -0.11156581909E+00  0.37247258656E-01  0.59498221517E-01  0.13337457211E+00  0.20357992437E-01 0.  0.
         14    1    1    2    0    0  0.17973833124E-01  0.42121035408E-02 -0.14509399258E-01  0.23480271724E-01  0.00000000000E+00 0. -1.
     999901    1    3    3    0    0  0.93591985967E-01 -0.41459362197E-01 -0.44988822258E-01  0.88707515616E+00  0.88000000000E+00 0. -1.
        -11    1    4    4    0    0 -0.26600541430E-01  0.11911881643E-01  0.24407958908E-01  0.38019617406E-01  0.51100000000E-03 0.  1.
         11    1    4    4    0    0 -0.84965277661E-01  0.25335377013E-01  0.35090262609E-01  0.95354954708E-01  0.51100000000E-03 0. -1.
</event>
<event>
 8    1  0.1072332E+005  0.1043930E+01  0.7957747E-01            NaN
         13   -1    0    0    0    0  0.00000000000E+00  0.00000000000E+00  0.74505805969E-08  0.10566000000E+00  0.10566000000E+00 0.  1.
     999900   -1    0    0    0    0 -0.00000000000E+00 -0.00000000000E+00 -0.74505805969E-08  0.93827000000E+00  0.93827000000E+00 0.  1.
     999902    2    1    2    0    0  0.11703061967E-01 -0.13037875560E-01 -0.16555164694E-01  0.10198256158E+01  0.10195407129E+01 0.  0.
     999903    2    3    3    0    0  0.11302407041E-01  0.12582791896E+00  0.11575795785E-01  0.12849222121E+00  0.20392211015E-01 0.  0.
         14    1    1    2    0    0 -0.11703061967E-01  0.13037875560E-01  0.16555164694E-01  0.24104384177E-01  0.00000000000E+00 0.  1.
     999901    1    3    3    0    0  0.40065492666E-03 -0.13886579452E+00 -0.28130960479E-01  0.89133339461E+00  0.88000000000E+00 0.  1.
        -11    1    4    4    0    0 -0.55610897920E-02  0.22931321147E-01  0.19420992523E-03  0.23602331405E-01  0.51100000000E-03 0.  1.
         11    1    4    4    0    0  0.16863496833E-01  0.10289659781E+00  0.11381585860E-01  0.10488988981E+00  0.51100000000E-03 0. -1.
</event>
<event>
 8    1  0.1072332E+005  0.1043930E+01  0.7957747E-01            NaN
         13   -1    0    0    0    0  0.00000000000E+00  0.00000000000E+00  0.74505805969E-08  0.10566000000E+00  0.10566000000E+00 0.  1.
     999900   -1    0    0    0    0 -0.00000000000E+00 -0.00000000000E+00 -0.74505805969E-08  0.93827000000E+00  0.93827000000E+00 0. -1.
     999902    2    1    2    0    0  0.15785880233E-02  0.20922841478E-01 -0.11710837698E-01  0.10199008312E+01  0.10196177247E+01 0.  0.
     999903    2    3    3    0    0  0.93253149726E-02 -0.12341792557E+00 -0.25299556672E-01  0.12800458041E+00  0.20643623420E-01 0.  0.
         14    1    1    2    0    0 -0.15785880233E-02 -0.20922841478E-01  0.11710837698E-01  0.24029168843E-01  0.00000000000E+00 0.  1.
     999901    1    3    3    0    0 -0.77467269493E-02  0.14434076705E+00  0.13588718974E-01  0.89189625075E+00  0.88000000000E+00 0. -1.
        -11    1    4    4    0    0  0.14821085741E-01 -0.59854477699E-01 -0.13340248216E-01  0.63090779252E-01  0.51100000000E-03 0. -1.
         11    1    4    4    0    0 -0.54957707688E-02 -0.63563447868E-01 -0.11959308457E-01  0.64913801160E-01  0.51100000000E-03 0.  1.
</event>
<event>
 8    1  0.1072332E+005  0.1043930E+01  0.7957747E-01            NaN
         13   -1    0    0    0    0  0.00000000000E+00  0.00000000000E+00  0.74505805969E-08  0.10566000000E+00  0.10566000000E+00 0. -1.
     999900   -1    0    0    0    0 -0.00000000000E+00 -0.00000000000E+00 -0.74505805969E-08  0.93827000000E+00  0.93827000000E+00 0. -1.
     999902    2    1    2    0    0  0.22508848750E-01 -0.62505374770E-02 -0.55912884281E-02  0.10199095921E+01  0.10196266944E+01 0.  0.
     999903    2    3    3    0    0  0.81014259004E-01 -0.18554258858E-01 -0.10153890746E+00  0.13267782405E+00  0.19638853901E-01 0.  0.
         14    1    1    2    0    0 -0.22508848750E-01  0.62505374770E-02  0.55912884281E-02  0.24020407929E-01  0.00000000000E+00 0. -1.
     999901    1    3    3    0    0 -0.58505410254E-01  0.12303721381E-01  0.95947619032E-01  0.88723176802E+00  0.88000000000E+00 0.  1.
        -11    1    4    4    0    0  0.18687569835E-01 -0.11470796872E-01 -0.34367622948E-01  0.40770075734E-01  0.51100000000E-03 0. -1.
         11    1    4    4    0    0  0.62326689169E-01 -0.70834619859E-02 -0.67171284512E-01  0.91907748316E-01  0.51100000000E-03 0.  1.
</event>
<event>
 8    1  0.1072332E+005  0.1043930E+01  0.7957747E-01            NaN
         13   -1    0    0    0    0  0.00000000000E+00  0.00000000000E+00  0.74505805969E-08  0.10566000000E+00  0.10566000000E+00 0.  1.
     999900   -1    0    0    0    0 -0.00000000000E+00 -0.00000000000E+00 -0.74505805969E-08  0.93827000000E+00  0.93827000000E+00 0. -1.
     999902    2    1    2    0    0  0.15744068468E-01  0.10142787818E-01 -0.11797785725E-01  0.10217954211E+01  0.10215556485E+01 0.  0.
     999903    2    3    3    0    0  0.72704597729E-01  0.94180116131E-01 -0.59745959443E-01  0.13466194644E+00  0.20209090598E-01 0.  0.
         14    1    1    2    0    0 -0.15744068468E-01 -0.10142787818E-01  0.11797785725E-01  0.22134578936E-01  0.00000000000E+00 0.  1.
     999901    1    3    3    0    0 -0.56960529261E-01 -0.84037328312E-01  0.47948173718E-01  0.88713347463E+00  0.88000000000E+00 0. -1.
        -11    1    4    4    0    0  0.40267113780E-01  0.65614745202E-01 -0.32497296942E-01  0.83564769308E-01  0.51100000000E-03 0. -1.
         11    1    4    4    0    0  0.32437483950E-01  0.28565370928E-01 -0.27248662501E-01  0.51097177127E-01  0.51100000000E-03 0.  1.
</event>
<event>
 8    1  0.1072332E+005  0.1043930E+01  0.7957747E-01            NaN
         13   -1    0    0    0    0  0.00000000000E+00  0.00000000000E+00  0.74505805969E-08  0.10566000000E+00  0.10566000000E+00 0. -1.
     999900   -1    0    0    0    0 -0.00000000000E+00 -0.00000000000E+00 -0.74505805969E-08  0.93827000000E+00  0.93827000000E+00 0.  1.
     999902    2    1    2    0    0  0.83122084448E-02  0.21890972304E-01  0.25177809667E-02  0.10203790616E+01  0.10201072408E+01 0.  0.
     999903    2    3    3    0    0 -0.11521990819E+00  0.22440651872E-01  0.46264892328E-01  0.13067445011E+00  0.34002375634E-01 0.  0.
         14    1    1    2    0    0 -0.83122084448E-02 -0.21890972304E-01 -0.25177809667E-02  0.23550938381E-01  0.00000000000E+00 0. -1.
     999901    1    3    3    0    0  0.12353211664E+00 -0.54967956782E-03 -0.43747111361E-01  0.88970461151E+00  0.88000000000E+00 0. -1.
        -11    1    4    4    0    0 -0.16745287937E-01  0.11680671659E-01  0.19082294525E-01  0.27950632262E-01  0.51100000000E-03 0.  1.
         11    1    4    4    0    0 -0.98474620256E-01  0.10759980213E-01  0.27182597802E-01  0.10272381785E+00  0.51100000000E-03 0. -1.
</event>
<event>
 8    1  0.1072332E+005  0.1043930E+01  0.7957747E-01            NaN
         13   -1    0    0    0    0  0.00000000000E+00  0.00000000000E+00  0.74505805969E-08  0.10566000000E+00  0.10566000000E+00 0. -1.
     999900   -1    0    0    0    0 -0.00000000000E+00 -0.00000000000E+00 -0.74505805969E-08  0.93827000000E+00  0.93827000000E+00 0. -1.
     999902    2    1    2    0    0  0.12229643219E-01 -0.20219014713E-01  0.18366182997E-02  0.10202288208E+01  0.10199534798E+01 0.  0.
     999903    2    3    3    0    0 -0.45339374288E-01 -0.32037935839E-02 -0.11997985080E+00  0.12981152442E+00  0.19747002832E-01 0.  0.
         14    1    1    2    0    0 -0.12229643219E-01  0.20219014713E-01 -0.18366182997E-02  0.23701179211E-01  0.00000000000E+00 0.  1.
     999901    1    3    3    0    0  0.57569017507E-01 -0.17015221129E-01  0.12181646910E+00  0.89041729637E+00  0.88000000000E+00 0. -1.
        -11    1    4    4    0    0 -0.10446033490E-01  0.56016786034E-02 -0.17057668092E-01  0.20777959009E-01  0.51100000000E-03 0.  1.
         11    1    4    4    0    0 -0.34893340798E-01 -0.88054721873E-02 -0.10292218271E+00  0.10903356541E+00  0.51100000000E-03 0. -1.
</event>
<event>
 8    1  0.1072332E+005  0.1043930E+01  0.7957747E-01            NaN
         13   -1    0    0    0    0  0.00000000000E+00  0.00000000000E+00  0.74505805969E-08  0.10566000000E+00  0.10566000000E+00 0. -1.
     999900   -1    0    0    0    0 -0.00000000000E+00 -0.00000000000E+00 -0.74505805969E-08  0.93827000000E+00  0.93827000000E+00 0. -1.
     999902    2    1    2    0    0 -0.17594708855E-01  0.12539914943E-01  0.10332445785E-01  0.10199804137E+01  0.10196992016E+01 0.  0.
     999903    2    3    3    0    0  0.25196336082E-01  0.29272880808E-01  0.12367155323E+00  0.13152286328E+00  0.22624181423E-01 0.  0.
         14    1    1    2    0    0  0.17594708855E-01 -0.12539914943E-01 -0.10332445785E-01  0.23949586268E-01  0.00000000000E+00 0. -1.
     999901    1    3    3    0    0 -0.42791044937E-01 -0.16732965865E-01 -0.11333910745E+00  0.88845755045E+00  0.88000000000E+00 0. -1.
        -11    1    4    4    0    0 -0.13360899019E-02  0.14115978669E-01  0.40678575746E-01  0.43081940946E-01  0.51100000000E-03 0. -1.
         11    1    4    4    0    0  0.26532425984E-01  0.15156902139E-01  0.82992977485E-01  0.88440922337E-01  0.51100000000E-03 0.  1.
</event>
<event>
 8    1  0.1072332E+005  0.1043930E+01  0.7957747E-01            NaN
         13   -1    0    0    0    0  0.00000000000E+00  0.00000000000E+00  0.74505805969E-08  0.10566000000E+00  0.10566000000E+00 0. -1.
     999900   -1    0    0    0    0 -0.00000000000E+00 -0.00000000000E+00 -0.74505805969E-08  0.93827000000E+00  0.93827000000E+00 0.  1.
     999902    2    1    2    0    0 -0.22358385753E-01 -0.13009532583E-02 -0.81913941090E-02  0.10200828025E+01  0.10198040180E+01 0.  0.
     999903    2    3    3    0    0 -0.54735609401E-01  0.57315069291E-01 -0.10434187035E+00  0.13231648367E+00  0.18423404619E-01 0.  0.
         14    1    1    2    0    0  0.22358385753E-01  0.13009532583E-02  0.81913941090E-02  0.23847197536E-01  0.00000000000E+00 0.  1.
     999901    1    3    3    0    0  0.32377223648E-01 -0.58616022549E-01  0.96150476240E-01  0.88776631880E+00  0.88000000000E+00 0. -1.
        -11    1    4    4    0    0 -0.28795980347E-01  0.29107601530E-01 -0.68712447407E-01  0.79988264769E-01  0.51100000000E-03 0.  1.
         11    1    4    4    0    0 -0.25939629053E-01  0.28207467761E-01 -0.35629422941E-01  0.52328218898E-01  0.51100000000E-03 0. -1.
</event>
<event>
 8    1  0.1072332E+005  0.1043930E+01  0.7957747E-01            NaN
         13   -1    0    0    0    0  0.00000000000E+00  0.00000000000E+00  0.74505805969E-08  0.10566000000E+00  0.10566000000E+00 0. -1.
     999900   -1    0    0    0    0 -0.00000000000E+00 -0.00000000000E+00 -0.74505805969E-08  0.93827000000E+00  0.93827000000E+00 0.  1.
     999902    2    1    2    0    0 -0.15008384664E-01  0.77941852378E-02 -0.11985898743E-01  0.10232016932E+01  0.10229917117E+01 0.  0.
     999903    2    3    3    0    0  0.39378218335E-01 -0.11432660790E+00 -0.49852164258E-01  0.13230032675E+00  0.19922871867E-01 0.  0.
         14    1    1    2    0    0  0.15008384664E-01 -0.77941852378E-02  0.11985898743E-01  0.20728306791E-01  0.00000000000E+00 0. -1.
     999901    1    3    3    0    0 -0.54386602999E-01  0.12212079314E+00  0.37866265515E-01  0.89090136646E+00  0.88000000000E+00 0. -1.
        -11    1    4    4    0    0  0.24843541716E-01 -0.43473796151E-01 -0.17250288185E-01  0.52962308109E-01  0.51100000000E-03 0. -1.
         11    1    4    4    0    0  0.14534676618E-01 -0.70852811747E-01 -0.32601876072E-01  0.79338018637E-01  0.51100000000E-03 0.  1.
</event>
<event>
 8    1  0.1132728E+005  0.1043930E+01  0.7957747E-01            NaN
         13   -1    0    0    0    0  0.00000000000E+00  0.00000000000E+00  0.74505805969E-08  0.10566000000E+00  0.10566000000E+00 0.  1.
     999900   -1    0    0    0    0 -0.00000000000E+00 -0.00000000000E+00 -0.74505805969E-08  0.93827000000E+00  0.93827000000E+00 0. -1.
     999902    2    1    2    0    0 -0.34761638167E-02 -0.24618129769E-02 -0.23315711872E-01  0.10202283828E+01  0.10199530315E+01 0.  0.
     999903    2    3    3    0    0  0.60184948212E-01  0.10567051954E+00 -0.44566203330E-01  0.13107320966E+00  0.20138349509E-01 0.  0.
         14    1    1    2    0    0  0.34761638167E-02  0.24618129769E-02  0.23315711872E-01  0.23701617205E-01  0.00000000000E+00 0.  1.
     999901    1    3    3    0    0 -0.63661112028E-01 -0.10813233252E+00  0.21250491457E-01  0.88915517313E+00  0.88000000000E+00 0.  1.
        -11    1    4    4    0    0  0.20559213129E-01  0.43063772599E-01 -0.77920456827E-02  0.48354388134E-01  0.51100000000E-03 0.  1.
         11    1    4    4    0    0  0.39625735082E-01  0.62606746942E-01 -0.36774157647E-01  0.82718821529E-01  0.51100000000E-03 0. -1.
</event>
<event>
 8    1  0.1072332E+005  0.1043930E+01  0.7957747E-01            NaN
         13   -1    0    0    0    0  0.00000000000E+00  0.00000000000E+00  0.74505805969E-08  0.10566000000E+00  0.10566000000E+00 0.  1.
     999900   -1    0    0    0    0 -0.00000000000E+00 -0.00000000000E+00 -0.74505805969E-08  0.93827000000E+00  0.93827000000E+00 0.  1.
     999902    2    1    2    0    0  0.23652606193E-01  0.47785792649E-02 -0.86254688075E-03  0.10197840979E+01  0.10194982010E+01 0.  0.
     999903    2    3    3    0    0 -0.66586632950E-01 -0.16648490212E-01 -0.10734083200E+00  0.12852663525E+00  0.16914190456E-01 0.  0.
         14    1    1    2    0    0 -0.23652606193E-01 -0.47785792649E-02  0.86254688075E-03  0.24145902067E-01  0.00000000000E+00 0.  1.
     999901    1    3    3    0    0  0.90239239143E-01  0.21427069477E-01  0.10647828512E+00  0.89125746268E+00  0.88000000000E+00 0. -1.
        -11    1    4    4    0    0 -0.26882111324E-01 -0.85281330886E-02 -0.59345090432E-01  0.65707517398E-01  0.51100000000E-03 0.  1.
         11    1    4    4    0    0 -0.39704521626E-01 -0.81203571231E-02 -0.47995741573E-01  0.62819117850E-01  0.51100000000E-03 0. -1.
</event>
<event>
 8    1  0.1072332E+005  0.1043930E+01  0.7957747E-01            NaN
         13   -1    0    0    0    0  0.00000000000E+00  0.00000000000E+00  0.74505805969E-08  0.10566000000E+00  0.10566000000E+00 0.  1.
     999900   -1    0    0    0    0 -0.00000000000E+00 -0.00000000000E+00 -0.74505805969E-08  0.93827000000E+00  0.93827000000E+00 0. -1.
     999902    2    1    2    0    0  0.45600441552E-02  0.23316426868E-01  0.51104788379E-02  0.10196284207E+01  0.10193387805E+01 0.  0.
     999903    2    3    3    0    0  0.86061038708E-01 -0.80985471269E-01 -0.45564808524E-01  0.12828713764E+00  0.20403160718E-01 0.  0.
         14    1    1    2    0    0 -0.45600441552E-02 -0.23316426868E-01 -0.51104788379E-02  0.24301579342E-01  0.00000000000E+00 0.  1.
     999901    1    3    3    0    0 -0.81500994552E-01  0.10430189814E+00  0.50675287362E-01  0.89134128302E+00  0.88000000000E+00 0.  1.
        -11    1    4    4    0    0  0.51911508254E-01 -0.55559043008E-01 -0.38132781539E-01  0.85064576047E-01  0.51100000000E-03 0. -1.
         11    1    4    4    0    0  0.34149530454E-01 -0.25426428261E-01 -0.74320269848E-02  0.43222561590E-01  0.51100000000E-03 0.  1.
</event>
<event>
 8    1  0.1072332E+005  0.1043930E+01  0.7957747E-01            NaN
         13   -1    0    0    0    0  0.00000000000E+00  0.00000000000E+00  0.74505805969E-08  0.10566000000E+00  0.10566000000E+00 0.  1.
     999900   -1    0    0    0    0 -0.00000000000E+00 -0.00000000000E+00 -0.74505805969E-08  0.93827000000E+00  0.93827000000E+00 0. -1.
     999902    2    1    2    0    0 -0.22182189873E-02  0.12668047927E-01 -0.19547535397E-01  0.10205311523E+01  0.10202628714E+01 0.  0.
     999903    2    3    3    0    0  0.12028784278E+00 -0.28589359247E-01  0.32880801074E-01  0.12954370049E+00  0.20344696423E-01 0.  0.
         14    1    1    2    0    0  0.22182189873E-02 -0.12668047927E-01  0.19547535397E-01  0.23398847704E-01  0.00000000000E+00 0.  1.
     999901    1    3    3    0    0 -0.12250606177E+00  0.41257407173E-01 -0.52428336472E-01  0.89098745181E+00  0.88000000000E+00 0. -1.
        -11    1    4    4    0    0  0.19739828970E-01  0.12819663118E-02  0.60337574463E-03  0.19797208608E-01  0.51100000000E-03 0.  1.
         11    1    4    4    0    0  0.10054801381E+00 -0.29871325558E-01  0.32277425330E-01  0.10974649188E+00  0.51100000000E-03 0. -1.
</event>
<event>
 8    1  0.1072332E+005  0.1043930E+01  0.7957747E-01            NaN
         13   -1    0    0    0    0  0.00000000000E+00  0.00000000000E+00  0.74505805969E-08  0.10566000000E+00  0.10566000000E+00 0.  1.
     999900   -1    0    0    0    0 -0.00000000000E+00 -0.00000000000E+00 -0.74505805969E-08  0.93827000000E+00  0.93827000000E+00 0. -1.
     999902    2    1    2    0    0 -0.30681352244E-02  0.20777168946E-01  0.11405591620E-01  0.10200303824E+01  0.10197503563E+01 0.  0.
     999903    2    3    3    0    0 -0.12466591345E-01  0.10741706344E+00  0.75543398168E-01  0.13340280523E+00  0.19891254806E-01 0.  0.
         14    1    1    2    0    0  0.30681352244E-02 -0.20777168946E-01 -0.11405591620E-01  0.23899617640E-01  0.00000000000E+00 0. -1.
     999901    1    3    3    0    0  0.93984561207E-02 -0.86639894499E-01 -0.64137806548E-01  0.88662757713E+00  0.88000000000E+00 0. -1.
        -11    1    4    4    0    0 -0.10074142846E-01  0.91269291006E-01  0.72009616106E-01  0.11669283512E+00  0.51100000000E-03 0.  1.
         11    1    4    4    0    0 -0.23924484991E-02  0.16147772439E-01  0.35337820625E-02  0.16709970114E-01  0.51100000000E-03 0. -1.
</event>
<event>
 8    1  0.1072332E+005  0.1043930E+01  0.7957747E-01            NaN
         13   -1    0    0    0    0  0.00000000000E+00  0.00000000000E+00  0.74505805969E-08  0.10566000000E+00  0.10566000000E+00 0. -1.
     999900   -1    0    0    0    0 -0.00000000000E+00 -0.00000000000E+00 -0.74505805969E-08  0.93827000000E+00  0.93827000000E+00 0. -1.
     999902    2    1    2    0    0  0.23128014725E-02  0.23733448923E-01 -0.24050425482E-02  0.10199631504E+01  0.10196815279E+01 0.  0.
     999903    2    3    3    0    0 -0.94359887424E-01 -0.11047643240E-01 -0.86628979094E-01  0.12999179998E+00  0.19168966234E-01 0.  0.
         14    1    1    2    0    0 -0.23128014725E-02 -0.23733448923E-01  0.24050425482E-02  0.23966849565E-01  0.00000000000E+00 0. -1.
     999901    1    3    3    0    0  0.96672688896E-01  0.34781092162E-01  0.84223936545E-01  0.88997135046E+00  0.88000000000E+00 0.  1.
        -11    1    4    4    0    0 -0.56872766606E-01  0.45591187295E-03 -0.42812838356E-01  0.71189322838E-01  0.51100000000E-03 0. -1.
         11    1    4    4    0    0 -0.37487120818E-01 -0.11503555113E-01 -0.43816140738E-01  0.58802477138E-01  0.51100000000E-03 0.  1.
</event>
<event>
 8    1  0.1072332E+005  0.1043930E+01  0.7957747E-01            NaN
         13   -1    0    0    0    0  0.00000000000E+00  0.00000000000E+00  0.74505805969E-08  0.10566000000E+00  0.10566000000E+00 0. -1.
     999900   -1    0    0    0    0 -0.00000000000E+00 -0.00000000000E+00 -0.74505805969E-08  0.93827000000E+00  0.93827000000E+00 0.  1.
     999902    2    1    2    0    0  0.94396497594E-02 -0.64951644583E-02  0.20545535072E-01  0.10204052649E+01  0.10201340557E+01 0.  0.
     999903    2    3    3    0    0 -0.88916490493E-01  0.88253558448E-01 -0.21933161023E-01  0.12885846838E+00  0.20702861141E-01 0.  0.
         14    1    1    2    0    0 -0.94396497594E-02  0.64951644583E-02 -0.20545535072E-01  0.23524735074E-01  0.00000000000E+00 0.  1.
     999901    1    3    3    0    0  0.98356140252E-01 -0.94748722906E-01  0.42478696094E-01  0.89154679655E+00  0.88000000000E+00 0. -1.
        -11    1    4    4    0    0 -0.44554475641E-01  0.52309838009E-01 -0.32878649854E-02  0.68793107426E-01  0.51100000000E-03 0. -1.
         11    1    4    4    0    0 -0.44362014852E-01  0.35943720439E-01 -0.18645296037E-01  0.60065360950E-01  0.51100000000E-03 0.  1.
</event>
<event>
 8    1  0.1072332E+005  0.1043930E+01  0.7957747E-01            NaN
         13   -1    0    0    0    0  0.00000000000E+00  0.00000000000E+00  0.74505805969E-08  0.10566000000E+00  0.10566000000E+00 0.  1.
     999900   -1    0    0    0    0 -0.00000000000E+00 -0.00000000000E+00 -0.74505805969E-08  0.93827000000E+00  0.93827000000E+00 0.  1.
     999902    2    1    2    0    0  0.19256129303E-01 -0.31157651796E-02  0.11647643326E-01  0.10212105347E+01  0.10209577768E+01 0.  0.
     999903    2    3    3    0    0 -0.20997917912E-02 -0.69878211124E-01  0.11114839007E+00  0.13283353243E+00  0.20085049372E-01 0.  0.
         14    1    1    2    0    0 -0.19256129303E-01  0.31157651796E-02 -0.11647643326E-01  0.22719465298E-01  0.00000000000E+00 0.  1.
     999901    1    3    3    0    0  0.21355921094E-01  0.66762445945E-01 -0.99500746745E-01  0.88837700227E+00  0.88000000000E+00 0.  1.
        -11    1    4    4    0    0 -0.54578032697E-02 -0.11345714845E-01  0.31544941772E-01  0.33968475595E-01  0.51100000000E-03 0.  1.
         11    1    4    4    0    0  0.33580114785E-02 -0.58532496280E-01  0.79603448298E-01  0.98865056839E-01  0.51100000000E-03 0. -1.
</event>
<event>
 8    1  0.1072332E+005  0.1043930E+01  0.7957747E-01            NaN
         13   -1    0    0    0    0  0.00000000000E+00  0.00000000000E+00  0.74505805969E-08  0.10566000000E+00  0.10566000000E+00 0. -1.
     999900   -1    0    0    0    0 -0.00000000000E+00 -0.00000000000E+00 -0.74505805969E-08  0.93827000000E+00  0.93827000000E+00 0. -1.
     999902    2    1    2    0    0 -0.99783738524E-02  0.20935733421E-01  0.38954612318E-02  0.10204130381E+01  0.10201420101E+01 0.  0.
     999903    2    3    3    0    0 -0.12221801717E+00  0.42604707425E-01 -0.20977532467E-01  0.13267098785E+00  0.20226945741E-01 0.  0.
         14    1    1    2    0    0  0.99783738524E-02 -0.20935733421E-01 -0.38954612318E-02  0.23516961896E-01  0.00000000000E+00 0.  1.
     999901    1    3    3    0    0  0.11223964332E+00 -0.21668974004E-01  0.24872993699E-01  0.88774205025E+00  0.88000000000E+00 0. -1.
        -11    1    4    4    0    0 -0.61945059164E-01  0.21947631808E-01 -0.42483573500E-03  0.65721613669E-01  0.51100000000E-03 0.  1.
         11    1    4    4    0    0 -0.60272958006E-01  0.20657075617E-01 -0.20552696732E-01  0.66949374185E-01  0.51100000000E-03 0. -1.
</event>
<event>
 8    1  0.1072332E+005  0.1043930E+01  0.7957747E-01            NaN
         13   -1    0    0    0    0  0.00000000000E+00  0.00000000000E+00  0.74505805969E-08  0.10566000000E+00  0.10566000000E+00 0.  1.
     999900   -1    0    0    0    0 -0.00000000000E+00 -0.00000000000E+00 -0.74505805969E-08  0.93827000000E+00  0.93827000000E+00 0. -1.
     999902    2    1    2    0    0  0.43125151157E-02 -0.22635690260E-01 -0.44674726401E-02  0.10204580897E+01  0.10201881112E+01 0.  0.
     999903    2    3    3    0    0 -0.10893998077E-01 -0.83389350044E-01  0.99758844294E-01  0.13209703117E+00  0.20623669250E-01 0.  0.
         14    1    1    2    0    0 -0.43125151157E-02  0.22635690260E-01  0.44674726401E-02  0.23471910275E-01  0.00000000000E+00 0.  1.
     999901    1    3    3    0    0  0.15206513192E-01  0.60753659784E-01 -0.10422631693E+00  0.88836105856E+00  0.88000000000E+00 0. -1.
        -11    1    4    4    0    0 -0.24464823072E-02 -0.68076430806E-01  0.86719688838E-01  0.11027670316E+00  0.51100000000E-03 0. -1.
         11    1    4    4    0    0 -0.84475157694E-02 -0.15312919237E-01  0.13039155457E-01  0.21820328005E-01  0.51100000000E-03 0.  1.
</event>
<event>
 8    1  0.1072332E+005  0.1043930E+01  0.7957747E-01            NaN
         13   -1    0    0    0    0  0.00000000000E+00  0.00000000000E+00  0.74505805969E-08  0.10566000000E+00  0.10566000000E+00 0.  1.
     999900   -1    0    0    0    0 -0.00000000000E+00 -0.00000000000E+00 -0.74505805969E-08  0.93827000000E+00  0.93827000000E+00 0.  1.
     999902    2    1    2    0    0 -0.68774893592E-03 -0.22540701456E-01 -0.71182332978E-02  0.10202820515E+01  0.10200079604E+01 0.  0.
     999903    2    3    3    0    0 -0.25573573618E-01 -0.11625319899E+00  0.55952534553E-01  0.13271275385E+00  0.17696750191E-01 0.  0.
         14    1    1    2    0    0  0.68774893592E-03  0.22540701456E-01  0.71182332978E-02  0.23647948453E-01  0.00000000000E+00 0.  1.
     999901    1    3    3    0    0  0.24885824682E-01  0.93712497535E-01 -0.63070767850E-01  0.88756929770E+00  0.88000000000E+00 0.  1.
        -11    1    4    4    0    0 -0.18919116341E-01 -0.45913575171E-01  0.21785383669E-01  0.54229635908E-01  0.51100000000E-03 0. -1.
         11    1    4    4    0    0 -0.66544572773E-02 -0.70339623820E-01  0.34167150884E-01  0.78483117938E-01  0.51100000000E-03 0.  1.
</event>
<event>
 8    1  0.1072332E+005  0.1043930E+01  0.7957747E-01            NaN
         13   -1    0    0    0    0  0.00000000000E+00  0.00000000000E+00  0.74505805969E-08  0.10566000000E+00  0.10566000000E+00 0. -1.
     999900   -1    0    0    0    0 -0.00000000000E+00 -0.00000000000E+00 -0.74505805969E-08  0.93827000000E+00  0.93827000000E+00 0. -1.
     999902    2    1    2    0    0 -0.20558766670E-01  0.10389909097E-01 -0.99578278779E-02  0.10188347528E+01  0.10185256413E+01 0.  0.
     999903    2    3    3    0    0 -0.10133652236E+00  0.54997381480E-01  0.59064065593E-01  0.13132199556E+00  0.21519756975E-01 0.  0.
         14    1    1    2    0    0  0.20558766670E-01 -0.10389909097E-01  0.99578278779E-02  0.25095247241E-01  0.00000000000E+00 0.  1.
     999901    1    3    3    0    0  0.80777755692E-01 -0.44607472383E-01 -0.69021893471E-01  0.88751275720E+00  0.88000000000E+00 0. -1.
        -11    1    4    4    0    0 -0.29520093267E-01  0.69931090349E-02  0.98392815122E-02  0.31896897375E-01  0.51100000000E-03 0. -1.
         11    1    4    4    0    0 -0.71816429095E-01  0.48004272445E-01  0.49224784081E-01  0.99425098188E-01  0.51100000000E-03 0.  1.
</event>
<event>
 8    1  0.1278738E+005  0.1043930E+01  0.7957747E-01            NaN
         13   -1    0    0    0    0  0.00000000000E+00  0.00000000000E+00  0.74505805969E-08  0.10566000000E+00  0.10566000000E+00 0.  1.
     999900   -1    0    0    0    0 -0.00000000000E+00 -0.00000000000E+00 -0.74505805969E-08  0.93827000000E+00  0.93827000000E+00 0. -1.
     999902    2    1    2    0    0  0.15403396961E-01 -0.11818985953E-01  0.13514585093E-01  0.10202741957E+01  0.10199999203E+01 0.  0.
     999903    2    3    3    0    0  0.11203774308E+00 -0.26206115586E-01 -0.61059418313E-01  0.13173243060E+00  0.19645975107E-01 0.  0.
         14    1    1    2    0    0 -0.15403396961E-01  0.11818985953E-01 -0.13514585093E-01  0.23655804301E-01  0.00000000000E+00 0. -1.
     999901    1    3    3    0    0 -0.96634346116E-01  0.14387129633E-01  0.74574003406E-01  0.88854176510E+00  0.88000000000E+00 0. -1.
        -11    1    4    4    0    0  0.57100388956E-01 -0.23369466368E-01 -0.33310586453E-01  0.70117349266E-01  0.51100000000E-03 0.  1.
         11    1    4    4    0    0  0.54937354121E-01 -0.28366492181E-02 -0.27748831860E-01  0.61615081329E-01  0.51100000000E-03 0. -1.
</event>
<event>
 8    1  0.1072332E+005  0.1043930E+01  0.7957747E-01            NaN
         13   -1    0    0    0    0  0.00000000000E+00  0.00000000000E+00  0.74505805969E-08  0.10566000000E+00  0.10566000000E+00 0. -1.
     999900   -1    0    0    0    0 -0.00000000000E+00 -0.00000000000E+00 -0.74505805969E-08  0.93827000000E+00  0.93827000000E+00 0.  1.
     999902    2    1    2    0    0 -0.63601915357E-02 -0.11081090191E-01  0.20098856743E-01  0.10201138996E+01  0.10198358503E+01 0.  0.
     999903    2    3    3    0    0  0.77265594572E-01  0.52296717595E-01  0.90418193654E-01  0.13109487406E+00  0.17478486341E-01 0.  0.
         14    1    1    2    0    0  0.63601915357E-02  0.11081090191E-01 -0.20098856743E-01  0.23816100406E-01  0.00000000000E+00 0.  1.
     999901    1    3    3    0    0 -0.83625786107E-01 -0.63377807787E-01 -0.70319336911E-01  0.88901902554E+00  0.88000000000E+00 0.  1.
        -11    1    4    4    0    0  0.21221534019E-01  0.15408493582E-01  0.36877306736E-01  0.45254525229E-01  0.51100000000E-03 0.  1.
         11    1    4    4    0    0  0.56044060552E-01  0.36888224013E-01  0.53540886917E-01  0.85840348828E-01  0.51100000000E-03 0. -1.
</event>
<event>
 7    1  0.1072332E+005  0.1043930E+01  0.7957747E-01            NaN
         13   -1    0    0    0    0  0.00000000000E+00  0.00000000000E+00  0.74505805969E-08  0.10566000000E+00  0.10566000000E+00 0. -1.
     999900   -1    0    0    0    0 -0.00000000000E+00 -0.00000000000E+00 -0.74505805969E-08  0.93827000000E+00  0.93827000000E+00 0. -1.
     999902    2    1    2    0    0  0.62595611659E-03 -0.10138640550E-01 -0.20876838381E-01  0.10207130615E+01  0.10204489834E+01 0.  0.
         14    1    1    2    0    0 -0.62595611659E-03  0.10138640550E-01  0.20876838381E-01  0.23216938516E-01  0.00000000000E+00 0. -1.
     999901    1    3    3    0    0 -0.17082225216E-03  0.66990578866E-01 -0.99101820989E-01  0.88809286550E+00  0.88000000000E+00 0. -1.
        -11    1    3    3    0    0 -0.16163387634E-01 -0.68947406790E-01  0.23297361286E-01  0.74552184185E-01  0.51100000000E-03 0. -1.
         11    1    3    3    0    0  0.16960166003E-01 -0.81818126252E-02  0.54927621322E-01  0.58068011794E-01  0.51100000000E-03 0.  1.
</event>
<event>
 8    1  0.1072332E+005  0.1043930E+01  0.7957747E-01            NaN
         13   -1    0    0    0    0  0.00000000000E+00  0.00000000000E+00  0.74505805969E-08  0.10566000000E+00  0.10566000000E+00 0. -1.
     999900   -1    0    0    0    0 -0.00000000000E+00 -0.00000000000E+00 -0.74505805969E-08  0.93827000000E+00  0.93827000000E+00 0.  1.
     999902    2    1    2    0    0  0.36921587305E-03 -0.24356945932E-01 -0.59402624504E-02  0.10188564312E+01  0.10185478602E+01 0.  0.
     999903    2    3    3    0    0 -0.52618737320E-01  0.98670234587E-01  0.56695937688E-01  0.12651865662E+00  0.16970398130E-01 0.  0.
         14    1    1    2    0    0 -0.36921587305E-03  0.24356945932E-01  0.59402624504E-02  0.25073568822E-01  0.00000000000E+00 0. -1.
     999901    1    3    3    0    0  0.52987953194E-01 -0.12302718052E+00 -0.62636200139E-01  0.89233777456E+00  0.88000000000E+00 0. -1.
        -11    1    4    4    0    0 -0.94269858343E-02  0.34074384722E-01  0.19274246946E-01  0.40270205766E-01  0.51100000000E-03 0. -1.
         11    1    4    4    0    0 -0.43191751486E-01  0.64595849865E-01  0.37421690742E-01  0.86248450857E-01  0.51100000000E-03 0.  1.
</event>
<event>
 8    1  0.1072332E+005  0.1043930E+01  0.7957747E-01            NaN
         13   -1    0    0    0    0  0.00000000000E+00  0.00000000000E+00  0.74505805969E-08  0.10566000000E+00  0.10566000000E+00 0.  1.
     999900   -1    0    0    0    0 -0.00000000000E+00 -0.00000000000E+00 -0.74505805969E-08  0.93827000000E+00  0.93827000000E+00 0.  1.
     999902    2    1    2    0    0  0.12634918389E-01 -0.19179393262E-01 -0.41077329105E-02  0.10205983957E+01  0.10203316723E+01 0.  0.
     999903    2    3    3    0    0 -0.15467819671E-01  0.81082389794E-01 -0.97794971744E-01  0.12952068432E+00  0.19953540770E-01 0.  0.
         14    1    1    2    0    0 -0.12634918389E-01  0.19179393262E-01  0.41077329105E-02  0.23331604279E-01  0.00000000000E+00 0.  1.
     999901    1    3    3    0    0  0.28102738061E-01 -0.10026178306E+00  0.93687238833E-01  0.89107771140E+00  0.88000000000E+00 0. -1.
        -11    1    4    4    0    0 -0.80755843183E-02  0.45359987506E-01 -0.69341438273E-01  0.83254067237E-01  0.51100000000E-03 0. -1.
         11    1    4    4    0    0 -0.73922353532E-02  0.35722402288E-01 -0.28453533470E-01  0.46266617087E-01  0.51100000000E-03 0.  1.
</event>
<event>
 8    1  0.1072332E+005  0.1043930E+01  0.7957747E-01            NaN
         13   -1    0    0    0    0  0.00000000000E+00  0.00000000000E+00  0.74505805969E-08  0.10566000000E+00  0.10566000000E+00 0. -1.
     999900   -1    0    0    0    0 -0.00000000000E+00 -0.00000000000E+00 -0.74505805969E-08  0.93827000000E+00  0.93827000000E+00 0.  1.
     999902    2    1    2    0    0 -0.35749802319E-03  0.12402061109E-01  0.20670362822E-01  0.10198218515E+01  0.10195368586E+01 0.  0.
     999903    2    3    3    0    0 -0.89672731194E-01 -0.66959239732E-01 -0.59112243488E-01  0.12817130829E+00  0.20220989920E-01 0.  0.
         14    1    1    2    0    0  0.35749802319E-03 -0.12402061109E-01 -0.20670362822E-01  0.24108148494E-01  0.00000000000E+00 0.  1.
     999901    1    3    3    0    0  0.89315233171E-01  0.79361300841E-01  0.79782606311E-01  0.89165054322E+00  0.88000000000E+00 0.  1.
        -11    1    4    4    0    0 -0.41158322151E-01 -0.34559091119E-01 -0.39212264256E-01  0.66529700513E-01  0.51100000000E-03 0. -1.
         11    1    4    4    0    0 -0.48514409043E-01 -0.32400148614E-01 -0.19899979233E-01  0.61641607778E-01  0.51100000000E-03 0.  1.
</event>
<event>
 8    1  0.1072332E+005  0.1043930E+01  0.7957747E-01            NaN
         13   -1    0    0    0    0  0.00000000000E+00  0.00000000000E+00  0.74505805969E-08  0.10566000000E+00  0.10566000000E+00 0. -1.
     999900   -1    0    0    0    0 -0.00000000000E+00 -0.00000000000E+00 -0.74505805969E-08  0.93827000000E+00  0.93827000000E+00 0. -1.
     999902    2    1    2    0    0 -0.10540815264E-01  0.42201205191E-02  0.20177149658E-01  0.10207775580E+01  0.10205149618E+01 0.  0.
     999903    2    3    3    0    0  0.70571127665E-02  0.16632025245E-01 -0.12553301691E+00  0.12853588942E+00  0.20892808099E-01 0.  0.
         14    1    1    2    0    0  0.10540815264E-01 -0.42201205191E-02 -0.20177149658E-01  0.23152442030E-01  0.00000000000E+00 0.  1.
     999901    1    3    3    0    0 -0.17597928031E-01 -0.12411904726E-01  0.14571016657E+00  0.89224166855E+00  0.88000000000E+00 0.  1.
        -11    1    4    4    0    0 -0.14827156883E-02  0.18432476661E-01 -0.94567891487E-01  0.96360271185E-01  0.51100000000E-03 0.  1.
         11    1    4    4    0    0  0.85398284548E-02 -0.18004514160E-02 -0.30965125426E-01  0.32175618238E-01  0.51100000000E-03 0. -1.
</event>
<event>
 8    1  0.1072332E+005  0.1043930E+01  0.7957747E-01            NaN
         13   -1    0    0    0    0  0.00000000000E+00  0.00000000000E+00  0.74505805969E-08  0.10566000000E+00  0.10566000000E+00 0.  1.
     999900   -1    0    0    0    0 -0.00000000000E+00 -0.00000000000E+00 -0.74505805969E-08  0.93827000000E+00  0.93827000000E+00 0. -1.
     999902    2    1    2    0    0  0.10850849342E-01 -0.44160210580E-02 -0.20176556884E-01  0.10205989987E+01  0.10203322893E+01 0.  0.
     999903    2    3    3    0    0  0.92641153390E-01  0.57180398406E-01 -0.73729645227E-01  0.13304522231E+00  0.20322138962E-01 0.  0.
         14    1    1    2    0    0 -0.10850849342E-01  0.44160210580E-02  0.20176556884E-01  0.23331001288E-01  0.00000000000E+00 0.  1.
     999901    1    3    3    0    0 -0.81790304048E-01 -0.61596419464E-01  0.53553088343E-01  0.88755377640E+00  0.88000000000E+00 0.  1.
        -11    1    4    4    0    0  0.41706188420E-01  0.14279810490E-01 -0.31603636414E-01  0.54243618019E-01  0.51100000000E-03 0.  1.
         11    1    4    4    0    0  0.50934964969E-01  0.42900587916E-01 -0.42126008813E-01  0.78801604295E-01  0.51100000000E-03 0. -1.
</event>
<event>
 8    1  0.1072332E+005  0.1043930E+01  0.7957747E-01            NaN
         13   -1    0    0    0    0  0.00000000000E+00  0.00000000000E+00  0.74505805969E-08  0.10566000000E+00  0.10566000000E+00 0.  1.
     999900   -1    0    0    0    0 -0.00000000000E+00 -0.00000000000E+00 -0.74505805969E-08  0.93827000000E+00  0.93827000000E+00 0. -1.
     999902    2    1    2    0    0 -0.20610704019E-01  0.33223841697E-02  0.11057020045E-01  0.10203059223E+01  0.10200323906E+01 0.  0.
     999903    2    3    3    0    0 -0.61770720232E-01 -0.64412426580E-01 -0.93428585228E-01  0.13058720647E+00  0.18961418188E-01 0.  0.
         14    1    1    2    0    0  0.20610704019E-01 -0.33223841697E-02 -0.11057020045E-01  0.23624077739E-01  0.00000000000E+00 0. -1.
     999901    1    3    3    0    0  0.41160016213E-01  0.67734810749E-01  0.10448560527E+00  0.88971871579E+00  0.88000000000E+00 0.  1.
        -11    1    4    4    0    0 -0.36475708234E-01 -0.26109412970E-01 -0.39550419174E-01  0.59805313431E-01  0.51100000000E-03 0.  1.
         11    1    4    4    0    0 -0.25295011998E-01 -0.38303013610E-01 -0.53878166054E-01  0.70781893037E-01  0.51100000000E-03 0. -1.
</event>
<event>
 8    1  0.1072332E+005  0.1043930E+01  0.7957747E-01            NaN
         13   -1    0    0    0    0  0.00000000000E+00  0.00000000000E+00  0.74505805969E-08  0.10566000000E+00  0.10566000000E+00 0.  1.
     999900   -1    0    0    0    0 -0.00000000000E+00 -0.00000000000E+00 -0.74505805969E-08  0.93827000000E+00  0.93827000000E+00 0. -1.
     999902    2    1    2    0    0 -0.13581890882E-01 -0.19541809887E-01  0.12142118711E-03  0.10201315791E+01  0.10198539473E+01 0.  0.
     999903    2    3    3    0    0 -0.86605712924E-01 -0.65975587014E-01  0.73532267745E-01  0.13284485734E+00  0.19683346482E-01 0.  0.
         14    1    1    2    0    0  0.13581890882E-01  0.19541809887E-01 -0.12142118711E-03  0.23798420887E-01  0.00000000000E+00 0. -1.
     999901    1    3    3    0    0  0.73023822042E-01  0.46433777127E-01 -0.73410846558E-01  0.88728672177E+00  0.88000000000E+00 0. -1.
        -11    1    4    4    0    0 -0.16471356019E-01 -0.15514991646E-01  0.25085527030E-01  0.33787058503E-01  0.51100000000E-03 0.  1.
         11    1    4    4    0    0 -0.70134356905E-01 -0.50460595368E-01  0.48446740715E-01  0.99057798836E-01  0.51100000000E-03 0. -1.
</event>
<event>
 8    1  0.1072332E+005  0.1043930E+01  0.7957747E-01            NaN
         13   -1    0    0    0    0  0.00000000000E+00  0.00000000000E+00  0.74505805969E-08  0.10566000000E+00  0.10566000000E+00 0.  1.
     999900   -1    0    0    0    0 -0.00000000000E+00 -0.00000000000E+00 -0.74505805969E-08  0.93827000000E+00  0.93827000000E+00 0. -1.
     999902    2    1    2    0    0  0.88778240398E-02  0.27325969907E-02 -0.21455364766E-01  0.10205501898E+01  0.10202823504E+01 0.  0.
     999903    2    3    3    0    0 -0.47891078042E-01 -0.22347122267E-01  0.11463327351E+00  0.12792943160E+00  0.20789488815E-01 0.  0.
         14    1    1    2    0    0 -0.88778240398E-02 -0.27325969907E-02  0.21455364766E-01  0.23379810162E-01  0.00000000000E+00 0.  1.
     999901    1    3    3    0    0  0.56768902082E-01  0.25079719258E-01 -0.13608863828E+00  0.89262075823E+00  0.88000000000E+00 0. -1.
        -11    1    4    4    0    0 -0.97642170897E-02 -0.13892244646E-01  0.25815378870E-01  0.30903548403E-01  0.51100000000E-03 0.  1.
         11    1    4    4    0    0 -0.38126860952E-01 -0.84548776214E-02  0.88817894640E-01  0.97025883201E-01  0.51100000000E-03 0. -1.
</event>
<event>
 8    1  0.1072332E+005  0.1043930E+01  0.7957747E-01            NaN
         13   -1    0    0    0    0  0.00000000000E+00  0.00000000000E+00  0.74505805969E-08  0.10566000000E+00  0.10566000000E+00 0. -1.
     999900   -1    0    0    0    0 -0.00000000000E+00 -0.00000000000E+00 -0.74505805969E-08  0.93827000000E+00  0.93827000000E+00 0. -1.
     999902    2    1    2    0    0 -0.16792579508E-02 -0.24360524639E-01 -0.11943824273E-02  0.10194824722E+01  0.10191893001E+01 0.  0.
     999903    2    3    3    0    0  0.45869887719E-01  0.73247276964E-01 -0.92201290822E-01  0.12815174703E+00  0.21273976029E-01 0.  0.
         14    1    1    2    0    0  0.16792579508E-02  0.24360524639E-01  0.11943824273E-02  0.24447527837E-01  0.00000000000E+00 0. -1.
     999901    1    3    3    0    0 -0.47549145670E-01 -0.97607801603E-01  0.91006908395E-01  0.89133072513E+00  0.88000000000E+00 0.  1.
        -11    1    4    4    0    0  0.19869168292E-01  0.16970542009E-01 -0.19508886470E-01  0.32613508198E-01  0.51100000000E-03 0.  1.
         11    1    4    4    0    0  0.26000719426E-01  0.56276734955E-01 -0.72692404352E-01  0.95538238833E-01  0.51100000000E-03 0. -1.
</event>
<event>
 8    1  0.1072332E+005  0.1043930E+01  0.7957747E-01            NaN
         13   -1    0    0    0    0  0.00000000000E+00  0.00000000000E+00  0.74505805969E-08  0.10566000000E+00  0.10566000000E+00 0.  1.
     999900   -1    0    0    0    0 -0.00000000000E+00 -0.00000000000E+00 -0.74505805969E-08  0.93827000000E+00  0.93827000000E+00 0.  1.
     999902    2    1    2    0    0  0.21253934606E-01  0.12315631625E-01 -0.28227265557E-02  0.10192040561E+01  0.10189040856E+01 0.  0.
     999903    2    3    3    0    0  0.33759423462E-01  0.12252430709E+00  0.28689827203E-01  0.13168201101E+00  0.19108671839E-01 0.  0.
         14    1    1    2    0    0 -0.21253934606E-01 -0.12315631625E-01  0.28227265557E-02  0.24725943941E-01  0.00000000000E+00 0.  1.
     999901    1    3    3    0    0 -0.12505488856E-01 -0.11020867546E+00 -0.31512553759E-01  0.88752204505E+00  0.88000000000E+00 0.  1.
        -11    1    4    4    0    0  0.20363390467E-01  0.88859456127E-01  0.12586466568E-01  0.92029076254E-01  0.51100000000E-03 0.  1.
         11    1    4    4    0    0  0.13396032994E-01  0.33664850962E-01  0.16103360634E-01  0.39652934759E-01  0.51100000000E-03 0. -1.
</event>
<event>
 8    1  0.1072332E+005  0.1043930E+01  0.7957747E-01            NaN
         13   -1    0    0    0    0  0.00000000000E+00  0.00000000000E+00  0.74505805969E-08  0.10566000000E+00  0.10566000000E+00 0. -1.
     999900   -1    0    0    0    0 -0.00000000000E+00 -0.00000000000E+00 -0.74505805969E-08  0.93827000000E+00  0.93827000000E+00 0. -1.
     999902    2    1    2    0    0  0.16840280765E-01 -0.15045106459E-01 -0.70605268213E-02  0.10202698790E+01  0.10199955023E+01 0.  0.
     999903    2    3    3    0    0  0.30753891218E-01 -0.12176832502E-01 -0.12612987454E+00  0.13213738605E+00  0.21388465683E-01 0.  0.
         14    1    1    2    0    0 -0.16840280765E-01  0.15045106459E-01  0.70605268213E-02  0.23660120955E-01  0.00000000000E+00 0.  1.
     999901    1    3    3    0    0 -0.13913610453E-01 -0.28682739566E-02  0.11906934772E+00  0.88813249300E+00  0.88000000000E+00 0.  1.
        -11    1    4    4    0    0  0.18742337454E-01 -0.15220618124E-01 -0.57014101977E-01  0.61917779147E-01  0.51100000000E-03 0. -1.
         11    1    4    4    0    0  0.12011553764E-01  0.30437856217E-02 -0.69115772567E-01  0.70219606900E-01  0.51100000000E-03 0.  1.
</event>
<event>
 8    1  0.1072332E+005  0.1043930E+01  0.7957747E-01            NaN
         13   -1    0    0    0    0  0.00000000000E+00  0.00000000000E+00  0.74505805969E-08  0.10566000000E+00  0.10566000000E+00 0. -1.
     999900   -1    0    0    0    0 -0.00000000000E+00 -0.00000000000E+00 -0.74505805969E-08  0.93827000000E+00  0.93827000000E+00 0. -1.
     999902    2    1    2    0    0  0.11280919948E-01 -0.16965973095E-01  0.12980107232E-01  0.10197724633E+01  0.10194862874E+01 0.  0.
     999903    2    3    3    0    0 -0.65217776616E-01 -0.10077387615E+00  0.50612969220E-01  0.13168910709E+00  0.19277338302E-01 0.  0.
         14    1    1    2    0    0 -0.11280919948E-01  0.16965973095E-01 -0.12980107232E-01  0.24157536747E-01  0.00000000000E+00 0. -1.
     999901    1    3    3    0    0  0.76498696564E-01  0.83807903056E-01 -0.37632861988E-01  0.88808335616E+00  0.88000000000E+00 0. -1.
        -11    1    4    4    0    0 -0.22430059372E-01 -0.33313821510E-01  0.26961639353E-01  0.48374677101E-01  0.51100000000E-03 0. -1.
         11    1    4    4    0    0 -0.42787717244E-01 -0.67460054641E-01  0.23651329867E-01  0.83314429990E-01  0.51100000000E-03 0.  1.
</event>
<event>
 8    1  0.1072332E+005  0.1043930E+01  0.7957747E-01            NaN
         13   -1    0    0    0    0  0.00000000000E+00  0.00000000000E+00  0.74505805969E-08  0.10566000000E+00  0.10566000000E+00 0.  1.
     999900   -1    0    0    0    0 -0.00000000000E+00 -0.00000000000E+00 -0.74505805969E-08  0.93827000000E+00  0.93827000000E+00 0.  1.
     999902    2    1    2    0    0 -0.10460225140E-02  0.12899268592E-01 -0.20102810345E-01  0.10200216693E+01  0.10197414366E+01 0.  0.
     999903    2    3    3    0    0  0.41819930232E-01  0.11727885751E+00 -0.37147222240E-01  0.13265303087E+00  0.26714668139E-01 0.  0.
         14    1    1    2    0    0  0.10460225140E-02 -0.12899268592E-01  0.20102810345E-01  0.23908330704E-01  0.00000000000E+00 0.  1.
     999901    1    3    3    0    0 -0.42865952746E-01 -0.10437958892E+00  0.17044411895E-01  0.88736863843E+00  0.88000000000E+00 0. -1.
        -11    1    4    4    0    0  0.13268945508E-01  0.54995140451E-01 -0.44979895738E-02  0.56754060818E-01  0.51100000000E-03 0.  1.
         11    1    4    4    0    0  0.28550984724E-01  0.62283717063E-01 -0.32649232666E-01  0.75898970050E-01  0.51100000000E-03 0. -1.
</event>
<event>
 8    1  0.1072332E+005  0.1043930E+01  0.7957747E-01            NaN
         13   -1    0    0    0    0  0.00000000000E+00  0.00000000000E+00  0.74505805969E-08  0.10566000000E+00  0.10566000000E+00 0. -1.
     999900   -1    0    0    0    0 -0.00000000000E+00 -0.00000000000E+00 -0.74505805969E-08  0.93827000000E+00  0.93827000000E+00 0.  1.
     999902    2    1    2    0    0  0.30065479973E-02  0.41279043407E-02 -0.23494058208E-01  0.10198873359E+01  0.10196039075E+01 0.  0.
     999903    2    3    3    0    0  0.90523742690E-01  0.28828734089E-01 -0.90336309063E-01  0.13267976333E+00  0.20435923331E-01 0.  0.
         14    1    1    2    0    0 -0.30065479973E-02 -0.41279043407E-02  0.23494058208E-01  0.24042664082E-01  0.00000000000E+00 0. -1.
     999901    1    3    3    0    0 -0.87517194692E-01 -0.24700829748E-01  0.66842250856E-01  0.88720757259E+00  0.88000000000E+00 0. -1.
        -11    1    4    4    0    0  0.35496502963E-01  0.10312908001E-02 -0.32130174356E-01  0.47892322019E-01  0.51100000000E-03 0. -1.
         11    1    4    4    0    0  0.55027239727E-01  0.27797443289E-01 -0.58206134708E-01  0.84787441311E-01  0.51100000000E-03 0.  1.
</event>
<event>
 8    1  0.1072332E+005  0.1043930E+01  0.7957747E-01            NaN
         13   -1    0    0    0    0  0.00000000000E+00  0.00000000000E+00  0.74505805969E-08  0.10566000000E+00  0.10566000000E+00 0.  1.
     999900   -1    0    0    0    0 -0.00000000000E+00 -0.00000000000E+00 -0.74505805969E-08  0.93827000000E+00  0.93827000000E+00 0. -1.
     999902    2    1    2    0    0 -0.11730811380E-01  0.60755873621E-02  0.19539202520E-01  0.10203438784E+01  0.10200712353E+01 0.  0.
     999903    2    3    3    0    0 -0.34605065095E-01  0.54671809725E-01 -0.11011232368E+00  0.12922416558E+00  0.19688672752E-01 0.  0.
         14    1    1    2    0    0  0.11730811380E-01 -0.60755873621E-02 -0.19539202520E-01  0.23586121609E-01  0.00000000000E+00 0. -1.
     999901    1    3    3    0    0  0.22874253715E-01 -0.48596222363E-01  0.12965152620E+00  0.89111971281E+00  0.88000000000E+00 0.  1.
        -11    1    4    4    0    0 -0.22581229174E-01  0.36869585810E-01 -0.89741556027E-01  0.99614689017E-01  0.51100000000E-03 0.  1.
         11    1    4    4    0    0 -0.12023835921E-01  0.17802223915E-01 -0.20370767655E-01  0.29609476565E-01  0.51100000000E-03 0. -1.
</event>
<event>
 8    1  0.1072332E+005  0.1043930E+01  0.7957747E-01            NaN
         13   -1    0    0    0    0  0.00000000000E+00  0.00000000000E+00  0.74505805969E-08  0.10566000000E+00  0.10566000000E+00 0. -1.
     999900   -1    0    0    0    0 -0.00000000000E+00 -0.00000000000E+00 -0.74505805969E-08  0.93827000000E+00  0.93827000000E+00 0. -1.
     999902    2    1    2    0    0  0.11480799580E-01 -0.17677649678E-01  0.99711564847E-02  0.10206119379E+01  0.10203455277E+01 0.  0.
     999903    2    3    3    0    0 -0.17024190933E-01 -0.10904980108E+00  0.72056089502E-01  0.13324733223E+00  0.19521509141E-01 0.  0.
         14    1    1    2    0    0 -0.11480799580E-01  0.17677649678E-01 -0.99711564847E-02  0.23318062072E-01  0.00000000000E+00 0.  1.
     999901    1    3    3    0    0  0.28504990513E-01  0.91372151406E-01 -0.62084933017E-01  0.88736460570E+00  0.88000000000E+00 0.  1.
        -11    1    4    4    0    0  0.36910784840E-02 -0.34530345482E-01  0.22974004542E-01  0.41641743782E-01  0.51100000000E-03 0.  1.
         11    1    4    4    0    0 -0.20715269417E-01 -0.74519455602E-01  0.49082084959E-01  0.91605588449E-01  0.51100000000E-03 0. -1.
</event>
<event>
 8    1  0.1072332E+005  0.1043930E+01  0.7957747E-01            NaN
         13   -1    0    0    0    0  0.00000000000E+00  0.00000000000E+00  0.74505805969E-08  0.10566000000E+00  0.10566000000E+00 0.  1.
     999900   -1    0    0    0    0 -0.00000000000E+00 -0.00000000000E+00 -0.74505805969E-08  0.93827000000E+00  0.93827000000E+00 0.  1.
     999902    2    1    2    0    0  0.14171844040E-01  0.84601160613E-02 -0.18374285573E-01  0.10192312329E+01  0.10189319295E+01 0.  0.
     999903    2    3    3    0    0  0.21272491514E-02 -0.12701526849E+00 -0.35027305460E-02  0.12865848726E+00  0.20083167148E-01 0.  0.
         14    1    1    2    0    0 -0.14171844040E-01 -0.84601160613E-02  0.18374285573E-01  0.24698767127E-01  0.00000000000E+00 0.  1.
     999901    1    3    3    0    0  0.12044594889E-01  0.13547538455E+00 -0.14871555027E-01  0.89057274562E+00  0.88000000000E+00 0. -1.
        -11    1    4    4    0    0  0.75866682947E-02 -0.56244328001E-01 -0.89903637467E-02  0.57463638324E-01  0.51100000000E-03 0.  1.
         11    1    4    4    0    0 -0.54594191434E-02 -0.70770940491E-01  0.54876332007E-02  0.71194848933E-01  0.51100000000E-03 0. -1.
</event>
<event>
 8    1  0.1072332E+005  0.1043930E+01  0.7957747E-01            NaN
         13   -1    0    0    0    0  0.00000000000E+00  0.00000000000E+00  0.74505805969E-08  0.10566000000E+00  0.10566000000E+00 0. -1.
     999900   -1    0    0    0    0 -0.00000000000E+00 -0.00000000000E+00 -0.74505805969E-08  0.93827000000E+00  0.93827000000E+00 0. -1.
     999902    2    1    2    0    0  0.68223816703E-02 -0.19797863484E-01  0.10632821907E-01  0.10204447452E+01  0.10201744561E+01 0.  0.
     999903    2    3    3    0    0  0.45407906824E-01  0.11649843257E+00  0.23455596154E-01  0.12902456001E+00  0.21526943610E-01 0.  0.
         14    1    1    2    0    0 -0.68223816703E-02  0.19797863484E-01 -0.10632821907E-01  0.23485254776E-01  0.00000000000E+00 0.  1.
     999901    1    3    3    0    0 -0.38585525154E-01 -0.13629629605E+00 -0.12822774247E-01  0.89142018521E+00  0.88000000000E+00 0.  1.
        -11    1    4    4    0    0  0.41543918855E-01  0.95657893951E-01  0.26500516481E-01  0.10760515027E+00  0.51100000000E-03 0.  1.
         11    1    4    4    0    0  0.38639879688E-02  0.20840538619E-01 -0.30449203267E-02  0.21419409743E-01  0.51100000000E-03 0. -1.
</event>
<event>
 8    1  0.1072332E+005  0.1043930E+01  0.7957747E-01            NaN
         13   -1    0    0    0    0  0.00000000000E+00  0.00000000000E+00  0.74505805969E-08  0.10566000000E+00  0.10566000000E+00 0. -1.
     999900   -1    0    0    0    0 -0.00000000000E+00 -0.00000000000E+00 -0.74505805969E-08  0.93827000000E+00  0.93827000000E+00 0. -1.
     999902    2    1    2    0    0 -0.19840335673E-01  0.55364429419E-02  0.98137526386E-02  0.10211133206E+01  0.10208583705E+01 0.  0.
     999903    2    3    3    0    0 -0.50333420083E-02 -0.10444225092E+00  0.77287610555E-01  0.13158126286E+00  0.20167689020E-01 0.  0.
         14    1    1    2    0    0  0.19840335673E-01 -0.55364429419E-02 -0.98137526386E-02  0.22816679445E-01  0.00000000000E+00 0.  1.
     999901    1    3    3    0    0 -0.14806993664E-01  0.10997869387E+00 -0.67473857916E-01  0.88953205770E+00  0.88000000000E+00 0. -1.
        -11    1    4    4    0    0  0.70719163245E-02 -0.58272654504E-01  0.40513818529E-01  0.71325625663E-01  0.51100000000E-03 0. -1.
         11    1    4    4    0    0 -0.12105258333E-01 -0.46169596420E-01  0.36773792026E-01  0.60255637196E-01  0.51100000000E-03 0.  1.
</event>
<event>
 8    1  0.1072332E+005  0.1043930E+01  0.7957747E-01            NaN
         13   -1    0    0    0    0  0.00000000000E+00  0.00000000000E+00  0.74505805969E-08  0.10566000000E+00  0.10566000000E+00 0. -1.
     999900   -1    0    0    0    0 -0.00000000000E+00 -0.00000000000E+00 -0.74505805969E-08  0.93827000000E+00  0.93827000000E+00 0.  1.
     999902    2    1    2    0    0  0.74586672910E-02 -0.44820515210E-02 -0.23764732574E-01  0.10186222340E+01  0.10183077986E+01 0.  0.
     999903    2    3    3    0    0 -0.64534802438E-01  0.10699529625E+00 -0.22988150306E-01  0.12867231307E+00  0.20380749542E-01 0.  0.
         14    1    1    2    0    0 -0.74586672910E-02  0.44820515210E-02  0.23764732574E-01  0.25307765960E-01  0.00000000000E+00 0. -1.
     999901    1    3    3    0    0  0.71993469729E-01 -0.11147734777E+00 -0.77658226740E-03  0.88994992097E+00  0.88000000000E+00 0.  1.
        -11    1    4    4    0    0 -0.15472777293E-01  0.23923683690E-01 -0.14074840663E-01  0.31782255099E-01  0.51100000000E-03 0. -1.
         11    1    4    4    0    0 -0.49062025146E-01  0.83071612558E-01 -0.89133096432E-02  0.96890057974E-01  0.51100000000E-03 0.  1.
</event>
<event>
 8    1  0.1072332E+005  0.1043930E+01  0.7957747E-01            NaN
         13   -1    0    0    0    0  0.00000000000E+00  0.00000000000E+00  0.74505805969E-08  0.10566000000E+00  0.10566000000E+00 0. -1.
     999900   -1    0    0    0    0 -0.00000000000E+00 -0.00000000000E+00 -0.74505805969E-08  0.93827000000E+00  0.93827000000E+00 0.  1.
     999902    2    1    2    0    0  0.19381611817E-01  0.75088839614E-02  0.10933932275E-01  0.10204442364E+01  0.10201739355E+01 0.  0.
     999903    2    3    3    0    0 -0.34668511412E-01 -0.20221868064E-01  0.12373014978E+00  0.13116734080E+00  0.16878735101E-01 0.  0.
         14    1    1    2    0    0 -0.19381611817E-01 -0.75088839614E-02 -0.10933932275E-01  0.23485763559E-01  0.00000000000E+00 0.  1.
     999901    1    3    3    0    0  0.54050123229E-01  0.27730752025E-01 -0.11279621750E+00  0.88927689564E+00  0.88000000000E+00 0.  1.
        -11    1    4    4    0    0 -0.31569972756E-01 -0.13088176352E-01  0.84139527444E-01  0.90816764639E-01  0.51100000000E-03 0.  1.
         11    1    4    4    0    0 -0.30985386565E-02 -0.71336917120E-02  0.39590622332E-01  0.40350576166E-01  0.51100000000E-03 0. -1.
</event>
<event>
 8    1  0.1072332E+005  0.1043930E+01  0.7957747E-01            NaN
         13   -1    0    0    0    0  0.00000000000E+00  0.00000000000E+00  0.74505805969E-08  0.10566000000E+00  0.10566000000E+00 0. -1.
     999900   -1    0    0    0    0 -0.00000000000E+00 -0.00000000000E+00 -0.74505805969E-08  0.93827000000E+00  0.93827000000E+00 0.  1.
     999902    2    1    2    0    0 -0.83523763432E-02 -0.77672364476E-03 -0.22652601543E-01  0.10197741343E+01  0.10194879985E+01 0.  0.
     999903    2    3    3    0    0 -0.59288746798E-01  0.10957892666E+00 -0.36907105571E-01  0.13130574756E+00  0.18877717939E-01 0.  0.
         14    1    1    2    0    0  0.83523763432E-02  0.77672364476E-03  0.22652601543E-01  0.24155865683E-01  0.00000000000E+00 0. -1.
     999901    1    3    3    0    0  0.50936370455E-01 -0.11035565031E+00  0.14254504028E-01  0.88846838676E+00  0.88000000000E+00 0.  1.
        -11    1    4    4    0    0 -0.14111386281E-01  0.18827624301E-01 -0.13966591462E-01  0.27366721720E-01  0.51100000000E-03 0.  1.
         11    1    4    4    0    0 -0.45177360517E-01  0.90751302359E-01 -0.22940514109E-01  0.10393902584E+00  0.51100000000E-03 0. -1.
</event>
<event>
 8    1  0.1072332E+005  0.1043930E+01  0.7957747E-01            NaN
         13   -1    0    0    0    0  0.00000000000E+00  0.00000000000E+00  0.74505805969E-08  0.10566000000E+00  0.10566000000E+00 0.  1.
     999900   -1    0    0    0    0 -0.00000000000E+00 -0.00000000000E+00 -0.74505805969E-08  0.93827000000E+00  0.93827000000E+00 0.  1.
     999902    2    1    2    0    0  0.16324725196E-01  0.53174770298E-02 -0.26037796771E-01  0.10127412348E+01  0.10122608703E+01 0.  0.
     999903    2    3    3    0    0  0.97121457310E-01  0.42116570664E-01 -0.67878226060E-01  0.12728490795E+00  0.19687844597E-01 0.  0.
         14    1    1    2    0    0 -0.16324725196E-01 -0.53174770298E-02  0.26037796771E-01  0.31188765211E-01  0.00000000000E+00 0.  1.
     999901    1    3    3    0    0 -0.80796732114E-01 -0.36799093634E-01  0.41840429289E-01  0.88545632684E+00  0.88000000000E+00 0. -1.
        -11    1    4    4    0    0  0.62415098780E-01  0.18753193562E-01 -0.48123422385E-01  0.81015132707E-01  0.51100000000E-03 0. -1.
         11    1    4    4    0    0  0.34706358530E-01  0.23363377101E-01 -0.19754803675E-01  0.46269775245E-01  0.51100000000E-03 0.  1.
</event>
<event>
 8    1  0.1072332E+005  0.1043930E+01  0.7957747E-01            NaN
         13   -1    0    0    0    0  0.00000000000E+00  0.00000000000E+00  0.74505805969E-08  0.10566000000E+00  0.10566000000E+00 0. -1.
     999900   -1    0    0    0    0 -0.00000000000E+00 -0.00000000000E+00 -0.74505805969E-08  0.93827000000E+00  0.93827000000E+00 0. -1.
     999902    2    1    2    0    0 -0.46750921547E-03 -0.25869450620E-01 -0.10920159741E-03  0.10180560949E+01  0.10177272490E+01 0.  0.
     999903    2    3    3    0    0  0.49675026204E-01  0.78098358773E-01  0.83979245290E-01  0.12654364622E+00  0.19844870567E-01 0.  0.
         14    1    1    2    0    0  0.46750921547E-03  0.25869450620E-01  0.10920159741E-03  0.25873905102E-01  0.00000000000E+00 0.  1.
     999901    1    3    3    0    0 -0.50142535419E-01 -0.10396780939E+00 -0.84088446887E-01  0.89151244868E+00  0.88000000000E+00 0. -1.
        -11    1    4    4    0    0  0.30757289165E-01  0.36878965989E-01  0.32787468214E-01  0.58149360806E-01  0.51100000000E-03 0. -1.
         11    1    4    4    0    0  0.18917737038E-01  0.41219392783E-01  0.51191777076E-01  0.68394285414E-01  0.51100000000E-03 0.  1.
</event>
<event>
 8    1  0.1072332E+005  0.1043930E+01  0.7957747E-01            NaN
         13   -1    0    0    0    0  0.00000000000E+00  0.00000000000E+00  0.74505805969E-08  0.10566000000E+00  0.10566000000E+00 0. -1.
     999900   -1    0    0    0    0 -0.00000000000E+00 -0.00000000000E+00 -0.74505805969E-08  0.93827000000E+00  0.93827000000E+00 0. -1.
     999902    2    1    2    0    0 -0.17288798195E-01  0.12078282093E-01 -0.10566574716E-01  0.10203410207E+01  0.10200683108E+01 0.  0.
     999903    2    3    3    0    0 -0.12697524079E+00  0.36737930865E-01 -0.24409723283E-02  0.13315150357E+00  0.15842260516E-01 0.  0.
         14    1    1    2    0    0  0.17288798195E-01 -0.12078282093E-01  0.10566574716E-01  0.23588979261E-01  0.00000000000E+00 0. -1.
     999901    1    3    3    0    0  0.10968644259E+00 -0.24659648772E-01 -0.81256023873E-02  0.88718951717E+00  0.88000000000E+00 0. -1.
        -11    1    4    4    0    0 -0.86312913487E-01  0.31831835363E-01 -0.48098962935E-02  0.92122641085E-01  0.51100000000E-03 0.  1.
         11    1    4    4    0    0 -0.40662327303E-01  0.49060955024E-02  0.23689239652E-02  0.41028862481E-01  0.51100000000E-03 0. -1.
</event>
<event>
 8    1  0.1072332E+005  0.1043930E+01  0.7957747E-01            NaN
         13   -1    0    0    0    0  0.00000000000E+00  0.00000000000E+00  0.74505805969E-08  0.10566000000E+00  0.10566000000E+00 0. -1.
     999900   -1    0    0    0    0 -0.00000000000E+00 -0.00000000000E+00 -0.74505805969E-08  0.93827000000E+00  0.93827000000E+00 0. -1.
     999902    2    1    2    0    0 -0.10126706182E-01  0.66612621086E-02  0.20155462248E-01  0.10204105347E+01  0.10201394483E+01 0.  0.
     999903    2    3    3    0    0 -0.11025874098E-01  0.21546317045E-01  0.12930476694E+00  0.13354191753E+00  0.22976233509E-01 0.  0.
         14    1    1    2    0    0  0.10126706182E-01 -0.66612621086E-02 -0.20155462248E-01  0.23519465330E-01  0.00000000000E+00 0.  1.
     999901    1    3    3    0    0  0.89916791611E-03 -0.14885054937E-01 -0.10914930469E+00  0.88686861715E+00  0.88000000000E+00 0. -1.
        -11    1    4    4    0    0 -0.18117618407E-01  0.16581528068E-01  0.10059631928E+00  0.10355228508E+00  0.51100000000E-03 0.  1.
         11    1    4    4    0    0  0.70917443089E-02  0.49647889776E-02  0.28708447651E-01  0.29989632450E-01  0.51100000000E-03 0. -1.
</event>
<event>
 7    1  0.1072332E+005  0.1043930E+01  0.7957747E-01            NaN
         13   -1    0    0    0    0  0.00000000000E+00  0.00000000000E+00  0.74505805969E-08  0.10566000000E+00  0.10566000000E+00 0. -1.
     999900   -1    0    0    0    0 -0.00000000000E+00 -0.00000000000E+00 -0.74505805969E-08  0.93827000000E+00  0.93827000000E+00 0. -1.
     999903    2    1    2    0    0 -0.88216783921E-01  0.46593130859E-02 -0.37824715854E-01  0.98968372243E-01  0.23666842018E-01 0.  0.
         14    1    1    2    0    0  0.97818502872E-02  0.33331566845E-01  0.49628592758E-01  0.60577843825E-01  0.00000000000E+00 0. -1.
     999901    1    1    2    0    0  0.78434933634E-01 -0.37990879930E-01 -0.11803876903E-01  0.88438378393E+00  0.88000000000E+00 0.  1.
        -11    1    3    3    0    0 -0.25219751290E-01 -0.53278956493E-02 -0.20313321270E-01  0.32822468968E-01  0.51100000000E-03 0. -1.
         11    1    3    3    0    0 -0.62997032632E-01  0.99872087352E-02 -0.17511394584E-01  0.66145903275E-01  0.51100000000E-03 0.  1.
</event>
<event>
 8    1  0.1072332E+005  0.1043930E+01  0.7957747E-01            NaN
         13   -1    0    0    0    0  0.00000000000E+00  0.00000000000E+00  0.74505805969E-08  0.10566000000E+00  0.10566000000E+00 0.  1.
     999900   -1    0    0    0    0 -0.00000000000E+00 -0.00000000000E+00 -0.74505805969E-08  0.93827000000E+00  0.93827000000E+00 0.  1.
     999902    2    1    2    0    0 -0.95193908699E-02  0.97370949093E-02  0.19104907212E-01  0.10204688129E+01  0.10201990839E+01 0.  0.
     999903    2    3    3    0    0 -0.51436482801E-01  0.11812665755E+00  0.25208291393E-01  0.13280750860E+00  0.20068816556E-01 0.  0.
         14    1    1    2    0    0  0.95193908699E-02 -0.97370949093E-02 -0.19104907212E-01  0.23461187084E-01  0.00000000000E+00 0. -1.
     999901    1    3    3    0    0  0.41917091932E-01 -0.10838956264E+00 -0.61033841809E-02  0.88766130432E+00  0.88000000000E+00 0. -1.
        -11    1    4    4    0    0 -0.21212910052E-01  0.70549817058E-01  0.94254928249E-02  0.74272237585E-01  0.51100000000E-03 0. -1.
         11    1    4    4    0    0 -0.30223572749E-01  0.47576840492E-01  0.15782798568E-01  0.58535271013E-01  0.51100000000E-03 0.  1.
</event>
<event>
 8    1  0.1072332E+005  0.1043930E+01  0.7957747E-01            NaN
         13   -1    0    0    0    0  0.00000000000E+00  0.00000000000E+00  0.74505805969E-08  0.10566000000E+00  0.10566000000E+00 0.  1.
     999900   -1    0    0    0    0 -0.00000000000E+00 -0.00000000000E+00 -0.74505805969E-08  0.93827000000E+00  0.93827000000E+00 0.  1.
     999902    2    1    2    0    0 -0.93537318101E-02  0.21470752294E-01  0.45890754738E-02  0.10200648556E+01  0.10197856464E+01 0.  0.
     999903    2    3    3    0    0  0.65151354021E-01  0.30197446783E-01 -0.10638230727E+00  0.12992901722E+00  0.20193303174E-01 0.  0.
         14    1    1    2    0    0  0.93537318101E-02 -0.21470752294E-01 -0.45890754738E-02  0.23865144385E-01  0.00000000000E+00 0.  1.
     999901    1    3    3    0    0 -0.74505085831E-01 -0.87266944894E-02  0.11097138274E+00  0.89013583840E+00  0.88000000000E+00 0. -1.
        -11    1    4    4    0    0  0.98255622515E-02  0.15112306526E-02 -0.28452151343E-01  0.30143183785E-01  0.51100000000E-03 0. -1.
         11    1    4    4    0    0  0.55325791769E-01  0.28686216131E-01 -0.77930155922E-01  0.99785833433E-01  0.51100000000E-03 0.  1.
</event>
<event>
 8    1  0.1072332E+005  0.1043930E+01  0.7957747E-01            NaN
         13   -1    0    0    0    0  0.00000000000E+00  0.00000000000E+00  0.74505805969E-08  0.10566000000E+00  0.10566000000E+00 0. -1.
     999900   -1    0    0    0    0 -0.00000000000E+00 -0.00000000000E+00 -0.74505805969E-08  0.93827000000E+00  0.93827000000E+00 0.  1.
     999902    2    1    2    0    0  0.13682190251E-01  0.18496670193E-01 -0.49589679798E-02  0.10203944842E+01  0.10201230235E+01 0.  0.
     999903    2    3    3    0    0  0.20493332736E-01 -0.96491276444E-01  0.80424723397E-01  0.12878975440E+00  0.19700801726E-01 0.  0.
         14    1    1    2    0    0 -0.13682190251E-01 -0.18496670193E-01  0.49589679798E-02  0.23535515752E-01  0.00000000000E+00 0.  1.
     999901    1    3    3    0    0 -0.68111424848E-02  0.11498794664E+00 -0.85383691377E-01  0.89160472985E+00  0.88000000000E+00 0.  1.
        -11    1    4    4    0    0  0.15405407689E-01 -0.36174587331E-01  0.39400380117E-01  0.55664876080E-01  0.51100000000E-03 0.  1.
         11    1    4    4    0    0  0.50879250467E-02 -0.60316689113E-01  0.41024343280E-01  0.73124878320E-01  0.51100000000E-03 0. -1.
</event>
<event>
 8    1  0.1072332E+005  0.1043930E+01  0.7957747E-01            NaN
         13   -1    0    0    0    0  0.00000000000E+00  0.00000000000E+00  0.74505805969E-08  0.10566000000E+00  0.10566000000E+00 0. -1.
     999900   -1    0    0    0    0 -0.00000000000E+00 -0.00000000000E+00 -0.74505805969E-08  0.93827000000E+00  0.93827000000E+00 0. -1.
     999902    2    1    2    0    0 -0.12839756804E-01  0.17466892683E-01 -0.95111117940E-02  0.10202569575E+01  0.10199822775E+01 0.  0.
     999903    2    3    3    0    0 -0.87431104333E-01 -0.93672020389E-01 -0.11659435702E-02  0.13009665227E+00  0.22475188539E-01 0.  0.
         14    1    1    2    0    0  0.12839756804E-01 -0.17466892683E-01  0.95111117940E-02  0.23673042524E-01  0.00000000000E+00 0. -1.
     999901    1    3    3    0    0  0.74591347529E-01  0.11113891307E+00 -0.83451682238E-02  0.89016030520E+00  0.88000000000E+00 0. -1.
        -11    1    4    4    0    0 -0.53657984249E-01 -0.64027231452E-01  0.89901489693E-02  0.84022315730E-01  0.51100000000E-03 0.  1.
         11    1    4    4    0    0 -0.33773120085E-01 -0.29644788936E-01 -0.10156092540E-01  0.46074336544E-01  0.51100000000E-03 0. -1.
</event>
<event>
 8    1  0.1072332E+005  0.1043930E+01  0.7957747E-01            NaN
         13   -1    0    0    0    0  0.00000000000E+00  0.00000000000E+00  0.74505805969E-08  0.10566000000E+00  0.10566000000E+00 0.  1.
     999900   -1    0    0    0    0 -0.00000000000E+00 -0.00000000000E+00 -0.74505805969E-08  0.93827000000E+00  0.93827000000E+00 0.  1.
     999902    2    1    2    0    0  0.18059002817E-01  0.92946603831E-02 -0.77663140125E-02  0.10221852552E+01  0.10219539432E+01 0.  0.
     999903    2    3    3    0    0 -0.56655161038E-01  0.47216918414E-01  0.10651696216E+00  0.13084863461E+00  0.18337319733E-01 0.  0.
         14    1    1    2    0    0 -0.18059002817E-01 -0.92946603831E-02  0.77663140125E-02  0.21744744830E-01  0.00000000000E+00 0.  1.
     999901    1    3    3    0    0  0.74714163855E-01 -0.37922258031E-01 -0.11428327617E+00  0.89133662056E+00  0.88000000000E+00 0. -1.
        -11    1    4    4    0    0 -0.15379349507E-01  0.23545823522E-01  0.45138983253E-01  0.53185704157E-01  0.51100000000E-03 0. -1.
         11    1    4    4    0    0 -0.41275811531E-01  0.23671094892E-01  0.61377978908E-01  0.77662930455E-01  0.51100000000E-03 0.  1.
</event>
<event>
 8    1  0.1072332E+005  0.1043930E+01  0.7957747E-01            NaN
         13   -1    0    0    0    0  0.00000000000E+00  0.00000000000E+00  0.74505805969E-08  0.10566000000E+00  0.10566000000E+00 0. -1.
     999900   -1    0    0    0    0 -0.00000000000E+00 -0.00000000000E+00 -0.74505805969E-08  0.93827000000E+00  0.93827000000E+00 0. -1.
     999902    2    1    2    0    0  0.18858348950E-03  0.21585422041E-01  0.79620576091E-02  0.10209221672E+01  0.10206628783E+01 0.  0.
     999903    2    3    3    0    0  0.10221194053E+00 -0.34110777485E-01  0.73157872822E-01  0.13088771487E+00  0.12988210883E-01 0.  0.
         14    1    1    2    0    0 -0.18858348950E-03 -0.21585422041E-01 -0.79620576091E-02  0.23007832792E-01  0.00000000000E+00 0. -1.
     999901    1    3    3    0    0 -0.10202335704E+00  0.55696199526E-01 -0.65195815213E-01  0.89003445234E+00  0.88000000000E+00 0. -1.
        -11    1    4    4    0    0  0.10331736242E-01 -0.73909163442E-02  0.10728954437E-01  0.16635564387E-01  0.51100000000E-03 0. -1.
         11    1    4    4    0    0  0.91880204284E-01 -0.26719861140E-01  0.62428918385E-01  0.11425215049E+00  0.51100000000E-03 0.  1.
</event>
<event>
 8    1  0.1072332E+005  0.1043930E+01  0.7957747E-01            NaN
         13   -1    0    0    0    0  0.00000000000E+00  0.00000000000E+00  0.74505805969E-08  0.10566000000E+00  0.10566000000E+00 0. -1.
     999900   -1    0    0    0    0 -0.00000000000E+00 -0.00000000000E+00 -0.74505805969E-08  0.93827000000E+00  0.93827000000E+00 0. -1.
     999902    2    1    2    0    0 -0.75767153085E-03 -0.14956450683E-01  0.18391189840E-01  0.10202128048E+01  0.10199370872E+01 0.  0.
     999903    2    3    3    0    0 -0.10489520847E+00 -0.59386420170E-01 -0.46113788639E-01  0.13061764913E+00  0.20118078964E-01 0.  0.
         14    1    1    2    0    0  0.75767153085E-03  0.14956450683E-01 -0.18391189840E-01  0.23717195174E-01  0.00000000000E+00 0.  1.
     999901    1    3    3    0    0  0.10413753694E+00  0.44429969487E-01  0.64504978479E-01  0.88959515570E+00  0.88000000000E+00 0.  1.
        -11    1    4    4    0    0 -0.61034083488E-01 -0.45592288972E-01 -0.27127790245E-01  0.80870231145E-01  0.51100000000E-03 0.  1.
         11    1    4    4    0    0 -0.43861124982E-01 -0.13794131198E-01 -0.18985998393E-01  0.49747417986E-01  0.51100000000E-03 0. -1.
</event>
<event>
 8    1  0.1072332E+005  0.1043930E+01  0.7957747E-01            NaN
         13   -1    0    0    0    0  0.00000000000E+00  0.00000000000E+00  0.74505805969E-08  0.10566000000E+00  0.10566000000E+00 0.  1.
     999900   -1    0    0    0    0 -0.00000000000E+00 -0.00000000000E+00 -0.74505805969E-08  0.93827000000E+00  0.93827000000E+00 0. -1.
     999902    2    1    2    0    0 -0.32155191310E-02 -0.23056408616E-01  0.34248981552E-02  0.10203998604E+01  0.10201285251E+01 0.  0.
     999903    2    3    3    0    0  0.11307795192E+00 -0.52959403162E-02 -0.61242951665E-01  0.13021924029E+00  0.19790937766E-01 0.  0.
         14    1    1    2    0    0  0.32155191310E-02  0.23056408616E-01 -0.34248981552E-02  0.23530139586E-01  0.00000000000E+00 0.  1.
     999901    1    3    3    0    0 -0.11629347106E+00 -0.17760468300E-01  0.64667849820E-01  0.89018062012E+00  0.88000000000E+00 0.  1.
        -11    1    4    4    0    0  0.30757972921E-01 -0.55237063086E-02 -0.82823603201E-02  0.32332999290E-01  0.51100000000E-03 0.  1.
         11    1    4    4    0    0  0.82319979004E-01  0.22776599234E-03 -0.52960591345E-01  0.97886241000E-01  0.51100000000E-03 0. -1.
</event>
<event>
 8    1  0.1072332E+005  0.1043930E+01  0.7957747E-01            NaN
         13   -1    0    0    0    0  0.00000000000E+00  0.00000000000E+00  0.74505805969E-08  0.10566000000E+00  0.10566000000E+00 0. -1.
     999900   -1    0    0    0    0 -0.00000000000E+00 -0.00000000000E+00 -0.74505805969E-08  0.93827000000E+00  0.93827000000E+00 0.  1.
     999902    2    1    2    0    0 -0.14749305560E-01 -0.16270743234E-01  0.10506988583E-01  0.10195850640E+01  0.10192943769E+01 0.  0.
     999903    2    3    3    0    0 -0.12452612907E+00  0.34168617902E-01  0.13539247155E-01  0.13132593811E+00  0.19721550041E-01 0.  0.
         14    1    1    2    0    0  0.14749305560E-01  0.16270743234E-01 -0.10506988583E-01  0.24344936003E-01  0.00000000000E+00 0.  1.
     999901    1    3    3    0    0  0.10977682351E+00 -0.50439361136E-01 -0.30322585723E-02  0.88825912589E+00  0.88000000000E+00 0. -1.
        -11    1    4    4    0    0 -0.39096325434E-01  0.49824213241E-02  0.11360618899E-01  0.41020384779E-01  0.51100000000E-03 0. -1.
         11    1    4    4    0    0 -0.85429803637E-01  0.29186196578E-01  0.21786282566E-02  0.90305553330E-01  0.51100000000E-03 0.  1.
</event>
<event>
 8    1  0.1072332E+005  0.1043930E+01  0.7957747E-01            NaN
         13   -1    0    0    0    0  0.00000000000E+00  0.00000000000E+00  0.74505805969E-08  0.10566000000E+00  0.10566000000E+00 0.  1.
     999900   -1    0    0    0    0 -0.00000000000E+00 -0.00000000000E+00 -0.74505805969E-08  0.93827000000E+00  0.93827000000E+00 0. -1.
     999902    2    1    2    0    0 -0.22242096045E-01  0.22581521955E-02 -0.81843995638E-02  0.10201225540E+01  0.10198447091E+01 0.  0.
     999903    2    3    3    0    0  0.16971040285E-01 -0.54354577644E-03  0.12629272289E+00  0.12903915948E+00  0.20320954053E-01 0.  0.
         14    1    1    2    0    0  0.22242096045E-01 -0.22581521955E-02  0.81843995638E-02  0.23807445979E-01  0.00000000000E+00 0.  1.
     999901    1    3    3    0    0 -0.39213136331E-01  0.28016979719E-02 -0.13447712245E+00  0.89108339455E+00  0.88000000000E+00 0. -1.
        -11    1    4    4    0    0  0.44641878017E-02 -0.90795199599E-02  0.70570864283E-01  0.71294282113E-01  0.51100000000E-03 0.  1.
         11    1    4    4    0    0  0.12506852483E-01  0.85359741835E-02  0.55721858604E-01  0.57744877362E-01  0.51100000000E-03 0. -1.
</event>
<event>
 8    1  0.1072332E+005  0.1043930E+01  0.7957747E-01            NaN
         13   -1    0    0    0    0  0.00000000000E+00  0.00000000000E+00  0.74505805969E-08  0.10566000000E+00  0.10566000000E+00 0. -1.
     999900   -1    0    0    0    0 -0.00000000000E+00 -0.00000000000E+00 -0.74505805969E-08  0.93827000000E+00  0.93827000000E+00 0.  1.
     999902    2    1    2    0    0  0.10219906071E-01 -0.73325104851E-02  0.17321614667E-01  0.10225232131E+01  0.10222991103E+01 0.  0.
     999903    2    3    3    0    0 -0.46437725882E-01 -0.10039820154E+00  0.72930849852E-01  0.13406179181E+00  0.20430220415E-01 0.  0.
         14    1    1    2    0    0 -0.10219906071E-01  0.73325104851E-02 -0.17321614667E-01  0.21406786886E-01  0.00000000000E+00 0.  1.
     999901    1    3    3    0    0  0.56657631952E-01  0.93065691051E-01 -0.55609235185E-01  0.88846142130E+00  0.88000000000E+00 0. -1.
        -11    1    4    4    0    0 -0.22911117585E-02 -0.21643172564E-02  0.72319874936E-02  0.79054554824E-02  0.51100000000E-03 0. -1.
         11    1    4    4    0    0 -0.44146614123E-01 -0.98233884280E-01  0.65698862358E-01  0.12615633633E+00  0.51100000000E-03 0.  1.
</event>
<event>
 8    1  0.1072332E+005  0.1043930E+01  0.7957747E-01            NaN
         13   -1    0    0    0    0  0.00000000000E+00  0.00000000000E+00  0.74505805969E-08  0.10566000000E+00  0.10566000000E+00 0. -1.
     999900   -1    0    0    0    0 -0.00000000000E+00 -0.00000000000E+00 -0.74505805969E-08  0.93827000000E+00  0.93827000000E+00 0. -1.
     999902    2    1    2    0    0 -0.92486229581E-02 -0.15489209561E-01 -0.10642447660E-01  0.10229844914E+01  0.10227700403E+01 0.  0.
     999903    2    3    3    0    0  0.33005636746E-01  0.86234961388E-02 -0.12764449023E+00  0.13390838495E+00  0.21785383469E-01 0.  0.
         14    1    1    2    0    0  0.92486229581E-02  0.15489209561E-01  0.10642447660E-01  0.20945508627E-01  0.00000000000E+00 0. -1.
     999901    1    3    3    0    0 -0.42254259704E-01 -0.24112705699E-01  0.11700204257E+00  0.88907610642E+00  0.88000000000E+00 0.  1.
        -11    1    4    4    0    0  0.23531450724E-01 -0.29355743378E-02 -0.57737186281E-01  0.62419472687E-01  0.51100000000E-03 0. -1.
         11    1    4    4    0    0  0.94741860223E-02  0.11559070477E-01 -0.69907303947E-01  0.71488912268E-01  0.51100000000E-03 0.  1.
</event>
<event>
 8    1  0.1072332E+005  0.1043930E+01  0.7957747E-01            NaN
         13   -1    0    0    0    0  0.00000000000E+00  0.00000000000E+00  0.74505805969E-08  0.10566000000E+00  0.10566000000E+00 0. -1.
     999900   -1    0    0    0    0 -0.00000000000E+00 -0.00000000000E+00 -0.74505805969E-08  0.93827000000E+00  0.93827000000E+00 0. -1.
     999902    2    1    2    0    0 -0.20869224955E-01  0.10608814955E-01 -0.14961685127E-02  0.10204713124E+01  0.10202016415E+01 0.  0.
     999903    2    3    3    0    0  0.11155855488E-01 -0.10689560762E+00 -0.69509321807E-01  0.12948383540E+00  0.19580443594E-01 0.  0.
         14    1    1    2    0    0  0.20869224955E-01 -0.10608814955E-01  0.14961685127E-02  0.23458687628E-01  0.00000000000E+00 0. -1.
     999901    1    3    3    0    0 -0.32025080443E-01  0.11750442258E+00  0.68013153294E-01  0.89098747697E+00  0.88000000000E+00 0. -1.
        -11    1    4    4    0    0  0.40055500961E-02 -0.95071627004E-01 -0.57583161263E-01  0.11122382962E+00  0.51100000000E-03 0.  1.
         11    1    4    4    0    0  0.71503053920E-02 -0.11823980617E-01 -0.11926160544E-01  0.18260005781E-01  0.51100000000E-03 0. -1.
</event>
<event>
 8    1  0.1072332E+005  0.1043930E+01  0.7957747E-01            NaN
         13   -1    0    0    0    0  0.00000000000E+00  0.00000000000E+00  0.74505805969E-08  0.10566000000E+00  0.10566000000E+00 0. -1.
     999900   -1    0    0    0    0 -0.00000000000E+00 -0.00000000000E+00 -0.74505805969E-08  0.93827000000E+00  0.93827000000E+00 0.  1.
     999902    2    1    2    0    0 -0.18145884220E-01  0.82308449836E-03 -0.15552145276E-01  0.10200172460E+01  0.10197369084E+01 0.  0.
     999903    2    3    3    0    0 -0.44000685439E-01  0.39645141413E-01 -0.11731562359E+00  0.13292569018E+00  0.19962114455E-01 0.  0.
         14    1    1    2    0    0  0.18145884220E-01 -0.82308449836E-03  0.15552145276E-01  0.23912754022E-01  0.00000000000E+00 0. -1.
     999901    1    3    3    0    0  0.25854801218E-01 -0.38822056915E-01  0.10176347832E+00  0.88709155580E+00  0.88000000000E+00 0. -1.
        -11    1    4    4    0    0 -0.24530715937E-02  0.76485978549E-02 -0.65663005747E-02  0.10387301557E-01  0.51100000000E-03 0.  1.
         11    1    4    4    0    0 -0.41547613845E-01  0.31996543559E-01 -0.11074932302E+00  0.12253838862E+00  0.51100000000E-03 0. -1.
</event>
<event>
 8    1  0.1072332E+005  0.1043930E+01  0.7957747E-01            NaN
         13   -1    0    0    0    0  0.00000000000E+00  0.00000000000E+00  0.74505805969E-08  0.10566000000E+00  0.10566000000E+00 0.  1.
     999900   -1    0    0    0    0 -0.00000000000E+00 -0.00000000000E+00 -0.74505805969E-08  0.93827000000E+00  0.93827000000E+00 0. -1.
     999902    2    1    2    0    0 -0.95482380416E-02  0.65608599875E-02  0.20784969727E-01  0.10201344395E+01  0.10198568752E+01 0.  0.
     999903    2    3    3    0    0 -0.99873014388E-01  0.57777644434E-01 -0.57780441980E-01  0.13055349986E+00  0.19818215146E-01 0.  0.
         14    1    1    2    0    0  0.95482380416E-02 -0.65608599875E-02 -0.20784969727E-01  0.23795560511E-01  0.00000000000E+00 0. -1.
     999901    1    3    3    0    0  0.90324776346E-01 -0.51216784447E-01  0.78565411707E-01  0.88958093963E+00  0.88000000000E+00 0. -1.
        -11    1    4    4    0    0 -0.24798312654E-01  0.12541672007E-01 -0.23640341762E-01  0.36488035393E-01  0.51100000000E-03 0.  1.
         11    1    4    4    0    0 -0.75074701734E-01  0.45235972428E-01 -0.34140100217E-01  0.94065464469E-01  0.51100000000E-03 0. -1.
</event>
<event>
 8    1  0.1072332E+005  0.1043930E+01  0.7957747E-01            NaN
         13   -1    0    0    0    0  0.00000000000E+00  0.00000000000E+00  0.74505805969E-08  0.10566000000E+00  0.10566000000E+00 0.  1.
     999900   -1    0    0    0    0 -0.00000000000E+00 -0.00000000000E+00 -0.74505805969E-08  0.93827000000E+00  0.93827000000E+00 0. -1.
     999902    2    1    2    0    0 -0.62116319639E-02 -0.78937498360E-02  0.21387063700E-01  0.10203015817E+01  0.10200279484E+01 0.  0.
     999903    2    3    3    0    0  0.57804584745E-01  0.23271707038E-01  0.11567344950E+00  0.13240559440E+00  0.16369243788E-01 0.  0.
         14    1    1    2    0    0  0.62116319639E-02  0.78937498360E-02 -0.21387063700E-01  0.23628418310E-01  0.00000000000E+00 0. -1.
     999901    1    3    3    0    0 -0.64016216709E-01 -0.31165456874E-01 -0.94286385801E-01  0.88789598729E+00  0.88000000000E+00 0. -1.
        -11    1    4    4    0    0  0.31136681630E-01  0.40679118086E-02  0.51936379951E-01  0.60693406008E-01  0.51100000000E-03 0. -1.
         11    1    4    4    0    0  0.26667903115E-01  0.19203795229E-01  0.63737069550E-01  0.71712188389E-01  0.51100000000E-03 0.  1.
</event>
<event>
 8    1  0.1072332E+005  0.1043930E+01  0.7957747E-01            NaN
         13   -1    0    0    0    0  0.00000000000E+00  0.00000000000E+00  0.74505805969E-08  0.10566000000E+00  0.10566000000E+00 0.  1.
     999900   -1    0    0    0    0 -0.00000000000E+00 -0.00000000000E+00 -0.74505805969E-08  0.93827000000E+00  0.93827000000E+00 0.  1.
     999902    2    1    2    0    0 -0.25431597049E-02 -0.13340393968E-02  0.24550985967E-01  0.10192116215E+01  0.10189118368E+01 0.  0.
     999903    2    3    3    0    0 -0.12110228413E+00 -0.36098251501E-01  0.26173396431E-01  0.13057927424E+00  0.19926193729E-01 0.  0.
         14    1    1    2    0    0  0.25431597049E-02  0.13340393968E-02 -0.24550985967E-01  0.24718378474E-01  0.00000000000E+00 0. -1.
     999901    1    3    3    0    0  0.11855912443E+00  0.34764212104E-01 -0.16224104635E-02  0.88863234729E+00  0.88000000000E+00 0. -1.
        -11    1    4    4    0    0 -0.34175979497E-01 -0.81580339327E-02  0.16309476938E-01  0.38740305255E-01  0.51100000000E-03 0. -1.
         11    1    4    4    0    0 -0.86926304636E-01 -0.27940217568E-01  0.98639194927E-02  0.91838968985E-01  0.51100000000E-03 0.  1.
</event>
<event>
 8    1  0.1072332E+005  0.1043930E+01  0.7957747E-01            NaN
         13   -1    0    0    0    0  0.00000000000E+00  0.00000000000E+00  0.74505805969E-08  0.10566000000E+00  0.10566000000E+00 0. -1.
     999900   -1    0    0    0    0 -0.00000000000E+00 -0.00000000000E+00 -0.74505805969E-08  0.93827000000E+00  0.93827000000E+00 0.  1.
     999902    2    1    2    0    0  0.48773063574E-02 -0.22405115875E-01  0.65803910266E-02  0.10200746257E+01  0.10197956478E+01 0.  0.
     999903    2    3    3    0    0  0.21084566245E-01  0.12487749188E+00  0.11227392847E-01  0.12767536732E+00  0.11661824786E-01 0.  0.
         14    1    1    2    0    0 -0.48773063574E-02  0.22405115875E-01 -0.65803910266E-02  0.23855374252E-01  0.00000000000E+00 0. -1.
     999901    1    3    3    0    0 -0.16207259888E-01 -0.14728260776E+00 -0.46470018204E-02  0.89239925843E+00  0.88000000000E+00 0.  1.
        -11    1    4    4    0    0  0.12358699304E-01  0.92086684048E-01  0.12289583451E-01  0.93722941748E-01  0.51100000000E-03 0. -1.
         11    1    4    4    0    0  0.87258669409E-02  0.32790807832E-01 -0.10621906037E-02  0.33952425569E-01  0.51100000000E-03 0.  1.
</event>
<event>
 8    1  0.1072332E+005  0.1043930E+01  0.7957747E-01            NaN
         13   -1    0    0    0    0  0.00000000000E+00  0.00000000000E+00  0.74505805969E-08  0.10566000000E+00  0.10566000000E+00 0. -1.
     999900   -1    0    0    0    0 -0.00000000000E+00 -0.00000000000E+00 -0.74505805969E-08  0.93827000000E+00  0.93827000000E+00 0. -1.
     999902    2    1    2    0    0  0.16463982024E-01  0.17343365288E-01 -0.26149215483E-02  0.10198739646E+01  0.10195902171E+01 0.  0.
     999903    2    3    3    0    0  0.48269989009E-01 -0.16655240677E-01 -0.11912318505E+00  0.13097481244E+00  0.18885957635E-01 0.  0.
         14    1    1    2    0    0 -0.16463982024E-01 -0.17343365288E-01  0.26149215483E-02  0.24056035382E-01  0.00000000000E+00 0. -1.
     999901    1    3    3    0    0 -0.31806006985E-01  0.33998605965E-01  0.11650826350E+00  0.88889915218E+00  0.88000000000E+00 0.  1.
        -11    1    4    4    0    0  0.40601944310E-01 -0.65542895050E-02 -0.81912770506E-01  0.91659367691E-01  0.51100000000E-03 0. -1.
         11    1    4    4    0    0  0.76680446990E-02 -0.10100951172E-01 -0.37210414541E-01  0.39315444744E-01  0.51100000000E-03 0.  1.
</event>
<event>
 8    1  0.1072332E+005  0.1043930E+01  0.7957747E-01            NaN
         13   -1    0    0    0    0  0.00000000000E+00  0.00000000000E+00  0.74505805969E-08  0.10566000000E+00  0.10566000000E+00 0. -1.
     999900   -1    0    0    0    0 -0.00000000000E+00 -0.00000000000E+00 -0.74505805969E-08  0.93827000000E+00  0.93827000000E+00 0.  1.
     999902    2    1    2    0    0 -0.20027554771E-02  0.24430517741E-01 -0.43017366840E-02  0.10190429318E+01  0.10187389904E+01 0.  0.
     999903    2    3    3    0    0 -0.22637031509E-01 -0.11932478673E+00  0.30674045878E-01  0.12645418757E+00  0.17289434353E-01 0.  0.
         14    1    1    2    0    0  0.20027554771E-02 -0.24430517741E-01  0.43017366840E-02  0.24887068230E-01  0.00000000000E+00 0. -1.
     999901    1    3    3    0    0  0.20634276032E-01  0.14375530447E+00 -0.34975782562E-01  0.89258874420E+00  0.88000000000E+00 0. -1.
        -11    1    4    4    0    0 -0.10075026843E-01 -0.29317404209E-01  0.14159321841E-01  0.34084657419E-01  0.51100000000E-03 0. -1.
         11    1    4    4    0    0 -0.12562004667E-01 -0.90007382517E-01  0.16514724038E-01  0.92369530149E-01  0.51100000000E-03 0.  1.
</event>
<event>
 7    1  0.1072332E+005  0.1043930E+01  0.7957747E-01            NaN
         13   -1    0    0    0    0  0.00000000000E+00  0.00000000000E+00  0.74505805969E-08  0.10566000000E+00  0.10566000000E+00 0.  1.
     999900   -1    0    0    0    0 -0.00000000000E+00 -0.00000000000E+00 -0.74505805969E-08  0.93827000000E+00  0.93827000000E+00 0.  1.
     999902    2    1    2    0    0  0.12408323510E-01 -0.41649887575E-02  0.16826340943E-01  0.10226124163E+01  0.10223901969E+01 0.  0.
         14    1    1    2    0    0 -0.12408323510E-01  0.41649887575E-02 -0.16826340943E-01  0.21317583662E-01  0.00000000000E+00 0. -1.
     999901    1    3    3    0    0 -0.14695736754E-01 -0.62303797287E-01 -0.90576202273E-01  0.88696210531E+00  0.88000000000E+00 0.  1.
        -11    1    3    3    0    0  0.10963321344E-03  0.40830760552E-01  0.26646545293E-01  0.48759230139E-01  0.51100000000E-03 0. -1.
         11    1    3    3    0    0  0.26994427051E-01  0.17308047977E-01  0.80755997924E-01  0.86891080890E-01  0.51100000000E-03 0.  1.
</event>
<event>
 8    1  0.1072332E+005  0.1043930E+01  0.7957747E-01            NaN
         13   -1    0    0    0    0  0.00000000000E+00  0.00000000000E+00  0.74505805969E-08  0.10566000000E+00  0.10566000000E+00 0. -1.
     999900   -1    0    0    0    0 -0.00000000000E+00 -0.00000000000E+00 -0.74505805969E-08  0.93827000000E+00  0.93827000000E+00 0. -1.
     999902    2    1    2    0    0 -0.19888339733E-02 -0.22770542558E-01 -0.25461609559E-01  0.10097138250E+01  0.10091339167E+01 0.  0.
     999903    2    3    3    0    0 -0.10248420785E+00  0.49014314351E-01 -0.36899862998E-01  0.12101634022E+00  0.19440649148E-01 0.  0.
         14    1    1    2    0    0  0.19888339733E-02  0.22770542558E-01  0.25461609559E-01  0.34216174981E-01  0.00000000000E+00 0. -1.
     999901    1    3    3    0    0  0.10049537388E+00 -0.71784856909E-01  0.11438253438E-01  0.88869748480E+00  0.88000000000E+00 0. -1.
        -11    1    4    4    0    0 -0.24085714015E-01  0.21101072702E-01 -0.10846373724E-01  0.33812450854E-01  0.51100000000E-03 0.  1.
         11    1    4    4    0    0 -0.78398493839E-01  0.27913241649E-01 -0.26053489274E-01  0.87203889363E-01  0.51100000000E-03 0. -1.
</event>
<event>
 8    1  0.1072332E+005  0.1043930E+01  0.7957747E-01            NaN
         13   -1    0    0    0    0  0.00000000000E+00  0.00000000000E+00  0.74505805969E-08  0.10566000000E+00  0.10566000000E+00 0. -1.
     999900   -1    0    0    0    0 -0.00000000000E+00 -0.00000000000E+00 -0.74505805969E-08  0.93827000000E+00  0.93827000000E+00 0. -1.
     999902    2    1    2    0    0  0.16428062493E-01 -0.76870585659E-02  0.15179963192E-01  0.10202782899E+01  0.10200041105E+01 0.  0.
     999903    2    3    3    0    0  0.42739196110E-01 -0.12204475640E+00  0.18987904716E-01  0.13248075714E+00  0.21657539965E-01 0.  0.
         14    1    1    2    0    0 -0.16428062493E-01  0.76870585659E-02 -0.15179963192E-01  0.23651710069E-01  0.00000000000E+00 0.  1.
     999901    1    3    3    0    0 -0.26311133617E-01  0.11435769784E+00 -0.38079415241E-02  0.88779753279E+00  0.88000000000E+00 0. -1.
        -11    1    4    4    0    0  0.15381477933E-01 -0.76037120316E-01  0.10695779172E-01  0.78312798076E-01  0.51100000000E-03 0.  1.
         11    1    4    4    0    0  0.27357718178E-01 -0.46007636089E-01  0.82921255446E-02  0.54167959066E-01  0.51100000000E-03 0. -1.
</event>
<event>
 8    1  0.1072332E+005  0.1043930E+01  0.7957747E-01            NaN
         13   -1    0    0    0    0  0.00000000000E+00  0.00000000000E+00  0.74505805969E-08  0.10566000000E+00  0.10566000000E+00 0. -1.
     999900   -1    0    0    0    0 -0.00000000000E+00 -0.00000000000E+00 -0.74505805969E-08  0.93827000000E+00  0.93827000000E+00 0.  1.
     999902    2    1    2    0    0 -0.71004443321E-02 -0.21268506077E-01  0.65774942662E-02  0.10205627346E+01  0.10202951858E+01 0.  0.
     999903    2    3    3    0    0 -0.40749394248E-01 -0.69670408983E-01  0.10414749293E+00  0.13320998589E+00  0.19588798836E-01 0.  0.
         14    1    1    2    0    0  0.71004443321E-02  0.21268506077E-01 -0.65774942662E-02  0.23367265379E-01  0.00000000000E+00 0. -1.
     999901    1    3    3    0    0  0.33648949916E-01  0.48401902905E-01 -0.97569998659E-01  0.88735274873E+00  0.88000000000E+00 0.  1.
        -11    1    4    4    0    0 -0.14364153094E-01 -0.23102801998E-01  0.50864668026E-01  0.57684867415E-01  0.51100000000E-03 0.  1.
         11    1    4    4    0    0 -0.26385241155E-01 -0.46567606985E-01  0.53282824899E-01  0.75525118479E-01  0.51100000000E-03 0. -1.
</event>
<event>
 8    1  0.1072332E+005  0.1043930E+01  0.7957747E-01            NaN
         13   -1    0    0    0    0  0.00000000000E+00  0.00000000000E+00  0.74505805969E-08  0.10566000000E+00  0.10566000000E+00 0.  1.
     999900   -1    0    0    0    0 -0.00000000000E+00 -0.00000000000E+00 -0.74505805969E-08  0.93827000000E+00  0.93827000000E+00 0. -1.
     999902    2    1    2    0    0  0.20403402246E-03 -0.21774792908E-01  0.10779822551E-01  0.10196321028E+01  0.10193425514E+01 0.  0.
     999903    2    3    3    0    0  0.10993103298E-01 -0.83955614758E-01  0.10040561920E+00  0.13283131225E+00  0.19836218854E-01 0.  0.
         14    1    1    2    0    0 -0.20403402246E-03  0.21774792908E-01 -0.10779822551E-01  0.24297897241E-01  0.00000000000E+00 0. -1.
     999901    1    3    3    0    0 -0.10789069276E-01  0.62180821850E-01 -0.89625796646E-01  0.88680079051E+00  0.88000000000E+00 0. -1.
        -11    1    4    4    0    0  0.20254020895E-02 -0.23443226658E-01  0.42578296985E-01  0.48650381549E-01  0.51100000000E-03 0.  1.
         11    1    4    4    0    0  0.89677012088E-02 -0.60512388101E-01  0.57827322213E-01  0.84180930702E-01  0.51100000000E-03 0. -1.
</event>
<event>
 8    1  0.1072332E+005  0.1043930E+01  0.7957747E-01            NaN
         13   -1    0    0    0    0  0.00000000000E+00  0.00000000000E+00  0.74505805969E-08  0.10566000000E+00  0.10566000000E+00 0. -1.
     999900   -1    0    0    0    0 -0.00000000000E+00 -0.00000000000E+00 -0.74505805969E-08  0.93827000000E+00  0.93827000000E+00 0. -1.
     999902    2    1    2    0    0  0.13579835273E-01 -0.19241407892E-02 -0.20069361925E-01  0.10196216983E+01  0.10193318959E+01 0.  0.
     999903    2    3    3    0    0 -0.11016686674E+00  0.22052492562E-01 -0.61511204605E-01  0.12967476081E+00  0.20220394286E-01 0.  0.
         14    1    1    2    0    0 -0.13579835273E-01  0.19241407892E-02  0.20069361925E-01  0.24308301707E-01  0.00000000000E+00 0. -1.
     999901    1    3    3    0    0  0.12374670201E+00 -0.23976633351E-01  0.41441842680E-01  0.88994693748E+00  0.88000000000E+00 0. -1.
        -11    1    4    4    0    0 -0.14957219034E-01 -0.37423637857E-02 -0.10088478100E-01  0.18432639510E-01  0.51100000000E-03 0.  1.
         11    1    4    4    0    0 -0.95209647703E-01  0.25794856347E-01 -0.51422726504E-01  0.11124212130E+00  0.51100000000E-03 0. -1.
</event>
<event>
 8    1  0.1072332E+005  0.1043930E+01  0.7957747E-01            NaN
         13   -1    0    0    0    0  0.00000000000E+00  0.00000000000E+00  0.74505805969E-08  0.10566000000E+00  0.10566000000E+00 0.  1.
     999900   -1    0    0    0    0 -0.00000000000E+00 -0.00000000000E+00 -0.74505805969E-08  0.93827000000E+00  0.93827000000E+00 0. -1.
     999902    2    1    2    0    0  0.17161588118E-01 -0.20306168765E-02 -0.11405452773E-01  0.10232242553E+01  0.10230147353E+01 0.  0.
     999903    2    3    3    0    0 -0.11641474154E+00 -0.23626653381E-01  0.50945092268E-01  0.13070164206E+00  0.19414067364E-01 0.  0.
         14    1    1    2    0    0 -0.17161588118E-01  0.20306168765E-02  0.11405452773E-01  0.20705744725E-01  0.00000000000E+00 0.  1.
     999901    1    3    3    0    0  0.13357632966E+00  0.21596036504E-01 -0.62350545042E-01  0.89252261322E+00  0.88000000000E+00 0. -1.
        -11    1    4    4    0    0 -0.97592010546E-01 -0.16415243369E-01  0.34915246641E-01  0.10494282399E+00  0.51100000000E-03 0.  1.
         11    1    4    4    0    0 -0.18822730997E-01 -0.72114100117E-02  0.16029845627E-01  0.25758818070E-01  0.51100000000E-03 0. -1.
</event>
<event>
 8    1  0.1072332E+005  0.1043930E+01  0.7957747E-01            NaN
         13   -1    0    0    0    0  0.00000000000E+00  0.00000000000E+00  0.74505805969E-08  0.10566000000E+00  0.10566000000E+00 0. -1.
     999900   -1    0    0    0    0 -0.00000000000E+00 -0.00000000000E+00 -0.74505805969E-08  0.93827000000E+00  0.93827000000E+00 0.  1.
     999902    2    1    2    0    0  0.17091444071E-01  0.87764236554E-02  0.13103626498E-01  0.10206738589E+01  0.10204088779E+01 0.  0.
     999903    2    3    3    0    0 -0.35582661642E-01 -0.60791313392E-01 -0.10548188279E+00  0.12844252426E+00  0.20232272451E-01 0.  0.
         14    1    1    2    0    0 -0.17091444071E-01 -0.87764236554E-02 -0.13103626498E-01  0.23256141124E-01  0.00000000000E+00 0.  1.
     999901    1    3    3    0    0  0.52674105712E-01  0.69567737047E-01  0.11858550929E+00  0.89223133461E+00  0.88000000000E+00 0.  1.
        -11    1    4    4    0    0 -0.31793662587E-01 -0.37804464522E-01 -0.63799193763E-01  0.80688368209E-01  0.51100000000E-03 0.  1.
         11    1    4    4    0    0 -0.37889990549E-02 -0.22986848870E-01 -0.41682689028E-01  0.47754156054E-01  0.51100000000E-03 0. -1.
</event>
<event>
 8    1  0.1072332E+005  0.1043930E+01  0.7957747E-01            NaN
         13   -1    0    0    0    0  0.00000000000E+00  0.00000000000E+00  0.74505805969E-08  0.10566000000E+00  0.10566000000E+00 0. -1.
     999900   -1    0    0    0    0 -0.00000000000E+00 -0.00000000000E+00 -0.74505805969E-08  0.93827000000E+00  0.93827000000E+00 0.  1.
     999902    2    1    2    0    0  0.82781727413E-02  0.20194796272E-01  0.17345683415E-01  0.10160511429E+01  0.10156685947E+01 0.  0.
     999903    2    3    3    0    0  0.74103708195E-01  0.36808720121E-01 -0.93221077308E-01  0.12653777472E+00  0.21803617393E-01 0.  0.
         14    1    1    2    0    0 -0.82781727413E-02 -0.20194796272E-01 -0.17345683415E-01  0.27878857106E-01  0.00000000000E+00 0. -1.
     999901    1    3    3    0    0 -0.65825535454E-01 -0.16613923849E-01  0.11056676072E+00  0.88951336817E+00  0.88000000000E+00 0. -1.
        -11    1    4    4    0    0  0.27786647430E-01  0.18853152819E-01 -0.52406596687E-01  0.62243486760E-01  0.51100000000E-03 0. -1.
         11    1    4    4    0    0  0.46317060765E-01  0.17955567302E-01 -0.40814480620E-01  0.64294287960E-01  0.51100000000E-03 0.  1.
</event>
<event>
 8    1  0.1072332E+005  0.1043930E+01  0.7957747E-01            NaN
         13   -1    0    0    0    0  0.00000000000E+00  0.00000000000E+00  0.74505805969E-08  0.10566000000E+00  0.10566000000E+00 0. -1.
     999900   -1    0    0    0    0 -0.00000000000E+00 -0.00000000000E+00 -0.74505805969E-08  0.93827000000E+00  0.93827000000E+00 0.  1.
     999902    2    1    2    0    0 -0.97750397547E-02 -0.19450541585E-01 -0.84283457639E-02  0.10205866501E+01  0.10203196550E+01 0.  0.
     999903    2    3    3    0    0 -0.11260532927E+00 -0.34843051677E-01  0.56321592751E-01  0.13210279979E+00  0.19622167834E-01 0.  0.
         14    1    1    2    0    0  0.97750397547E-02  0.19450541585E-01  0.84283457639E-02  0.23343349855E-01  0.00000000000E+00 0. -1.
     999901    1    3    3    0    0  0.10283028952E+00  0.15392510093E-01 -0.64749938515E-01  0.88848385036E+00  0.88000000000E+00 0.  1.
        -11    1    4    4    0    0 -0.14422018000E-01 -0.11484285100E-01  0.65414869970E-02  0.19568739882E-01  0.51100000000E-03 0.  1.
         11    1    4    4    0    0 -0.98183311274E-01 -0.23358766577E-01  0.49780105754E-01  0.11253405990E+00  0.51100000000E-03 0. -1.
</event>
<event>
 8    1  0.1072332E+005  0.1043930E+01  0.7957747E-01            NaN
         13   -1    0    0    0    0  0.00000000000E+00  0.00000000000E+00  0.74505805969E-08  0.10566000000E+00  0.10566000000E+00 0. -1.
     999900   -1    0    0    0    0 -0.00000000000E+00 -0.00000000000E+00 -0.74505805969E-08  0.93827000000E+00  0.93827000000E+00 0.  1.
     999902    2    1    2    0    0  0.23756792267E-01  0.31873592112E-03  0.60760092427E-02  0.10194064468E+01  0.10191114263E+01 0.  0.
     999903    2    3    3    0    0  0.13053888119E+00  0.22874966741E-03 -0.12321268545E-01  0.13276058606E+00  0.20811240300E-01 0.  0.
         14    1    1    2    0    0 -0.23756792267E-01 -0.31873592112E-03 -0.60760092427E-02  0.24523553163E-01  0.00000000000E+00 0.  1.
     999901    1    3    3    0    0 -0.10678208892E+00  0.89986253711E-04  0.18397277787E-01  0.88664586078E+00  0.88000000000E+00 0. -1.
        -11    1    4    4    0    0  0.21747214162E-01  0.77825377506E-02 -0.32180684952E-02  0.23326515031E-01  0.51100000000E-03 0.  1.
         11    1    4    4    0    0  0.10879166703E+00 -0.75537880832E-02 -0.91032000495E-02  0.10943407102E+00  0.51100000000E-03 0. -1.
</event>
<event>
 8    1  0.1072332E+005  0.1043930E+01  0.7957747E-01            NaN
         13   -1    0    0    0    0  0.00000000000E+00  0.00000000000E+00  0.74505805969E-08  0.10566000000E+00  0.10566000000E+00 0. -1.
     999900   -1    0    0    0    0 -0.00000000000E+00 -0.00000000000E+00 -0.74505805969E-08  0.93827000000E+00  0.93827000000E+00 0. -1.
     999902    2    1    2    0    0 -0.13981021222E-01  0.18516414167E-01 -0.27063108785E-02  0.10205708334E+01  0.10203034721E+01 0.  0.
     999903    2    3    3    0    0 -0.13087994689E+00  0.61912300619E-03 -0.80841344750E-02  0.13264370073E+00  0.19976343548E-01 0.  0.
         14    1    1    2    0    0  0.13981021222E-01 -0.18516414167E-01  0.27063108785E-02  0.23359166650E-01  0.00000000000E+00 0.  1.
     999901    1    3    3    0    0  0.11689892567E+00  0.17897291161E-01  0.53778235965E-02  0.88792713262E+00  0.88000000000E+00 0.  1.
        -11    1    4    4    0    0 -0.32043096681E-01 -0.43290648099E-02  0.53374218142E-02  0.32775753838E-01  0.51100000000E-03 0.  1.
         11    1    4    4    0    0 -0.98836850212E-01  0.49481878161E-02 -0.13421556289E-01  0.99867946893E-01  0.51100000000E-03 0. -1.
</event>
<event>
 8    1  0.1072332E+005  0.1043930E+01  0.7957747E-01            NaN
         13   -1    0    0    0    0  0.00000000000E+00  0.00000000000E+00  0.74505805969E-08  0.10566000000E+00  0.10566000000E+00 0.  1.
     999900   -1    0    0    0    0 -0.00000000000E+00 -0.00000000000E+00 -0.74505805969E-08  0.93827000000E+00  0.93827000000E+00 0. -1.
     999902    2    1    2    0    0  0.18898990038E-01 -0.12640693278E-01  0.65154350429E-02  0.10202781535E+01  0.10200039709E+01 0.  0.
     999903    2    3    3    0    0 -0.61140473341E-01  0.33793816215E-01  0.10731427488E+00  0.12970368410E+00  0.20652181005E-01 0.  0.
         14    1    1    2    0    0 -0.18898990038E-01  0.12640693278E-01 -0.65154350429E-02  0.23651846541E-01  0.00000000000E+00 0.  1.
     999901    1    3    3    0    0  0.80039463379E-01 -0.46434509493E-01 -0.10079883984E+00  0.89057446936E+00  0.88000000000E+00 0. -1.
        -11    1    4    4    0    0 -0.36148585044E-01  0.22265257075E-01  0.81837388522E-01  0.92195884694E-01  0.51100000000E-03 0.  1.
         11    1    4    4    0    0 -0.24991888297E-01  0.11528559140E-01  0.25476886357E-01  0.37507799402E-01  0.51100000000E-03 0. -1.
</event>
<event>
 8    1  0.1072332E+005  0.1043930E+01  0.7957747E-01            NaN
         13   -1    0    0    0    0  0.00000000000E+00  0.00000000000E+00  0.74505805969E-08  0.10566000000E+00  0.10566000000E+00 0. -1.
     999900   -1    0    0    0    0 -0.00000000000E+00 -0.00000000000E+00 -0.74505805969E-08  0.93827000000E+00  0.93827000000E+00 0.  1.
     999902    2    1    2    0    0  0.21999281996E-01 -0.79554674147E-02  0.19935486159E-02  0.10204516673E+01  0.10201815393E+01 0.  0.
     999903    2    3    3    0    0  0.73839412901E-01  0.10675925402E+00  0.85500577550E-02  0.13146918474E+00  0.19006468197E-01 0.  0.
         14    1    1    2    0    0 -0.21999281996E-01  0.79554674147E-02 -0.19935486159E-02  0.23478332697E-01  0.00000000000E+00 0. -1.
     999901    1    3    3    0    0 -0.51840130905E-01 -0.11471472143E+00 -0.65565091391E-02  0.88898248256E+00  0.88000000000E+00 0.  1.
        -11    1    4    4    0    0  0.60760995070E-01  0.95994662383E-01  0.30428237630E-02  0.11365031291E+00  0.51100000000E-03 0. -1.
         11    1    4    4    0    0  0.13078417831E-01  0.10764591636E-01  0.55072339920E-02  0.17818871830E-01  0.51100000000E-03 0.  1.
</event>
<event>
 8    1  0.1072332E+005  0.1043930E+01  0.7957747E-01            NaN
         13   -1    0    0    0    0  0.00000000000E+00  0.00000000000E+00  0.74505805969E-08  0.10566000000E+00  0.10566000000E+00 0. -1.
     999900   -1    0    0    0    0 -0.00000000000E+00 -0.00000000000E+00 -0.74505805969E-08  0.93827000000E+00  0.93827000000E+00 0.  1.
     999902    2    1    2    0    0  0.51401276519E-02 -0.22794574394E-01  0.42967527747E-02  0.10201713044E+01  0.10198946096E+01 0.  0.
     999903    2    3    3    0    0 -0.11895505702E+00  0.43107143528E-01 -0.12160624529E-01  0.12887253484E+00  0.21253659305E-01 0.  0.
         14    1    1    2    0    0 -0.51401276519E-02  0.22794574394E-01 -0.42967527747E-02  0.23758695640E-01  0.00000000000E+00 0. -1.
     999901    1    3    3    0    0  0.12409518467E+00 -0.65901717922E-01  0.16457377304E-01  0.89129876952E+00  0.88000000000E+00 0. -1.
        -11    1    4    4    0    0 -0.50038239353E-01  0.25236482760E-01 -0.13557635844E-01  0.57660871224E-01  0.51100000000E-03 0.  1.
         11    1    4    4    0    0 -0.68916817664E-01  0.17870660769E-01  0.13970113147E-02  0.71211663615E-01  0.51100000000E-03 0. -1.
</event>
<event>
 8    1  0.1072332E+005  0.1043930E+01  0.7957747E-01            NaN
         13   -1    0    0    0    0  0.00000000000E+00  0.00000000000E+00  0.74505805969E-08  0.10566000000E+00  0.10566000000E+00 0.  1.
     999900   -1    0    0    0    0 -0.00000000000E+00 -0.00000000000E+00 -0.74505805969E-08  0.93827000000E+00  0.93827000000E+00 0. -1.
     999902    2    1    2    0    0 -0.33003753263E-02 -0.53012045820E-02  0.10038112137E-01  0.10321080314E+01  0.10320403236E+01 0.  0.
     999903    2    3    3    0    0 -0.75877532103E-01  0.11656294184E+00  0.69360051448E-02  0.14074506548E+00  0.20414357696E-01 0.  0.
         14    1    1    2    0    0  0.33003753263E-02  0.53012045820E-02 -0.10038112137E-01  0.11821968643E-01  0.00000000000E+00 0. -1.
     999901    1    3    3    0    0  0.72577156777E-01 -0.12186414643E+00  0.31021069920E-02  0.89136296588E+00  0.88000000000E+00 0.  1.
        -11    1    4    4    0    0 -0.63960470817E-01  0.91148779567E-01  0.12735766332E-01  0.11207810986E+00  0.51100000000E-03 0. -1.
         11    1    4    4    0    0 -0.11917061286E-01  0.25414162277E-01 -0.57997611873E-02  0.28666955624E-01  0.51100000000E-03 0.  1.
</event>
<event>
 8    1  0.1072332E+005  0.1043930E+01  0.7957747E-01            NaN
         13   -1    0    0    0    0  0.00000000000E+00  0.00000000000E+00  0.74505805969E-08  0.10566000000E+00  0.10566000000E+00 0. -1.
     999900   -1    0    0    0    0 -0.00000000000E+00 -0.00000000000E+00 -0.74505805969E-08  0.93827000000E+00  0.93827000000E+00 0. -1.
     999902    2    1    2    0    0  0.62295488371E-02  0.23978312603E-01 -0.46479820576E-02  0.10187234435E+01  0.10184115493E+01 0.  0.
     999903    2    3    3    0    0  0.56930965939E-01 -0.76258047155E-01  0.83035116794E-01  0.12726043958E+00  0.15619354090E-01 0.  0.
         14    1    1    2    0    0 -0.62295488371E-02 -0.23978312603E-01  0.46479820576E-02  0.25206556512E-01  0.00000000000E+00 0.  1.
     999901    1    3    3    0    0 -0.50701417102E-01  0.10023635976E+00 -0.87683098852E-01  0.89146300391E+00  0.88000000000E+00 0.  1.
        -11    1    4    4    0    0  0.23689564972E-01 -0.42191623634E-01  0.35727267141E-01  0.60150040165E-01  0.51100000000E-03 0. -1.
         11    1    4    4    0    0  0.33241400966E-01 -0.34066423521E-01  0.47307849653E-01  0.67110399414E-01  0.51100000000E-03 0.  1.
</event>
<event>
 8    1  0.1072332E+005  0.1043930E+01  0.7957747E-01            NaN
         13   -1    0    0    0    0  0.00000000000E+00  0.00000000000E+00  0.74505805969E-08  0.10566000000E+00  0.10566000000E+00 0.  1.
     999900   -1    0    0    0    0 -0.00000000000E+00 -0.00000000000E+00 -0.74505805969E-08  0.93827000000E+00  0.93827000000E+00 0.  1.
     999902    2    1    2    0    0  0.40646325166E-02  0.19627210663E-01 -0.12237222137E-01  0.10204460003E+01  0.10201757404E+01 0.  0.
     999903    2    3    3    0    0 -0.11708326944E+00  0.27911396972E-01  0.45616976967E-01  0.13022549378E+00  0.19754305312E-01 0.  0.
         14    1    1    2    0    0 -0.40646325166E-02 -0.19627210663E-01  0.12237222137E-01  0.23483999692E-01  0.00000000000E+00 0.  1.
     999901    1    3    3    0    0  0.12114790196E+00 -0.82841863096E-02 -0.57854199104E-01  0.89022050653E+00  0.88000000000E+00 0.  1.
        -11    1    4    4    0    0 -0.34209613501E-01  0.39137463772E-02  0.21657779107E-01  0.40680899492E-01  0.51100000000E-03 0.  1.
         11    1    4    4    0    0 -0.82873655940E-01  0.23997650595E-01  0.23959197860E-01  0.89544594287E-01  0.51100000000E-03 0. -1.
</event>
<event>
 8    1  0.1072332E+005  0.1043930E+01  0.7957747E-01            NaN
         13   -1    0    0    0    0  0.00000000000E+00  0.00000000000E+00  0.74505805969E-08  0.10566000000E+00  0.10566000000E+00 0.  1.
     999900   -1    0    0    0    0 -0.00000000000E+00 -0.00000000000E+00 -0.74505805969E-08  0.93827000000E+00  0.93827000000E+00 0. -1.
     999902    2    1    2    0    0  0.36693589929E-02 -0.20210719421E-01  0.12410532104E-01  0.10199308608E+01  0.10196484699E+01 0.  0.
     999903    2    3    3    0    0 -0.12293069458E+00  0.29872662990E-01 -0.16891422272E-01  0.12897939002E+00  0.18601914998E-01 0.  0.
         14    1    1    2    0    0 -0.36693589929E-02  0.20210719421E-01 -0.12410532104E-01  0.23999139194E-01  0.00000000000E+00 0. -1.
     999901    1    3    3    0    0  0.12660005357E+00 -0.50083382412E-01  0.29301954376E-01  0.89095147078E+00  0.88000000000E+00 0.  1.
        -11    1    4    4    0    0 -0.59918472176E-01  0.18779175201E-01 -0.16772938257E-01  0.64995948396E-01  0.51100000000E-03 0.  1.
         11    1    4    4    0    0 -0.63012222400E-01  0.11093487790E-01 -0.11848401466E-03  0.63983441628E-01  0.51100000000E-03 0. -1.
</event>
<event>
 8    1  0.1072332E+005  0.1043930E+01  0.7957747E-01            NaN
         13   -1    0    0    0    0  0.00000000000E+00  0.00000000000E+00  0.74505805969E-08  0.10566000000E+00  0.10566000000E+00 0. -1.
     999900   -1    0    0    0    0 -0.00000000000E+00 -0.00000000000E+00 -0.74505805969E-08  0.93827000000E+00  0.93827000000E+00 0. -1.
     999902    2    1    2    0    0  0.15147897590E-01 -0.16579377616E-01 -0.75989051654E-02  0.10202218174E+01  0.10199463117E+01 0.  0.
     999903    2    3    3    0    0 -0.99622100575E-01  0.26018483244E-01  0.73680726154E-01  0.12803735848E+00  0.19057580304E-01 0.  0.
         14    1    1    2    0    0 -0.15147897590E-01  0.16579377616E-01  0.75989051654E-02  0.23708182622E-01  0.00000000000E+00 0. -1.
     999901    1    3    3    0    0  0.11476999816E+00 -0.42597860860E-01 -0.81279631320E-01  0.89218445890E+00  0.88000000000E+00 0. -1.
        -11    1    4    4    0    0 -0.64669061639E-01  0.23777074440E-01  0.56051597457E-01  0.88822742024E-01  0.51100000000E-03 0.  1.
         11    1    4    4    0    0 -0.34953038936E-01  0.22414088038E-02  0.17629128697E-01  0.39214616457E-01  0.51100000000E-03 0. -1.
</event>
<event>
 8    1  0.1072332E+005  0.1043930E+01  0.7957747E-01            NaN
         13   -1    0    0    0    0  0.00000000000E+00  0.00000000000E+00  0.74505805969E-08  0.10566000000E+00  0.10566000000E+00 0. -1.
     999900   -1    0    0    0    0 -0.00000000000E+00 -0.00000000000E+00 -0.74505805969E-08  0.93827000000E+00  0.93827000000E+00 0. -1.
     999902    2    1    2    0    0  0.71664212979E-02  0.17382614153E-01 -0.14415770415E-01  0.10202376530E+01  0.10199625196E+01 0.  0.
     999903    2    3    3    0    0 -0.97889820070E-01  0.72726105771E-01 -0.45493461385E-01  0.13171892007E+00  0.20216714423E-01 0.  0.
         14    1    1    2    0    0 -0.71664212979E-02 -0.17382614153E-01  0.14415770415E-01  0.23692346986E-01  0.00000000000E+00 0.  1.
     999901    1    3    3    0    0  0.10505624137E+00 -0.55343491618E-01  0.31077690970E-01  0.88851873294E+00  0.88000000000E+00 0.  1.
        -11    1    4    4    0    0 -0.46803509873E-01  0.22449472602E-01 -0.17853057968E-01  0.54895720747E-01  0.51100000000E-03 0. -1.
         11    1    4    4    0    0 -0.51086310197E-01  0.50276633169E-01 -0.27640403417E-01  0.76823199324E-01  0.51100000000E-03 0.  1.
</event>
<event>
 7    1  0.1072332E+005  0.1043930E+01  0.7957747E-01            NaN
         13   -1    0    0    0    0  0.00000000000E+00  0.00000000000E+00  0.74505805969E-08  0.10566000000E+00  0.10566000000E+00 0.  1.
     999900   -1    0    0    0    0 -0.00000000000E+00 -0.00000000000E+00 -0.74505805969E-08  0.93827000000E+00  0.93827000000E+00 0. -1.
     999903    2    1    2    0    0 -0.12763818403E-01 -0.45366816415E-01 -0.54465084694E-02  0.48280072595E-01  0.89575590120E-02 0.  0.
         14    1    1    2    0    0 -0.68358828588E-01  0.86516121106E-01  0.12194589676E-01  0.11093546175E+00  0.00000000000E+00 0. -1.
     999901    1    1    2    0    0  0.81122646992E-01 -0.41149304692E-01 -0.67480812063E-02  0.88471446565E+00  0.88000000000E+00 0. -1.
        -11    1    3    3    0    0 -0.73975295865E-02 -0.30325080337E-01  0.52304736168E-03  0.31222886493E-01  0.51100000000E-03 0. -1.
         11    1    3    3    0    0 -0.53662888169E-02 -0.15041736078E-01 -0.59695558311E-02  0.17057186102E-01  0.51100000000E-03 0.  1.
</event>
<event>
 8    1  0.1072332E+005  0.1043930E+01  0.7957747E-01            NaN
         13   -1    0    0    0    0  0.00000000000E+00  0.00000000000E+00  0.74505805969E-08  0.10566000000E+00  0.10566000000E+00 0. -1.
     999900   -1    0    0    0    0 -0.00000000000E+00 -0.00000000000E+00 -0.74505805969E-08  0.93827000000E+00  0.93827000000E+00 0. -1.
     999902    2    1    2    0    0  0.78022734238E-02  0.84348333165E-02  0.23330017765E-01  0.10179240081E+01  0.10175917525E+01 0.  0.
     999903    2    3    3    0    0 -0.81704171552E-01  0.30798518258E-01  0.94354999465E-01  0.13025510246E+00  0.20961999324E-01 0.  0.
         14    1    1    2    0    0 -0.78022734238E-02 -0.84348333165E-02 -0.23330017765E-01  0.26005991859E-01  0.00000000000E+00 0. -1.
     999901    1    3    3    0    0  0.89506444976E-01 -0.22363684941E-01 -0.71024981701E-01  0.88766890569E+00  0.88000000000E+00 0.  1.
        -11    1    4    4    0    0 -0.20690173056E-01  0.17189050306E-01  0.34026317379E-01  0.43377391656E-01  0.51100000000E-03 0. -1.
         11    1    4    4    0    0 -0.61013998496E-01  0.13609467952E-01  0.60328682087E-01  0.86877710799E-01  0.51100000000E-03 0.  1.
</event>
<event>
 8    1  0.1072332E+005  0.1043930E+01  0.7957747E-01            NaN
         13   -1    0    0    0    0  0.00000000000E+00  0.00000000000E+00  0.74505805969E-08  0.10566000000E+00  0.10566000000E+00 0.  1.
     999900   -1    0    0    0    0 -0.00000000000E+00 -0.00000000000E+00 -0.74505805969E-08  0.93827000000E+00  0.93827000000E+00 0. -1.
     999902    2    1    2    0    0  0.30359151074E-03  0.82190079728E-02  0.19180729952E-01  0.10230602932E+01  0.10228474074E+01 0.  0.
     999903    2    3    3    0    0 -0.12178072926E+00  0.32130590463E-01  0.39458787048E-01  0.13407910964E+00  0.23607009623E-01 0.  0.
         14    1    1    2    0    0 -0.30359151074E-03 -0.82190079728E-02 -0.19180729952E-01  0.20869706786E-01  0.00000000000E+00 0. -1.
     999901    1    3    3    0    0  0.12208432077E+00 -0.23911582490E-01 -0.20278057097E-01  0.88898118358E+00  0.88000000000E+00 0.  1.
        -11    1    4    4    0    0 -0.75772265531E-01  0.31646814100E-01  0.26108254544E-01  0.86167622357E-01  0.51100000000E-03 0.  1.
         11    1    4    4    0    0 -0.46008463728E-01  0.48377636261E-03  0.13350532505E-01  0.47911487279E-01  0.51100000000E-03 0. -1.
</event>
<event>
 8    1  0.1072332E+005  0.1043930E+01  0.7957747E-01            NaN
         13   -1    0    0    0    0  0.00000000000E+00  0.00000000000E+00  0.74505805969E-08  0.10566000000E+00  0.10566000000E+00 0. -1.
     999900   -1    0    0    0    0 -0.00000000000E+00 -0.00000000000E+00 -0.74505805969E-08  0.93827000000E+00  0.93827000000E+00 0. -1.
     999902    2    1    2    0    0 -0.19608360203E-02 -0.17961986335E-01 -0.16385921940E-01  0.10195378646E+01  0.10192460356E+01 0.  0.
     999903    2    3    3    0    0  0.10539612678E+00  0.67050505295E-01  0.21434126276E-01  0.12814401381E+00  0.18903774937E-01 0.  0.
         14    1    1    2    0    0  0.19608360203E-02  0.17961986335E-01  0.16385921940E-01  0.24392135389E-01  0.00000000000E+00 0. -1.
     999901    1    3    3    0    0 -0.10735696280E+00 -0.85012491630E-01 -0.37820048216E-01  0.89139385080E+00  0.88000000000E+00 0. -1.
        -11    1    4    4    0    0  0.52273514490E-01  0.36510700553E-01  0.20082379330E-01  0.66851437176E-01  0.51100000000E-03 0.  1.
         11    1    4    4    0    0  0.53122612288E-01  0.30539804742E-01  0.13517469461E-02  0.61292576637E-01  0.51100000000E-03 0. -1.
</event>
<event>
 8    1  0.1072332E+005  0.1043930E+01  0.7957747E-01            NaN
         13   -1    0    0    0    0  0.00000000000E+00  0.00000000000E+00  0.74505805969E-08  0.10566000000E+00  0.10566000000E+00 0.  1.
     999900   -1    0    0    0    0 -0.00000000000E+00 -0.00000000000E+00 -0.74505805969E-08  0.93827000000E+00  0.93827000000E+00 0.  1.
     999902    2    1    2    0    0  0.13670291363E-02  0.15230871809E-01  0.14879196740E-01  0.10225936760E+01  0.10223710616E+01 0.  0.
     999903    2    3    3    0    0 -0.10425963890E+00  0.67081408661E-01  0.47606137427E-01  0.13415880289E+00  0.19032928836E-01 0.  0.
         14    1    1    2    0    0 -0.13670291363E-02 -0.15230871809E-01 -0.14879196740E-01  0.21336323965E-01  0.00000000000E+00 0.  1.
     999901    1    3    3    0    0  0.10562666804E+00 -0.51850536852E-01 -0.32726940687E-01  0.88843487314E+00  0.88000000000E+00 0.  1.
        -11    1    4    4    0    0 -0.59707922283E-01  0.35990578921E-01  0.16842971469E-01  0.71723807507E-01  0.51100000000E-03 0. -1.
         11    1    4    4    0    0 -0.44551716620E-01  0.31090829740E-01  0.30763165958E-01  0.62434995383E-01  0.51100000000E-03 0.  1.
</event>
<event>
 8    1  0.1072332E+005  0.1043930E+01  0.7957747E-01            NaN
         13   -1    0    0    0    0  0.00000000000E+00  0.00000000000E+00  0.74505805969E-08  0.10566000000E+00  0.10566000000E+00 0. -1.
     999900   -1    0    0    0    0 -0.00000000000E+00 -0.00000000000E+00 -0.74505805969E-08  0.93827000000E+00  0.93827000000E+00 0.  1.
     999902    2    1    2    0    0  0.19288320646E-01 -0.12396576133E-01 -0.49898644273E-02  0.10204648522E+01  0.10201950311E+01 0.  0.
     999903    2    3    3    0    0 -0.14115331857E-01 -0.72099534377E-01  0.10612250147E+00  0.13084346923E+00  0.21457927956E-01 0.  0.
         14    1    1    2    0    0 -0.19288320646E-01  0.12396576133E-01  0.49898644273E-02  0.23465147776E-01  0.00000000000E+00 0. -1.
     999901    1    3    3    0    0  0.33403652503E-01  0.59702958244E-01 -0.11111236589E+00  0.88962138299E+00  0.88000000000E+00 0.  1.
        -11    1    4    4    0    0  0.43736121918E-02 -0.26235269545E-01  0.44316615540E-01  0.51687923015E-01  0.51100000000E-03 0. -1.
         11    1    4    4    0    0 -0.18488944049E-01 -0.45864264832E-01  0.61805885926E-01  0.79155546216E-01  0.51100000000E-03 0.  1.
</event>
<event>
 8    1  0.1072332E+005  0.1043930E+01  0.7957747E-01            NaN
         13   -1    0    0    0    0  0.00000000000E+00  0.00000000000E+00  0.74505805969E-08  0.10566000000E+00  0.10566000000E+00 0. -1.
     999900   -1    0    0    0    0 -0.00000000000E+00 -0.00000000000E+00 -0.74505805969E-08  0.93827000000E+00  0.93827000000E+00 0. -1.
     999902    2    1    2    0    0  0.19783553794E-01  0.11964499550E-01  0.31544121377E-02  0.10205957212E+01  0.10203289360E+01 0.  0.
     999903    2    3    3    0    0  0.30780600578E-01  0.89160031934E-01 -0.90268966690E-01  0.13222191872E+00  0.20909155327E-01 0.  0.
         14    1    1    2    0    0 -0.19783553794E-01 -0.11964499550E-01 -0.31544121377E-02  0.23334278778E-01  0.00000000000E+00 0. -1.
     999901    1    3    3    0    0 -0.10997046784E-01 -0.77195532385E-01  0.93423378827E-01  0.88837380250E+00  0.88000000000E+00 0.  1.
        -11    1    4    4    0    0  0.20023378393E-01  0.49711521198E-01 -0.37264614057E-01  0.65276976062E-01  0.51100000000E-03 0.  1.
         11    1    4    4    0    0  0.10757222185E-01  0.39448510737E-01 -0.53004352633E-01  0.66944942658E-01  0.51100000000E-03 0. -1.
</event>
<event>
 8    1  0.1072332E+005  0.1043930E+01  0.7957747E-01            NaN
         13   -1    0    0    0    0  0.00000000000E+00  0.00000000000E+00  0.74505805969E-08  0.10566000000E+00  0.10566000000E+00 0.  1.
     999900   -1    0    0    0    0 -0.00000000000E+00 -0.00000000000E+00 -0.74505805969E-08  0.93827000000E+00  0.93827000000E+00 0.  1.
     999902    2    1    2    0    0  0.50489424955E-02  0.22453954932E-01  0.42892028425E-02  0.10205191228E+01  0.10202505627E+01 0.  0.
     999903    2    3    3    0    0  0.82948781759E-01  0.10083130636E+00  0.19243996162E-01  0.13348189692E+00  0.19990814875E-01 0.  0.
         14    1    1    2    0    0 -0.50489424955E-02 -0.22453954932E-01 -0.42892028425E-02  0.23410877246E-01  0.00000000000E+00 0. -1.
     999901    1    3    3    0    0 -0.77899839263E-01 -0.78377351428E-01 -0.14954793319E-01  0.88703722584E+00  0.88000000000E+00 0. -1.
        -11    1    4    4    0    0  0.59608219545E-01  0.69987038230E-01  0.22548930640E-01  0.94657491787E-01  0.51100000000E-03 0. -1.
         11    1    4    4    0    0  0.23340562214E-01  0.30844268130E-01 -0.33049344778E-02  0.38824405132E-01  0.51100000000E-03 0.  1.
</event>
<event>
 8    1  0.1072332E+005  0.1043930E+01  0.7957747E-01            NaN
         13   -1    0    0    0    0  0.00000000000E+00  0.00000000000E+00  0.74505805969E-08  0.10566000000E+00  0.10566000000E+00 0. -1.
     999900   -1    0    0    0    0 -0.00000000000E+00 -0.00000000000E+00 -0.74505805969E-08  0.93827000000E+00  0.93827000000E+00 0.  1.
     999902    2    1    2    0    0 -0.10424405417E-02 -0.23322210525E-01 -0.28903701147E-02  0.10204062583E+01  0.10201350722E+01 0.  0.
     999903    2    3    3    0    0 -0.57249776019E-01  0.56084648235E-01 -0.10002674881E+00  0.12973224952E+00  0.20051969117E-01 0.  0.
         14    1    1    2    0    0  0.10424405417E-02  0.23322210525E-01  0.28903701147E-02  0.23523741740E-01  0.00000000000E+00 0. -1.
     999901    1    3    3    0    0  0.56207335477E-01 -0.79406858760E-01  0.97136378698E-01  0.89067400874E+00  0.88000000000E+00 0. -1.
        -11    1    4    4    0    0 -0.98768398446E-02  0.12342989101E-01 -0.33705378301E-01  0.37231908260E-01  0.51100000000E-03 0. -1.
         11    1    4    4    0    0 -0.47372936174E-01  0.43741659133E-01 -0.66321370511E-01  0.92500341259E-01  0.51100000000E-03 0.  1.
</event>
<event>
 8    1  0.1072332E+005  0.1043930E+01  0.7957747E-01            NaN
         13   -1    0    0    0    0  0.00000000000E+00  0.00000000000E+00  0.74505805969E-08  0.10566000000E+00  0.10566000000E+00 0. -1.
     999900   -1    0    0    0    0 -0.00000000000E+00 -0.00000000000E+00 -0.74505805969E-08  0.93827000000E+00  0.93827000000E+00 0. -1.
     999902    2    1    2    0    0 -0.20995669445E-01  0.80044110556E-02  0.68073117371E-02  0.10204517500E+01  0.10201816239E+01 0.  0.
     999903    2    3    3    0    0 -0.11558147047E+00  0.49078478616E-01 -0.39727550489E-01  0.13320936697E+00  0.19967067917E-01 0.  0.
         14    1    1    2    0    0  0.20995669445E-01 -0.80044110556E-02 -0.68073117371E-02  0.23478250039E-01  0.00000000000E+00 0.  1.
     999901    1    3    3    0    0  0.94585801020E-01 -0.41074067560E-01  0.46534862226E-01  0.88724238300E+00  0.88000000000E+00 0.  1.
        -11    1    4    4    0    0 -0.47932319437E-01  0.29329631206E-01 -0.23366610515E-01  0.60860447922E-01  0.51100000000E-03 0. -1.
         11    1    4    4    0    0 -0.67649151029E-01  0.19748847410E-01 -0.16360939974E-01  0.72348919044E-01  0.51100000000E-03 0.  1.
</event>
<event>
 8    1  0.1072332E+005  0.1043930E+01  0.7957747E-01            NaN
         13   -1    0    0    0    0  0.00000000000E+00  0.00000000000E+00  0.74505805969E-08  0.10566000000E+00  0.10566000000E+00 0.  1.
     999900   -1    0    0    0    0 -0.00000000000E+00 -0.00000000000E+00 -0.74505805969E-08  0.93827000000E+00  0.93827000000E+00 0. -1.
     999902    2    1    2    0    0 -0.86095490869E-02 -0.17863901059E-01  0.12596748658E-01  0.10204369931E+01  0.10201665234E+01 0.  0.
     999903    2    3    3    0    0  0.99064833254E-02  0.94746179611E-01  0.86264384346E-01  0.13001529847E+00  0.19683924042E-01 0.  0.
         14    1    1    2    0    0  0.86095490869E-02  0.17863901059E-01 -0.12596748658E-01  0.23493006902E-01  0.00000000000E+00 0. -1.
     999901    1    3    3    0    0 -0.18516032412E-01 -0.11261008067E+00 -0.73667635688E-01  0.89042169463E+00  0.88000000000E+00 0.  1.
        -11    1    4    4    0    0  0.28666042774E-02  0.68577667370E-01  0.50868173232E-01  0.85433869460E-01  0.51100000000E-03 0.  1.
         11    1    4    4    0    0  0.70398790480E-02  0.26168512242E-01  0.35396211114E-01  0.44581429005E-01  0.51100000000E-03 0. -1.
</event>
<event>
 8    1  0.1072332E+005  0.1043930E+01  0.7957747E-01            NaN
         13   -1    0    0    0    0  0.00000000000E+00  0.00000000000E+00  0.74505805969E-08  0.10566000000E+00  0.10566000000E+00 0.  1.
     999900   -1    0    0    0    0 -0.00000000000E+00 -0.00000000000E+00 -0.74505805969E-08  0.93827000000E+00  0.93827000000E+00 0.  1.
     999902    2    1    2    0    0 -0.76668395408E-02  0.16273166936E-01  0.15182624143E-01  0.10203904914E+01  0.10201189374E+01 0.  0.
     999903    2    3    3    0    0 -0.11481531681E+00 -0.52923546491E-01 -0.23201287153E-01  0.13036672428E+00  0.21765209098E-01 0.  0.
         14    1    1    2    0    0  0.76668395408E-02 -0.16273166936E-01 -0.15182624143E-01  0.23539508630E-01  0.00000000000E+00 0.  1.
     999901    1    3    3    0    0  0.10714847727E+00  0.69196713427E-01  0.38383911297E-01  0.89002376709E+00  0.88000000000E+00 0. -1.
        -11    1    4    4    0    0 -0.42483349243E-01 -0.14683271087E-01 -0.17868236612E-01  0.48373220002E-01  0.51100000000E-03 0.  1.
         11    1    4    4    0    0 -0.72331967570E-01 -0.38240275403E-01 -0.53330505415E-02  0.81993504282E-01  0.51100000000E-03 0. -1.
</event>
<event>
 8    1  0.1072332E+005  0.1043930E+01  0.7957747E-01            NaN
         13   -1    0    0    0    0  0.00000000000E+00  0.00000000000E+00  0.74505805969E-08  0.10566000000E+00  0.10566000000E+00 0. -1.
     999900   -1    0    0    0    0 -0.00000000000E+00 -0.00000000000E+00 -0.74505805969E-08  0.93827000000E+00  0.93827000000E+00 0. -1.
     999902    2    1    2    0    0 -0.19669784818E-01  0.10907607849E-01 -0.67509504889E-02  0.10204469918E+01  0.10201767549E+01 0.  0.
     999903    2    3    3    0    0  0.68539360019E-01  0.23606645490E-01 -0.10621237474E+00  0.13037132435E+00  0.21463831974E-01 0.  0.
         14    1    1    2    0    0  0.19669784818E-01 -0.10907607849E-01  0.67509504889E-02  0.23483008246E-01  0.00000000000E+00 0.  1.
     999901    1    3    3    0    0 -0.88209144837E-01 -0.12699037641E-01  0.99461424247E-01  0.89007566740E+00  0.88000000000E+00 0.  1.
        -11    1    4    4    0    0  0.39941878700E-01  0.10461534894E-01 -0.77264386132E-01  0.87606186264E-01  0.51100000000E-03 0. -1.
         11    1    4    4    0    0  0.28597481319E-01  0.13145110596E-01 -0.28947988603E-01  0.42765138087E-01  0.51100000000E-03 0.  1.
</event>
<event>
 8    1  0.1076607E+005  0.1043930E+01  0.7957747E-01            NaN
         13   -1    0    0    0    0  0.00000000000E+00  0.00000000000E+00  0.74505805969E-08  0.10566000000E+00  0.10566000000E+00 0. -1.
     999900   -1    0    0    0    0 -0.00000000000E+00 -0.00000000000E+00 -0.74505805969E-08  0.93827000000E+00  0.93827000000E+00 0.  1.
     999902    2    1    2    0    0 -0.54269601553E-02 -0.12669274565E-01  0.14741181112E-01  0.10237491964E+01  0.10235502685E+01 0.  0.
     999903    2    3    3    0    0 -0.10979231084E+00 -0.17343209430E-01 -0.71107294992E-01  0.13342120460E+00  0.19744163744E-01 0.  0.
         14    1    1    2    0    0  0.54269601553E-02  0.12669274565E-01 -0.14741181112E-01  0.20180803629E-01  0.00000000000E+00 0.  1.
     999901    1    3    3    0    0  0.10436535068E+00  0.46739348649E-02  0.85848476104E-01  0.89032799178E+00  0.88000000000E+00 0.  1.
        -11    1    4    4    0    0 -0.68476779897E-01 -0.19747713207E-01 -0.40788554197E-01  0.82115825737E-01  0.51100000000E-03 0.  1.
         11    1    4    4    0    0 -0.41315530942E-01  0.24045037772E-02 -0.30318740795E-01  0.51305378858E-01  0.51100000000E-03 0. -1.
</event>
<event>
 8    1  0.1072332E+005  0.1043930E+01  0.7957747E-01            NaN
         13   -1    0    0    0    0  0.00000000000E+00  0.00000000000E+00  0.74505805969E-08  0.10566000000E+00  0.10566000000E+00 0. -1.
     999900   -1    0    0    0    0 -0.00000000000E+00 -0.00000000000E+00 -0.74505805969E-08  0.93827000000E+00  0.93827000000E+00 0.  1.
     999902    2    1    2    0    0 -0.12246128438E-01  0.20910605176E-02  0.18085030197E-01  0.10219889765E+01  0.10217534240E+01 0.  0.
     999903    2    3    3    0    0  0.44558316697E-01  0.11479843330E+00 -0.40706377210E-01  0.13104221800E+00  0.18733122480E-01 0.  0.
         14    1    1    2    0    0  0.12246128438E-01 -0.20910605176E-02 -0.18085030197E-01  0.21941023519E-01  0.00000000000E+00 0.  1.
     999901    1    3    3    0    0 -0.56804445135E-01 -0.11270737278E+00  0.58791407407E-01  0.89094675848E+00  0.88000000000E+00 0. -1.
        -11    1    4    4    0    0  0.34042437240E-01  0.65179037956E-01 -0.19603877599E-01  0.76103663906E-01  0.51100000000E-03 0. -1.
         11    1    4    4    0    0  0.10515879457E-01  0.49619395343E-01 -0.21102499611E-01  0.54938554092E-01  0.51100000000E-03 0.  1.
</event>
<event>
 8    1  0.1072332E+005  0.1043930E+01  0.7957747E-01            NaN
         13   -1    0    0    0    0  0.00000000000E+00  0.00000000000E+00  0.74505805969E-08  0.10566000000E+00  0.10566000000E+00 0. -1.
     999900   -1    0    0    0    0 -0.00000000000E+00 -0.00000000000E+00 -0.74505805969E-08  0.93827000000E+00  0.93827000000E+00 0.  1.
     999902    2    1    2    0    0 -0.42378801649E-02 -0.14965529211E-01 -0.16899889078E-01  0.10209619147E+01  0.10207035310E+01 0.  0.
     999903    2    3    3    0    0  0.84382015646E-01 -0.25714308223E-01 -0.96610285429E-01  0.13286126189E+00  0.23173636926E-01 0.  0.
         14    1    1    2    0    0  0.42378801649E-02  0.14965529211E-01  0.16899889078E-01  0.22968085330E-01  0.00000000000E+00 0. -1.
     999901    1    3    3    0    0 -0.88619895811E-01  0.10748779011E-01  0.79710396351E-01  0.88810065278E+00  0.88000000000E+00 0. -1.
        -11    1    4    4    0    0  0.28002768933E-01  0.20278547650E-02 -0.25076091379E-01  0.37647559585E-01  0.51100000000E-03 0. -1.
         11    1    4    4    0    0  0.56379246713E-01 -0.27742162988E-01 -0.71534194049E-01  0.95213702304E-01  0.51100000000E-03 0.  1.
</event>
<event>
 8    1  0.1072332E+005  0.1043930E+01  0.7957747E-01            NaN
         13   -1    0    0    0    0  0.00000000000E+00  0.00000000000E+00  0.74505805969E-08  0.10566000000E+00  0.10566000000E+00 0.  1.
     999900   -1    0    0    0    0 -0.00000000000E+00 -0.00000000000E+00 -0.74505805969E-08  0.93827000000E+00  0.93827000000E+00 0.  1.
     999902    2    1    2    0    0  0.67315391715E-02 -0.14574458337E-01 -0.17307684602E-01  0.10203231281E+01  0.10200499994E+01 0.  0.
     999903    2    3    3    0    0 -0.92213351040E-01  0.87515685644E-01 -0.29288044359E-02  0.12879677346E+00  0.20438532573E-01 0.  0.
         14    1    1    2    0    0 -0.67315391715E-02  0.14574458337E-01  0.17307684602E-01  0.23606871917E-01  0.00000000000E+00 0.  1.
     999901    1    3    3    0    0  0.98944890212E-01 -0.10209014398E+00 -0.14378880166E-01  0.89152635463E+00  0.88000000000E+00 0.  1.
        -11    1    4    4    0    0 -0.51402976140E-01  0.35288975026E-01  0.14538519096E-02  0.62369483891E-01  0.51100000000E-03 0.  1.
         11    1    4    4    0    0 -0.40810374900E-01  0.52226710618E-01 -0.43826563455E-02  0.66427289566E-01  0.51100000000E-03 0. -1.
</event>
<event>
 8    1  0.1072332E+005  0.1043930E+01  0.7957747E-01            NaN
         13   -1    0    0    0    0  0.00000000000E+00  0.00000000000E+00  0.74505805969E-08  0.10566000000E+00  0.10566000000E+00 0. -1.
     999900   -1    0    0    0    0 -0.00000000000E+00 -0.00000000000E+00 -0.74505805969E-08  0.93827000000E+00  0.93827000000E+00 0. -1.
     999902    2    1    2    0    0  0.17414977929E-01 -0.20780952670E-01  0.20046694046E-02  0.10167427208E+01  0.10163791675E+01 0.  0.
     999903    2    3    3    0    0 -0.49373648282E-01  0.11205860789E+00 -0.66360643386E-02  0.12422844545E+00  0.19843904908E-01 0.  0.
         14    1    1    2    0    0 -0.17414977929E-01  0.20780952670E-01 -0.20046694046E-02  0.27187279187E-01  0.00000000000E+00 0.  1.
     999901    1    3    3    0    0  0.66788626211E-01 -0.13283956056E+00  0.86407337432E-02  0.89251427536E+00  0.88000000000E+00 0. -1.
        -11    1    4    4    0    0 -0.93408894400E-02  0.37579294120E-01  0.43085411174E-02  0.38965115292E-01  0.51100000000E-03 0. -1.
         11    1    4    4    0    0 -0.40032758842E-01  0.74479313774E-01 -0.10944605456E-01  0.85263330162E-01  0.51100000000E-03 0.  1.
</event>
<event>
 8    1  0.1072332E+005  0.1043930E+01  0.7957747E-01            NaN
         13   -1    0    0    0    0  0.00000000000E+00  0.00000000000E+00  0.74505805969E-08  0.10566000000E+00  0.10566000000E+00 0.  1.
     999900   -1    0    0    0    0 -0.00000000000E+00 -0.00000000000E+00 -0.74505805969E-08  0.93827000000E+00  0.93827000000E+00 0.  1.
     999902    2    1    2    0    0 -0.46790663689E-02 -0.16907470213E-01 -0.11316493242E-01  0.10230537161E+01  0.10228406947E+01 0.  0.
     999903    2    3    3    0    0  0.10913744436E+00 -0.67829014252E-01 -0.32333301252E-01  0.13401552343E+00  0.20073893882E-01 0.  0.
         14    1    1    2    0    0  0.46790663689E-02  0.16907470213E-01  0.11316493242E-01  0.20876283922E-01  0.00000000000E+00 0.  1.
     999901    1    3    3    0    0 -0.11381651073E+00  0.50921544039E-01  0.21016808010E-01  0.88903819264E+00  0.88000000000E+00 0. -1.
        -11    1    4    4    0    0  0.82277496507E-01 -0.48894262858E-01 -0.15067072298E-01  0.96889179790E-01  0.51100000000E-03 0. -1.
         11    1    4    4    0    0  0.26859947853E-01 -0.18934751394E-01 -0.17266228954E-01  0.37126343643E-01  0.51100000000E-03 0.  1.
</event>
<event>
 8    1  0.1072332E+005  0.1043930E+01  0.7957747E-01            NaN
         13   -1    0    0    0    0  0.00000000000E+00  0.00000000000E+00  0.74505805969E-08  0.10566000000E+00  0.10566000000E+00 0. -1.
     999900   -1    0    0    0    0 -0.00000000000E+00 -0.00000000000E+00 -0.74505805969E-08  0.93827000000E+00  0.93827000000E+00 0. -1.
     999902    2    1    2    0    0 -0.50694758968E-02 -0.33818021639E-02 -0.25400186478E-01  0.10178090191E+01  0.10174737803E+01 0.  0.
     999903    2    3    3    0    0  0.65906612576E-01 -0.43131024630E-01  0.95646181365E-01  0.12580575170E+00  0.21792849401E-01 0.  0.
         14    1    1    2    0    0  0.50694758968E-02  0.33818021639E-02  0.25400186478E-01  0.26120980932E-01  0.00000000000E+00 0. -1.
     999901    1    3    3    0    0 -0.70976088473E-01  0.39749222467E-01 -0.12104636784E+00  0.89200326736E+00  0.88000000000E+00 0. -1.
        -11    1    4    4    0    0  0.23379947334E-02 -0.14944872672E-02  0.13940936374E-01  0.14223590952E-01  0.51100000000E-03 0. -1.
         11    1    4    4    0    0  0.63568617843E-01 -0.41636537363E-01  0.81705244990E-01  0.11158216075E+00  0.51100000000E-03 0.  1.
</event>
<event>
 8    1  0.1072332E+005  0.1043930E+01  0.7957747E-01            NaN
         13   -1    0    0    0    0  0.00000000000E+00  0.00000000000E+00  0.74505805969E-08  0.10566000000E+00  0.10566000000E+00 0.  1.
     999900   -1    0    0    0    0 -0.00000000000E+00 -0.00000000000E+00 -0.74505805969E-08  0.93827000000E+00  0.93827000000E+00 0. -1.
     999902    2    1    2    0    0 -0.63117068622E-02  0.12046880095E-01  0.18950215262E-01  0.10206045713E+01  0.10203379908E+01 0.  0.
     999903    2    3    3    0    0  0.11563806593E-01 -0.59374667104E-01  0.11596297373E+00  0.13221724214E+00  0.19362725159E-01 0.  0.
         14    1    1    2    0    0  0.63117068622E-02 -0.12046880095E-01 -0.18950215262E-01  0.23325428657E-01  0.00000000000E+00 0. -1.
     999901    1    3    3    0    0 -0.17875513455E-01  0.71421547199E-01 -0.97012758469E-01  0.88838732920E+00  0.88000000000E+00 0. -1.
        -11    1    4    4    0    0  0.15268927279E-01 -0.28603106809E-01  0.55802530530E-01  0.64540385759E-01  0.51100000000E-03 0.  1.
         11    1    4    4    0    0 -0.37051206859E-02 -0.30771560295E-01  0.60160443201E-01  0.67676856380E-01  0.51100000000E-03 0. -1.
</event>
<event>
 8    1  0.1072332E+005  0.1043930E+01  0.7957747E-01            NaN
         13   -1    0    0    0    0  0.00000000000E+00  0.00000000000E+00  0.74505805969E-08  0.10566000000E+00  0.10566000000E+00 0. -1.
     999900   -1    0    0    0    0 -0.00000000000E+00 -0.00000000000E+00 -0.74505805969E-08  0.93827000000E+00  0.93827000000E+00 0. -1.
     999902    2    1    2    0    0  0.21433518937E-01 -0.64065201490E-02  0.11623474616E-01  0.10187199941E+01  0.10184080135E+01 0.  0.
     999903    2    3    3    0    0  0.67311951317E-01 -0.94420947727E-01  0.59637174317E-01  0.13183968349E+00  0.19465236256E-01 0.  0.
         14    1    1    2    0    0 -0.21433518937E-01  0.64065201490E-02 -0.11623474616E-01  0.25210005883E-01  0.00000000000E+00 0.  1.
     999901    1    3    3    0    0 -0.45878432380E-01  0.88014427578E-01 -0.48013699701E-01  0.88688031063E+00  0.88000000000E+00 0.  1.
        -11    1    4    4    0    0  0.18969562552E-02 -0.50189552592E-02  0.79268035376E-02  0.95855980644E-02  0.51100000000E-03 0.  1.
         11    1    4    4    0    0  0.65414995062E-01 -0.89401992468E-01  0.51710370779E-01  0.12225408543E+00  0.51100000000E-03 0. -1.
</event>
<event>
 8    1  0.1072332E+005  0.1043930E+01  0.7957747E-01            NaN
         13   -1    0    0    0    0  0.00000000000E+00  0.00000000000E+00  0.74505805969E-08  0.10566000000E+00  0.10566000000E+00 0.  1.
     999900   -1    0    0    0    0 -0.00000000000E+00 -0.00000000000E+00 -0.74505805969E-08  0.93827000000E+00  0.93827000000E+00 0.  1.
     999902    2    1    2    0    0  0.28929588472E-02  0.22002948256E-01  0.78787345513E-02  0.10203806178E+01  0.10201088333E+01 0.  0.
     999903    2    3    3    0    0 -0.11254879544E+00  0.64500901933E-01  0.12723387480E-01  0.13181078637E+00  0.19611249549E-01 0.  0.
         14    1    1    2    0    0 -0.28929588472E-02 -0.22002948256E-01 -0.78787345513E-02  0.23549382178E-01  0.00000000000E+00 0. -1.
     999901    1    3    3    0    0  0.11544175429E+00 -0.42497953677E-01 -0.48446529284E-02  0.88856983145E+00  0.88000000000E+00 0.  1.
        -11    1    4    4    0    0 -0.34873808052E-01  0.13699106495E-01  0.10720796327E-01  0.38974922728E-01  0.51100000000E-03 0.  1.
         11    1    4    4    0    0 -0.77674987393E-01  0.50801795437E-01  0.20025911530E-02  0.92835863644E-01  0.51100000000E-03 0. -1.
</event>
<event>
 8    1  0.1072332E+005  0.1043930E+01  0.7957747E-01            NaN
         13   -1    0    0    0    0  0.00000000000E+00  0.00000000000E+00  0.74505805969E-08  0.10566000000E+00  0.10566000000E+00 0. -1.
     999900   -1    0    0    0    0 -0.00000000000E+00 -0.00000000000E+00 -0.74505805969E-08  0.93827000000E+00  0.93827000000E+00 0. -1.
     999902    2    1    2    0    0  0.48629510179E-02 -0.22833915795E-01  0.34988818776E-02  0.10203232599E+01  0.10200501343E+01 0.  0.
     999903    2    3    3    0    0  0.10028383897E+00 -0.58237672556E-01  0.60717085311E-01  0.13261131640E+00  0.21230212583E-01 0.  0.
         14    1    1    2    0    0 -0.48629510179E-02  0.22833915795E-01 -0.34988818776E-02  0.23606740087E-01  0.00000000000E+00 0. -1.
     999901    1    3    3    0    0 -0.95420887949E-01  0.35403756762E-01 -0.57218203434E-01  0.88771194351E+00  0.88000000000E+00 0. -1.
        -11    1    4    4    0    0  0.62762248535E-01 -0.30768513162E-01  0.26008259472E-01  0.74582115317E-01  0.51100000000E-03 0.  1.
         11    1    4    4    0    0  0.37521590432E-01 -0.27469159394E-01  0.34708825839E-01  0.58029201084E-01  0.51100000000E-03 0. -1.
</event>
<event>
 8    1  0.1072332E+005  0.1043930E+01  0.7957747E-01            NaN
         13   -1    0    0    0    0  0.00000000000E+00  0.00000000000E+00  0.74505805969E-08  0.10566000000E+00  0.10566000000E+00 0.  1.
     999900   -1    0    0    0    0 -0.00000000000E+00 -0.00000000000E+00 -0.74505805969E-08  0.93827000000E+00  0.93827000000E+00 0. -1.
     999902    2    1    2    0    0 -0.18433603998E-01  0.12827211622E-01  0.35651044876E-02  0.10211913746E+01  0.10209381854E+01 0.  0.
     999903    2    3    3    0    0  0.68956941899E-01 -0.56285617413E-01 -0.91664523716E-01  0.12906897677E+00  0.18256102897E-01 0.  0.
         14    1    1    2    0    0  0.18433603998E-01 -0.12827211622E-01 -0.35651044876E-02  0.22738625384E-01  0.00000000000E+00 0. -1.
     999901    1    3    3    0    0 -0.87390545897E-01  0.69112829035E-01  0.95229628203E-01  0.89212239785E+00  0.88000000000E+00 0.  1.
        -11    1    4    4    0    0  0.46781160607E-01 -0.47038462693E-01 -0.61134807811E-01  0.90215407815E-01  0.51100000000E-03 0.  1.
         11    1    4    4    0    0  0.22175781292E-01 -0.92471547204E-02 -0.30529715905E-01  0.38853568955E-01  0.51100000000E-03 0. -1.
</event>
<event>
 8    1  0.1072332E+005  0.1043930E+01  0.7957747E-01            NaN
         13   -1    0    0    0    0  0.00000000000E+00  0.00000000000E+00  0.74505805969E-08  0.10566000000E+00  0.10566000000E+00 0.  1.
     999900   -1    0    0    0    0 -0.00000000000E+00 -0.00000000000E+00 -0.74505805969E-08  0.93827000000E+00  0.93827000000E+00 0.  1.
     999902    2    1    2    0    0 -0.15897531971E-01 -0.16626258452E-01  0.87602208611E-03  0.10209097609E+01  0.10206501891E+01 0.  0.
     999903    2    3    3    0    0  0.48473164860E-01  0.46182077127E-01 -0.10904528441E+00  0.12952254581E+00  0.20069475903E-01 0.  0.
         14    1    1    2    0    0  0.15897531971E-01  0.16626258452E-01 -0.87602208611E-03  0.23020239086E-01  0.00000000000E+00 0. -1.
     999901    1    3    3    0    0 -0.64370696830E-01 -0.62808335579E-01  0.10992130649E+00  0.89138721510E+00  0.88000000000E+00 0. -1.
        -11    1    4    4    0    0  0.36448816034E-01  0.23901231056E-01 -0.79009169984E-01  0.90235775050E-01  0.51100000000E-03 0.  1.
         11    1    4    4    0    0  0.12024348825E-01  0.22280846070E-01 -0.30036114421E-01  0.39286770761E-01  0.51100000000E-03 0. -1.
</event>
<event>
 8    1  0.1072332E+005  0.1043930E+01  0.7957747E-01            NaN
         13   -1    0    0    0    0  0.00000000000E+00  0.00000000000E+00  0.74505805969E-08  0.10566000000E+00  0.10566000000E+00 0. -1.
     999900   -1    0    0    0    0 -0.00000000000E+00 -0.00000000000E+00 -0.74505805969E-08  0.93827000000E+00  0.93827000000E+00 0. -1.
     999902    2    1    2    0    0 -0.18507476194E-01  0.96321955065E-02 -0.62475262274E-02  0.10221507105E+01  0.10219186551E+01 0.  0.
     999903    2    3    3    0    0  0.54998346188E-01  0.18105026483E-01  0.11522811599E+00  0.13072980747E+00  0.21451195274E-01 0.  0.
         14    1    1    2    0    0  0.18507476194E-01 -0.96321955065E-02  0.62475262274E-02  0.21779289459E-01  0.00000000000E+00 0. -1.
     999901    1    3    3    0    0 -0.73505822382E-01 -0.84728309762E-02 -0.12147564221E+00  0.89142090308E+00  0.88000000000E+00 0. -1.
        -11    1    4    4    0    0  0.38462801691E-01  0.18242163031E-02  0.70003945317E-01  0.79896985926E-01  0.51100000000E-03 0.  1.
         11    1    4    4    0    0  0.16535544497E-01  0.16280810180E-01  0.45224170670E-01  0.50832821540E-01  0.51100000000E-03 0. -1.
</event>
<event>
 8    1  0.1072332E+005  0.1043930E+01  0.7957747E-01            NaN
         13   -1    0    0    0    0  0.00000000000E+00  0.00000000000E+00  0.74505805969E-08  0.10566000000E+00  0.10566000000E+00 0. -1.
     999900   -1    0    0    0    0 -0.00000000000E+00 -0.00000000000E+00 -0.74505805969E-08  0.93827000000E+00  0.93827000000E+00 0. -1.
     999902    2    1    2    0    0 -0.99669544617E-02  0.23057290273E-01  0.21217037977E-02  0.10187212626E+01  0.10184093138E+01 0.  0.
     999903    2    3    3    0    0 -0.92971484433E-01 -0.85887621609E-01 -0.33312287669E-02  0.12810996672E+00  0.19511176895E-01 0.  0.
         14    1    1    2    0    0  0.99669544617E-02 -0.23057290273E-01 -0.21217037977E-02  0.25208737433E-01  0.00000000000E+00 0.  1.
     999901    1    3    3    0    0  0.83004529972E-01  0.10894491188E+00  0.54529325646E-02  0.89061129585E+00  0.88000000000E+00 0. -1.
        -11    1    4    4    0    0 -0.58566406523E-01 -0.44568758759E-01 -0.85231414858E-02  0.74089832583E-01  0.51100000000E-03 0.  1.
         11    1    4    4    0    0 -0.34405077910E-01 -0.41318862850E-01  0.51919127190E-02  0.54020134135E-01  0.51100000000E-03 0. -1.
</event>
<event>
 8    1  0.1072332E+005  0.1043930E+01  0.7957747E-01            NaN
         13   -1    0    0    0    0  0.00000000000E+00  0.00000000000E+00  0.74505805969E-08  0.10566000000E+00  0.10566000000E+00 0.  1.
     999900   -1    0    0    0    0 -0.00000000000E+00 -0.00000000000E+00 -0.74505805969E-08  0.93827000000E+00  0.93827000000E+00 0.  1.
     999902    2    1    2    0    0  0.16083232888E-01  0.58305868134E-03  0.18518292321E-01  0.10193955856E+01  0.10191003005E+01 0.  0.
     999903    2    3    3    0    0 -0.85579679846E-01  0.72048197884E-01  0.63534508838E-01  0.12952532897E+00  0.15011749122E-01 0.  0.
         14    1    1    2    0    0 -0.16083232888E-01 -0.58305868134E-03 -0.18518292321E-01  0.24534414361E-01  0.00000000000E+00 0. -1.
     999901    1    3    3    0    0  0.10166291273E+00 -0.71465139203E-01 -0.45016216517E-01  0.88987025666E+00  0.88000000000E+00 0.  1.
        -11    1    4    4    0    0 -0.64807991120E-01  0.59556583692E-01  0.44073203598E-01  0.98436633275E-01  0.51100000000E-03 0. -1.
         11    1    4    4    0    0 -0.20771688726E-01  0.12491614192E-01  0.19461305240E-01  0.31088695700E-01  0.51100000000E-03 0.  1.
</event>
<event>
 8    1  0.1072332E+005  0.1043930E+01  0.7957747E-01            NaN
         13   -1    0    0    0    0  0.00000000000E+00  0.00000000000E+00  0.74505805969E-08  0.10566000000E+00  0.10566000000E+00 0. -1.
     999900   -1    0    0    0    0 -0.00000000000E+00 -0.00000000000E+00 -0.74505805969E-08  0.93827000000E+00  0.93827000000E+00 0.  1.
     999902    2    1    2    0    0 -0.17745729311E-01  0.58561932144E-02 -0.16983722209E-01  0.10186782134E+01  0.10183651848E+01 0.  0.
     999903    2    3    3    0    0 -0.10713975155E+00 -0.60578413385E-01  0.35845586701E-01  0.13008618998E+00  0.22109731044E-01 0.  0.
         14    1    1    2    0    0  0.17745729311E-01 -0.58561932144E-02  0.16983722209E-01  0.25251786627E-01  0.00000000000E+00 0. -1.
     999901    1    3    3    0    0  0.89394022236E-01  0.66434606600E-01 -0.52829308910E-01  0.88859202340E+00  0.88000000000E+00 0.  1.
        -11    1    4    4    0    0 -0.36809529746E-01 -0.20064869812E-01  0.23271874587E-01  0.47951869082E-01  0.51100000000E-03 0.  1.
         11    1    4    4    0    0 -0.70330221800E-01 -0.40513543574E-01  0.12573712114E-01  0.82134320894E-01  0.51100000000E-03 0. -1.
</event>
<event>
 8    1  0.1072332E+005  0.1043930E+01  0.7957747E-01            NaN
         13   -1    0    0    0    0  0.00000000000E+00  0.00000000000E+00  0.74505805969E-08  0.10566000000E+00  0.10566000000E+00 0. -1.
     999900   -1    0    0    0    0 -0.00000000000E+00 -0.00000000000E+00 -0.74505805969E-08  0.93827000000E+00  0.93827000000E+00 0. -1.
     999902    2    1    2    0    0  0.16096227315E-01 -0.13151716223E-01 -0.15270474427E-01  0.10181376840E+01  0.10178109353E+01 0.  0.
     999903    2    3    3    0    0  0.10543293349E+00  0.58994620086E-02 -0.75091539307E-01  0.13138938025E+00  0.21760580229E-01 0.  0.
         14    1    1    2    0    0 -0.16096227315E-01  0.13151716223E-01  0.15270474427E-01  0.25792315961E-01  0.00000000000E+00 0. -1.
     999901    1    3    3    0    0 -0.89336706174E-01 -0.19051178232E-01  0.59821064880E-01  0.88674830378E+00  0.88000000000E+00 0.  1.
        -11    1    4    4    0    0  0.33762117449E-01 -0.23521926800E-02 -0.35678718333E-01  0.49179725985E-01  0.51100000000E-03 0. -1.
         11    1    4    4    0    0  0.71670816040E-01  0.82516546886E-02 -0.39412820974E-01  0.82209654270E-01  0.51100000000E-03 0.  1.
</event>
<event>
 8    1  0.1072332E+005  0.1043930E+01  0.7957747E-01            NaN
         13   -1    0    0    0    0  0.00000000000E+00  0.00000000000E+00  0.74505805969E-08  0.10566000000E+00  0.10566000000E+00 0.  1.
     999900   -1    0    0    0    0 -0.00000000000E+00 -0.00000000000E+00 -0.74505805969E-08  0.93827000000E+00  0.93827000000E+00 0.  1.
     999902    2    1    2    0    0 -0.23313932378E-02 -0.19316613215E-01 -0.89514964355E-02  0.10225128053E+01  0.10222884822E+01 0.  0.
     999903    2    3    3    0    0 -0.74698753328E-01 -0.65717306366E-01  0.86505584051E-01  0.13318602995E+00  0.18884766280E-01 0.  0.
         14    1    1    2    0    0  0.23313932378E-02  0.19316613215E-01  0.89514964355E-02  0.21417194703E-01  0.00000000000E+00 0.  1.
     999901    1    3    3    0    0  0.72367360091E-01  0.46400693151E-01 -0.95457080486E-01  0.88932677535E+00  0.88000000000E+00 0.  1.
        -11    1    4    4    0    0 -0.37023811590E-01 -0.21490388990E-01  0.31231417259E-01  0.52993037171E-01  0.51100000000E-03 0.  1.
         11    1    4    4    0    0 -0.37674941739E-01 -0.44226917376E-01  0.55274166791E-01  0.80192992780E-01  0.51100000000E-03 0. -1.
</event>
<event>
 8    1  0.1072332E+005  0.1043930E+01  0.7957747E-01            NaN
         13   -1    0    0    0    0  0.00000000000E+00  0.00000000000E+00  0.74505805969E-08  0.10566000000E+00  0.10566000000E+00 0. -1.
     999900   -1    0    0    0    0 -0.00000000000E+00 -0.00000000000E+00 -0.74505805969E-08  0.93827000000E+00  0.93827000000E+00 0. -1.
     999902    2    1    2    0    0  0.12343375598E-01  0.81851622849E-03 -0.23209107111E-01  0.10176299707E+01  0.10172900597E+01 0.  0.
     999903    2    3    3    0    0  0.61293027938E-01 -0.11156443580E+00 -0.56503210030E-02  0.12896000530E+00  0.19882108309E-01 0.  0.
         14    1    1    2    0    0 -0.12343375598E-01 -0.81851622849E-03  0.23209107111E-01  0.26300029332E-01  0.00000000000E+00 0. -1.
     999901    1    3    3    0    0 -0.48949652341E-01  0.11238295203E+00 -0.17558786108E-01  0.88866996536E+00  0.88000000000E+00 0.  1.
        -11    1    4    4    0    0  0.15298005169E-01 -0.41240440181E-01  0.49318473525E-02  0.44264964789E-01  0.51100000000E-03 0. -1.
         11    1    4    4    0    0  0.45995022770E-01 -0.70323995621E-01 -0.10582168355E-01  0.84695040515E-01  0.51100000000E-03 0.  1.
</event>
<event>
 8    1  0.1072332E+005  0.1043930E+01  0.7957747E-01            NaN
         13   -1    0    0    0    0  0.00000000000E+00  0.00000000000E+00  0.74505805969E-08  0.10566000000E+00  0.10566000000E+00 0. -1.
     999900   -1    0    0    0    0 -0.00000000000E+00 -0.00000000000E+00 -0.74505805969E-08  0.93827000000E+00  0.93827000000E+00 0. -1.
     999902    2    1    2    0    0  0.12783850554E-01  0.55827198901E-02 -0.18598034409E-01  0.10206817639E+01  0.10204169651E+01 0.  0.
     999903    2    3    3    0    0  0.92368121724E-01  0.41024215709E-01 -0.85390924623E-01  0.13386101202E+00  0.20305278750E-01 0.  0.
         14    1    1    2    0    0 -0.12783850554E-01 -0.55827198901E-02  0.18598034409E-01  0.23248236067E-01  0.00000000000E+00 0. -1.
     999901    1    3    3    0    0 -0.79584271170E-01 -0.35441495819E-01  0.66792890213E-01  0.88682075191E+00  0.88000000000E+00 0.  1.
        -11    1    4    4    0    0  0.27194341300E-01  0.42679345923E-02 -0.16180259855E-01  0.31934454659E-01  0.51100000000E-03 0. -1.
         11    1    4    4    0    0  0.65173780425E-01  0.36756281117E-01 -0.69210664768E-01  0.10192655736E+00  0.51100000000E-03 0.  1.
</event>
<event>
 8    1  0.1072332E+005  0.1043930E+01  0.7957747E-01            NaN
         13   -1    0    0    0    0  0.00000000000E+00  0.00000000000E+00  0.74505805969E-08  0.10566000000E+00  0.10566000000E+00 0. -1.
     999900   -1    0    0    0    0 -0.00000000000E+00 -0.00000000000E+00 -0.74505805969E-08  0.93827000000E+00  0.93827000000E+00 0.  1.
     999902    2    1    2    0    0  0.20540275358E-01  0.96363130079E-02 -0.34840081151E-02  0.10209757030E+01  0.10207176330E+01 0.  0.
     999903    2    3    3    0    0  0.73299109422E-01  0.97636201352E-01 -0.52118179460E-01  0.13368051107E+00  0.15766646878E-01 0.  0.
         14    1    1    2    0    0 -0.20540275358E-01 -0.96363130079E-02  0.34840081151E-02  0.22954297043E-01  0.00000000000E+00 0.  1.
     999901    1    3    3    0    0 -0.52758834064E-01 -0.87999888344E-01  0.48634171345E-01  0.88729519189E+00  0.88000000000E+00 0. -1.
        -11    1    4    4    0    0  0.52201691915E-01  0.64575771856E-01 -0.27975808135E-01  0.87623934581E-01  0.51100000000E-03 0. -1.
         11    1    4    4    0    0  0.21097417508E-01  0.33060429495E-01 -0.24142371325E-01  0.46056576492E-01  0.51100000000E-03 0.  1.
</event>
<event>
 8    1  0.1072332E+005  0.1043930E+01  0.7957747E-01            NaN
         13   -1    0    0    0    0  0.00000000000E+00  0.00000000000E+00  0.74505805969E-08  0.10566000000E+00  0.10566000000E+00 0. -1.
     999900   -1    0    0    0    0 -0.00000000000E+00 -0.00000000000E+00 -0.74505805969E-08  0.93827000000E+00  0.93827000000E+00 0. -1.
     999902    2    1    2    0    0 -0.18897807570E-01  0.61052865697E-02 -0.10627763132E-01  0.10214055465E+01  0.10211571571E+01 0.  0.
     999903    2    3    3    0    0 -0.69436595764E-01  0.54767491827E-01  0.96012101018E-01  0.13219565007E+00  0.20891322672E-01 0.  0.
         14    1    1    2    0    0  0.18897807570E-01 -0.61052865697E-02  0.10627763132E-01  0.22524453473E-01  0.00000000000E+00 0. -1.
     999901    1    3    3    0    0  0.50538788194E-01 -0.48662205258E-01 -0.10663986415E+00  0.88920989646E+00  0.88000000000E+00 0. -1.
        -11    1    4    4    0    0 -0.26359464943E-01  0.15750876436E-01  0.47117003043E-01  0.56242195880E-01  0.51100000000E-03 0. -1.
         11    1    4    4    0    0 -0.43077130821E-01  0.39016615392E-01  0.48895097974E-01  0.75953454190E-01  0.51100000000E-03 0.  1.
</event>
<event>
 8    1  0.1072332E+005  0.1043930E+01  0.7957747E-01            NaN
         13   -1    0    0    0    0  0.00000000000E+00  0.00000000000E+00  0.74505805969E-08  0.10566000000E+00  0.10566000000E+00 0.  1.
     999900   -1    0    0    0    0 -0.00000000000E+00 -0.00000000000E+00 -0.74505805969E-08  0.93827000000E+00  0.93827000000E+00 0. -1.
     999902    2    1    2    0    0  0.11327361822E-01  0.17331369523E-01 -0.11123483697E-01  0.10204264389E+01  0.10201557233E+01 0.  0.
     999903    2    3    3    0    0  0.53916833809E-01  0.54310816732E-01 -0.10736940629E+00  0.13338381294E+00  0.20158431595E-01 0.  0.
         14    1    1    2    0    0 -0.11327361822E-01 -0.17331369523E-01  0.11123483697E-01  0.23503561112E-01  0.00000000000E+00 0.  1.
     999901    1    3    3    0    0 -0.42589471987E-01 -0.36979447209E-01  0.96245922592E-01  0.88704262595E+00  0.88000000000E+00 0.  1.
        -11    1    4    4    0    0  0.24823250747E-01  0.13810769052E-01 -0.48718701939E-01  0.56397731861E-01  0.51100000000E-03 0.  1.
         11    1    4    4    0    0  0.29093583062E-01  0.40500047680E-01 -0.58650704350E-01  0.76986081075E-01  0.51100000000E-03 0. -1.
</event>
<event>
 8    1  0.1072332E+005  0.1043930E+01  0.7957747E-01            NaN
         13   -1    0    0    0    0  0.00000000000E+00  0.00000000000E+00  0.74505805969E-08  0.10566000000E+00  0.10566000000E+00 0.  1.
     999900   -1    0    0    0    0 -0.00000000000E+00 -0.00000000000E+00 -0.74505805969E-08  0.93827000000E+00  0.93827000000E+00 0.  1.
     999902    2    1    2    0    0 -0.20389577144E-01 -0.84238181090E-02 -0.74582026742E-02  0.10206422274E+01  0.10203765167E+01 0.  0.
     999903    2    3    3    0    0 -0.83778785107E-01 -0.60316379720E-01  0.80356580457E-01  0.13248544740E+00  0.20934737984E-01 0.  0.
         14    1    1    2    0    0  0.20389577144E-01  0.84238181090E-02  0.74582026742E-02  0.23287772645E-01  0.00000000000E+00 0. -1.
     999901    1    3    3    0    0  0.63389207963E-01  0.51892561610E-01 -0.87814783131E-01  0.88815677995E+00  0.88000000000E+00 0. -1.
        -11    1    4    4    0    0 -0.69660990726E-01 -0.54332813387E-01  0.75998643392E-01  0.11653653143E+00  0.51100000000E-03 0.  1.
         11    1    4    4    0    0 -0.14117794382E-01 -0.59835663323E-02  0.43579370652E-02  0.15948915973E-01  0.51100000000E-03 0. -1.
</event>
<event>
 8    1  0.1072332E+005  0.1043930E+01  0.7957747E-01            NaN
         13   -1    0    0    0    0  0.00000000000E+00  0.00000000000E+00  0.74505805969E-08  0.10566000000E+00  0.10566000000E+00 0.  1.
     999900   -1    0    0    0    0 -0.00000000000E+00 -0.00000000000E+00 -0.74505805969E-08  0.93827000000E+00  0.93827000000E+00 0. -1.
     999902    2    1    2    0    0 -0.17984424471E-01  0.32658266342E-02 -0.14451601197E-01  0.10206286283E+01  0.10203626037E+01 0.  0.
     999903    2    3    3    0    0  0.12403675913E-01 -0.37192051074E-01 -0.12509281156E+00  0.13225834852E+00  0.17520257164E-01 0.  0.
         14    1    1    2    0    0  0.17984424471E-01 -0.32658266342E-02  0.14451601197E-01  0.23301371726E-01  0.00000000000E+00 0.  1.
     999901    1    3    3    0    0 -0.30388100384E-01  0.40457877708E-01  0.11064121036E+00  0.88837027975E+00  0.88000000000E+00 0.  1.
        -11    1    4    4    0    0  0.12279051057E-01 -0.11015252082E-01 -0.41499458347E-01  0.44660687830E-01  0.51100000000E-03 0.  1.
         11    1    4    4    0    0  0.12462485648E-03 -0.26176798991E-01 -0.83593353212E-01  0.87597660694E-01  0.51100000000E-03 0. -1.
</event>
<event>
 8    1  0.1072332E+005  0.1043930E+01  0.7957747E-01            NaN
         13   -1    0    0    0    0  0.00000000000E+00  0.00000000000E+00  0.74505805969E-08  0.10566000000E+00  0.10566000000E+00 0.  1.
     999900   -1    0    0    0    0 -0.00000000000E+00 -0.00000000000E+00 -0.74505805969E-08  0.93827000000E+00  0.93827000000E+00 0. -1.
     999902    2    1    2    0    0 -0.17056128743E-01  0.29914975141E-03  0.17040552529E-01  0.10198181471E+01  0.10195330656E+01 0.  0.
     999903    2    3    3    0    0 -0.99458725788E-01  0.82966321895E-01 -0.70226839797E-02  0.13178487709E+00  0.23291351077E-01 0.  0.
         14    1    1    2    0    0  0.17056128743E-01 -0.29914975141E-03 -0.17040552529E-01  0.24111852868E-01  0.00000000000E+00 0.  1.
     999901    1    3    3    0    0  0.82402597046E-01 -0.82667172144E-01  0.24063236508E-01  0.88803327004E+00  0.88000000000E+00 0. -1.
        -11    1    4    4    0    0 -0.46852429886E-01  0.36080169910E-01 -0.14589069447E-01  0.60910023110E-01  0.51100000000E-03 0.  1.
         11    1    4    4    0    0 -0.52606295902E-01  0.46886151985E-01  0.75663854676E-02  0.70874853979E-01  0.51100000000E-03 0. -1.
</event>
<event>
 8    1  0.1072332E+005  0.1043930E+01  0.7957747E-01            NaN
         13   -1    0    0    0    0  0.00000000000E+00  0.00000000000E+00  0.74505805969E-08  0.10566000000E+00  0.10566000000E+00 0.  1.
     999900   -1    0    0    0    0 -0.00000000000E+00 -0.00000000000E+00 -0.74505805969E-08  0.93827000000E+00  0.93827000000E+00 0.  1.
     999902    2    1    2    0    0  0.17212600506E-01  0.18597392923E-01  0.21066260131E-03  0.10185887092E+01  0.10182734296E+01 0.  0.
     999903    2    3    3    0    0  0.58046024998E-01 -0.50908588117E-01  0.10147405534E+00  0.12912104558E+00  0.20352767444E-01 0.  0.
         14    1    1    2    0    0 -0.17212600506E-01 -0.18597392923E-01 -0.21066260131E-03  0.25341290781E-01  0.00000000000E+00 0.  1.
     999901    1    3    3    0    0 -0.40833424492E-01  0.69505981040E-01 -0.10126339273E+00  0.88946766364E+00  0.88000000000E+00 0.  1.
        -11    1    4    4    0    0  0.29062457805E-01 -0.18934916382E-01  0.59757828414E-01  0.69097153992E-01  0.51100000000E-03 0.  1.
         11    1    4    4    0    0  0.28983567193E-01 -0.31973671735E-01  0.41716226921E-01  0.60023891585E-01  0.51100000000E-03 0. -1.
</event>
<event>
 8    1  0.1072332E+005  0.1043930E+01  0.7957747E-01            NaN
         13   -1    0    0    0    0  0.00000000000E+00  0.00000000000E+00  0.74505805969E-08  0.10566000000E+00  0.10566000000E+00 0.  1.
     999900   -1    0    0    0    0 -0.00000000000E+00 -0.00000000000E+00 -0.74505805969E-08  0.93827000000E+00  0.93827000000E+00 0. -1.
     999902    2    1    2    0    0  0.80546860158E-04  0.22580460345E-01  0.61064471125E-03  0.10213411407E+01  0.10210913128E+01 0.  0.
     999903    2    3    3    0    0  0.60385643388E-01 -0.10705252937E+00 -0.34543754838E-01  0.12910952924E+00  0.19217949202E-01 0.  0.
         14    1    1    2    0    0 -0.80546860158E-04 -0.22580460345E-01 -0.61064471125E-03  0.22588859293E-01  0.00000000000E+00 0. -1.
     999901    1    3    3    0    0 -0.60305096528E-01  0.12963298971E+00  0.35154399550E-01  0.89223161146E+00  0.88000000000E+00 0.  1.
        -11    1    4    4    0    0  0.33115611708E-01 -0.42444246400E-01 -0.20371905372E-01  0.57562430810E-01  0.51100000000E-03 0.  1.
         11    1    4    4    0    0  0.27270031680E-01 -0.64608282967E-01 -0.14171849467E-01  0.71547098432E-01  0.51100000000E-03 0. -1.
</event>
<event>
 8    1  0.1072332E+005  0.1043930E+01  0.7957747E-01            NaN
         13   -1    0    0    0    0  0.00000000000E+00  0.00000000000E+00  0.74505805969E-08  0.10566000000E+00  0.10566000000E+00 0.  1.
     999900   -1    0    0    0    0 -0.00000000000E+00 -0.00000000000E+00 -0.74505805969E-08  0.93827000000E+00  0.93827000000E+00 0.  1.
     999902    2    1    2    0    0 -0.14508649863E-01 -0.12977314600E-01  0.87257032580E-02  0.10225981104E+01  0.10223755895E+01 0.  0.
     999903    2    3    3    0    0 -0.37286362592E-01  0.39671240303E-01  0.12040050448E+00  0.13368756614E+00  0.20297874722E-01 0.  0.
         14    1    1    2    0    0  0.14508649863E-01  0.12977314600E-01 -0.87257032580E-02  0.21331889565E-01  0.00000000000E+00 0. -1.
     999901    1    3    3    0    0  0.22777712729E-01 -0.52648554903E-01 -0.11167480122E+00  0.88891054430E+00  0.88000000000E+00 0.  1.
        -11    1    4    4    0    0 -0.28714170344E-01  0.22586879544E-01  0.95793147025E-01  0.10252443047E+00  0.51100000000E-03 0. -1.
         11    1    4    4    0    0 -0.85721922478E-02  0.17084360759E-01  0.24607357457E-01  0.31163135666E-01  0.51100000000E-03 0.  1.
</event>
<event>
 8    1  0.1072332E+005  0.1043930E+01  0.7957747E-01            NaN
         13   -1    0    0    0    0  0.00000000000E+00  0.00000000000E+00  0.74505805969E-08  0.10566000000E+00  0.10566000000E+00 0. -1.
     999900   -1    0    0    0    0 -0.00000000000E+00 -0.00000000000E+00 -0.74505805969E-08  0.93827000000E+00  0.93827000000E+00 0.  1.
     999902    2    1    2    0    0  0.59395491810E-02  0.21867758437E-01  0.55451020267E-02  0.10206013639E+01  0.10203347092E+01 0.  0.
     999903    2    3    3    0    0 -0.43075617080E-01 -0.10272422808E+00 -0.59813517838E-01  0.12807831169E+00  0.20460234302E-01 0.  0.
         14    1    1    2    0    0 -0.59395491810E-02 -0.21867758437E-01 -0.55451020267E-02  0.23328636051E-01  0.00000000000E+00 0.  1.
     999901    1    3    3    0    0  0.49015166261E-01  0.12459198651E+00  0.65358619865E-01  0.89252305226E+00  0.88000000000E+00 0. -1.
        -11    1    4    4    0    0 -0.29511972083E-01 -0.46902738473E-01 -0.24074666599E-01  0.60420808215E-01  0.51100000000E-03 0.  1.
         11    1    4    4    0    0 -0.13563644997E-01 -0.55821489605E-01 -0.35738851239E-01  0.67657503473E-01  0.51100000000E-03 0. -1.
</event>
<event>
 8    1  0.1072332E+005  0.1043930E+01  0.7957747E-01            NaN
         13   -1    0    0    0    0  0.00000000000E+00  0.00000000000E+00  0.74505805969E-08  0.10566000000E+00  0.10566000000E+00 0. -1.
     999900   -1    0    0    0    0 -0.00000000000E+00 -0.00000000000E+00 -0.74505805969E-08  0.93827000000E+00  0.93827000000E+00 0. -1.
     999902    2    1    2    0    0  0.28887144853E-02  0.20305338039E-01 -0.35751970364E-02  0.10231109352E+01  0.10228990920E+01 0.  0.
     999903    2    3    3    0    0 -0.52714674391E-01 -0.11715921933E+00  0.79596295970E-02  0.13063051885E+00  0.22267850830E-01 0.  0.
         14    1    1    2    0    0 -0.28887144853E-02 -0.20305338039E-01  0.35751970364E-02  0.20819064775E-01  0.00000000000E+00 0. -1.
     999901    1    3    3    0    0  0.55603388876E-01  0.13746455737E+00 -0.11534826633E-01  0.89248041638E+00  0.88000000000E+00 0.  1.
        -11    1    4    4    0    0 -0.25294677503E-01 -0.55026298460E-01 -0.73556595289E-02  0.61008860671E-01  0.51100000000E-03 0. -1.
         11    1    4    4    0    0 -0.27419996888E-01 -0.62132920873E-01  0.15315289126E-01  0.69621658179E-01  0.51100000000E-03 0.  1.
</event>
<event>
 8    1  0.1072332E+005  0.1043930E+01  0.7957747E-01            NaN
         13   -1    0    0    0    0  0.00000000000E+00  0.00000000000E+00  0.74505805969E-08  0.10566000000E+00  0.10566000000E+00 0.  1.
     999900   -1    0    0    0    0 -0.00000000000E+00 -0.00000000000E+00 -0.74505805969E-08  0.93827000000E+00  0.93827000000E+00 0.  1.
     999902    2    1    2    0    0  0.70629845044E-02 -0.18207336817E-01  0.13738740606E-01  0.10200522728E+01  0.10197727655E+01 0.  0.
     999903    2    3    3    0    0  0.90457376968E-01  0.90217976303E-01  0.32977963001E-02  0.12942345753E+00  0.20438581237E-01 0.  0.
         14    1    1    2    0    0 -0.70629845044E-02  0.18207336817E-01 -0.13738740606E-01  0.23877727227E-01  0.00000000000E+00 0.  1.
     999901    1    3    3    0    0 -0.83394392463E-01 -0.10842531312E+00  0.10440944306E-01  0.89062881524E+00  0.88000000000E+00 0. -1.
        -11    1    4    4    0    0  0.46127575691E-01  0.59086890260E-01  0.58680576350E-02  0.75191150152E-01  0.51100000000E-03 0.  1.
         11    1    4    4    0    0  0.44329801277E-01  0.31131086043E-01 -0.25702613350E-02  0.54232307380E-01  0.51100000000E-03 0. -1.
</event>
<event>
 8    1  0.1072332E+005  0.1043930E+01  0.7957747E-01            NaN
         13   -1    0    0    0    0  0.00000000000E+00  0.00000000000E+00  0.74505805969E-08  0.10566000000E+00  0.10566000000E+00 0.  1.
     999900   -1    0    0    0    0 -0.00000000000E+00 -0.00000000000E+00 -0.74505805969E-08  0.93827000000E+00  0.93827000000E+00 0. -1.
     999902    2    1    2    0    0 -0.19625090110E-01  0.12589959482E-01 -0.26099111719E-02  0.10204680547E+01  0.10201983081E+01 0.  0.
     999903    2    3    3    0    0  0.83103227200E-01  0.70595850205E-01  0.67575046424E-01  0.12982574780E+00  0.19960397205E-01 0.  0.
         14    1    1    2    0    0  0.19625090110E-01 -0.12589959482E-01  0.26099111719E-02  0.23461945313E-01  0.00000000000E+00 0.  1.
     999901    1    3    3    0    0 -0.10272831731E+00 -0.58005890724E-01 -0.70184957596E-01  0.89064230688E+00  0.88000000000E+00 0. -1.
        -11    1    4    4    0    0  0.64704670635E-01  0.59976890192E-01  0.45826109792E-01  0.99419390558E-01  0.51100000000E-03 0. -1.
         11    1    4    4    0    0  0.18398556564E-01  0.10618960013E-01  0.21748936632E-01  0.30406357247E-01  0.51100000000E-03 0.  1.
</event>
<event>
 8    1  0.1072332E+005  0.1043930E+01  0.7957747E-01            NaN
         13   -1    0    0    0    0  0.00000000000E+00  0.00000000000E+00  0.74505805969E-08  0.10566000000E+00  0.10566000000E+00 0.  1.
     999900   -1    0    0    0    0 -0.00000000000E+00 -0.00000000000E+00 -0.74505805969E-08  0.93827000000E+00  0.93827000000E+00 0. -1.
     999902    2    1    2    0    0  0.23587029412E-01 -0.64740349323E-03  0.73447462228E-04  0.10203339732E+01  0.10200610983E+01 0.  0.
     999903    2    3    3    0    0  0.12266680697E+00  0.34454575723E-01  0.33931133072E-01  0.13343189619E+00  0.20456925701E-01 0.  0.
         14    1    1    2    0    0 -0.23587029412E-01  0.64740349323E-03 -0.73447462228E-04  0.23596026833E-01  0.00000000000E+00 0.  1.
     999901    1    3    3    0    0 -0.99079777560E-01 -0.35101979216E-01 -0.33857685610E-01  0.88690207697E+00  0.88000000000E+00 0. -1.
        -11    1    4    4    0    0  0.10799121169E+00  0.36973814572E-01  0.30008028738E-01  0.11802502987E+00  0.51100000000E-03 0. -1.
         11    1    4    4    0    0  0.14675595278E-01 -0.25192388488E-02  0.39231043348E-02  0.15406866319E-01  0.51100000000E-03 0.  1.
</event>
<event>
 8    1  0.1072332E+005  0.1043930E+01  0.7957747E-01            NaN
         13   -1    0    0    0    0  0.00000000000E+00  0.00000000000E+00  0.74505805969E-08  0.10566000000E+00  0.10566000000E+00 0.  1.
     999900   -1    0    0    0    0 -0.00000000000E+00 -0.00000000000E+00 -0.74505805969E-08  0.93827000000E+00  0.93827000000E+00 0.  1.
     999902    2    1    2    0    0 -0.38876843729E-02  0.21301795203E-01 -0.17243990455E-01  0.10162490359E+01  0.10158719738E+01 0.  0.
     999903    2    3    3    0    0  0.26323349753E-01  0.32001649207E-01 -0.12116179768E+00  0.12955511792E+00  0.19680525096E-01 0.  0.
         14    1    1    2    0    0  0.38876843729E-02 -0.21301795203E-01  0.17243990455E-01  0.27680964136E-01  0.00000000000E+00 0.  1.
     999901    1    3    3    0    0 -0.30211034126E-01 -0.10699854004E-01  0.10391780723E+00  0.88669391794E+00  0.88000000000E+00 0. -1.
        -11    1    4    4    0    0  0.23085550959E-01  0.18138377829E-01 -0.98537710344E-01  0.10281967173E+00  0.51100000000E-03 0. -1.
         11    1    4    4    0    0  0.32377987940E-02  0.13863271378E-01 -0.22624087337E-01  0.26735446194E-01  0.51100000000E-03 0.  1.
</event>
<event>
 8    1  0.1072332E+005  0.1043930E+01  0.7957747E-01            NaN
         13   -1    0    0    0    0  0.00000000000E+00  0.00000000000E+00  0.74505805969E-08  0.10566000000E+00  0.10566000000E+00 0. -1.
     999900   -1    0    0    0    0 -0.00000000000E+00 -0.00000000000E+00 -0.74505805969E-08  0.93827000000E+00  0.93827000000E+00 0. -1.
     999902    2    1    2    0    0  0.10996955064E-01  0.15976538860E-01  0.13298207105E-01  0.10204135137E+01  0.10201424968E+01 0.  0.
     999903    2    3    3    0    0 -0.64532911119E-01  0.91171695667E-01 -0.64347758877E-01  0.13058882968E+00  0.20881418948E-01 0.  0.
         14    1    1    2    0    0 -0.10996955064E-01 -0.15976538860E-01 -0.13298207105E-01  0.23516486277E-01  0.00000000000E+00 0.  1.
     999901    1    3    3    0    0  0.75529866183E-01 -0.75195156807E-01  0.77645965982E-01  0.88982468404E+00  0.88000000000E+00 0. -1.
        -11    1    4    4    0    0 -0.39336169290E-01  0.37871264693E-01 -0.33235347758E-01  0.63925084008E-01  0.51100000000E-03 0.  1.
         11    1    4    4    0    0 -0.25196741829E-01  0.53300430974E-01 -0.31112411119E-01  0.66663745675E-01  0.51100000000E-03 0. -1.
</event>
<event>
 8    1  0.1072332E+005  0.1043930E+01  0.7957747E-01            NaN
         13   -1    0    0    0    0  0.00000000000E+00  0.00000000000E+00  0.74505805969E-08  0.10566000000E+00  0.10566000000E+00 0.  1.
     999900   -1    0    0    0    0 -0.00000000000E+00 -0.00000000000E+00 -0.74505805969E-08  0.93827000000E+00  0.93827000000E+00 0. -1.
     999902    2    1    2    0    0 -0.87737892983E-02 -0.69436353042E-02  0.17298171469E-01  0.10233285392E+01  0.10231211458E+01 0.  0.
     999903    2    3    3    0    0  0.47552508783E-01  0.11653588874E+00  0.37081394032E-01  0.13270447678E+00  0.19839201548E-01 0.  0.
         14    1    1    2    0    0  0.87737892983E-02  0.69436353042E-02 -0.17298171469E-01  0.20601460775E-01  0.00000000000E+00 0.  1.
     999901    1    3    3    0    0 -0.56326298082E-01 -0.12347952404E+00 -0.19783222563E-01  0.89062406245E+00  0.88000000000E+00 0. -1.
        -11    1    4    4    0    0  0.35538373865E-01  0.78035612862E-01  0.34031818880E-01  0.92254857374E-01  0.51100000000E-03 0. -1.
         11    1    4    4    0    0  0.12014134918E-01  0.38500275877E-01  0.30495751517E-02  0.40449619405E-01  0.51100000000E-03 0.  1.
</event>
<event>
 8    1  0.1072332E+005  0.1043930E+01  0.7957747E-01            NaN
         13   -1    0    0    0    0  0.00000000000E+00  0.00000000000E+00  0.74505805969E-08  0.10566000000E+00  0.10566000000E+00 0.  1.
     999900   -1    0    0    0    0 -0.00000000000E+00 -0.00000000000E+00 -0.74505805969E-08  0.93827000000E+00  0.93827000000E+00 0. -1.
     999902    2    1    2    0    0 -0.84424028464E-02 -0.21355950725E-01  0.60952187076E-02  0.10201707389E+01  0.10198940308E+01 0.  0.
     999903    2    3    3    0    0 -0.69272158332E-01  0.98260309834E-01 -0.41432300703E-01  0.12872967295E+00  0.20024303950E-01 0.  0.
         14    1    1    2    0    0  0.84424028464E-02  0.21355950725E-01 -0.60952187076E-02  0.23759261106E-01  0.00000000000E+00 0. -1.
     999901    1    3    3    0    0  0.60829755485E-01 -0.11961626056E+00  0.47527519411E-01  0.89144106594E+00  0.88000000000E+00 0.  1.
        -11    1    4    4    0    0 -0.35298140976E-01  0.33116768759E-01 -0.16941019654E-01  0.51282925008E-01  0.51100000000E-03 0.  1.
         11    1    4    4    0    0 -0.33974017356E-01  0.65143541075E-01 -0.24491281049E-01  0.77446747946E-01  0.51100000000E-03 0. -1.
</event>
<event>
 8    1  0.1072332E+005  0.1043930E+01  0.7957747E-01            NaN
         13   -1    0    0    0    0  0.00000000000E+00  0.00000000000E+00  0.74505805969E-08  0.10566000000E+00  0.10566000000E+00 0. -1.
     999900   -1    0    0    0    0 -0.00000000000E+00 -0.00000000000E+00 -0.74505805969E-08  0.93827000000E+00  0.93827000000E+00 0. -1.
     999902    2    1    2    0    0  0.77849518903E-02 -0.13345055284E-01  0.17724094921E-01  0.10204174604E+01  0.10201465356E+01 0.  0.
     999903    2    3    3    0    0  0.10053555207E+00  0.19955105514E-01  0.81607846149E-01  0.13261528189E+00  0.20527273839E-01 0.  0.
         14    1    1    2    0    0 -0.77849518903E-02  0.13345055284E-01 -0.17724094921E-01  0.23512539574E-01  0.00000000000E+00 0.  1.
     999901    1    3    3    0    0 -0.92750600180E-01 -0.33300160798E-01 -0.63883751228E-01  0.88780217854E+00  0.88000000000E+00 0.  1.
        -11    1    4    4    0    0  0.62191597346E-01  0.20932890525E-02  0.48592568088E-01  0.78953628377E-01  0.51100000000E-03 0.  1.
         11    1    4    4    0    0  0.38343954724E-01  0.17861816461E-01  0.33015278062E-01  0.53661653512E-01  0.51100000000E-03 0. -1.
</event>
<event>
 8    1  0.1072332E+005  0.1043930E+01  0.7957747E-01            NaN
         13   -1    0    0    0    0  0.00000000000E+00  0.00000000000E+00  0.74505805969E-08  0.10566000000E+00  0.10566000000E+00 0. -1.
     999900   -1    0    0    0    0 -0.00000000000E+00 -0.00000000000E+00 -0.74505805969E-08  0.93827000000E+00  0.93827000000E+00 0. -1.
     999902    2    1    2    0    0  0.85736411915E-02  0.15647430963E-01  0.15965494526E-01  0.10199874347E+01  0.10197063893E+01 0.  0.
     999903    2    3    3    0    0 -0.10802387706E+00 -0.15924545935E-01  0.68041888052E-01  0.13021009075E+00  0.20055423844E-01 0.  0.
         14    1    1    2    0    0 -0.85736411915E-02 -0.15647430963E-01 -0.15965494526E-01  0.23942565328E-01  0.00000000000E+00 0.  1.
     999901    1    3    3    0    0  0.11659751825E+00  0.31571976899E-01 -0.52076393526E-01  0.88977734392E+00  0.88000000000E+00 0. -1.
        -11    1    4    4    0    0 -0.30894158241E-01  0.20331345952E-02  0.12077480792E-01  0.33237167644E-01  0.51100000000E-03 0.  1.
         11    1    4    4    0    0 -0.77129718821E-01 -0.17957680530E-01  0.55964407260E-01  0.96972923110E-01  0.51100000000E-03 0. -1.
</event>
<event>
 8    1  0.1072332E+005  0.1043930E+01  0.7957747E-01            NaN
         13   -1    0    0    0    0  0.00000000000E+00  0.00000000000E+00  0.74505805969E-08  0.10566000000E+00  0.10566000000E+00 0.  1.
     999900   -1    0    0    0    0 -0.00000000000E+00 -0.00000000000E+00 -0.74505805969E-08  0.93827000000E+00  0.93827000000E+00 0. -1.
     999902    2    1    2    0    0  0.22254617533E-01  0.67408531352E-02 -0.92374654848E-02  0.10189092512E+01  0.10186019950E+01 0.  0.
     999903    2    3    3    0    0 -0.31783092926E-01  0.10334236262E+00  0.67337922637E-01  0.12867573359E+00  0.18254853665E-01 0.  0.
         14    1    1    2    0    0 -0.22254617533E-01 -0.67408531352E-02  0.92374654848E-02  0.25020748812E-01  0.00000000000E+00 0.  1.
     999901    1    3    3    0    0  0.54037710458E-01 -0.96601509485E-01 -0.76575388122E-01  0.89023351760E+00  0.88000000000E+00 0. -1.
        -11    1    4    4    0    0 -0.22238318680E-01  0.80248410497E-01  0.59962551061E-01  0.10261636739E+00  0.51100000000E-03 0. -1.
         11    1    4    4    0    0 -0.95447742456E-02  0.23093952123E-01  0.73753715758E-02  0.26059366204E-01  0.51100000000E-03 0.  1.
</event>
<event>
 8    1  0.1072332E+005  0.1043930E+01  0.7957747E-01            NaN
         13   -1    0    0    0    0  0.00000000000E+00  0.00000000000E+00  0.74505805969E-08  0.10566000000E+00  0.10566000000E+00 0. -1.
     999900   -1    0    0    0    0 -0.00000000000E+00 -0.00000000000E+00 -0.74505805969E-08  0.93827000000E+00  0.93827000000E+00 0.  1.
     999902    2    1    2    0    0  0.18903616575E-01  0.84741762050E-02 -0.10530899451E-01  0.10206908471E+01  0.10204262576E+01 0.  0.
     999903    2    3    3    0    0  0.74559893731E-01  0.34145075444E-01 -0.10329611442E+00  0.13369479228E+00  0.21889410616E-01 0.  0.
         14    1    1    2    0    0 -0.18903616575E-01 -0.84741762050E-02  0.10530899451E-01  0.23239152850E-01  0.00000000000E+00 0.  1.
     999901    1    3    3    0    0 -0.55656277156E-01 -0.25670899239E-01  0.92765214969E-01  0.88699605487E+00  0.88000000000E+00 0. -1.
        -11    1    4    4    0    0  0.25388779847E-01  0.10992027933E-02 -0.26765446110E-01  0.36911361602E-01  0.51100000000E-03 0. -1.
         11    1    4    4    0    0  0.49171113884E-01  0.33045872651E-01 -0.76530668310E-01  0.96783430673E-01  0.51100000000E-03 0.  1.
</event>
<event>
 7    1  0.1072332E+005  0.1043930E+01  0.7957747E-01            NaN
         13   -1    0    0    0    0  0.00000000000E+00  0.00000000000E+00  0.74505805969E-08  0.10566000000E+00  0.10566000000E+00 0. -1.
     999900   -1    0    0    0    0 -0.00000000000E+00 -0.00000000000E+00 -0.74505805969E-08  0.93827000000E+00  0.93827000000E+00 0.  1.
     999902    2    1    2    0    0 -0.18831384337E-01 -0.85253457147E-02 -0.28427860768E-01  0.10087810907E+01  0.10081685589E+01 0.  0.
         14    1    1    2    0    0  0.18831384337E-01  0.85253457147E-02  0.28427860768E-01  0.35148909279E-01  0.00000000000E+00 0. -1.
     999901    1    3    3    0    0  0.10094705417E-01  0.86848301458E-01  0.34240827759E-01  0.88499546034E+00  0.88000000000E+00 0. -1.
        -11    1    3    3    0    0  0.57293874014E-02 -0.25479542082E-01 -0.28369047388E-01  0.38562895578E-01  0.51100000000E-03 0.  1.
         11    1    3    3    0    0 -0.34655477156E-01 -0.69894105091E-01 -0.34299641140E-01  0.85222734799E-01  0.51100000000E-03 0. -1.
</event>
<event>
 8    1  0.1072332E+005  0.1043930E+01  0.7957747E-01            NaN
         13   -1    0    0    0    0  0.00000000000E+00  0.00000000000E+00  0.74505805969E-08  0.10566000000E+00  0.10566000000E+00 0. -1.
     999900   -1    0    0    0    0 -0.00000000000E+00 -0.00000000000E+00 -0.74505805969E-08  0.93827000000E+00  0.93827000000E+00 0.  1.
     999902    2    1    2    0    0  0.56439682089E-02 -0.19759879273E-01 -0.24042280623E-02  0.10232397241E+01  0.10230305203E+01 0.  0.
     999903    2    3    3    0    0  0.54136595229E-01  0.47478682437E-01 -0.10986748148E+00  0.13283481061E+00  0.19728841662E-01 0.  0.
         14    1    1    2    0    0 -0.56439682089E-02  0.19759879273E-01  0.24042280623E-02  0.20690275943E-01  0.00000000000E+00 0.  1.
     999901    1    3    3    0    0 -0.48492627020E-01 -0.67238561710E-01  0.10746325342E+00  0.89040491345E+00  0.88000000000E+00 0. -1.
        -11    1    4    4    0    0  0.48416069996E-01  0.37649334175E-01 -0.10191662058E+00  0.11894892546E+00  0.51100000000E-03 0. -1.
         11    1    4    4    0    0  0.57205252330E-02  0.98293482620E-02 -0.79508609065E-02  0.13885885148E-01  0.51100000000E-03 0.  1.
</event>
<event>
 8    1  0.1072332E+005  0.1043930E+01  0.7957747E-01            NaN
         13   -1    0    0    0    0  0.00000000000E+00  0.00000000000E+00  0.74505805969E-08  0.10566000000E+00  0.10566000000E+00 0. -1.
     999900   -1    0    0    0    0 -0.00000000000E+00 -0.00000000000E+00 -0.74505805969E-08  0.93827000000E+00  0.93827000000E+00 0.  1.
     999902    2    1    2    0    0  0.17195061785E-01  0.14551444339E-01  0.89877143629E-02  0.10196772952E+01  0.10193888329E+01 0.  0.
     999903    2    3    3    0    0 -0.80205240575E-01 -0.88032907569E-01 -0.39506270273E-01  0.12706201707E+00  0.20033406084E-01 0.  0.
         14    1    1    2    0    0 -0.17195061785E-01 -0.14551444339E-01 -0.89877143629E-02  0.24252704831E-01  0.00000000000E+00 0.  1.
     999901    1    3    3    0    0  0.97400302360E-01  0.10258435191E+00  0.48493984636E-01  0.89261527810E+00  0.88000000000E+00 0. -1.
        -11    1    4    4    0    0 -0.30801522390E-01 -0.37493877422E-01 -0.26187679712E-01  0.55141457320E-01  0.51100000000E-03 0. -1.
         11    1    4    4    0    0 -0.49403718185E-01 -0.50539030147E-01 -0.13318590561E-01  0.71920559746E-01  0.51100000000E-03 0.  1.
</event>
<event>
 8    1  0.1072332E+005  0.1043930E+01  0.7957747E-01            NaN
         13   -1    0    0    0    0  0.00000000000E+00  0.00000000000E+00  0.74505805969E-08  0.10566000000E+00  0.10566000000E+00 0.  1.
     999900   -1    0    0    0    0 -0.00000000000E+00 -0.00000000000E+00 -0.74505805969E-08  0.93827000000E+00  0.93827000000E+00 0. -1.
     999902    2    1    2    0    0  0.14328620008E-01 -0.20679549283E-01 -0.14040714254E-02  0.10187322912E+01  0.10184206188E+01 0.  0.
     999903    2    3    3    0    0 -0.50256551855E-01  0.99525520986E-01  0.55832832748E-01  0.12637778403E+00  0.20566690370E-01 0.  0.
         14    1    1    2    0    0 -0.14328620008E-01  0.20679549283E-01  0.14040714254E-02  0.25197708754E-01  0.00000000000E+00 0.  1.
     999901    1    3    3    0    0  0.64585171863E-01 -0.12020507027E+00 -0.57236904173E-01  0.89235450721E+00  0.88000000000E+00 0. -1.
        -11    1    4    4    0    0 -0.51004506165E-01  0.89993476118E-01  0.53767623872E-01  0.11658260544E+00  0.51100000000E-03 0. -1.
         11    1    4    4    0    0  0.74795430988E-03  0.95320448682E-02  0.20652088754E-02  0.97951785956E-02  0.51100000000E-03 0.  1.
</event>
<event>
 8    1  0.1072332E+005  0.1043930E+01  0.7957747E-01            NaN
         13   -1    0    0    0    0  0.00000000000E+00  0.00000000000E+00  0.74505805969E-08  0.10566000000E+00  0.10566000000E+00 0.  1.
     999900   -1    0    0    0    0 -0.00000000000E+00 -0.00000000000E+00 -0.74505805969E-08  0.93827000000E+00  0.93827000000E+00 0. -1.
     999902    2    1    2    0    0 -0.22681262810E-01 -0.68990714927E-03 -0.44511912456E-02  0.10208057971E+01  0.10205438485E+01 0.  0.
     999903    2    3    3    0    0  0.62977638113E-01 -0.68211933704E-01  0.88023930278E-01  0.12926313440E+00  0.18484988823E-01 0.  0.
         14    1    1    2    0    0  0.22681262810E-01  0.68990714927E-03  0.44511912456E-02  0.23124202863E-01  0.00000000000E+00 0. -1.
     999901    1    3    3    0    0 -0.85658900923E-01  0.67522026554E-01 -0.92475121523E-01  0.89154266274E+00  0.88000000000E+00 0.  1.
        -11    1    4    4    0    0  0.37638933358E-01 -0.52703706713E-01  0.64009936240E-01  0.91059887240E-01  0.51100000000E-03 0. -1.
         11    1    4    4    0    0  0.25338704755E-01 -0.15508226991E-01  0.24013994037E-01  0.38203247162E-01  0.51100000000E-03 0.  1.
</event>
<event>
 8    1  0.1072332E+005  0.1043930E+01  0.7957747E-01            NaN
         13   -1    0    0    0    0  0.00000000000E+00  0.00000000000E+00  0.74505805969E-08  0.10566000000E+00  0.10566000000E+00 0.  1.
     999900   -1    0    0    0    0 -0.00000000000E+00 -0.00000000000E+00 -0.74505805969E-08  0.93827000000E+00  0.93827000000E+00 0.  1.
     999902    2    1    2    0    0  0.71384072390E-02  0.20200715531E-01 -0.57219754377E-02  0.10217541850E+01  0.10215135084E+01 0.  0.
     999903    2    3    3    0    0  0.10059443001E+00  0.30086017465E-01 -0.80214215521E-01  0.13362083852E+00  0.19894730903E-01 0.  0.
         14    1    1    2    0    0 -0.71384072390E-02 -0.20200715531E-01  0.57219754377E-02  0.22175814952E-01  0.00000000000E+00 0. -1.
     999901    1    3    3    0    0 -0.93456022775E-01 -0.98853019331E-02  0.74492240083E-01  0.88813334653E+00  0.88000000000E+00 0. -1.
        -11    1    4    4    0    0  0.94443341751E-02  0.10892194031E-02 -0.15303045798E-01  0.18022934794E-01  0.51100000000E-03 0. -1.
         11    1    4    4    0    0  0.91150095839E-01  0.28996798061E-01 -0.64911169723E-01  0.11559790372E+00  0.51100000000E-03 0.  1.
</event>
<event>
 8    1  0.1072332E+005  0.1043930E+01  0.7957747E-01            NaN
         13   -1    0    0    0    0  0.00000000000E+00  0.00000000000E+00  0.74505805969E-08  0.10566000000E+00  0.10566000000E+00 0.  1.
     999900   -1    0    0    0    0 -0.00000000000E+00 -0.00000000000E+00 -0.74505805969E-08  0.93827000000E+00  0.93827000000E+00 0.  1.
     999902    2    1    2    0    0  0.65241671056E-02 -0.21862180441E-01  0.64886569622E-02  0.10202103381E+01  0.10199345624E+01 0.  0.
     999903    2    3    3    0    0  0.58676417661E-01  0.10550391461E+00 -0.38502738873E-01  0.12837727914E+00  0.20597740458E-01 0.  0.
         14    1    1    2    0    0 -0.65241671056E-02  0.21862180441E-01 -0.64886569622E-02  0.23719661870E-01  0.00000000000E+00 0. -1.
     999901    1    3    3    0    0 -0.52152250555E-01 -0.12736609505E+00  0.44991395836E-01  0.89183305899E+00  0.88000000000E+00 0. -1.
        -11    1    4    4    0    0  0.42310041301E-01  0.82049304444E-01 -0.20459715572E-01  0.94557332010E-01  0.51100000000E-03 0.  1.
         11    1    4    4    0    0  0.16366376360E-01  0.23454610163E-01 -0.18043023302E-01  0.33819947131E-01  0.51100000000E-03 0. -1.
</event>
<event>
 8    1  0.1072332E+005  0.1043930E+01  0.7957747E-01            NaN
         13   -1    0    0    0    0  0.00000000000E+00  0.00000000000E+00  0.74505805969E-08  0.10566000000E+00  0.10566000000E+00 0.  1.
     999900   -1    0    0    0    0 -0.00000000000E+00 -0.00000000000E+00 -0.74505805969E-08  0.93827000000E+00  0.93827000000E+00 0. -1.
     999902    2    1    2    0    0  0.51688862692E-02 -0.17181486341E-01 -0.15770760003E-01  0.10200419752E+01  0.10197622240E+01 0.  0.
     999903    2    3    3    0    0  0.25051738865E-03 -0.11360310211E+00 -0.66426480098E-01  0.13331353857E+00  0.21314191017E-01 0.  0.
         14    1    1    2    0    0 -0.51688862692E-02  0.17181486341E-01  0.15770760003E-01  0.23888024808E-01  0.00000000000E+00 0.  1.
     999901    1    3    3    0    0  0.49183688805E-02  0.96421615771E-01  0.50655720095E-01  0.88672843662E+00  0.88000000000E+00 0. -1.
        -11    1    4    4    0    0  0.23184233664E-02 -0.19738407965E-01 -0.32407558882E-02  0.20143074632E-01  0.51100000000E-03 0.  1.
         11    1    4    4    0    0 -0.20679059777E-02 -0.93864694147E-01 -0.63185724210E-01  0.11317046394E+00  0.51100000000E-03 0. -1.
</event>
<event>
 8    1  0.1072332E+005  0.1043930E+01  0.7957747E-01            NaN
         13   -1    0    0    0    0  0.00000000000E+00  0.00000000000E+00  0.74505805969E-08  0.10566000000E+00  0.10566000000E+00 0. -1.
     999900   -1    0    0    0    0 -0.00000000000E+00 -0.00000000000E+00 -0.74505805969E-08  0.93827000000E+00  0.93827000000E+00 0. -1.
     999902    2    1    2    0    0  0.19825893460E-01  0.75421148240E-02 -0.91429180012E-02  0.10208314611E+01  0.10205701003E+01 0.  0.
     999903    2    3    3    0    0 -0.10812557548E+00  0.67314539301E-01 -0.11526056176E-01  0.12956831231E+00  0.20801690065E-01 0.  0.
         14    1    1    2    0    0 -0.19825893460E-01 -0.75421148240E-02  0.91429180012E-02  0.23098538851E-01  0.00000000000E+00 0. -1.
     999901    1    3    3    0    0  0.12795146894E+00 -0.59772424477E-01  0.23831381747E-02  0.89126314884E+00  0.88000000000E+00 0. -1.
        -11    1    4    4    0    0 -0.50442482923E-01  0.40780322493E-01 -0.12524146414E-01  0.66065075119E-01  0.51100000000E-03 0.  1.
         11    1    4    4    0    0 -0.57683092556E-01  0.26534216808E-01  0.99809023849E-03  0.63503237190E-01  0.51100000000E-03 0. -1.
</event>
<event>
 8    1  0.1072332E+005  0.1043930E+01  0.7957747E-01            NaN
         13   -1    0    0    0    0  0.00000000000E+00  0.00000000000E+00  0.74505805969E-08  0.10566000000E+00  0.10566000000E+00 0. -1.
     999900   -1    0    0    0    0 -0.00000000000E+00 -0.00000000000E+00 -0.74505805969E-08  0.93827000000E+00  0.93827000000E+00 0.  1.
     999902    2    1    2    0    0 -0.12563043220E-01  0.20844934336E-01  0.15290845157E-02  0.10195439499E+01  0.10192522682E+01 0.  0.
     999903    2    3    3    0    0  0.53270418429E-01  0.52559904856E-01  0.10495022405E+00  0.13047937620E+00  0.20249370521E-01 0.  0.
         14    1    1    2    0    0  0.12563043220E-01 -0.20844934336E-01 -0.15290845157E-02  0.24386050149E-01  0.00000000000E+00 0. -1.
     999901    1    3    3    0    0 -0.65833461649E-01 -0.31714970521E-01 -0.10342113953E+00  0.88906457366E+00  0.88000000000E+00 0.  1.
        -11    1    4    4    0    0  0.15073783460E-01  0.10951101378E-01  0.41717133061E-01  0.45691639071E-01  0.51100000000E-03 0. -1.
         11    1    4    4    0    0  0.38196634969E-01  0.41608803478E-01  0.63233090987E-01  0.84787737124E-01  0.51100000000E-03 0.  1.
</event>
<event>
 8    1  0.1072332E+005  0.1043930E+01  0.7957747E-01            NaN
         13   -1    0    0    0    0  0.00000000000E+00  0.00000000000E+00  0.74505805969E-08  0.10566000000E+00  0.10566000000E+00 0.  1.
     999900   -1    0    0    0    0 -0.00000000000E+00 -0.00000000000E+00 -0.74505805969E-08  0.93827000000E+00  0.93827000000E+00 0. -1.
     999902    2    1    2    0    0 -0.35849630754E-02 -0.13528745565E-01 -0.18793411241E-01  0.10204977312E+01  0.10202286744E+01 0.  0.
     999903    2    3    3    0    0  0.36291541485E-01 -0.12567140972E+00 -0.57761973628E-02  0.13238987702E+00  0.19578965139E-01 0.  0.
         14    1    1    2    0    0  0.35849630754E-02  0.13528745565E-01  0.18793411241E-01  0.23432268837E-01  0.00000000000E+00 0.  1.
     999901    1    3    3    0    0 -0.39876504560E-01  0.11214266416E+00 -0.13017213878E-01  0.88810785415E+00  0.88000000000E+00 0. -1.
        -11    1    4    4    0    0  0.20281639981E-01 -0.63589894227E-01  0.66630684414E-02  0.67079633050E-01  0.51100000000E-03 0. -1.
         11    1    4    4    0    0  0.16009901504E-01 -0.62081515494E-01 -0.12439265804E-01  0.65310243966E-01  0.51100000000E-03 0.  1.
</event>
<event>
 8    1  0.1072332E+005  0.1043930E+01  0.7957747E-01            NaN
         13   -1    0    0    0    0  0.00000000000E+00  0.00000000000E+00  0.74505805969E-08  0.10566000000E+00  0.10566000000E+00 0. -1.
     999900   -1    0    0    0    0 -0.00000000000E+00 -0.00000000000E+00 -0.74505805969E-08  0.93827000000E+00  0.93827000000E+00 0.  1.
     999902    2    1    2    0    0  0.14138667031E-01 -0.49690090247E-02 -0.18129584617E-01  0.10204082060E+01  0.10201370653E+01 0.  0.
     999903    2    3    3    0    0 -0.12707646772E+00  0.50381415677E-02  0.38860043278E-02  0.12882167427E+00  0.20152201248E-01 0.  0.
         14    1    1    2    0    0 -0.14138667031E-01  0.49690090247E-02  0.18129584617E-01  0.23521794032E-01  0.00000000000E+00 0. -1.
     999901    1    3    3    0    0  0.14121513475E+00 -0.10007150592E-01 -0.22015588944E-01  0.89158653170E+00  0.88000000000E+00 0.  1.
        -11    1    4    4    0    0 -0.50923206830E-01  0.45422826070E-02  0.11116902409E-01  0.52322576057E-01  0.51100000000E-03 0. -1.
         11    1    4    4    0    0 -0.76153260886E-01  0.49585896068E-03 -0.72308980809E-02  0.76499098215E-01  0.51100000000E-03 0.  1.
</event>
<event>
 8    1  0.1072332E+005  0.1043930E+01  0.7957747E-01            NaN
         13   -1    0    0    0    0  0.00000000000E+00  0.00000000000E+00  0.74505805969E-08  0.10566000000E+00  0.10566000000E+00 0.  1.
     999900   -1    0    0    0    0 -0.00000000000E+00 -0.00000000000E+00 -0.74505805969E-08  0.93827000000E+00  0.93827000000E+00 0. -1.
     999902    2    1    2    0    0  0.63194889065E-02  0.13292197441E-01 -0.16081701731E-01  0.10221300096E+01  0.10218975080E+01 0.  0.
     999903    2    3    3    0    0 -0.52114863705E-01  0.23518821934E-01  0.11549736967E+00  0.13037207746E+00  0.19701324248E-01 0.  0.
         14    1    1    2    0    0 -0.63194889065E-02 -0.13292197441E-01  0.16081701731E-01  0.21799990445E-01  0.00000000000E+00 0.  1.
     999901    1    3    3    0    0  0.58434352612E-01 -0.10226624494E-01 -0.13157907140E+00  0.89175793209E+00  0.88000000000E+00 0. -1.
        -11    1    4    4    0    0 -0.12396141657E-01 -0.16719442333E-02  0.15988160675E-01  0.20306209107E-01  0.51100000000E-03 0. -1.
         11    1    4    4    0    0 -0.39718722048E-01  0.25190766168E-01  0.99509208997E-01  0.11006586836E+00  0.51100000000E-03 0.  1.
</event>
<event>
 8    1  0.1072332E+005  0.1043930E+01  0.7957747E-01            NaN
         13   -1    0    0    0    0  0.00000000000E+00  0.00000000000E+00  0.74505805969E-08  0.10566000000E+00  0.10566000000E+00 0. -1.
     999900   -1    0    0    0    0 -0.00000000000E+00 -0.00000000000E+00 -0.74505805969E-08  0.93827000000E+00  0.93827000000E+00 0. -1.
     999902    2    1    2    0    0 -0.20669225150E-01 -0.82799649405E-04 -0.98842185862E-02  0.10210188346E+01  0.10207617445E+01 0.  0.
     999903    2    3    3    0    0  0.10860150300E+00  0.60489027455E-01  0.27344098397E-01  0.12873759249E+00  0.19299199606E-01 0.  0.
         14    1    1    2    0    0  0.20669225150E-01  0.82799649405E-04  0.98842185862E-02  0.22911165425E-01  0.00000000000E+00 0. -1.
     999901    1    3    3    0    0 -0.12927072815E+00 -0.60571827104E-01 -0.37228316983E-01  0.89228124209E+00  0.88000000000E+00 0. -1.
        -11    1    4    4    0    0  0.13017158141E-01  0.15221522393E-01  0.40728584167E-02  0.20444814666E-01  0.51100000000E-03 0. -1.
         11    1    4    4    0    0  0.95584344861E-01  0.45267505062E-01  0.23271239980E-01  0.10829277782E+00  0.51100000000E-03 0.  1.
</event>
<event>
 8    1  0.1072332E+005  0.1043930E+01  0.7957747E-01            NaN
         13   -1    0    0    0    0  0.00000000000E+00  0.00000000000E+00  0.74505805969E-08  0.10566000000E+00  0.10566000000E+00 0. -1.
     999900   -1    0    0    0    0 -0.00000000000E+00 -0.00000000000E+00 -0.74505805969E-08  0.93827000000E+00  0.93827000000E+00 0.  1.
     999902    2    1    2    0    0  0.11180226447E-01 -0.19267783529E-01  0.91550417805E-02  0.10198455707E+01  0.10195611450E+01 0.  0.
     999903    2    3    3    0    0  0.81395539140E-01 -0.75247374070E-01 -0.68543677898E-01  0.13186978513E+00  0.20099834660E-01 0.  0.
         14    1    1    2    0    0 -0.11180226447E-01  0.19267783529E-01 -0.91550417805E-02  0.24084429318E-01  0.00000000000E+00 0.  1.
     999901    1    3    3    0    0 -0.70215312693E-01  0.55979590541E-01  0.77698719678E-01  0.88797578556E+00  0.88000000000E+00 0. -1.
        -11    1    4    4    0    0  0.74804227221E-01 -0.65021620677E-01 -0.53892539257E-01  0.11281910509E+00  0.51100000000E-03 0.  1.
         11    1    4    4    0    0  0.65913119193E-02 -0.10225753393E-01 -0.14651138640E-01  0.19050680033E-01  0.51100000000E-03 0. -1.
</event>
<event>
 8    1  0.1072332E+005  0.1043930E+01  0.7957747E-01            NaN
         13   -1    0    0    0    0  0.00000000000E+00  0.00000000000E+00  0.74505805969E-08  0.10566000000E+00  0.10566000000E+00 0.  1.
     999900   -1    0    0    0    0 -0.00000000000E+00 -0.00000000000E+00 -0.74505805969E-08  0.93827000000E+00  0.93827000000E+00 0.  1.
     999902    2    1    2    0    0 -0.19355090368E-01 -0.85777001801E-02  0.11303636882E-01  0.10199306527E+01  0.10196482568E+01 0.  0.
     999903    2    3    3    0    0  0.41495813064E-01  0.56782265153E-01 -0.10531515952E+00  0.12775650985E+00  0.16861638331E-01 0.  0.
         14    1    1    2    0    0  0.19355090368E-01  0.85777001801E-02 -0.11303636882E-01  0.23999347289E-01  0.00000000000E+00 0. -1.
     999901    1    3    3    0    0 -0.60850903432E-01 -0.65359965333E-01  0.11661879640E+00  0.89217414286E+00  0.88000000000E+00 0. -1.
        -11    1    4    4    0    0  0.62016614719E-02  0.21355248523E-01 -0.29896980154E-01  0.37263893890E-01  0.51100000000E-03 0.  1.
         11    1    4    4    0    0  0.35294151592E-01  0.35427016630E-01 -0.75418179362E-01  0.90492615959E-01  0.51100000000E-03 0. -1.
</event>
<event>
 8    1  0.1072332E+005  0.1043930E+01  0.7957747E-01            NaN
         13   -1    0    0    0    0  0.00000000000E+00  0.00000000000E+00  0.74505805969E-08  0.10566000000E+00  0.10566000000E+00 0. -1.
     999900   -1    0    0    0    0 -0.00000000000E+00 -0.00000000000E+00 -0.74505805969E-08  0.93827000000E+00  0.93827000000E+00 0. -1.
     999902    2    1    2    0    0  0.88597806191E-02  0.18955873125E-01  0.12979803717E-01  0.10193069185E+01  0.10190094690E+01 0.  0.
     999903    2    3    3    0    0  0.59294689499E-01  0.70115951327E-02  0.11596350276E+00  0.13178678459E+00  0.18846749087E-01 0.  0.
         14    1    1    2    0    0 -0.88597806191E-02 -0.18955873125E-01 -0.12979803717E-01  0.24623081510E-01  0.00000000000E+00 0.  1.
     999901    1    3    3    0    0 -0.50434908880E-01  0.11944277992E-01 -0.10298369904E+00  0.88752013390E+00  0.88000000000E+00 0. -1.
        -11    1    4    4    0    0  0.50062604044E-01  0.89605437982E-02  0.81644510327E-01  0.96190658883E-01  0.51100000000E-03 0. -1.
         11    1    4    4    0    0  0.92320854553E-02 -0.19489486656E-02  0.34318992432E-01  0.35596125706E-01  0.51100000000E-03 0.  1.
</event>
<event>
 8    1  0.1072332E+005  0.1043930E+01  0.7957747E-01            NaN
         13   -1    0    0    0    0  0.00000000000E+00  0.00000000000E+00  0.74505805969E-08  0.10566000000E+00  0.10566000000E+00 0. -1.
     999900   -1    0    0    0    0 -0.00000000000E+00 -0.00000000000E+00 -0.74505805969E-08  0.93827000000E+00  0.93827000000E+00 0.  1.
     999902    2    1    2    0    0  0.14055179845E-01  0.19187617113E-01 -0.27599508747E-02  0.10199856884E+01  0.10197046015E+01 0.  0.
     999903    2    3    3    0    0 -0.85936222255E-01  0.59088315696E-01  0.74986481986E-01  0.13002228796E+00  0.20158361481E-01 0.  0.
         14    1    1    2    0    0 -0.14055179845E-01 -0.19187617113E-01  0.27599508747E-02  0.23944311637E-01  0.00000000000E+00 0.  1.
     999901    1    3    3    0    0  0.99991402100E-01 -0.39900698583E-01 -0.77746432861E-01  0.88996340041E+00  0.88000000000E+00 0.  1.
        -11    1    4    4    0    0 -0.65643695301E-01  0.45654356664E-01  0.46291682294E-01  0.92393701007E-01  0.51100000000E-03 0.  1.
         11    1    4    4    0    0 -0.20292526954E-01  0.13433959032E-01  0.28694799692E-01  0.37628586949E-01  0.51100000000E-03 0. -1.
</event>
<event>
 8    1  0.1072332E+005  0.1043930E+01  0.7957747E-01            NaN
         13   -1    0    0    0    0  0.00000000000E+00  0.00000000000E+00  0.74505805969E-08  0.10566000000E+00  0.10566000000E+00 0.  1.
     999900   -1    0    0    0    0 -0.00000000000E+00 -0.00000000000E+00 -0.74505805969E-08  0.93827000000E+00  0.93827000000E+00 0.  1.
     999902    2    1    2    0    0 -0.17118003996E-02  0.16121646317E-01  0.17729537164E-01  0.10199055494E+01  0.10196225554E+01 0.  0.
     999903    2    3    3    0    0  0.16729777296E-01 -0.12477392031E+00 -0.11005630894E-01  0.12804380987E+00  0.20631933930E-01 0.  0.
         14    1    1    2    0    0  0.17118003996E-02 -0.16121646317E-01 -0.17729537164E-01  0.24024450641E-01  0.00000000000E+00 0. -1.
     999901    1    3    3    0    0 -0.18441577696E-01  0.14089556662E+00  0.28735168058E-01  0.89186173949E+00  0.88000000000E+00 0. -1.
        -11    1    4    4    0    0  0.66879033631E-02 -0.10085886478E+00 -0.13509551996E-01  0.10198042837E+00  0.51100000000E-03 0. -1.
         11    1    4    4    0    0  0.10041873933E-01 -0.23915055530E-01  0.25039211018E-02  0.26063381495E-01  0.51100000000E-03 0.  1.
</event>
<event>
 8    1  0.1072332E+005  0.1043930E+01  0.7957747E-01            NaN
         13   -1    0    0    0    0  0.00000000000E+00  0.00000000000E+00  0.74505805969E-08  0.10566000000E+00  0.10566000000E+00 0. -1.
     999900   -1    0    0    0    0 -0.00000000000E+00 -0.00000000000E+00 -0.74505805969E-08  0.93827000000E+00  0.93827000000E+00 0. -1.
     999902    2    1    2    0    0 -0.97894411599E-02 -0.77577472629E-02  0.19754631181E-01  0.10205577675E+01  0.10202901036E+01 0.  0.
     999903    2    3    3    0    0 -0.16854278138E-01 -0.63716227746E-01  0.11314537404E+00  0.13382043639E+00  0.27608135753E-01 0.  0.
         14    1    1    2    0    0  0.97894411599E-02  0.77577472629E-02 -0.19754631181E-01  0.23372232541E-01  0.00000000000E+00 0.  1.
     999901    1    3    3    0    0  0.70648369784E-02  0.55958480483E-01 -0.93390742857E-01  0.88673733107E+00  0.88000000000E+00 0. -1.
        -11    1    4    4    0    0 -0.30637516673E-02 -0.42146354856E-01  0.89458286957E-01  0.98938102005E-01  0.51100000000E-03 0.  1.
         11    1    4    4    0    0 -0.13790526471E-01 -0.21569872890E-01  0.23687087081E-01  0.34882334386E-01  0.51100000000E-03 0. -1.
</event>
<event>
 8    1  0.1072332E+005  0.1043930E+01  0.7957747E-01            NaN
         13   -1    0    0    0    0  0.00000000000E+00  0.00000000000E+00  0.74505805969E-08  0.10566000000E+00  0.10566000000E+00 0. -1.
     999900   -1    0    0    0    0 -0.00000000000E+00 -0.00000000000E+00 -0.74505805969E-08  0.93827000000E+00  0.93827000000E+00 0. -1.
     999902    2    1    2    0    0  0.13602191758E-01 -0.10223941838E-01  0.17071538845E-01  0.10198263479E+01  0.10195414625E+01 0.  0.
     999903    2    3    3    0    0 -0.81055407577E-01  0.32794858286E-01  0.94775204508E-01  0.13030482597E+00  0.18749038731E-01 0.  0.
         14    1    1    2    0    0 -0.13602191758E-01  0.10223941838E-01 -0.17071538845E-01  0.24103652127E-01  0.00000000000E+00 0.  1.
     999901    1    3    3    0    0  0.94657599335E-01 -0.43018800125E-01 -0.77703665663E-01  0.88952152191E+00  0.88000000000E+00 0. -1.
        -11    1    4    4    0    0 -0.39195697937E-01  0.12442054908E-01  0.31762507785E-01  0.51963693949E-01  0.51100000000E-03 0.  1.
         11    1    4    4    0    0 -0.41859709641E-01  0.20352803379E-01  0.63012696723E-01  0.78341132018E-01  0.51100000000E-03 0. -1.
</event>
<event>
 8    1  0.1072332E+005  0.1043930E+01  0.7957747E-01            NaN
         13   -1    0    0    0    0  0.00000000000E+00  0.00000000000E+00  0.74505805969E-08  0.10566000000E+00  0.10566000000E+00 0. -1.
     999900   -1    0    0    0    0 -0.00000000000E+00 -0.00000000000E+00 -0.74505805969E-08  0.93827000000E+00  0.93827000000E+00 0.  1.
     999902    2    1    2    0    0  0.50105081649E-02  0.19878299702E-01  0.10933312286E-01  0.10206966337E+01  0.10204321775E+01 0.  0.
     999903    2    3    3    0    0 -0.47658209325E-01 -0.35057565286E-01 -0.11345152973E+00  0.12869689606E+00  0.13831256567E-01 0.  0.
         14    1    1    2    0    0 -0.50105081649E-02 -0.19878299702E-01 -0.10933312286E-01  0.23233366279E-01  0.00000000000E+00 0.  1.
     999901    1    3    3    0    0  0.52668717490E-01  0.54935864989E-01  0.12438484201E+00  0.89199973766E+00  0.88000000000E+00 0. -1.
        -11    1    4    4    0    0 -0.31626302099E-01 -0.19385708821E-01 -0.57618923766E-01  0.68529046308E-01  0.51100000000E-03 0. -1.
         11    1    4    4    0    0 -0.16031907226E-01 -0.15671856465E-01 -0.55832605961E-01  0.60167849752E-01  0.51100000000E-03 0.  1.
</event>
<event>
 8    1  0.1072332E+005  0.1043930E+01  0.7957747E-01            NaN
         13   -1    0    0    0    0  0.00000000000E+00  0.00000000000E+00  0.74505805969E-08  0.10566000000E+00  0.10566000000E+00 0.  1.
     999900   -1    0    0    0    0 -0.00000000000E+00 -0.00000000000E+00 -0.74505805969E-08  0.93827000000E+00  0.93827000000E+00 0. -1.
     999902    2    1    2    0    0 -0.38512926856E-02  0.12275705235E-01 -0.20963265464E-01  0.10193335797E+01  0.10190367818E+01 0.  0.
     999903    2    3    3    0    0  0.56655888294E-01 -0.10441932339E-01  0.11151651914E+00  0.12707346998E+00  0.19819412278E-01 0.  0.
         14    1    1    2    0    0  0.38512926856E-02 -0.12275705235E-01  0.20963265464E-01  0.24596420335E-01  0.00000000000E+00 0.  1.
     999901    1    3    3    0    0 -0.60507180980E-01  0.22717637574E-01 -0.13247978460E+00  0.89226010968E+00  0.88000000000E+00 0. -1.
        -11    1    4    4    0    0  0.53742293946E-01 -0.66056187278E-02  0.90131655736E-01  0.10514677762E+00  0.51100000000E-03 0. -1.
         11    1    4    4    0    0  0.29135943484E-02 -0.38363136111E-02  0.21384863401E-01  0.21926692360E-01  0.51100000000E-03 0.  1.
</event>
<event>
 8    1  0.1072332E+005  0.1043930E+01  0.7957747E-01            NaN
         13   -1    0    0    0    0  0.00000000000E+00  0.00000000000E+00  0.74505805969E-08  0.10566000000E+00  0.10566000000E+00 0.  1.
     999900   -1    0    0    0    0 -0.00000000000E+00 -0.00000000000E+00 -0.74505805969E-08  0.93827000000E+00  0.93827000000E+00 0.  1.
     999902    2    1    2    0    0  0.31361048710E-02 -0.18458936036E-01  0.14866814013E-01  0.10200220592E+01  0.10197418358E+01 0.  0.
     999903    2    3    3    0    0 -0.62954488317E-01 -0.10967540401E+00  0.34889009539E-01  0.13261612119E+00  0.19437869436E-01 0.  0.
         14    1    1    2    0    0 -0.31361048710E-02  0.18458936036E-01 -0.14866814013E-01  0.23907940778E-01  0.00000000000E+00 0. -1.
     999901    1    3    3    0    0  0.66090593189E-01  0.91216467978E-01 -0.20022195527E-01  0.88740593803E+00  0.88000000000E+00 0. -1.
        -11    1    4    4    0    0 -0.25013820166E-01 -0.50214525925E-01  0.61063297361E-02  0.56433484715E-01  0.51100000000E-03 0.  1.
         11    1    4    4    0    0 -0.37940668151E-01 -0.59460878089E-01  0.28782679803E-01  0.76182636476E-01  0.51100000000E-03 0. -1.
</event>
<event>
 8    1  0.1072332E+005  0.1043930E+01  0.7957747E-01            NaN
         13   -1    0    0    0    0  0.00000000000E+00  0.00000000000E+00  0.74505805969E-08  0.10566000000E+00  0.10566000000E+00 0. -1.
     999900   -1    0    0    0    0 -0.00000000000E+00 -0.00000000000E+00 -0.74505805969E-08  0.93827000000E+00  0.93827000000E+00 0. -1.
     999902    2    1    2    0    0  0.22803724387E-01  0.19003305497E-02  0.21698327761E-02  0.10209445856E+01  0.10206858075E+01 0.  0.
     999903    2    3    3    0    0 -0.93693330332E-01 -0.53483559306E-01  0.68144151464E-01  0.12909731740E+00  0.19584706216E-01 0.  0.
         14    1    1    2    0    0 -0.22803724387E-01 -0.19003305497E-02 -0.21698327761E-02  0.22985414427E-01  0.00000000000E+00 0.  1.
     999901    1    3    3    0    0  0.11649705472E+00  0.55383889856E-01 -0.65974318688E-01  0.89184726817E+00  0.88000000000E+00 0. -1.
        -11    1    4    4    0    0 -0.64005557917E-01 -0.41790571708E-01  0.56779099671E-01  0.95222322007E-01  0.51100000000E-03 0.  1.
         11    1    4    4    0    0 -0.29687772414E-01 -0.11692987598E-01  0.11365051793E-01  0.33874995397E-01  0.51100000000E-03 0. -1.
</event>
<event>
 8    1  0.1072332E+005  0.1043930E+01  0.7957747E-01            NaN
         13   -1    0    0    0    0  0.00000000000E+00  0.00000000000E+00  0.74505805969E-08  0.10566000000E+00  0.10566000000E+00 0.  1.
     999900   -1    0    0    0    0 -0.00000000000E+00 -0.00000000000E+00 -0.74505805969E-08  0.93827000000E+00  0.93827000000E+00 0. -1.
     999902    2    1    2    0    0  0.12819020964E-01 -0.73085372409E-02  0.18417509652E-01  0.10203302823E+01  0.10200573211E+01 0.  0.
     999903    2    3    3    0    0  0.98911372845E-01  0.60408762998E-02  0.87033480273E-01  0.13337016405E+00  0.19819740295E-01 0.  0.
         14    1    1    2    0    0 -0.12819020964E-01  0.73085372409E-02 -0.18417509652E-01  0.23599717728E-01  0.00000000000E+00 0. -1.
     999901    1    3    3    0    0 -0.86092351881E-01 -0.13349413541E-01 -0.68615970622E-01  0.88696011822E+00  0.88000000000E+00 0. -1.
        -11    1    4    4    0    0  0.37613863158E-01 -0.55328752751E-02  0.40443055521E-01  0.55509614224E-01  0.51100000000E-03 0.  1.
         11    1    4    4    0    0  0.61297509687E-01  0.11573751575E-01  0.46590424753E-01  0.77860549824E-01  0.51100000000E-03 0. -1.
</event>
<event>
 8    1  0.1072332E+005  0.1043930E+01  0.7957747E-01            NaN
         13   -1    0    0    0    0  0.00000000000E+00  0.00000000000E+00  0.74505805969E-08  0.10566000000E+00  0.10566000000E+00 0.  1.
     999900   -1    0    0    0    0 -0.00000000000E+00 -0.00000000000E+00 -0.74505805969E-08  0.93827000000E+00  0.93827000000E+00 0.  1.
     999902    2    1    2    0    0 -0.19259200204E-01 -0.13666591877E-01 -0.14980816908E-02  0.10202670168E+01  0.10199925729E+01 0.  0.
     999903    2    3    3    0    0  0.93040103421E-01  0.69637329913E-01 -0.49236980969E-01  0.12794998821E+00  0.21002395700E-01 0.  0.
         14    1    1    2    0    0  0.19259200204E-01  0.13666591877E-01  0.14980816908E-02  0.23662983218E-01  0.00000000000E+00 0.  1.
     999901    1    3    3    0    0 -0.11229930363E+00 -0.83303921790E-01  0.47738899278E-01  0.89231702857E+00  0.88000000000E+00 0.  1.
        -11    1    4    4    0    0  0.64894766165E-01  0.52255522305E-01 -0.25171887699E-01  0.87039389579E-01  0.51100000000E-03 0.  1.
         11    1    4    4    0    0  0.28145337256E-01  0.17381807608E-01 -0.24065093269E-01  0.40910598627E-01  0.51100000000E-03 0. -1.
</event>
<event>
 8    1  0.1072332E+005  0.1043930E+01  0.7957747E-01            NaN
         13   -1    0    0    0    0  0.00000000000E+00  0.00000000000E+00  0.74505805969E-08  0.10566000000E+00  0.10566000000E+00 0. -1.
     999900   -1    0    0    0    0 -0.00000000000E+00 -0.00000000000E+00 -0.74505805969E-08  0.93827000000E+00  0.93827000000E+00 0.  1.
     999902    2    1    2    0    0 -0.69857125274E-03 -0.16028080422E-01  0.30906449308E-01  0.10091076512E+01  0.10085066464E+01 0.  0.
     999903    2    3    3    0    0  0.87141213701E-01  0.64404192926E-01  0.51211427344E-01  0.12085235543E+00  0.15530303620E-01 0.  0.
         14    1    1    2    0    0  0.69857125274E-03  0.16028080422E-01 -0.30906449308E-01  0.34822348752E-01  0.00000000000E+00 0.  1.
     999901    1    3    3    0    0 -0.87839784954E-01 -0.80432273348E-01 -0.20304978036E-01  0.88825529582E+00  0.88000000000E+00 0.  1.
        -11    1    4    4    0    0  0.31215448645E-01  0.22286779085E-01  0.10117682204E-01  0.39670308422E-01  0.51100000000E-03 0.  1.
         11    1    4    4    0    0  0.55925765056E-01  0.42117413841E-01  0.41093745140E-01  0.81182047008E-01  0.51100000000E-03 0. -1.
</event>
<event>
 8    1  0.1072332E+005  0.1043930E+01  0.7957747E-01            NaN
         13   -1    0    0    0    0  0.00000000000E+00  0.00000000000E+00  0.74505805969E-08  0.10566000000E+00  0.10566000000E+00 0. -1.
     999900   -1    0    0    0    0 -0.00000000000E+00 -0.00000000000E+00 -0.74505805969E-08  0.93827000000E+00  0.93827000000E+00 0. -1.
     999902    2    1    2    0    0 -0.22553184626E-01 -0.51762467161E-02  0.50114754203E-02  0.10202539667E+01  0.10199792165E+01 0.  0.
     999903    2    3    3    0    0 -0.12285149305E+00  0.43126920847E-01  0.18313171751E-01  0.13314073729E+00  0.20944283712E-01 0.  0.
         14    1    1    2    0    0  0.22553184626E-01  0.51762467161E-02 -0.50114754203E-02  0.23676033298E-01  0.00000000000E+00 0. -1.
     999901    1    3    3    0    0  0.10029830843E+00 -0.48303167563E-01 -0.13301696331E-01  0.88711322941E+00  0.88000000000E+00 0. -1.
        -11    1    4    4    0    0 -0.45940871738E-01  0.25419849813E-01  0.12675220828E-01  0.54015320092E-01  0.51100000000E-03 0. -1.
         11    1    4    4    0    0 -0.76910621314E-01  0.17707071034E-01  0.56379509234E-02  0.79125417200E-01  0.51100000000E-03 0.  1.
</event>
<event>
 8    1  0.1072332E+005  0.1043930E+01  0.7957747E-01            NaN
         13   -1    0    0    0    0  0.00000000000E+00  0.00000000000E+00  0.74505805969E-08  0.10566000000E+00  0.10566000000E+00 0. -1.
     999900   -1    0    0    0    0 -0.00000000000E+00 -0.00000000000E+00 -0.74505805969E-08  0.93827000000E+00  0.93827000000E+00 0. -1.
     999902    2    1    2    0    0 -0.21406482663E-02 -0.22420301699E-01 -0.50814841664E-02  0.10208416093E+01  0.10205804807E+01 0.  0.
     999903    2    3    3    0    0 -0.44170165070E-01 -0.10218957625E+00  0.70036725354E-01  0.13305088913E+00  0.20091869578E-01 0.  0.
         14    1    1    2    0    0  0.21406482663E-02  0.22420301699E-01  0.50814841664E-02  0.23088390689E-01  0.00000000000E+00 0.  1.
     999901    1    3    3    0    0  0.42029516804E-01  0.79769274547E-01 -0.75118209520E-01  0.88779072018E+00  0.88000000000E+00 0. -1.
        -11    1    4    4    0    0 -0.33175058372E-01 -0.66410664812E-01  0.36210459563E-01  0.82597938240E-01  0.51100000000E-03 0.  1.
         11    1    4    4    0    0 -0.10995106698E-01 -0.35778911435E-01  0.33826265791E-01  0.50452950886E-01  0.51100000000E-03 0. -1.
</event>
<event>
 8    1  0.1072332E+005  0.1043930E+01  0.7957747E-01            NaN
         13   -1    0    0    0    0  0.00000000000E+00  0.00000000000E+00  0.74505805969E-08  0.10566000000E+00  0.10566000000E+00 0. -1.
     999900   -1    0    0    0    0 -0.00000000000E+00 -0.00000000000E+00 -0.74505805969E-08  0.93827000000E+00  0.93827000000E+00 0. -1.
     999902    2    1    2    0    0 -0.19664691064E-01  0.11542647296E-01 -0.11255640217E-02  0.10211002020E+01  0.10208449554E+01 0.  0.
     999903    2    3    3    0    0 -0.11734811842E+00  0.45299302900E-01 -0.42195673115E-01  0.13410058667E+00  0.19490632992E-01 0.  0.
         14    1    1    2    0    0  0.19664691064E-01 -0.11542647296E-01  0.11255640217E-02  0.22829797976E-01  0.00000000000E+00 0.  1.
     999901    1    3    3    0    0  0.97683427361E-01 -0.33756655605E-01  0.41070109093E-01  0.88699961535E+00  0.88000000000E+00 0. -1.
        -11    1    4    4    0    0 -0.10599386056E+00  0.36901949359E-01 -0.32106042673E-01  0.11673693263E+00  0.51100000000E-03 0.  1.
         11    1    4    4    0    0 -0.11354257869E-01  0.83973535419E-02 -0.10089630442E-01  0.17363654043E-01  0.51100000000E-03 0. -1.
</event>
<event>
 8    1  0.1072332E+005  0.1043930E+01  0.7957747E-01            NaN
         13   -1    0    0    0    0  0.00000000000E+00  0.00000000000E+00  0.74505805969E-08  0.10566000000E+00  0.10566000000E+00 0. -1.
     999900   -1    0    0    0    0 -0.00000000000E+00 -0.00000000000E+00 -0.74505805969E-08  0.93827000000E+00  0.93827000000E+00 0. -1.
     999902    2    1    2    0    0 -0.11123914641E-01 -0.17797469623E-01 -0.11614265623E-01  0.10199428666E+01  0.10196607615E+01 0.  0.
     999903    2    3    3    0    0  0.92985522987E-01 -0.38261454715E-01  0.78267555892E-01  0.12902407597E+00  0.20276969020E-01 0.  0.
         14    1    1    2    0    0  0.11123914641E-01  0.17797469623E-01  0.11614265623E-01  0.23987133382E-01  0.00000000000E+00 0. -1.
     999901    1    3    3    0    0 -0.10410943763E+00  0.20463985091E-01 -0.89881821516E-01  0.89091879065E+00  0.88000000000E+00 0. -1.
        -11    1    4    4    0    0  0.36884781833E-01 -0.20485721923E-01  0.43817003532E-01  0.60830443473E-01  0.51100000000E-03 0. -1.
         11    1    4    4    0    0  0.56100741154E-01 -0.17775732792E-01  0.34450552360E-01  0.68193632498E-01  0.51100000000E-03 0.  1.
</event>
<event>
 8    1  0.1072332E+005  0.1043930E+01  0.7957747E-01            NaN
         13   -1    0    0    0    0  0.00000000000E+00  0.00000000000E+00  0.74505805969E-08  0.10566000000E+00  0.10566000000E+00 0.  1.
     999900   -1    0    0    0    0 -0.00000000000E+00 -0.00000000000E+00 -0.74505805969E-08  0.93827000000E+00  0.93827000000E+00 0.  1.
     999902    2    1    2    0    0 -0.57907065506E-02  0.19411046200E-01 -0.10576561413E-01  0.10210786401E+01  0.10208229056E+01 0.  0.
     999903    2    3    3    0    0  0.61766952177E-01 -0.89470075648E-01  0.65642667195E-01  0.12853816106E+00  0.19825445156E-01 0.  0.
         14    1    1    2    0    0  0.57907065506E-02 -0.19411046200E-01  0.10576561413E-01  0.22851359877E-01  0.00000000000E+00 0. -1.
     999901    1    3    3    0    0 -0.67557658727E-01  0.10888112185E+00 -0.76219228608E-01  0.89254047906E+00  0.88000000000E+00 0. -1.
        -11    1    4    4    0    0  0.11720831711E-01 -0.31327239061E-01  0.24675530702E-01  0.41568217903E-01  0.51100000000E-03 0.  1.
         11    1    4    4    0    0  0.50046120466E-01 -0.58142836587E-01  0.40967136493E-01  0.86969943162E-01  0.51100000000E-03 0. -1.
</event>
<event>
 8    1  0.1072332E+005  0.1043930E+01  0.7957747E-01            NaN
         13   -1    0    0    0    0  0.00000000000E+00  0.00000000000E+00  0.74505805969E-08  0.10566000000E+00  0.10566000000E+00 0.  1.
     999900   -1    0    0    0    0 -0.00000000000E+00 -0.00000000000E+00 -0.74505805969E-08  0.93827000000E+00  0.93827000000E+00 0.  1.
     999902    2    1    2    0    0  0.19769468660E-01 -0.81202135419E-02 -0.97966454243E-02  0.10204194913E+01  0.10201486138E+01 0.  0.
     999903    2    3    3    0    0  0.79201775871E-01  0.66548449319E-01 -0.80176157893E-01  0.13246629198E+00  0.20432445010E-01 0.  0.
         14    1    1    2    0    0 -0.19769468660E-01  0.81202135419E-02  0.97966454243E-02  0.23510508728E-01  0.00000000000E+00 0.  1.
     999901    1    3    3    0    0 -0.59432307211E-01 -0.74668662861E-01  0.70379512469E-01  0.88795319929E+00  0.88000000000E+00 0. -1.
        -11    1    4    4    0    0  0.20734828545E-01  0.19492348678E-01 -0.11380521513E-01  0.30653909420E-01  0.51100000000E-03 0. -1.
         11    1    4    4    0    0  0.58466947326E-01  0.47056100641E-01 -0.68795636380E-01  0.10181238256E+00  0.51100000000E-03 0.  1.
</event>
<event>
 8    1  0.1072332E+005  0.1043930E+01  0.7957747E-01            NaN
         13   -1    0    0    0    0  0.00000000000E+00  0.00000000000E+00  0.74505805969E-08  0.10566000000E+00  0.10566000000E+00 0.  1.
     999900   -1    0    0    0    0 -0.00000000000E+00 -0.00000000000E+00 -0.74505805969E-08  0.93827000000E+00  0.93827000000E+00 0. -1.
     999902    2    1    2    0    0  0.21616793179E-01 -0.78864320641E-02  0.22158589440E-02  0.10208130887E+01  0.10205513071E+01 0.  0.
     999903    2    3    3    0    0 -0.48619646433E-02 -0.45861773050E-01  0.12158634066E+00  0.13154790717E+00  0.19866371561E-01 0.  0.
         14    1    1    2    0    0 -0.21616793179E-01  0.78864320641E-02 -0.22158589440E-02  0.23116911318E-01  0.00000000000E+00 0.  1.
     999901    1    3    3    0    0  0.26478757822E-01  0.37975340985E-01 -0.11937048172E+00  0.88926518151E+00  0.88000000000E+00 0. -1.
        -11    1    4    4    0    0  0.46218890523E-02 -0.15555497948E-01  0.61224986306E-01  0.63341103905E-01  0.51100000000E-03 0.  1.
         11    1    4    4    0    0 -0.94838536956E-02 -0.30306275102E-01  0.60361354355E-01  0.68206803268E-01  0.51100000000E-03 0. -1.
</event>
<event>
 8    1  0.1072332E+005  0.1043930E+01  0.7957747E-01            NaN
         13   -1    0    0    0    0  0.00000000000E+00  0.00000000000E+00  0.74505805969E-08  0.10566000000E+00  0.10566000000E+00 0.  1.
     999900   -1    0    0    0    0 -0.00000000000E+00 -0.00000000000E+00 -0.74505805969E-08  0.93827000000E+00  0.93827000000E+00 0. -1.
     999902    2    1    2    0    0  0.10542973221E-01  0.16294733327E-01  0.14189643794E-01  0.10198879824E+01  0.10196045695E+01 0.  0.
     999903    2    3    3    0    0 -0.13780259924E-01 -0.20041249694E-01 -0.12422306952E+00  0.12799673202E+00  0.18980125204E-01 0.  0.
         14    1    1    2    0    0 -0.10542973221E-01 -0.16294733327E-01 -0.14189643794E-01  0.24042017585E-01  0.00000000000E+00 0. -1.
     999901    1    3    3    0    0  0.24323233145E-01  0.36335983022E-01  0.13841271331E+00  0.89189125040E+00  0.88000000000E+00 0.  1.
        -11    1    4    4    0    0  0.24594044717E-02  0.17818343290E-02 -0.22017026719E-01  0.22231378511E-01  0.51100000000E-03 0. -1.
         11    1    4    4    0    0 -0.16239664396E-01 -0.21823084023E-01 -0.10220604280E+00  0.10576535351E+00  0.51100000000E-03 0.  1.
</event>
<event>
 8    1  0.1072332E+005  0.1043930E+01  0.7957747E-01            NaN
         13   -1    0    0    0    0  0.00000000000E+00  0.00000000000E+00  0.74505805969E-08  0.10566000000E+00  0.10566000000E+00 0. -1.
     999900   -1    0    0    0    0 -0.00000000000E+00 -0.00000000000E+00 -0.74505805969E-08  0.93827000000E+00  0.93827000000E+00 0.  1.
     999902    2    1    2    0    0 -0.20329537951E-01  0.10230997662E-01 -0.13078424290E-01  0.10176810265E+01  0.10173424513E+01 0.  0.
     999903    2    3    3    0    0  0.12084791229E+00 -0.12262889187E-01 -0.27712848408E-01  0.12602458273E+00  0.18963046413E-01 0.  0.
         14    1    1    2    0    0  0.20329537951E-01 -0.10230997662E-01  0.13078424290E-01  0.26248973473E-01  0.00000000000E+00 0. -1.
     999901    1    3    3    0    0 -0.14117745024E+00  0.22493886849E-01  0.14634424118E-01  0.89165644380E+00  0.88000000000E+00 0. -1.
        -11    1    4    4    0    0  0.77507691852E-01 -0.21282299719E-02 -0.24837456475E-01  0.81419481847E-01  0.51100000000E-03 0. -1.
         11    1    4    4    0    0  0.43340220434E-01 -0.10134659215E-01 -0.28753919332E-02  0.44605100880E-01  0.51100000000E-03 0.  1.
</event>
<event>
 8    1  0.1072332E+005  0.1043930E+01  0.7957747E-01            NaN
         13   -1    0    0    0    0  0.00000000000E+00  0.00000000000E+00  0.74505805969E-08  0.10566000000E+00  0.10566000000E+00 0.  1.
     999900   -1    0    0    0    0 -0.00000000000E+00 -0.00000000000E+00 -0.74505805969E-08  0.93827000000E+00  0.93827000000E+00 0. -1.
     999902    2    1    2    0    0  0.22022352668E-01  0.12178359022E-02  0.77312439309E-02  0.10205582377E+01  0.10202905847E+01 0.  0.
     999903    2    3    3    0    0 -0.60635056270E-01  0.79400172106E-01  0.81089932539E-01  0.13020649699E+00  0.19928806297E-01 0.  0.
         14    1    1    2    0    0 -0.22022352668E-01 -0.12178359022E-02 -0.77312439309E-02  0.23371762322E-01  0.00000000000E+00 0.  1.
     999901    1    3    3    0    0  0.82657408939E-01 -0.78182336204E-01 -0.73358688608E-01  0.89035174069E+00  0.88000000000E+00 0. -1.
        -11    1    4    4    0    0 -0.43239346706E-01  0.53178213875E-01  0.66566426440E-01  0.95545349361E-01  0.51100000000E-03 0. -1.
         11    1    4    4    0    0 -0.17395709564E-01  0.26221958231E-01  0.14523506099E-01  0.34661147631E-01  0.51100000000E-03 0.  1.
</event>
<event>
 8    1  0.1072332E+005  0.1043930E+01  0.7957747E-01            NaN
         13   -1    0    0    0    0  0.00000000000E+00  0.00000000000E+00  0.74505805969E-08  0.10566000000E+00  0.10566000000E+00 0.  1.
     999900   -1    0    0    0    0 -0.00000000000E+00 -0.00000000000E+00 -0.74505805969E-08  0.93827000000E+00  0.93827000000E+00 0. -1.
     999902    2    1    2    0    0  0.99420777274E-02  0.10113223488E-01  0.22315741098E-01  0.10174892266E+01  0.10171456197E+01 0.  0.
     999903    2    3    3    0    0  0.39824063262E-01  0.12147901196E+00 -0.76715199243E-02  0.12946078799E+00  0.18924509213E-01 0.  0.
         14    1    1    2    0    0 -0.99420777274E-02 -0.10113223488E-01 -0.22315741098E-01  0.26440773431E-01  0.00000000000E+00 0. -1.
     999901    1    3    3    0    0 -0.29881985535E-01 -0.11136578847E+00  0.29987261022E-01  0.88802843858E+00  0.88000000000E+00 0.  1.
        -11    1    4    4    0    0  0.29142003908E-01  0.10057131534E+00 -0.12600542769E-01  0.10546506843E+00  0.51100000000E-03 0.  1.
         11    1    4    4    0    0  0.10682059354E-01  0.20907696618E-01  0.49290228447E-02  0.23995719558E-01  0.51100000000E-03 0. -1.
</event>
<event>
 8    1  0.1072332E+005  0.1043930E+01  0.7957747E-01            NaN
         13   -1    0    0    0    0  0.00000000000E+00  0.00000000000E+00  0.74505805969E-08  0.10566000000E+00  0.10566000000E+00 0.  1.
     999900   -1    0    0    0    0 -0.00000000000E+00 -0.00000000000E+00 -0.74505805969E-08  0.93827000000E+00  0.93827000000E+00 0.  1.
     999902    2    1    2    0    0 -0.15952646530E-01  0.55195996588E-04 -0.17419085356E-01  0.10203097859E+01  0.10200363448E+01 0.  0.
     999903    2    3    3    0    0 -0.10925684938E+00  0.67736339926E-01 -0.26285360242E-01  0.13274850786E+00  0.20148828543E-01 0.  0.
         14    1    1    2    0    0  0.15952646530E-01 -0.55195996588E-04  0.17419085356E-01  0.23620214067E-01  0.00000000000E+00 0.  1.
     999901    1    3    3    0    0  0.93304202850E-01 -0.67681143930E-01  0.88662748856E-02  0.88756127808E+00  0.88000000000E+00 0. -1.
        -11    1    4    4    0    0 -0.35238765975E-01  0.11236997112E-01 -0.67044674938E-02  0.37593240575E-01  0.51100000000E-03 0.  1.
         11    1    4    4    0    0 -0.74018083405E-01  0.56499342814E-01 -0.19580892748E-01  0.95155267280E-01  0.51100000000E-03 0. -1.
</event>
<event>
 8    1  0.1072332E+005  0.1043930E+01  0.7957747E-01            NaN
         13   -1    0    0    0    0  0.00000000000E+00  0.00000000000E+00  0.74505805969E-08  0.10566000000E+00  0.10566000000E+00 0. -1.
     999900   -1    0    0    0    0 -0.00000000000E+00 -0.00000000000E+00 -0.74505805969E-08  0.93827000000E+00  0.93827000000E+00 0.  1.
     999902    2    1    2    0    0 -0.14700857249E-01  0.65737185105E-03 -0.18247492948E-01  0.10204881925E+01  0.10202189141E+01 0.  0.
     999903    2    3    3    0    0  0.42829670219E-01 -0.11563382325E+00  0.35128971109E-01  0.12937515218E+00  0.17272048515E-01 0.  0.
         14    1    1    2    0    0  0.14700857249E-01 -0.65737185105E-03  0.18247492948E-01  0.23441807534E-01  0.00000000000E+00 0. -1.
     999901    1    3    3    0    0 -0.57530527468E-01  0.11629119510E+00 -0.53376464057E-01  0.89111304028E+00  0.88000000000E+00 0.  1.
        -11    1    4    4    0    0  0.12398926270E-01 -0.54967846806E-01  0.11541550501E-01  0.57521005416E-01  0.51100000000E-03 0. -1.
         11    1    4    4    0    0  0.30430743949E-01 -0.60665976446E-01  0.23587420607E-01  0.71854146766E-01  0.51100000000E-03 0.  1.
</event>
<event>
 8    1  0.1072332E+005  0.1043930E+01  0.7957747E-01            NaN
         13   -1    0    0    0    0  0.00000000000E+00  0.00000000000E+00  0.74505805969E-08  0.10566000000E+00  0.10566000000E+00 0. -1.
     999900   -1    0    0    0    0 -0.00000000000E+00 -0.00000000000E+00 -0.74505805969E-08  0.93827000000E+00  0.93827000000E+00 0. -1.
     999902    2    1    2    0    0  0.17212842020E-01  0.19981091236E-01  0.24596566718E-02  0.10174427229E+01  0.10170978903E+01 0.  0.
     999903    2    3    3    0    0 -0.93962376886E-01  0.10821452459E-01  0.82414984212E-01  0.12680436605E+00  0.18468500852E-01 0.  0.
         14    1    1    2    0    0 -0.17212842020E-01 -0.19981091236E-01 -0.24596566718E-02  0.26487277103E-01  0.00000000000E+00 0.  1.
     999901    1    3    3    0    0  0.11117521891E+00  0.91596387775E-02 -0.79955327540E-01  0.89063835684E+00  0.88000000000E+00 0. -1.
        -11    1    4    4    0    0 -0.32967521275E-01 -0.26307121812E-02  0.20839108855E-01  0.39093576000E-01  0.51100000000E-03 0.  1.
         11    1    4    4    0    0 -0.60994855611E-01  0.13452164640E-01  0.61575875357E-01  0.87710790052E-01  0.51100000000E-03 0. -1.
</event>
<event>
 8    1  0.1072332E+005  0.1043930E+01  0.7957747E-01            NaN
         13   -1    0    0    0    0  0.00000000000E+00  0.00000000000E+00  0.74505805969E-08  0.10566000000E+00  0.10566000000E+00 0.  1.
     999900   -1    0    0    0    0 -0.00000000000E+00 -0.00000000000E+00 -0.74505805969E-08  0.93827000000E+00  0.93827000000E+00 0. -1.
     999902    2    1    2    0    0 -0.18930009288E-01 -0.19900292779E-01 -0.13188048091E-01  0.10134621232E+01  0.10130040393E+01 0.  0.
     999903    2    3    3    0    0 -0.93995160717E-01  0.69003716257E-01 -0.41157384406E-01  0.12536247589E+00  0.20620789847E-01 0.  0.
         14    1    1    2    0    0  0.18930009288E-01  0.19900292779E-01  0.13188048091E-01  0.30467876801E-01  0.00000000000E+00 0.  1.
     999901    1    3    3    0    0  0.75065151430E-01 -0.88904009035E-01  0.27969336315E-01  0.88809964731E+00  0.88000000000E+00 0. -1.
        -11    1    4    4    0    0 -0.53569422326E-01  0.48954819693E-01 -0.32013586643E-01  0.79318271730E-01  0.51100000000E-03 0. -1.
         11    1    4    4    0    0 -0.40425738391E-01  0.20048896564E-01 -0.91437977624E-02  0.46044204157E-01  0.51100000000E-03 0.  1.
</event>
<event>
 8    1  0.1072332E+005  0.1043930E+01  0.7957747E-01            NaN
         13   -1    0    0    0    0  0.00000000000E+00  0.00000000000E+00  0.74505805969E-08  0.10566000000E+00  0.10566000000E+00 0.  1.
     999900   -1    0    0    0    0 -0.00000000000E+00 -0.00000000000E+00 -0.74505805969E-08  0.93827000000E+00  0.93827000000E+00 0.  1.
     999902    2    1    2    0    0 -0.21185542495E-01 -0.58289172207E-02 -0.16812395006E-02  0.10218929845E+01  0.10216553439E+01 0.  0.
     999903    2    3    3    0    0 -0.13316902839E+00 -0.57815180825E-02  0.83304223231E-03  0.13479286331E+00  0.20025133397E-01 0.  0.
         14    1    1    2    0    0  0.21185542495E-01  0.58289172207E-02  0.16812395006E-02  0.22037015520E-01  0.00000000000E+00 0.  1.
     999901    1    3    3    0    0  0.11198348589E+00 -0.47399138211E-04 -0.25142817329E-02  0.88710012117E+00  0.88000000000E+00 0. -1.
        -11    1    4    4    0    0 -0.34126716245E-01 -0.10277717722E-01  0.32929228365E-03  0.35645950649E-01  0.51100000000E-03 0.  1.
         11    1    4    4    0    0 -0.99042312144E-01  0.44961996394E-02  0.50374994866E-03  0.99146912665E-01  0.51100000000E-03 0. -1.
</event>
<event>
 8    1  0.1072332E+005  0.1043930E+01  0.7957747E-01            NaN
         13   -1    0    0    0    0  0.00000000000E+00  0.00000000000E+00  0.74505805969E-08  0.10566000000E+00  0.10566000000E+00 0. -1.
     999900   -1    0    0    0    0 -0.00000000000E+00 -0.00000000000E+00 -0.74505805969E-08  0.93827000000E+00  0.93827000000E+00 0. -1.
     999902    2    1    2    0    0  0.48391234124E-02 -0.99823688742E-02  0.19830216232E-01  0.10212077140E+01  0.10209548927E+01 0.  0.
     999903    2    3    3    0    0 -0.73815061913E-01 -0.80538265534E-01  0.74591992198E-01  0.13319675265E+00  0.15567081841E-01 0.  0.
         14    1    1    2    0    0 -0.48391234124E-02  0.99823688742E-02 -0.19830216232E-01  0.22722285967E-01  0.00000000000E+00 0.  1.
     999901    1    3    3    0    0  0.78654185326E-01  0.70555896659E-01 -0.54761775965E-01  0.88801096138E+00  0.88000000000E+00 0. -1.
        -11    1    4    4    0    0 -0.49886423049E-01 -0.62955868563E-01  0.49807385939E-01  0.94515254886E-01  0.51100000000E-03 0. -1.
         11    1    4    4    0    0 -0.23928638864E-01 -0.17582396971E-01  0.24784606259E-01  0.38681497768E-01  0.51100000000E-03 0.  1.
</event>
<event>
 8    1  0.1072332E+005  0.1043930E+01  0.7957747E-01            NaN
         13   -1    0    0    0    0  0.00000000000E+00  0.00000000000E+00  0.74505805969E-08  0.10566000000E+00  0.10566000000E+00 0. -1.
     999900   -1    0    0    0    0 -0.00000000000E+00 -0.00000000000E+00 -0.74505805969E-08  0.93827000000E+00  0.93827000000E+00 0. -1.
     999902    2    1    2    0    0  0.86224627495E-02 -0.12948083923E-01  0.21479261748E-01  0.10174090945E+01  0.10170633742E+01 0.  0.
     999903    2    3    3    0    0 -0.69228572234E-01 -0.10459149247E+00  0.23735443192E-01  0.12922871403E+00  0.20117498723E-01 0.  0.
         14    1    1    2    0    0 -0.86224627495E-02  0.12948083923E-01 -0.21479261748E-01  0.26520905459E-01  0.00000000000E+00 0.  1.
     999901    1    3    3    0    0  0.77851034983E-01  0.91643408545E-01 -0.22561814440E-02  0.88818038052E+00  0.88000000000E+00 0. -1.
        -11    1    4    4    0    0 -0.51954932926E-01 -0.74465202125E-01  0.25926074112E-01  0.94428829405E-01  0.51100000000E-03 0.  1.
         11    1    4    4    0    0 -0.17273639308E-01 -0.30126290343E-01 -0.21906309204E-02  0.34799884621E-01  0.51100000000E-03 0. -1.
</event>
<event>
 8    1  0.1072332E+005  0.1043930E+01  0.7957747E-01            NaN
         13   -1    0    0    0    0  0.00000000000E+00  0.00000000000E+00  0.74505805969E-08  0.10566000000E+00  0.10566000000E+00 0.  1.
     999900   -1    0    0    0    0 -0.00000000000E+00 -0.00000000000E+00 -0.74505805969E-08  0.93827000000E+00  0.93827000000E+00 0. -1.
     999902    2    1    2    0    0  0.91387147307E-02 -0.70878200113E-02 -0.20772206372E-01  0.10201552685E+01  0.10198781957E+01 0.  0.
     999903    2    3    3    0    0  0.41885754391E-01  0.11196279730E+00  0.42786170019E-01  0.12926521621E+00  0.24264281908E-01 0.  0.
         14    1    1    2    0    0 -0.91387147307E-02  0.70878200113E-02  0.20772206372E-01  0.23774731481E-01  0.00000000000E+00 0.  1.
     999901    1    3    3    0    0 -0.32747039661E-01 -0.11905061732E+00 -0.63558376391E-01  0.89089005231E+00  0.88000000000E+00 0.  1.
        -11    1    4    4    0    0  0.28898552975E-01  0.10074704263E+00  0.36871980279E-01  0.11110759206E+00  0.51100000000E-03 0.  1.
         11    1    4    4    0    0  0.12987201416E-01  0.11215754671E-01  0.59141897405E-02  0.18157624150E-01  0.51100000000E-03 0. -1.
</event>
<event>
 8    1  0.1072332E+005  0.1043930E+01  0.7957747E-01            NaN
         13   -1    0    0    0    0  0.00000000000E+00  0.00000000000E+00  0.74505805969E-08  0.10566000000E+00  0.10566000000E+00 0.  1.
     999900   -1    0    0    0    0 -0.00000000000E+00 -0.00000000000E+00 -0.74505805969E-08  0.93827000000E+00  0.93827000000E+00 0.  1.
     999902    2    1    2    0    0 -0.65756585239E-03  0.10263055642E-01 -0.21687414665E-01  0.10199277780E+01  0.10196453137E+01 0.  0.
     999903    2    3    3    0    0 -0.33098627025E-01  0.15643215365E-01  0.12083059847E+00  0.12785561020E+00  0.20169140656E-01 0.  0.
         14    1    1    2    0    0  0.65756585239E-03 -0.10263055642E-01  0.21687414665E-01  0.24002221956E-01  0.00000000000E+00 0.  1.
     999901    1    3    3    0    0  0.32441061173E-01 -0.53801597225E-02 -0.14251801314E+00  0.89207216784E+00  0.88000000000E+00 0.  1.
        -11    1    4    4    0    0 -0.57235282086E-02  0.11556167649E-01  0.53947060705E-01  0.55469363307E-01  0.51100000000E-03 0.  1.
         11    1    4    4    0    0 -0.27375098816E-01  0.40870477155E-02  0.66883537769E-01  0.72386246896E-01  0.51100000000E-03 0. -1.
</event>
<event>
 8    1  0.1072332E+005  0.1043930E+01  0.7957747E-01            NaN
         13   -1    0    0    0    0  0.00000000000E+00  0.00000000000E+00  0.74505805969E-08  0.10566000000E+00  0.10566000000E+00 0.  1.
     999900   -1    0    0    0    0 -0.00000000000E+00 -0.00000000000E+00 -0.74505805969E-08  0.93827000000E+00  0.93827000000E+00 0.  1.
     999902    2    1    2    0    0 -0.30495692805E-03 -0.10524609303E-01 -0.11729405716E-01  0.10281680408E+01  0.10280472172E+01 0.  0.
     999903    2    3    3    0    0  0.67314227227E-01  0.11739707809E+00 -0.45836259731E-02  0.13632311350E+00  0.15801978177E-01 0.  0.
         14    1    1    2    0    0  0.30495692805E-03  0.10524609303E-01  0.11729405716E-01  0.15761959211E-01  0.00000000000E+00 0.  1.
     999901    1    3    3    0    0 -0.67619184155E-01 -0.12792168739E+00 -0.71457797433E-02  0.89184492729E+00  0.88000000000E+00 0.  1.
        -11    1    4    4    0    0  0.45000711256E-01  0.66644231860E-01  0.23298521422E-02  0.80450027879E-01  0.51100000000E-03 0. -1.
         11    1    4    4    0    0  0.22313515971E-01  0.50752846231E-01 -0.69134781154E-02  0.55873085616E-01  0.51100000000E-03 0.  1.
</event>
<event>
 8    1  0.1072332E+005  0.1043930E+01  0.7957747E-01            NaN
         13   -1    0    0    0    0  0.00000000000E+00  0.00000000000E+00  0.74505805969E-08  0.10566000000E+00  0.10566000000E+00 0.  1.
     999900   -1    0    0    0    0 -0.00000000000E+00 -0.00000000000E+00 -0.74505805969E-08  0.93827000000E+00  0.93827000000E+00 0.  1.
     999902    2    1    2    0    0 -0.11753125220E-01  0.16028884628E-01 -0.11914755311E-01  0.10207562543E+01  0.10204931691E+01 0.  0.
     999903    2    3    3    0    0 -0.12036791843E+00  0.36158361286E-02 -0.52862717754E-01  0.13304684651E+00  0.20136692363E-01 0.  0.
         14    1    1    2    0    0  0.11753125220E-01 -0.16028884628E-01  0.11914755311E-01  0.23173745683E-01  0.00000000000E+00 0.  1.
     999901    1    3    3    0    0  0.10861479321E+00  0.12413048499E-01  0.40947962443E-01  0.88770940781E+00  0.88000000000E+00 0. -1.
        -11    1    4    4    0    0 -0.83354891513E-01  0.11088015962E-01 -0.32580818748E-01  0.90181777031E-01  0.51100000000E-03 0.  1.
         11    1    4    4    0    0 -0.37013026921E-01 -0.74721798336E-02 -0.20281899007E-01  0.42865069481E-01  0.51100000000E-03 0. -1.
</event>
<event>
 8    1  0.1072332E+005  0.1043930E+01  0.7957747E-01            NaN
         13   -1    0    0    0    0  0.00000000000E+00  0.00000000000E+00  0.74505805969E-08  0.10566000000E+00  0.10566000000E+00 0. -1.
     999900   -1    0    0    0    0 -0.00000000000E+00 -0.00000000000E+00 -0.74505805969E-08  0.93827000000E+00  0.93827000000E+00 0.  1.
     999902    2    1    2    0    0  0.98322693083E-02  0.67069662686E-02 -0.20808215644E-01  0.10199583761E+01  0.10196766400E+01 0.  0.
     999903    2    3    3    0    0 -0.63729778822E-01 -0.10755338864E+00 -0.27210628903E-01  0.12950467455E+00  0.20045605199E-01 0.  0.
         14    1    1    2    0    0 -0.98322693083E-02 -0.67069662686E-02  0.20808215644E-01  0.23971623945E-01  0.00000000000E+00 0. -1.
     999901    1    3    3    0    0  0.73562048130E-01  0.11426035491E+00  0.64024132589E-02  0.89045370151E+00  0.88000000000E+00 0.  1.
        -11    1    4    4    0    0 -0.16103192268E-01 -0.13031319318E-01 -0.57808901882E-02  0.21512970431E-01  0.51100000000E-03 0. -1.
         11    1    4    4    0    0 -0.47626586554E-01 -0.94522069324E-01 -0.21429738715E-01  0.10799170412E+00  0.51100000000E-03 0.  1.
</event>
<event>
 8    1  0.1072332E+005  0.1043930E+01  0.7957747E-01            NaN
         13   -1    0    0    0    0  0.00000000000E+00  0.00000000000E+00  0.74505805969E-08  0.10566000000E+00  0.10566000000E+00 0.  1.
     999900   -1    0    0    0    0 -0.00000000000E+00 -0.00000000000E+00 -0.74505805969E-08  0.93827000000E+00  0.93827000000E+00 0.  1.
     999902    2    1    2    0    0 -0.20899963806E-01 -0.84204174212E-02  0.11001169954E-03  0.10213972678E+01  0.10211486937E+01 0.  0.
     999903    2    3    3    0    0 -0.91847541890E-01  0.66827194460E-01 -0.65456005774E-01  0.13291841913E+00  0.21931087109E-01 0.  0.
         14    1    1    2    0    0  0.20899963806E-01  0.84204174212E-02 -0.11001169954E-03  0.22532732174E-01  0.00000000000E+00 0. -1.
     999901    1    3    3    0    0  0.70947578084E-01 -0.75247611881E-01  0.65566017474E-01  0.88847884869E+00  0.88000000000E+00 0. -1.
        -11    1    4    4    0    0 -0.37678303442E-01  0.40885778379E-01 -0.32689694770E-01  0.64499447200E-01  0.51100000000E-03 0.  1.
         11    1    4    4    0    0 -0.54169238448E-01  0.25941416081E-01 -0.32766311005E-01  0.68418971932E-01  0.51100000000E-03 0. -1.
</event>
<event>
 8    1  0.1072332E+005  0.1043930E+01  0.7957747E-01            NaN
         13   -1    0    0    0    0  0.00000000000E+00  0.00000000000E+00  0.74505805969E-08  0.10566000000E+00  0.10566000000E+00 0.  1.
     999900   -1    0    0    0    0 -0.00000000000E+00 -0.00000000000E+00 -0.74505805969E-08  0.93827000000E+00  0.93827000000E+00 0. -1.
     999902    2    1    2    0    0  0.17896263381E-01 -0.20976174918E-02 -0.16451949492E-01  0.10195303507E+01  0.10192383397E+01 0.  0.
     999903    2    3    3    0    0 -0.11385630205E-01 -0.12356509506E+00 -0.35060388063E-01  0.13050951218E+00  0.20137940930E-01 0.  0.
         14    1    1    2    0    0 -0.17896263381E-01  0.20976174918E-02  0.16451949492E-01  0.24399649265E-01  0.00000000000E+00 0.  1.
     999901    1    3    3    0    0  0.29281893586E-01  0.12146747757E+00  0.18608438571E-01  0.88902083856E+00  0.88000000000E+00 0.  1.
        -11    1    4    4    0    0 -0.12599246561E-02 -0.16435187184E-01 -0.12163702310E-01  0.20491938971E-01  0.51100000000E-03 0. -1.
         11    1    4    4    0    0 -0.10125705549E-01 -0.10712990788E+00 -0.22896685754E-01  0.11001757321E+00  0.51100000000E-03 0.  1.
</event>
<event>
 8    1  0.1072332E+005  0.1043930E+01  0.7957747E-01            NaN
         13   -1    0    0    0    0  0.00000000000E+00  0.00000000000E+00  0.74505805969E-08  0.10566000000E+00  0.10566000000E+00 0. -1.
     999900   -1    0    0    0    0 -0.00000000000E+00 -0.00000000000E+00 -0.74505805969E-08  0.93827000000E+00  0.93827000000E+00 0.  1.
     999902    2    1    2    0    0  0.55665051093E-02 -0.22579158651E-01 -0.23245367608E-02  0.10205589098E+01  0.10202912724E+01 0.  0.
     999903    2    3    3    0    0  0.53477732061E-01  0.37810070562E-01 -0.11131236705E+00  0.13049110802E+00  0.18655212470E-01 0.  0.
         14    1    1    2    0    0 -0.55665051093E-02  0.22579158651E-01  0.23245367608E-02  0.23371090169E-01  0.00000000000E+00 0.  1.
     999901    1    3    3    0    0 -0.47911226952E-01 -0.60389229214E-01  0.10898783028E+00  0.89006780181E+00  0.88000000000E+00 0. -1.
        -11    1    4    4    0    0  0.38086699557E-01  0.29789382731E-01 -0.95326732338E-01  0.10688990142E+00  0.51100000000E-03 0. -1.
         11    1    4    4    0    0  0.15391032504E-01  0.80206878311E-02 -0.15985634707E-01  0.23601206597E-01  0.51100000000E-03 0.  1.
</event>
<event>
 8    1  0.1072332E+005  0.1043930E+01  0.7957747E-01            NaN
         13   -1    0    0    0    0  0.00000000000E+00  0.00000000000E+00  0.74505805969E-08  0.10566000000E+00  0.10566000000E+00 0.  1.
     999900   -1    0    0    0    0 -0.00000000000E+00 -0.00000000000E+00 -0.74505805969E-08  0.93827000000E+00  0.93827000000E+00 0. -1.
     999902    2    1    2    0    0 -0.77856745366E-02  0.23231931619E-01 -0.51185979099E-02  0.10188992305E+01  0.10185917252E+01 0.  0.
     999903    2    3    3    0    0  0.29278786109E-01 -0.22076022744E-01 -0.12261682872E+00  0.12916195516E+00  0.17416253325E-01 0.  0.
         14    1    1    2    0    0  0.77856745366E-02 -0.23231931619E-01  0.51185979099E-02  0.25030769451E-01  0.00000000000E+00 0.  1.
     999901    1    3    3    0    0 -0.37064460646E-01  0.45307954363E-01  0.11749823081E+00  0.88973727539E+00  0.88000000000E+00 0.  1.
        -11    1    4    4    0    0  0.59642345287E-02 -0.11539218208E-01 -0.24175573176E-01  0.27448954621E-01  0.51100000000E-03 0. -1.
         11    1    4    4    0    0  0.23314551581E-01 -0.10536804535E-01 -0.98441255542E-01  0.10171300054E+00  0.51100000000E-03 0.  1.
</event>
<event>
 8    1  0.1072332E+005  0.1043930E+01  0.7957747E-01            NaN
         13   -1    0    0    0    0  0.00000000000E+00  0.00000000000E+00  0.74505805969E-08  0.10566000000E+00  0.10566000000E+00 0. -1.
     999900   -1    0    0    0    0 -0.00000000000E+00 -0.00000000000E+00 -0.74505805969E-08  0.93827000000E+00  0.93827000000E+00 0. -1.
     999902    2    1    2    0    0  0.11851229086E-02 -0.64995445981E-03 -0.22512775838E-01  0.10213766847E+01  0.10211276511E+01 0.  0.
     999903    2    3    3    0    0  0.52995212163E-02  0.12665334714E+00  0.25874818634E-01  0.13089118889E+00  0.19845448438E-01 0.  0.
         14    1    1    2    0    0 -0.11851229086E-02  0.64995445981E-03  0.22512775838E-01  0.22553315345E-01  0.00000000000E+00 0. -1.
     999901    1    3    3    0    0 -0.41143983077E-02 -0.12730330160E+00 -0.48387594472E-01  0.89048549577E+00  0.88000000000E+00 0. -1.
        -11    1    4    4    0    0  0.12174992763E-01  0.78986955516E-01  0.12385612813E-01  0.80875423437E-01  0.51100000000E-03 0. -1.
         11    1    4    4    0    0 -0.68754715468E-02  0.47666391620E-01  0.13489205821E-01  0.50015765452E-01  0.51100000000E-03 0.  1.
</event>
<event>
 8    1  0.1072332E+005  0.1043930E+01  0.7957747E-01            NaN
         13   -1    0    0    0    0  0.00000000000E+00  0.00000000000E+00  0.74505805969E-08  0.10566000000E+00  0.10566000000E+00 0.  1.
     999900   -1    0    0    0    0 -0.00000000000E+00 -0.00000000000E+00 -0.74505805969E-08  0.93827000000E+00  0.93827000000E+00 0.  1.
     999902    2    1    2    0    0 -0.41407036915E-02  0.18273813970E-01  0.59058077176E-02  0.10242842303E+01  0.10240958100E+01 0.  0.
     999903    2    3    3    0    0 -0.81974883150E-01  0.10636418713E+00 -0.47479647292E-02  0.13640384631E+00  0.23457287708E-01 0.  0.
         14    1    1    2    0    0  0.41407036915E-02 -0.18273813970E-01 -0.59058077176E-02  0.19645769745E-01  0.00000000000E+00 0. -1.
     999901    1    3    3    0    0  0.77834179459E-01 -0.88090373159E-01  0.10653772447E-01  0.88788038395E+00  0.88000000000E+00 0. -1.
        -11    1    4    4    0    0 -0.39598474882E-01  0.68811766758E-01 -0.72588222598E-02  0.79724839786E-01  0.51100000000E-03 0.  1.
         11    1    4    4    0    0 -0.42376408268E-01  0.37552420372E-01  0.25108575306E-02  0.56679006519E-01  0.51100000000E-03 0. -1.
</event>
<event>
 8    1  0.1072332E+005  0.1043930E+01  0.7957747E-01            NaN
         13   -1    0    0    0    0  0.00000000000E+00  0.00000000000E+00  0.74505805969E-08  0.10566000000E+00  0.10566000000E+00 0.  1.
     999900   -1    0    0    0    0 -0.00000000000E+00 -0.00000000000E+00 -0.74505805969E-08  0.93827000000E+00  0.93827000000E+00 0.  1.
     999902    2    1    2    0    0 -0.10679470442E-01 -0.11850502782E-01 -0.16853750841E-01  0.10207236556E+01  0.10204598212E+01 0.  0.
     999903    2    3    3    0    0  0.71737400500E-01 -0.80472417324E-01 -0.72761394757E-01  0.13245164067E+00  0.25043002414E-01 0.  0.
         14    1    1    2    0    0  0.10679470442E-01  0.11850502782E-01  0.16853750841E-01  0.23206344446E-01  0.00000000000E+00 0.  1.
     999901    1    3    3    0    0 -0.82416870942E-01  0.68621914541E-01  0.55907643916E-01  0.88827201488E+00  0.88000000000E+00 0. -1.
        -11    1    4    4    0    0  0.31443040159E-01 -0.31078929627E-01 -0.44470780805E-01  0.62709457880E-01  0.51100000000E-03 0. -1.
         11    1    4    4    0    0  0.40294360340E-01 -0.49393487697E-01 -0.28290613952E-01  0.69742182794E-01  0.51100000000E-03 0.  1.
</event>
<event>
 8    1  0.1072332E+005  0.1043930E+01  0.7957747E-01            NaN
         13   -1    0    0    0    0  0.00000000000E+00  0.00000000000E+00  0.74505805969E-08  0.10566000000E+00  0.10566000000E+00 0.  1.
     999900   -1    0    0    0    0 -0.00000000000E+00 -0.00000000000E+00 -0.74505805969E-08  0.93827000000E+00  0.93827000000E+00 0. -1.
     999902    2    1    2    0    0  0.21238756753E-01 -0.95959346873E-02  0.19779281849E-02  0.10205402811E+01  0.10202722119E+01 0.  0.
     999903    2    3    3    0    0 -0.98197149826E-01 -0.76839764380E-01  0.29259480666E-01  0.12951225037E+00  0.19242561263E-01 0.  0.
         14    1    1    2    0    0 -0.21238756753E-01  0.95959346873E-02 -0.19779281849E-02  0.23389718913E-01  0.00000000000E+00 0. -1.
     999901    1    3    3    0    0  0.11943590658E+00  0.67243829693E-01 -0.27281552481E-01  0.89102803071E+00  0.88000000000E+00 0.  1.
        -11    1    4    4    0    0 -0.82068280749E-01 -0.57294899349E-01  0.28840685785E-01  0.10416311475E+00  0.51100000000E-03 0. -1.
         11    1    4    4    0    0 -0.16128869077E-01 -0.19544865031E-01  0.41879488118E-03  0.25349135625E-01  0.51100000000E-03 0.  1.
</event>
<event>
 8    1  0.1072332E+005  0.1043930E+01  0.7957747E-01            NaN
         13   -1    0    0    0    0  0.00000000000E+00  0.00000000000E+00  0.74505805969E-08  0.10566000000E+00  0.10566000000E+00 0.  1.
     999900   -1    0    0    0    0 -0.00000000000E+00 -0.00000000000E+00 -0.74505805969E-08  0.93827000000E+00  0.93827000000E+00 0.  1.
     999902    2    1    2    0    0  0.85188937200E-02 -0.66623186398E-02 -0.21692811824E-01  0.10196908555E+01  0.10194027196E+01 0.  0.
     999903    2    3    3    0    0  0.94725319013E-01  0.63138422927E-01  0.57715473050E-01  0.12918012174E+00  0.19926904220E-01 0.  0.
         14    1    1    2    0    0 -0.85188937200E-02  0.66623186398E-02  0.21692811824E-01  0.24239144471E-01  0.00000000000E+00 0.  1.
     999901    1    3    3    0    0 -0.86206425293E-01 -0.69800741567E-01 -0.79408284873E-01  0.89051073379E+00  0.88000000000E+00 0. -1.
        -11    1    4    4    0    0  0.36885011995E-01  0.17949286438E-01  0.12148395604E-01  0.42784642458E-01  0.51100000000E-03 0.  1.
         11    1    4    4    0    0  0.57840307018E-01  0.45189136490E-01  0.45567077446E-01  0.86395479283E-01  0.51100000000E-03 0. -1.
</event>
<event>
 8    1  0.1072332E+005  0.1043930E+01  0.7957747E-01            NaN
         13   -1    0    0    0    0  0.00000000000E+00  0.00000000000E+00  0.74505805969E-08  0.10566000000E+00  0.10566000000E+00 0.  1.
     999900   -1    0    0    0    0 -0.00000000000E+00 -0.00000000000E+00 -0.74505805969E-08  0.93827000000E+00  0.93827000000E+00 0. -1.
     999902    2    1    2    0    0  0.53591961412E-02  0.21794780002E-01  0.71856825296E-02  0.10203637646E+01  0.10200915864E+01 0.  0.
     999903    2    3    3    0    0 -0.25901262952E-01 -0.46676016900E-01 -0.11520833241E+00  0.12871037832E+00  0.21068356709E-01 0.  0.
         14    1    1    2    0    0 -0.53591961412E-02 -0.21794780002E-01 -0.71856825296E-02  0.23566235423E-01  0.00000000000E+00 0. -1.
     999901    1    3    3    0    0  0.31260459093E-01  0.68470796902E-01  0.12239401494E+00  0.89165338626E+00  0.88000000000E+00 0.  1.
        -11    1    4    4    0    0 -0.27800751559E-01 -0.40333902124E-01 -0.88141159048E-01  0.10084061923E+00  0.51100000000E-03 0. -1.
         11    1    4    4    0    0  0.18994886076E-02 -0.63421147761E-02 -0.27067173362E-01  0.27869759088E-01  0.51100000000E-03 0.  1.
</event>
<event>
 8    1  0.1072332E+005  0.1043930E+01  0.7957747E-01            NaN
         13   -1    0    0    0    0  0.00000000000E+00  0.00000000000E+00  0.74505805969E-08  0.10566000000E+00  0.10566000000E+00 0. -1.
     999900   -1    0    0    0    0 -0.00000000000E+00 -0.00000000000E+00 -0.74505805969E-08  0.93827000000E+00  0.93827000000E+00 0.  1.
     999902    2    1    2    0    0  0.51295925668E-02  0.12857412310E-02 -0.23092496791E-01  0.10202397223E+01  0.10199646375E+01 0.  0.
     999903    2    3    3    0    0  0.86013384539E-01 -0.86026707987E-01  0.41032321325E-01  0.12991526238E+00  0.19885351387E-01 0.  0.
         14    1    1    2    0    0 -0.51295925668E-02 -0.12857412310E-02  0.23092496791E-01  0.23690277720E-01  0.00000000000E+00 0. -1.
     999901    1    3    3    0    0 -0.80883791972E-01  0.87312449218E-01 -0.64124818116E-01  0.89032445990E+00  0.88000000000E+00 0. -1.
        -11    1    4    4    0    0  0.40036775232E-01 -0.31144811509E-01  0.91716323294E-02  0.51549225169E-01  0.51100000000E-03 0. -1.
         11    1    4    4    0    0  0.45976609307E-01 -0.54881896479E-01  0.31860688995E-01  0.78366037215E-01  0.51100000000E-03 0.  1.
</event>
<event>
 8    1  0.1072332E+005  0.1043930E+01  0.7957747E-01            NaN
         13   -1    0    0    0    0  0.00000000000E+00  0.00000000000E+00  0.74505805969E-08  0.10566000000E+00  0.10566000000E+00 0.  1.
     999900   -1    0    0    0    0 -0.00000000000E+00 -0.00000000000E+00 -0.74505805969E-08  0.93827000000E+00  0.93827000000E+00 0. -1.
     999902    2    1    2    0    0 -0.18485145379E-02 -0.14026907698E-01 -0.18272979236E-01  0.10208199824E+01  0.10205583587E+01 0.  0.
     999903    2    3    3    0    0  0.26753250895E-01  0.10287556017E+00  0.69073771356E-01  0.12834381863E+00  0.20045762059E-01 0.  0.
         14    1    1    2    0    0  0.18485145379E-02  0.14026907698E-01  0.18272979236E-01  0.23110017648E-01  0.00000000000E+00 0. -1.
     999901    1    3    3    0    0 -0.28601765433E-01 -0.11690246787E+00 -0.87346750592E-01  0.89247616373E+00  0.88000000000E+00 0. -1.
        -11    1    4    4    0    0  0.88695273667E-02  0.68766952037E-01  0.39647709705E-01  0.79873426207E-01  0.51100000000E-03 0. -1.
         11    1    4    4    0    0  0.17883723528E-01  0.34108608133E-01  0.29426061651E-01  0.48470392419E-01  0.51100000000E-03 0.  1.
</event>
<event>
 8    1  0.1072332E+005  0.1043930E+01  0.7957747E-01            NaN
         13   -1    0    0    0    0  0.00000000000E+00  0.00000000000E+00  0.74505805969E-08  0.10566000000E+00  0.10566000000E+00 0. -1.
     999900   -1    0    0    0    0 -0.00000000000E+00 -0.00000000000E+00 -0.74505805969E-08  0.93827000000E+00  0.93827000000E+00 0. -1.
     999902    2    1    2    0    0 -0.22920675598E-02  0.84150204080E-02 -0.23099297920E-01  0.10192390359E+01  0.10189399240E+01 0.  0.
     999903    2    3    3    0    0 -0.84453699025E-01 -0.98056274725E-02  0.93228053702E-01  0.12760313579E+00  0.19039765138E-01 0.  0.
         14    1    1    2    0    0  0.22920675598E-02 -0.84150204080E-02  0.23099297920E-01  0.24690964067E-01  0.00000000000E+00 0. -1.
     999901    1    3    3    0    0  0.82161631465E-01  0.18220647880E-01 -0.11632735162E+00  0.89163590015E+00  0.88000000000E+00 0. -1.
        -11    1    4    4    0    0 -0.40873082214E-01 -0.13619603093E-01  0.51471023961E-01  0.67123988757E-01  0.51100000000E-03 0.  1.
         11    1    4    4    0    0 -0.43580616812E-01  0.38139756206E-02  0.41757029741E-01  0.60479147030E-01  0.51100000000E-03 0. -1.
</event>
<event>
 8    1  0.1072332E+005  0.1043930E+01  0.7957747E-01            NaN
         13   -1    0    0    0    0  0.00000000000E+00  0.00000000000E+00  0.74505805969E-08  0.10566000000E+00  0.10566000000E+00 0.  1.
     999900   -1    0    0    0    0 -0.00000000000E+00 -0.00000000000E+00 -0.74505805969E-08  0.93827000000E+00  0.93827000000E+00 0.  1.
     999902    2    1    2    0    0  0.16352515373E-01 -0.15000503459E-01 -0.61925071288E-02  0.10208916188E+01  0.10206316330E+01 0.  0.
     999903    2    3    3    0    0 -0.11678700697E+00 -0.50921620994E-01  0.14481336014E-01  0.12991245695E+00  0.20864345050E-01 0.  0.
         14    1    1    2    0    0 -0.16352515373E-01  0.15000503459E-01  0.61925071288E-02  0.23038381184E-01  0.00000000000E+00 0.  1.
     999901    1    3    3    0    0  0.13313952235E+00  0.35921117536E-01 -0.20673843142E-01  0.89097916187E+00  0.88000000000E+00 0.  1.
        -11    1    4    4    0    0 -0.44444832103E-01 -0.87852293580E-02  0.29793267705E-02  0.45405515794E-01  0.51100000000E-03 0. -1.
         11    1    4    4    0    0 -0.72342174872E-01 -0.42136391636E-01  0.11502009243E-01  0.84506941152E-01  0.51100000000E-03 0.  1.
</event>
<event>
 8    1  0.1072332E+005  0.1043930E+01  0.7957747E-01            NaN
         13   -1    0    0    0    0  0.00000000000E+00  0.00000000000E+00  0.74505805969E-08  0.10566000000E+00  0.10566000000E+00 0.  1.
     999900   -1    0    0    0    0 -0.00000000000E+00 -0.00000000000E+00 -0.74505805969E-08  0.93827000000E+00  0.93827000000E+00 0. -1.
     999902    2    1    2    0    0  0.20905082305E-01  0.51312086820E-02  0.14098912680E-01  0.10181980916E+01  0.10178728912E+01 0.  0.
     999903    2    3    3    0    0  0.11010784567E+00  0.20984238519E-01 -0.62966376727E-01  0.13019611508E+00  0.20547210032E-01 0.  0.
         14    1    1    2    0    0 -0.20905082305E-01 -0.51312086820E-02 -0.14098912680E-01  0.25731908353E-01  0.00000000000E+00 0. -1.
     999901    1    3    3    0    0 -0.89202763367E-01 -0.15853029837E-01  0.77065289407E-01  0.88800197656E+00  0.88000000000E+00 0. -1.
        -11    1    4    4    0    0  0.70375090249E-01  0.14360978322E-01 -0.28843263489E-01  0.77402105886E-01  0.51100000000E-03 0. -1.
         11    1    4    4    0    0  0.39732755424E-01  0.66232601971E-02 -0.34123113238E-01  0.52794009198E-01  0.51100000000E-03 0.  1.
</event>
<event>
 8    1  0.1072332E+005  0.1043930E+01  0.7957747E-01            NaN
         13   -1    0    0    0    0  0.00000000000E+00  0.00000000000E+00  0.74505805969E-08  0.10566000000E+00  0.10566000000E+00 0.  1.
     999900   -1    0    0    0    0 -0.00000000000E+00 -0.00000000000E+00 -0.74505805969E-08  0.93827000000E+00  0.93827000000E+00 0. -1.
     999902    2    1    2    0    0  0.10842951695E-01  0.16168491234E-01  0.39199916267E-02  0.10240716002E+01  0.10238790388E+01 0.  0.
     999903    2    3    3    0    0  0.61141470739E-01  0.77625840677E-01 -0.90337034163E-01  0.13548208090E+00  0.20750034158E-01 0.  0.
         14    1    1    2    0    0 -0.10842951695E-01 -0.16168491234E-01 -0.39199916267E-02  0.19858399850E-01  0.00000000000E+00 0. -1.
     999901    1    3    3    0    0 -0.50298519043E-01 -0.61457349444E-01  0.94257025789E-01  0.88858951925E+00  0.88000000000E+00 0. -1.
        -11    1    4    4    0    0  0.23284037447E-01  0.34131396634E-01 -0.51185479048E-01  0.65782315423E-01  0.51100000000E-03 0. -1.
         11    1    4    4    0    0  0.37857433292E-01  0.43494444043E-01 -0.39151555115E-01  0.69699765473E-01  0.51100000000E-03 0.  1.
</event>
<event>
 8    1  0.1072332E+005  0.1043930E+01  0.7957747E-01            NaN
         13   -1    0    0    0    0  0.00000000000E+00  0.00000000000E+00  0.74505805969E-08  0.10566000000E+00  0.10566000000E+00 0. -1.
     999900   -1    0    0    0    0 -0.00000000000E+00 -0.00000000000E+00 -0.74505805969E-08  0.93827000000E+00  0.93827000000E+00 0. -1.
     999902    2    1    2    0    0  0.12359812558E-02  0.20061984153E-01 -0.12429117277E-01  0.10202975263E+01  0.10200237979E+01 0.  0.
     999903    2    3    3    0    0  0.10959247527E+00  0.15488049666E-01 -0.68904234458E-01  0.13184297509E+00  0.19605770481E-01 0.  0.
         14    1    1    2    0    0 -0.12359812558E-02 -0.20061984153E-01  0.12429117277E-01  0.23632473720E-01  0.00000000000E+00 0.  1.
     999901    1    3    3    0    0 -0.10835649401E+00  0.45739344871E-02  0.56475117181E-01  0.88845455119E+00  0.88000000000E+00 0. -1.
        -11    1    4    4    0    0  0.10200187613E+00  0.12658719693E-01 -0.68871240722E-01  0.12372604753E+00  0.51100000000E-03 0.  1.
         11    1    4    4    0    0  0.75905991374E-02  0.28293299732E-02 -0.32993735597E-04  0.81169275559E-02  0.51100000000E-03 0. -1.
</event>
<event>
 8    1  0.1072332E+005  0.1043930E+01  0.7957747E-01            NaN
         13   -1    0    0    0    0  0.00000000000E+00  0.00000000000E+00  0.74505805969E-08  0.10566000000E+00  0.10566000000E+00 0.  1.
     999900   -1    0    0    0    0 -0.00000000000E+00 -0.00000000000E+00 -0.74505805969E-08  0.93827000000E+00  0.93827000000E+00 0.  1.
     999902    2    1    2    0    0 -0.45469076956E-02  0.44491459730E-03 -0.23523163896E-01  0.10199672882E+01  0.10196857640E+01 0.  0.
     999903    2    3    3    0    0  0.11765017557E+00  0.33029521566E-01 -0.42768488639E-01  0.13071801699E+00  0.18042816853E-01 0.  0.
         14    1    1    2    0    0  0.45469076956E-02 -0.44491459730E-03  0.23523163896E-01  0.23962711830E-01  0.00000000000E+00 0.  1.
     999901    1    3    3    0    0 -0.12219708326E+00 -0.32584606969E-01  0.19245324744E-01  0.88924927118E+00  0.88000000000E+00 0. -1.
        -11    1    4    4    0    0  0.30103989822E-01  0.15471604769E-01 -0.72283797932E-02  0.34614034043E-01  0.51100000000E-03 0.  1.
         11    1    4    4    0    0  0.87546185744E-01  0.17557916797E-01 -0.35540108846E-01  0.96103982947E-01  0.51100000000E-03 0. -1.
</event>
<event>
 8    1  0.1072332E+005  0.1043930E+01  0.7957747E-01            NaN
         13   -1    0    0    0    0  0.00000000000E+00  0.00000000000E+00  0.74505805969E-08  0.10566000000E+00  0.10566000000E+00 0. -1.
     999900   -1    0    0    0    0 -0.00000000000E+00 -0.00000000000E+00 -0.74505805969E-08  0.93827000000E+00  0.93827000000E+00 0. -1.
     999902    2    1    2    0    0  0.84947460879E-03  0.15856020034E-01 -0.16826618376E-01  0.10207940958E+01  0.10205318789E+01 0.  0.
     999903    2    3    3    0    0 -0.49227695618E-01 -0.11783225574E+00 -0.37876509972E-03  0.12913787842E+00  0.19200043544E-01 0.  0.
         14    1    1    2    0    0 -0.84947460879E-03 -0.15856020034E-01  0.16826618376E-01  0.23135904227E-01  0.00000000000E+00 0. -1.
     999901    1    3    3    0    0  0.50077170227E-01  0.13368827578E+00 -0.16447853277E-01  0.89165621735E+00  0.88000000000E+00 0.  1.
        -11    1    4    4    0    0 -0.19056467511E-01 -0.32789740989E-01 -0.73402430496E-02  0.38632322699E-01  0.51100000000E-03 0.  1.
         11    1    4    4    0    0 -0.30171228107E-01 -0.85042514753E-01  0.69614779499E-02  0.90505555726E-01  0.51100000000E-03 0. -1.
</event>
<event>
 8    1  0.1072332E+005  0.1043930E+01  0.7957747E-01            NaN
         13   -1    0    0    0    0  0.00000000000E+00  0.00000000000E+00  0.74505805969E-08  0.10566000000E+00  0.10566000000E+00 0.  1.
     999900   -1    0    0    0    0 -0.00000000000E+00 -0.00000000000E+00 -0.74505805969E-08  0.93827000000E+00  0.93827000000E+00 0. -1.
     999902    2    1    2    0    0 -0.15630328461E-01 -0.16192474187E-01 -0.84386729499E-02  0.10198943059E+01  0.10196110438E+01 0.  0.
     999903    2    3    3    0    0 -0.99182384841E-01  0.33241398462E-01  0.75517894083E-01  0.13058369707E+00  0.20174577546E-01 0.  0.
         14    1    1    2    0    0  0.15630328461E-01  0.16192474187E-01  0.84386729499E-02  0.24035694066E-01  0.00000000000E+00 0.  1.
     999901    1    3    3    0    0  0.83552056380E-01 -0.49433872648E-01 -0.83956567033E-01  0.88931060886E+00  0.88000000000E+00 0.  1.
        -11    1    4    4    0    0 -0.53682764612E-01  0.75981694007E-02  0.41015156904E-01  0.67985848612E-01  0.51100000000E-03 0. -1.
         11    1    4    4    0    0 -0.45499620229E-01  0.25643229061E-01  0.34502737179E-01  0.62597848457E-01  0.51100000000E-03 0.  1.
</event>
<event>
 7    1  0.1072332E+005  0.1043930E+01  0.7957747E-01            NaN
         13   -1    0    0    0    0  0.00000000000E+00  0.00000000000E+00  0.74505805969E-08  0.10566000000E+00  0.10566000000E+00 0. -1.
     999900   -1    0    0    0    0 -0.00000000000E+00 -0.00000000000E+00 -0.74505805969E-08  0.93827000000E+00  0.93827000000E+00 0. -1.
     999903    2    1    2    0    0  0.53557212722E-01 -0.10089690764E+00  0.25710861870E-01  0.11909500725E+00  0.21771801188E-01 0.  0.
         14    1    1    2    0    0 -0.32329357630E-01  0.16275084992E-01  0.15920464022E-01  0.39541458382E-01  0.00000000000E+00 0. -1.
     999901    1    1    2    0    0 -0.21227855092E-01  0.84621822651E-01 -0.41631325891E-01  0.88529353437E+00  0.88000000000E+00 0. -1.
        -11    1    3    3    0    0  0.52078211237E-01 -0.82154442132E-01  0.18890578039E-01  0.99088886902E-01  0.51100000000E-03 0.  1.
         11    1    3    3    0    0  0.14790014849E-02 -0.18742465511E-01  0.68202838303E-02  0.20006120347E-01  0.51100000000E-03 0. -1.
</event>
<event>
 8    1  0.1072332E+005  0.1043930E+01  0.7957747E-01            NaN
         13   -1    0    0    0    0  0.00000000000E+00  0.00000000000E+00  0.74505805969E-08  0.10566000000E+00  0.10566000000E+00 0. -1.
     999900   -1    0    0    0    0 -0.00000000000E+00 -0.00000000000E+00 -0.74505805969E-08  0.93827000000E+00  0.93827000000E+00 0. -1.
     999902    2    1    2    0    0 -0.14706053488E-01 -0.14072360892E-01  0.13149978745E-01  0.10196973507E+01  0.10194093710E+01 0.  0.
     999903    2    3    3    0    0 -0.81909950678E-01 -0.93406779236E-01 -0.39782313039E-01  0.13199687125E+00  0.20161229177E-01 0.  0.
         14    1    1    2    0    0  0.14706053488E-01  0.14072360892E-01 -0.13149978745E-01  0.24232649283E-01  0.00000000000E+00 0.  1.
     999901    1    3    3    0    0  0.67203897189E-01  0.79334418344E-01  0.52932291784E-01  0.88770047947E+00  0.88000000000E+00 0. -1.
        -11    1    4    4    0    0 -0.45792969310E-01 -0.42743789366E-01 -0.28236609746E-01  0.68713861910E-01  0.51100000000E-03 0.  1.
         11    1    4    4    0    0 -0.36116981368E-01 -0.50662989870E-01 -0.11545703293E-01  0.63283009341E-01  0.51100000000E-03 0. -1.
</event>
<event>
 8    1  0.1072332E+005  0.1043930E+01  0.7957747E-01            NaN
         13   -1    0    0    0    0  0.00000000000E+00  0.00000000000E+00  0.74505805969E-08  0.10566000000E+00  0.10566000000E+00 0.  1.
     999900   -1    0    0    0    0 -0.00000000000E+00 -0.00000000000E+00 -0.74505805969E-08  0.93827000000E+00  0.93827000000E+00 0. -1.
     999902    2    1    2    0    0  0.10720531537E-01  0.92174591856E-02  0.19338995797E-01  0.10199740381E+01  0.10196926745E+01 0.  0.
     999903    2    3    3    0    0 -0.12028405891E+00  0.29323264144E-01 -0.28966797761E-01  0.12873899854E+00  0.20162979053E-01 0.  0.
         14    1    1    2    0    0 -0.10720531537E-01 -0.92174591856E-02 -0.19338995797E-01  0.23955961861E-01  0.00000000000E+00 0. -1.
     999901    1    3    3    0    0  0.13100459045E+00 -0.20105804958E-01  0.48305793558E-01  0.89123503960E+00  0.88000000000E+00 0.  1.
        -11    1    4    4    0    0 -0.50828843964E-01  0.19499188717E-01 -0.52761911696E-02  0.54698163165E-01  0.51100000000E-03 0. -1.
         11    1    4    4    0    0 -0.69455214951E-01  0.98240754266E-02 -0.23690606591E-01  0.74040835378E-01  0.51100000000E-03 0.  1.
</event>
<event>
 8    1  0.1072332E+005  0.1043930E+01  0.7957747E-01            NaN
         13   -1    0    0    0    0  0.00000000000E+00  0.00000000000E+00  0.74505805969E-08  0.10566000000E+00  0.10566000000E+00 0.  1.
     999900   -1    0    0    0    0 -0.00000000000E+00 -0.00000000000E+00 -0.74505805969E-08  0.93827000000E+00  0.93827000000E+00 0.  1.
     999902    2    1    2    0    0 -0.50398282294E-02  0.22058303701E-01 -0.11779072449E-01  0.10184208805E+01  0.10181013577E+01 0.  0.
     999903    2    3    3    0    0 -0.87141182592E-01 -0.85023413603E-01 -0.34091400906E-01  0.12785647149E+00  0.19039094552E-01 0.  0.
         14    1    1    2    0    0  0.50398282294E-02 -0.22058303701E-01  0.11779072449E-01  0.25509119517E-01  0.00000000000E+00 0.  1.
     999901    1    3    3    0    0  0.82101354362E-01  0.10708171730E+00  0.22312328457E-01  0.89056440900E+00  0.88000000000E+00 0. -1.
        -11    1    4    4    0    0 -0.30130522559E-01 -0.19741245980E-01 -0.15464755556E-01  0.39204399854E-01  0.51100000000E-03 0. -1.
         11    1    4    4    0    0 -0.57010660033E-01 -0.65282167623E-01 -0.18626645350E-01  0.88652071634E-01  0.51100000000E-03 0.  1.
</event>
<event>
 8    1  0.1072332E+005  0.1043930E+01  0.7957747E-01            NaN
         13   -1    0    0    0    0  0.00000000000E+00  0.00000000000E+00  0.74505805969E-08  0.10566000000E+00  0.10566000000E+00 0.  1.
     999900   -1    0    0    0    0 -0.00000000000E+00 -0.00000000000E+00 -0.74505805969E-08  0.93827000000E+00  0.93827000000E+00 0. -1.
     999902    2    1    2    0    0  0.13911312316E-01  0.20295083419E-01  0.66949746539E-02  0.10184302410E+01  0.10181109557E+01 0.  0.
     999903    2    3    3    0    0 -0.11954002707E+00  0.24658250161E-01  0.32981817421E-01  0.12797008174E+00  0.19765985060E-01 0.  0.
         14    1    1    2    0    0 -0.13911312316E-01 -0.20295083419E-01 -0.66949746539E-02  0.25499758959E-01  0.00000000000E+00 0. -1.
     999901    1    3    3    0    0  0.13345133939E+00 -0.43631667419E-02 -0.26286842767E-01  0.89046015931E+00  0.88000000000E+00 0. -1.
        -11    1    4    4    0    0 -0.93413465374E-01  0.23421754029E-01  0.18495746094E-01  0.98066343970E-01  0.51100000000E-03 0. -1.
         11    1    4    4    0    0 -0.26126561698E-01  0.12364961326E-02  0.14486071327E-01  0.29903737765E-01  0.51100000000E-03 0.  1.
</event>
<event>
 8    1  0.1072332E+005  0.1043930E+01  0.7957747E-01            NaN
         13   -1    0    0    0    0  0.00000000000E+00  0.00000000000E+00  0.74505805969E-08  0.10566000000E+00  0.10566000000E+00 0. -1.
     999900   -1    0    0    0    0 -0.00000000000E+00 -0.00000000000E+00 -0.74505805969E-08  0.93827000000E+00  0.93827000000E+00 0.  1.
     999902    2    1    2    0    0 -0.24713675362E-01 -0.45773144610E-02 -0.13203382559E-01  0.10155390354E+01  0.10151421012E+01 0.  0.
     999903    2    3    3    0    0  0.56406321758E-01 -0.12433361486E-01 -0.11076481823E+00  0.12640439708E+00  0.19312302581E-01 0.  0.
         14    1    1    2    0    0  0.24713675362E-01  0.45773144610E-02  0.13203382559E-01  0.28390964558E-01  0.00000000000E+00 0. -1.
     999901    1    3    3    0    0 -0.81119997120E-01  0.78560470252E-02  0.97561435672E-01  0.88913463836E+00  0.88000000000E+00 0. -1.
        -11    1    4    4    0    0  0.41682767194E-01 -0.15850776708E-01 -0.70820635637E-01  0.83693032901E-01  0.51100000000E-03 0.  1.
         11    1    4    4    0    0  0.14723554564E-01  0.34174152216E-02 -0.39944182594E-01  0.42711364177E-01  0.51100000000E-03 0. -1.
</event>
<event>
 7    1  0.1072332E+005  0.1043930E+01  0.7957747E-01            NaN
         13   -1    0    0    0    0  0.00000000000E+00  0.00000000000E+00  0.74505805969E-08  0.10566000000E+00  0.10566000000E+00 0.  1.
     999900   -1    0    0    0    0 -0.00000000000E+00 -0.00000000000E+00 -0.74505805969E-08  0.93827000000E+00  0.93827000000E+00 0. -1.
     999903    2    1    2    0    0  0.70636423680E-01  0.39310746658E-01 -0.69958809253E-01  0.10875073544E+00  0.19941121178E-01 0.  0.
         14    1    1    2    0    0  0.11646934365E-01 -0.18702815946E-01  0.45738666429E-01  0.50768809432E-01  0.00000000000E+00 0.  1.
     999901    1    1    2    0    0 -0.82283358045E-01 -0.20607930712E-01  0.24220142824E-01  0.88441045513E+00  0.88000000000E+00 0.  1.
        -11    1    3    3    0    0  0.16678515461E-02 -0.19965212883E-02 -0.10012748267E-02  0.28339898223E-02  0.51100000000E-03 0.  1.
         11    1    3    3    0    0  0.68968572134E-01  0.41307267946E-01 -0.68957534426E-01  0.10591674562E+00  0.51100000000E-03 0. -1.
</event>
<event>
 8    1  0.1072332E+005  0.1043930E+01  0.7957747E-01            NaN
         13   -1    0    0    0    0  0.00000000000E+00  0.00000000000E+00  0.74505805969E-08  0.10566000000E+00  0.10566000000E+00 0.  1.
     999900   -1    0    0    0    0 -0.00000000000E+00 -0.00000000000E+00 -0.74505805969E-08  0.93827000000E+00  0.93827000000E+00 0.  1.
     999902    2    1    2    0    0  0.43741314984E-02 -0.59687534109E-04  0.23538237104E-01  0.10199887136E+01  0.10197076986E+01 0.  0.
     999903    2    3    3    0    0  0.41911247376E-01  0.11081253020E+00  0.53773559310E-01  0.13172306726E+00  0.20576716517E-01 0.  0.
         14    1    1    2    0    0 -0.43741314984E-02  0.59687534109E-04 -0.23538237104E-01  0.23941286410E-01  0.00000000000E+00 0. -1.
     999901    1    3    3    0    0 -0.37537115878E-01 -0.11087221773E+00 -0.30235322206E-01  0.88826564633E+00  0.88000000000E+00 0. -1.
        -11    1    4    4    0    0  0.23831029381E-01  0.37534565559E-01  0.24507798971E-01  0.50770610637E-01  0.51100000000E-03 0.  1.
         11    1    4    4    0    0  0.18080217995E-01  0.73277964642E-01  0.29265760339E-01  0.80952456627E-01  0.51100000000E-03 0. -1.
</event>
<event>
 8    1  0.1072332E+005  0.1043930E+01  0.7957747E-01            NaN
         13   -1    0    0    0    0  0.00000000000E+00  0.00000000000E+00  0.74505805969E-08  0.10566000000E+00  0.10566000000E+00 0.  1.
     999900   -1    0    0    0    0 -0.00000000000E+00 -0.00000000000E+00 -0.74505805969E-08  0.93827000000E+00  0.93827000000E+00 0.  1.
     999902    2    1    2    0    0 -0.36830434397E-03 -0.22722564852E-01 -0.12875796682E-02  0.10211680040E+01  0.10209142882E+01 0.  0.
     999903    2    3    3    0    0  0.26767609122E-02  0.10581074085E+00  0.70554098000E-01  0.12892851273E+00  0.21014345619E-01 0.  0.
         14    1    1    2    0    0  0.36830434397E-03  0.22722564852E-01  0.12875796682E-02  0.22761996023E-01  0.00000000000E+00 0.  1.
     999901    1    3    3    0    0 -0.30450652561E-02 -0.12853330570E+00 -0.71841677668E-01  0.89223949125E+00  0.88000000000E+00 0.  1.
        -11    1    4    4    0    0  0.84062098645E-02  0.87547531142E-01  0.63678493560E-01  0.10858382125E+00  0.51100000000E-03 0.  1.
         11    1    4    4    0    0 -0.57294489524E-02  0.18263209706E-01  0.68756044402E-02  0.20344691481E-01  0.51100000000E-03 0. -1.
</event>
<event>
 8    1  0.1072332E+005  0.1043930E+01  0.7957747E-01            NaN
         13   -1    0    0    0    0  0.00000000000E+00  0.00000000000E+00  0.74505805969E-08  0.10566000000E+00  0.10566000000E+00 0. -1.
     999900   -1    0    0    0    0 -0.00000000000E+00 -0.00000000000E+00 -0.74505805969E-08  0.93827000000E+00  0.93827000000E+00 0.  1.
     999902    2    1    2    0    0 -0.77106926006E-02 -0.15176485892E-01  0.14993443280E-01  0.10212455594E+01  0.10209935890E+01 0.  0.
     999903    2    3    3    0    0  0.11522791101E+00  0.51572840940E-01 -0.20468571307E-01  0.12949058891E+00  0.20288440263E-01 0.  0.
         14    1    1    2    0    0  0.77106926006E-02  0.15176485892E-01 -0.14993443280E-01  0.22684440610E-01  0.00000000000E+00 0. -1.
     999901    1    3    3    0    0 -0.12293860361E+00 -0.66749326833E-01  0.35462014586E-01  0.89175497048E+00  0.88000000000E+00 0. -1.
        -11    1    4    4    0    0  0.73632561028E-01  0.24008987276E-01 -0.67831521821E-02  0.77746111080E-01  0.51100000000E-03 0. -1.
         11    1    4    4    0    0  0.41595349979E-01  0.27563853664E-01 -0.13685419124E-01  0.51744477834E-01  0.51100000000E-03 0.  1.
</event>
<event>
 8    1  0.1072332E+005  0.1043930E+01  0.7957747E-01            NaN
         13   -1    0    0    0    0  0.00000000000E+00  0.00000000000E+00  0.74505805969E-08  0.10566000000E+00  0.10566000000E+00 0. -1.
     999900   -1    0    0    0    0 -0.00000000000E+00 -0.00000000000E+00 -0.74505805969E-08  0.93827000000E+00  0.93827000000E+00 0. -1.
     999902    2    1    2    0    0  0.45959851539E-02  0.14309726224E-01  0.17466490622E-01  0.10208872215E+01  0.10206271354E+01 0.  0.
     999903    2    3    3    0    0  0.98044763589E-01 -0.38690420348E-01 -0.73260348517E-01  0.12972334825E+00  0.18744175707E-01 0.  0.
         14    1    1    2    0    0 -0.45959851539E-02 -0.14309726224E-01 -0.17466490622E-01  0.23042778452E-01  0.00000000000E+00 0.  1.
     999901    1    3    3    0    0 -0.93448778435E-01  0.53000146572E-01  0.90726839139E-01  0.89116387330E+00  0.88000000000E+00 0. -1.
        -11    1    4    4    0    0  0.40045888762E-01 -0.17147746793E-01 -0.19392444099E-01  0.47686962956E-01  0.51100000000E-03 0. -1.
         11    1    4    4    0    0  0.57998874828E-01 -0.21542673555E-01 -0.53867904418E-01  0.82036385297E-01  0.51100000000E-03 0.  1.
</event>
<event>
 8    1  0.1072332E+005  0.1043930E+01  0.7957747E-01            NaN
         13   -1    0    0    0    0  0.00000000000E+00  0.00000000000E+00  0.74505805969E-08  0.10566000000E+00  0.10566000000E+00 0. -1.
     999900   -1    0    0    0    0 -0.00000000000E+00 -0.00000000000E+00 -0.74505805969E-08  0.93827000000E+00  0.93827000000E+00 0. -1.
     999902    2    1    2    0    0  0.23150030607E-02  0.21258621963E-01 -0.14085610235E-01  0.10183235035E+01  0.10180015055E+01 0.  0.
     999903    2    3    3    0    0 -0.19773197931E-02 -0.12144324699E+00 -0.29564445283E-01  0.12668353033E+00  0.20549656876E-01 0.  0.
         14    1    1    2    0    0 -0.23150030607E-02 -0.21258621963E-01  0.14085610235E-01  0.25606496492E-01  0.00000000000E+00 0. -1.
     999901    1    3    3    0    0  0.42923228538E-02  0.14270186895E+00  0.15478835048E-01  0.89163997318E+00  0.88000000000E+00 0. -1.
        -11    1    4    4    0    0  0.59442214951E-02 -0.62607815965E-01 -0.22948616721E-01  0.66947535575E-01  0.51100000000E-03 0.  1.
         11    1    4    4    0    0 -0.79215412882E-02 -0.58835431027E-01 -0.66158285620E-02  0.59735994753E-01  0.51100000000E-03 0. -1.
</event>
<event>
 8    1  0.1072332E+005  0.1043930E+01  0.7957747E-01            NaN
         13   -1    0    0    0    0  0.00000000000E+00  0.00000000000E+00  0.74505805969E-08  0.10566000000E+00  0.10566000000E+00 0. -1.
     999900   -1    0    0    0    0 -0.00000000000E+00 -0.00000000000E+00 -0.74505805969E-08  0.93827000000E+00  0.93827000000E+00 0. -1.
     999902    2    1    2    0    0 -0.22680060026E-01 -0.49498046826E-02  0.33177528107E-02  0.10204801989E+01  0.10202107347E+01 0.  0.
     999903    2    3    3    0    0 -0.12825836292E-01  0.12072253689E+00 -0.42881659154E-01  0.13029761714E+00  0.20004983106E-01 0.  0.
         14    1    1    2    0    0  0.22680060026E-01  0.49498046826E-02 -0.33177528107E-02  0.23449801127E-01  0.00000000000E+00 0. -1.
     999901    1    3    3    0    0 -0.98542237333E-02 -0.12567234158E+00  0.46199411964E-01  0.89018258174E+00  0.88000000000E+00 0.  1.
        -11    1    4    4    0    0 -0.17184203669E-01  0.69115614233E-01 -0.23546617351E-01  0.75013127493E-01  0.51100000000E-03 0.  1.
         11    1    4    4    0    0  0.43583673768E-02  0.51606922660E-01 -0.19335041802E-01  0.55284489644E-01  0.51100000000E-03 0. -1.
</event>
<event>
 8    1  0.1072332E+005  0.1043930E+01  0.7957747E-01            NaN
         13   -1    0    0    0    0  0.00000000000E+00  0.00000000000E+00  0.74505805969E-08  0.10566000000E+00  0.10566000000E+00 0.  1.
     999900   -1    0    0    0    0 -0.00000000000E+00 -0.00000000000E+00 -0.74505805969E-08  0.93827000000E+00  0.93827000000E+00 0.  1.
     999902    2    1    2    0    0  0.26884938734E-02 -0.15286275853E-01  0.15517141428E-01  0.10219827927E+01  0.10217471061E+01 0.  0.
     999903    2    3    3    0    0  0.50116587827E-02  0.32907909541E-01  0.12784837207E+00  0.13353111595E+00  0.19424352023E-01 0.  0.
         14    1    1    2    0    0 -0.26884938734E-02  0.15286275853E-01 -0.15517141428E-01  0.21947207267E-01  0.00000000000E+00 0.  1.
     999901    1    3    3    0    0 -0.23231649093E-02 -0.48194185393E-01 -0.11233123064E+00  0.88845167678E+00  0.88000000000E+00 0.  1.
        -11    1    4    4    0    0  0.65312029386E-02  0.39569009046E-02  0.47465647106E-01  0.48078711014E-01  0.51100000000E-03 0. -1.
         11    1    4    4    0    0 -0.15195441559E-02  0.28951008636E-01  0.80382724965E-01  0.85452404935E-01  0.51100000000E-03 0.  1.
</event>
<event>
 8    1  0.1072332E+005  0.1043930E+01  0.7957747E-01            NaN
         13   -1    0    0    0    0  0.00000000000E+00  0.00000000000E+00  0.74505805969E-08  0.10566000000E+00  0.10566000000E+00 0. -1.
     999900   -1    0    0    0    0 -0.00000000000E+00 -0.00000000000E+00 -0.74505805969E-08  0.93827000000E+00  0.93827000000E+00 0.  1.
     999902    2    1    2    0    0  0.62277443999E-02  0.17778882042E-01  0.13680990046E-01  0.10206481844E+01  0.10203826113E+01 0.  0.
     999903    2    3    3    0    0  0.54309866129E-01  0.10868362164E+00 -0.46679576931E-01  0.13260597815E+00  0.25370679303E-01 0.  0.
         14    1    1    2    0    0 -0.62277443999E-02 -0.17778882042E-01 -0.13680990046E-01  0.23281815557E-01  0.00000000000E+00 0. -1.
     999901    1    3    3    0    0 -0.48082121729E-01 -0.90904739593E-01  0.60360566977E-01  0.88804220629E+00  0.88000000000E+00 0. -1.
        -11    1    4    4    0    0  0.24494681673E-01  0.53572211668E-01 -0.92888358441E-02  0.59636523085E-01  0.51100000000E-03 0.  1.
         11    1    4    4    0    0  0.29815184456E-01  0.55111409967E-01 -0.37390741087E-01  0.72969455067E-01  0.51100000000E-03 0. -1.
</event>
<event>
 8    1  0.1072332E+005  0.1043930E+01  0.7957747E-01            NaN
         13   -1    0    0    0    0  0.00000000000E+00  0.00000000000E+00  0.74505805969E-08  0.10566000000E+00  0.10566000000E+00 0.  1.
     999900   -1    0    0    0    0 -0.00000000000E+00 -0.00000000000E+00 -0.74505805969E-08  0.93827000000E+00  0.93827000000E+00 0.  1.
     999902    2    1    2    0    0 -0.13421537772E-01 -0.31863509622E-02 -0.19783287002E-01  0.10198121860E+01  0.10195269617E+01 0.  0.
     999903    2    3    3    0    0 -0.10873612238E+00  0.68353283598E-01  0.13788250904E-01  0.13114473552E+00  0.22651933716E-01 0.  0.
         14    1    1    2    0    0  0.13421537772E-01  0.31863509622E-02  0.19783287002E-01  0.24117814022E-01  0.00000000000E+00 0.  1.
     999901    1    3    3    0    0  0.95314584611E-01 -0.71539634560E-01 -0.33571537906E-01  0.88866745046E+00  0.88000000000E+00 0. -1.
        -11    1    4    4    0    0 -0.26279128989E-01  0.28291364995E-01  0.67218029481E-02  0.39197419680E-01  0.51100000000E-03 0. -1.
         11    1    4    4    0    0 -0.82456993394E-01  0.40061918603E-01  0.70664479564E-02  0.91947315836E-01  0.51100000000E-03 0.  1.
</event>
<event>
 8    1  0.1072332E+005  0.1043930E+01  0.7957747E-01            NaN
         13   -1    0    0    0    0  0.00000000000E+00  0.00000000000E+00  0.74505805969E-08  0.10566000000E+00  0.10566000000E+00 0. -1.
     999900   -1    0    0    0    0 -0.00000000000E+00 -0.00000000000E+00 -0.74505805969E-08  0.93827000000E+00  0.93827000000E+00 0.  1.
     999902    2    1    2    0    0  0.20999180717E-01  0.11317805336E-01  0.16570145105E-02  0.10200175763E+01  0.10197372466E+01 0.  0.
     999903    2    3    3    0    0  0.85852664831E-01  0.10874890849E-01 -0.97767663357E-01  0.13204717303E+00  0.19722996673E-01 0.  0.
         14    1    1    2    0    0 -0.20999180717E-01 -0.11317805336E-01 -0.16570145105E-02  0.23912423664E-01  0.00000000000E+00 0.  1.
     999901    1    3    3    0    0 -0.64853484114E-01  0.44291448712E-03  0.99424677867E-01  0.88797040330E+00  0.88000000000E+00 0. -1.
        -11    1    4    4    0    0  0.57787154563E-01 -0.11786725257E-02 -0.57809342715E-01  0.81749163467E-01  0.51100000000E-03 0. -1.
         11    1    4    4    0    0  0.28065510269E-01  0.12053563375E-01 -0.39958320642E-01  0.50298009565E-01  0.51100000000E-03 0.  1.
</event>
<event>
 8    1  0.1072332E+005  0.1043930E+01  0.7957747E-01            NaN
         13   -1    0    0    0    0  0.00000000000E+00  0.00000000000E+00  0.74505805969E-08  0.10566000000E+00  0.10566000000E+00 0. -1.
     999900   -1    0    0    0    0 -0.00000000000E+00 -0.00000000000E+00 -0.74505805969E-08  0.93827000000E+00  0.93827000000E+00 0. -1.
     999902    2    1    2    0    0 -0.22316141862E-01  0.88819175016E-02 -0.10453208397E-01  0.10177351873E+01  0.10173980260E+01 0.  0.
     999903    2    3    3    0    0 -0.26653144540E-01 -0.47629111726E-02  0.12302767107E+00  0.12755423035E+00  0.20029937470E-01 0.  0.
         14    1    1    2    0    0  0.22316141862E-01 -0.88819175016E-02  0.10453208397E-01  0.26194812691E-01  0.00000000000E+00 0.  1.
     999901    1    3    3    0    0  0.43370026775E-02  0.13644828674E-01 -0.13348087947E+00  0.89018095696E+00  0.88000000000E+00 0. -1.
        -11    1    4    4    0    0 -0.25755773453E-01 -0.10512212757E-01  0.10022678577E+00  0.10401699953E+00  0.51100000000E-03 0. -1.
         11    1    4    4    0    0 -0.89737108720E-03  0.57493015847E-02  0.22800885298E-01  0.23537230826E-01  0.51100000000E-03 0.  1.
</event>
<event>
 8    1  0.1072332E+005  0.1043930E+01  0.7957747E-01            NaN
         13   -1    0    0    0    0  0.00000000000E+00  0.00000000000E+00  0.74505805969E-08  0.10566000000E+00  0.10566000000E+00 0.  1.
     999900   -1    0    0    0    0 -0.00000000000E+00 -0.00000000000E+00 -0.74505805969E-08  0.93827000000E+00  0.93827000000E+00 0. -1.
     999902    2    1    2    0    0 -0.16336249040E-01  0.57408589191E-02  0.11210854270E-01  0.10233020154E+01  0.10230940822E+01 0.  0.
     999903    2    3    3    0    0  0.85450498153E-01 -0.72997144336E-01 -0.63675080110E-01  0.13079536659E+00  0.20555811312E-01 0.  0.
         14    1    1    2    0    0  0.16336249040E-01 -0.57408589191E-02 -0.11210854270E-01  0.20627984567E-01  0.00000000000E+00 0. -1.
     999901    1    3    3    0    0 -0.10178674719E+00  0.78738003255E-01  0.74885934379E-01  0.89250664884E+00  0.88000000000E+00 0.  1.
        -11    1    4    4    0    0  0.57178923815E-01 -0.58231257355E-01 -0.52281430084E-01  0.96922225080E-01  0.51100000000E-03 0.  1.
         11    1    4    4    0    0  0.28271574338E-01 -0.14765886981E-01 -0.11393650025E-01  0.33873141510E-01  0.51100000000E-03 0. -1.
</event>
<event>
 8    1  0.1072332E+005  0.1043930E+01  0.7957747E-01            NaN
         13   -1    0    0    0    0  0.00000000000E+00  0.00000000000E+00  0.74505805969E-08  0.10566000000E+00  0.10566000000E+00 0.  1.
     999900   -1    0    0    0    0 -0.00000000000E+00 -0.00000000000E+00 -0.74505805969E-08  0.93827000000E+00  0.93827000000E+00 0.  1.
     999902    2    1    2    0    0 -0.19549152735E-01  0.86891485841E-03 -0.38470030612E-02  0.10239869857E+01  0.10237927638E+01 0.  0.
     999903    2    3    3    0    0 -0.43996118552E-01 -0.77422848733E-01 -0.99467709532E-01  0.13501534732E+00  0.20133624101E-01 0.  0.
         14    1    1    2    0    0  0.19549152735E-01 -0.86891485841E-03  0.38470030612E-02  0.19943014272E-01  0.00000000000E+00 0.  1.
     999901    1    3    3    0    0  0.24446965817E-01  0.78291763592E-01  0.95620706471E-01  0.88897163841E+00  0.88000000000E+00 0. -1.
        -11    1    4    4    0    0 -0.91936450721E-02 -0.34049099922E-01 -0.32449121176E-01  0.47927767539E-01  0.51100000000E-03 0.  1.
         11    1    4    4    0    0 -0.34802473480E-01 -0.43373748812E-01 -0.67018588356E-01  0.87087579783E-01  0.51100000000E-03 0. -1.
</event>
<event>
 8    1  0.1072332E+005  0.1043930E+01  0.7957747E-01            NaN
         13   -1    0    0    0    0  0.00000000000E+00  0.00000000000E+00  0.74505805969E-08  0.10566000000E+00  0.10566000000E+00 0.  1.
     999900   -1    0    0    0    0 -0.00000000000E+00 -0.00000000000E+00 -0.74505805969E-08  0.93827000000E+00  0.93827000000E+00 0. -1.
     999902    2    1    2    0    0 -0.21766148279E-01 -0.44593556889E-02 -0.77569306736E-02  0.10203965974E+01  0.10201251859E+01 0.  0.
     999903    2    3    3    0    0 -0.92482138498E-01  0.69775833163E-01  0.59904830640E-01  0.13186425220E+00  0.19441693334E-01 0.  0.
         14    1    1    2    0    0  0.21766148279E-01  0.44593556889E-02  0.77569306736E-02  0.23533402592E-01  0.00000000000E+00 0.  1.
     999901    1    3    3    0    0  0.70715990218E-01 -0.74235188852E-01 -0.67661761314E-01  0.88853234521E+00  0.88000000000E+00 0. -1.
        -11    1    4    4    0    0 -0.84450746379E-01  0.56122217621E-01  0.48940648092E-01  0.11259253986E+00  0.51100000000E-03 0. -1.
         11    1    4    4    0    0 -0.80313921189E-02  0.13653615542E-01  0.10964182548E-01  0.19271712344E-01  0.51100000000E-03 0.  1.
</event>
<event>
 8    1  0.1072332E+005  0.1043930E+01  0.7957747E-01            NaN
         13   -1    0    0    0    0  0.00000000000E+00  0.00000000000E+00  0.74505805969E-08  0.10566000000E+00  0.10566000000E+00 0.  1.
     999900   -1    0    0    0    0 -0.00000000000E+00 -0.00000000000E+00 -0.74505805969E-08  0.93827000000E+00  0.93827000000E+00 0.  1.
     999902    2    1    2    0    0 -0.19347212321E-01 -0.54462914518E-02 -0.10027885994E-01  0.10214681387E+01  0.10212211431E+01 0.  0.
     999903    2    3    3    0    0 -0.13386908669E-01 -0.12499961203E+00 -0.38653208049E-01  0.13290304219E+00  0.19105910070E-01 0.  0.
         14    1    1    2    0    0  0.19347212321E-01  0.54462914518E-02  0.10027885994E-01  0.22461861291E-01  0.00000000000E+00 0. -1.
     999901    1    3    3    0    0 -0.59603036513E-02  0.11955332058E+00  0.28625322055E-01  0.88856509651E+00  0.88000000000E+00 0. -1.
        -11    1    4    4    0    0  0.36657256371E-03 -0.49609434783E-01 -0.22996534931E-01  0.54683929401E-01  0.51100000000E-03 0. -1.
         11    1    4    4    0    0 -0.13753481233E-01 -0.75390177251E-01 -0.15656673118E-01  0.78219112793E-01  0.51100000000E-03 0.  1.
</event>
<event>
 8    1  0.1072332E+005  0.1043930E+01  0.7957747E-01            NaN
         13   -1    0    0    0    0  0.00000000000E+00  0.00000000000E+00  0.74505805969E-08  0.10566000000E+00  0.10566000000E+00 0. -1.
     999900   -1    0    0    0    0 -0.00000000000E+00 -0.00000000000E+00 -0.74505805969E-08  0.93827000000E+00  0.93827000000E+00 0. -1.
     999902    2    1    2    0    0  0.12248379638E-01  0.50587004384E-02 -0.24071948695E-01  0.10164514271E+01  0.10160799337E+01 0.  0.
     999903    2    3    3    0    0  0.23211026641E-01  0.12358500068E+00  0.14134708272E-02  0.12807190794E+00  0.24257195886E-01 0.  0.
         14    1    1    2    0    0 -0.12248379638E-01 -0.50587004384E-02  0.24071948695E-01  0.27478572886E-01  0.00000000000E+00 0. -1.
     999901    1    3    3    0    0 -0.10962647003E-01 -0.11852630024E+00 -0.25485419522E-01  0.88837951917E+00  0.88000000000E+00 0. -1.
        -11    1    4    4    0    0  0.23559873444E-01  0.60068113168E-01  0.18142269548E-02  0.64550742805E-01  0.51100000000E-03 0. -1.
         11    1    4    4    0    0 -0.34884680320E-03  0.63516887515E-01 -0.40075612754E-03  0.63521165135E-01  0.51100000000E-03 0.  1.
</event>
<event>
 8    1  0.1072332E+005  0.1043930E+01  0.7957747E-01            NaN
         13   -1    0    0    0    0  0.00000000000E+00  0.00000000000E+00  0.74505805969E-08  0.10566000000E+00  0.10566000000E+00 0.  1.
     999900   -1    0    0    0    0 -0.00000000000E+00 -0.00000000000E+00 -0.74505805969E-08  0.93827000000E+00  0.93827000000E+00 0. -1.
     999902    2    1    2    0    0 -0.20762397492E-01  0.46101033130E-02 -0.10783385478E-01  0.10200844217E+01  0.10198056755E+01 0.  0.
     999903    2    3    3    0    0 -0.80538573900E-01  0.10620064354E-01 -0.10512598769E+00  0.13300503546E+00  0.62943241384E-02 0.  0.
         14    1    1    2    0    0  0.20762397492E-01 -0.46101033130E-02  0.10783385478E-01  0.23845578302E-01  0.00000000000E+00 0.  1.
     999901    1    3    3    0    0  0.59776176409E-01 -0.60099610415E-02  0.94342602214E-01  0.88707938624E+00  0.88000000000E+00 0.  1.
        -11    1    4    4    0    0 -0.32911235518E-01  0.73664485349E-02 -0.44483361438E-01  0.55825124749E-01  0.51100000000E-03 0.  1.
         11    1    4    4    0    0 -0.47627338382E-01  0.32536158196E-02 -0.60642626254E-01  0.77179910711E-01  0.51100000000E-03 0. -1.
</event>
<event>
 8    1  0.1072332E+005  0.1043930E+01  0.7957747E-01            NaN
         13   -1    0    0    0    0  0.00000000000E+00  0.00000000000E+00  0.74505805969E-08  0.10566000000E+00  0.10566000000E+00 0.  1.
     999900   -1    0    0    0    0 -0.00000000000E+00 -0.00000000000E+00 -0.74505805969E-08  0.93827000000E+00  0.93827000000E+00 0.  1.
     999902    2    1    2    0    0 -0.22449158562E-01 -0.39492129079E-02 -0.14484538652E-02  0.10210901440E+01  0.10208346699E+01 0.  0.
     999903    2    3    3    0    0  0.79951955903E-01 -0.33979725460E-02 -0.10024653016E+00  0.12966019613E+00  0.18935104496E-01 0.  0.
         14    1    1    2    0    0  0.22449158562E-01  0.39492129079E-02  0.14484538652E-02  0.22839855983E-01  0.00000000000E+00 0.  1.
     999901    1    3    3    0    0 -0.10240111446E+00 -0.55124036190E-03  0.98798076291E-01  0.89142994789E+00  0.88000000000E+00 0. -1.
        -11    1    4    4    0    0  0.24405980631E-02  0.29530277014E-02 -0.88176095824E-02  0.96274737735E-02  0.51100000000E-03 0. -1.
         11    1    4    4    0    0  0.77511357840E-01 -0.63510002474E-02 -0.91428920574E-01  0.12003272236E+00  0.51100000000E-03 0.  1.
</event>
<event>
 8    1  0.1146866E+005  0.1043930E+01  0.7957747E-01            NaN
         13   -1    0    0    0    0  0.00000000000E+00  0.00000000000E+00  0.74505805969E-08  0.10566000000E+00  0.10566000000E+00 0.  1.
     999900   -1    0    0    0    0 -0.00000000000E+00 -0.00000000000E+00 -0.74505805969E-08  0.93827000000E+00  0.93827000000E+00 0.  1.
     999902    2    1    2    0    0  0.65267389876E-02 -0.22387690433E-01 -0.44582303157E-02  0.10201879946E+01  0.10199116930E+01 0.  0.
     999903    2    3    3    0    0  0.45984062073E-01  0.11633418465E+00 -0.19799005518E-01  0.12831581854E+00  0.20610002071E-01 0.  0.
         14    1    1    2    0    0 -0.65267389876E-02  0.22387690433E-01  0.44582303157E-02  0.23742005440E-01  0.00000000000E+00 0. -1.
     999901    1    3    3    0    0 -0.39457323085E-01 -0.13872187508E+00  0.15340775202E-01  0.89187217602E+00  0.88000000000E+00 0. -1.
        -11    1    4    4    0    0  0.69364891482E-02  0.42589715260E-01 -0.99919690804E-02  0.44295590014E-01  0.51100000000E-03 0.  1.
         11    1    4    4    0    0  0.39047572924E-01  0.73744469391E-01 -0.98070364373E-02  0.84020228527E-01  0.51100000000E-03 0. -1.
</event>
<event>
 8    1  0.1072332E+005  0.1043930E+01  0.7957747E-01            NaN
         13   -1    0    0    0    0  0.00000000000E+00  0.00000000000E+00  0.74505805969E-08  0.10566000000E+00  0.10566000000E+00 0. -1.
     999900   -1    0    0    0    0 -0.00000000000E+00 -0.00000000000E+00 -0.74505805969E-08  0.93827000000E+00  0.93827000000E+00 0. -1.
     999902    2    1    2    0    0 -0.20108927883E-01 -0.92560753562E-02  0.73181634666E-02  0.10206147812E+01  0.10203484366E+01 0.  0.
     999903    2    3    3    0    0  0.60564464644E-01  0.89521005082E-01  0.68176413097E-01  0.12934106654E+00  0.19975571632E-01 0.  0.
         14    1    1    2    0    0  0.20108927883E-01  0.92560753562E-02 -0.73181634666E-02  0.23315218809E-01  0.00000000000E+00 0.  1.
     999901    1    3    3    0    0 -0.80673392527E-01 -0.98777080438E-01 -0.60858249630E-01  0.89127371465E+00  0.88000000000E+00 0.  1.
        -11    1    4    4    0    0  0.13669188060E-01  0.26521744026E-01  0.95443266255E-02  0.31330574526E-01  0.51100000000E-03 0. -1.
         11    1    4    4    0    0  0.46895276584E-01  0.62999261056E-01  0.58632086471E-01  0.98010492012E-01  0.51100000000E-03 0.  1.
</event>
<event>
 8    1  0.1072332E+005  0.1043930E+01  0.7957747E-01            NaN
         13   -1    0    0    0    0  0.00000000000E+00  0.00000000000E+00  0.74505805969E-08  0.10566000000E+00  0.10566000000E+00 0.  1.
     999900   -1    0    0    0    0 -0.00000000000E+00 -0.00000000000E+00 -0.74505805969E-08  0.93827000000E+00  0.93827000000E+00 0.  1.
     999902    2    1    2    0    0 -0.21935802985E-01 -0.52431169586E-02 -0.60061003032E-02  0.10205902706E+01  0.10203233593E+01 0.  0.
     999903    2    3    3    0    0  0.12470810096E+00  0.18826899958E-01  0.95175988102E-02  0.12799585793E+00  0.19641597555E-01 0.  0.
         14    1    1    2    0    0  0.21935802985E-01  0.52431169586E-02  0.60061003032E-02  0.23339729409E-01  0.00000000000E+00 0.  1.
     999901    1    3    3    0    0 -0.14664390394E+00 -0.24070016917E-01 -0.15523699113E-01  0.89259441266E+00  0.88000000000E+00 0. -1.
        -11    1    4    4    0    0  0.46309328434E-01 -0.22898940433E-02  0.56171835927E-02  0.46707722994E-01  0.51100000000E-03 0. -1.
         11    1    4    4    0    0  0.78398772521E-01  0.21116794001E-01  0.39004152175E-02  0.81288134937E-01  0.51100000000E-03 0.  1.
</event>
<event>
 8    1  0.1072332E+005  0.1043930E+01  0.7957747E-01            NaN
         13   -1    0    0    0    0  0.00000000000E+00  0.00000000000E+00  0.74505805969E-08  0.10566000000E+00  0.10566000000E+00 0. -1.
     999900   -1    0    0    0    0 -0.00000000000E+00 -0.00000000000E+00 -0.74505805969E-08  0.93827000000E+00  0.93827000000E+00 0.  1.
     999902    2    1    2    0    0 -0.54109450459E-02  0.21494263033E-01 -0.79155954060E-02  0.10203941057E+01  0.10201226361E+01 0.  0.
     999903    2    3    3    0    0 -0.31169082128E-01  0.12810067074E+00 -0.87708775003E-02  0.13358570515E+00  0.19670251715E-01 0.  0.
         14    1    1    2    0    0  0.54109450459E-02 -0.21494263033E-01  0.79155954060E-02  0.23535894295E-01  0.00000000000E+00 0.  1.
     999901    1    3    3    0    0  0.25758137082E-01 -0.10660640771E+00  0.85528209429E-03  0.88680840056E+00  0.88000000000E+00 0. -1.
        -11    1    4    4    0    0 -0.52905845313E-02  0.27892220773E-01  0.60530776398E-02  0.29032174122E-01  0.51100000000E-03 0. -1.
         11    1    4    4    0    0 -0.25878497597E-01  0.10020844997E+00 -0.14823955140E-01  0.10455353103E+00  0.51100000000E-03 0.  1.
</event>
<event>
 8    1  0.1072332E+005  0.1043930E+01  0.7957747E-01            NaN
         13   -1    0    0    0    0  0.00000000000E+00  0.00000000000E+00  0.74505805969E-08  0.10566000000E+00  0.10566000000E+00 0. -1.
     999900   -1    0    0    0    0 -0.00000000000E+00 -0.00000000000E+00 -0.74505805969E-08  0.93827000000E+00  0.93827000000E+00 0. -1.
     999902    2    1    2    0    0 -0.12445345110E-02  0.66935632739E-03  0.24210434717E-01  0.10196783598E+01  0.10193899231E+01 0.  0.
     999903    2    3    3    0    0  0.48698695535E-01 -0.11378501386E+00 -0.31180894689E-01  0.12913788992E+00  0.19640623551E-01 0.  0.
         14    1    1    2    0    0  0.12445345110E-02 -0.66935632739E-03 -0.24210434717E-01  0.24251640217E-01  0.00000000000E+00 0.  1.
     999901    1    3    3    0    0 -0.49943230046E-01  0.11445437019E+00  0.55391329407E-01  0.89054046986E+00  0.88000000000E+00 0.  1.
        -11    1    4    4    0    0  0.13119302865E-01 -0.49561570919E-01 -0.19181461562E-01  0.54741711777E-01  0.51100000000E-03 0.  1.
         11    1    4    4    0    0  0.35579392669E-01 -0.64223442945E-01 -0.11999433128E-01  0.74396178146E-01  0.51100000000E-03 0. -1.
</event>
<event>
 8    1  0.1072332E+005  0.1043930E+01  0.7957747E-01            NaN
         13   -1    0    0    0    0  0.00000000000E+00  0.00000000000E+00  0.74505805969E-08  0.10566000000E+00  0.10566000000E+00 0.  1.
     999900   -1    0    0    0    0 -0.00000000000E+00 -0.00000000000E+00 -0.74505805969E-08  0.93827000000E+00  0.93827000000E+00 0. -1.
     999902    2    1    2    0    0 -0.82980980663E-02  0.14837742044E-01 -0.16007218932E-01  0.10205794523E+01  0.10203122906E+01 0.  0.
     999903    2    3    3    0    0 -0.15691062413E-01 -0.11828928518E+00  0.43398730804E-01  0.12855561395E+00  0.20112971327E-01 0.  0.
         14    1    1    2    0    0  0.82980980663E-02 -0.14837742044E-01  0.16007218932E-01  0.23350547711E-01  0.00000000000E+00 0.  1.
     999901    1    3    3    0    0  0.73929643465E-02  0.13312702722E+00 -0.59405949736E-01  0.89202383834E+00  0.88000000000E+00 0. -1.
        -11    1    4    4    0    0 -0.32159183371E-02 -0.17083601355E-01  0.14291011392E-01  0.22509679998E-01  0.51100000000E-03 0.  1.
         11    1    4    4    0    0 -0.12475144076E-01 -0.10120568382E+00  0.29107719412E-01  0.10604593395E+00  0.51100000000E-03 0. -1.
</event>
<event>
 8    1  0.1072332E+005  0.1043930E+01  0.7957747E-01            NaN
         13   -1    0    0    0    0  0.00000000000E+00  0.00000000000E+00  0.74505805969E-08  0.10566000000E+00  0.10566000000E+00 0.  1.
     999900   -1    0    0    0    0 -0.00000000000E+00 -0.00000000000E+00 -0.74505805969E-08  0.93827000000E+00  0.93827000000E+00 0. -1.
     999902    2    1    2    0    0  0.14437828315E-01  0.16865185227E-01 -0.10599889836E-01  0.10193283126E+01  0.10190313861E+01 0.  0.
     999903    2    3    3    0    0  0.75807357595E-01  0.90707199302E-02  0.10291405946E+00  0.12988332300E+00  0.21197653934E-01 0.  0.
         14    1    1    2    0    0 -0.14437828315E-01 -0.16865185227E-01  0.10599889836E-01  0.24601687416E-01  0.00000000000E+00 0.  1.
     999901    1    3    3    0    0 -0.61369529280E-01  0.77944652965E-02 -0.11351394930E+00  0.88944498959E+00  0.88000000000E+00 0. -1.
        -11    1    4    4    0    0  0.49997000977E-01  0.13351535267E-01  0.78953621343E-01  0.94402855068E-01  0.51100000000E-03 0.  1.
         11    1    4    4    0    0  0.25810356618E-01 -0.42808153364E-02  0.23960438120E-01  0.35480467931E-01  0.51100000000E-03 0. -1.
</event>
<event>
 8    1  0.1072332E+005  0.1043930E+01  0.7957747E-01            NaN
         13   -1    0    0    0    0  0.00000000000E+00  0.00000000000E+00  0.74505805969E-08  0.10566000000E+00  0.10566000000E+00 0.  1.
     999900   -1    0    0    0    0 -0.00000000000E+00 -0.00000000000E+00 -0.74505805969E-08  0.93827000000E+00  0.93827000000E+00 0.  1.
     999902    2    1    2    0    0 -0.23411700911E-01  0.71894350178E-02 -0.23959895727E-02  0.10193223491E+01  0.10190252769E+01 0.  0.
     999903    2    3    3    0    0  0.99916688854E-01 -0.19865951766E-01  0.73496099422E-01  0.12707715029E+00  0.19207413793E-01 0.  0.
         14    1    1    2    0    0  0.23411700911E-01 -0.71894350178E-02  0.23959895727E-02  0.24607650872E-01  0.00000000000E+00 0.  1.
     999901    1    3    3    0    0 -0.12332838976E+00  0.27055386784E-01 -0.75892088995E-01  0.89224519884E+00  0.88000000000E+00 0. -1.
        -11    1    4    4    0    0  0.65046268325E-01 -0.35982870860E-02  0.44536646586E-01  0.78916023107E-01  0.51100000000E-03 0. -1.
         11    1    4    4    0    0  0.34870420530E-01 -0.16267664680E-01  0.28959452836E-01  0.48161127184E-01  0.51100000000E-03 0.  1.
</event>
<event>
 8    1  0.1072332E+005  0.1043930E+01  0.7957747E-01            NaN
         13   -1    0    0    0    0  0.00000000000E+00  0.00000000000E+00  0.74505805969E-08  0.10566000000E+00  0.10566000000E+00 0. -1.
     999900   -1    0    0    0    0 -0.00000000000E+00 -0.00000000000E+00 -0.74505805969E-08  0.93827000000E+00  0.93827000000E+00 0.  1.
     999902    2    1    2    0    0  0.16637243604E-01 -0.27267906596E-02 -0.15079077472E-01  0.10213111618E+01  0.10210606630E+01 0.  0.
     999903    2    3    3    0    0  0.21726173364E-01  0.63651441328E-01  0.10942089240E+00  0.13005799389E+00  0.20460143935E-01 0.  0.
         14    1    1    2    0    0 -0.16637243604E-01  0.27267906596E-02  0.15079077472E-01  0.22618838155E-01  0.00000000000E+00 0. -1.
     999901    1    3    3    0    0 -0.50889297593E-02 -0.66378231988E-01 -0.12449996987E+00  0.89125316795E+00  0.88000000000E+00 0.  1.
        -11    1    4    4    0    0  0.12997193087E-02  0.60494030133E-02  0.25468797830E-01  0.26214601485E-01  0.51100000000E-03 0.  1.
         11    1    4    4    0    0  0.20426454055E-01  0.57602038315E-01  0.83952094569E-01  0.10384339241E+00  0.51100000000E-03 0. -1.
</event>
<event>
 8    1  0.1072332E+005  0.1043930E+01  0.7957747E-01            NaN
         13   -1    0    0    0    0  0.00000000000E+00  0.00000000000E+00  0.74505805969E-08  0.10566000000E+00  0.10566000000E+00 0.  1.
     999900   -1    0    0    0    0 -0.00000000000E+00 -0.00000000000E+00 -0.74505805969E-08  0.93827000000E+00  0.93827000000E+00 0. -1.
     999902    2    1    2    0    0  0.62542686842E-02 -0.85038660429E-02 -0.21707613196E-01  0.10197918127E+01  0.10195061006E+01 0.  0.
     999903    2    3    3    0    0  0.10286338137E+00  0.73205193711E-01 -0.26839939066E-01  0.13072711774E+00  0.20720071657E-01 0.  0.
         14    1    1    2    0    0 -0.62542686842E-02  0.85038660429E-02  0.21707613196E-01  0.24138187279E-01  0.00000000000E+00 0.  1.
     999901    1    3    3    0    0 -0.96609112685E-01 -0.81709059754E-01  0.51323258699E-02  0.88906469498E+00  0.88000000000E+00 0.  1.
        -11    1    4    4    0    0  0.76605952404E-01  0.45167342826E-01 -0.12913819702E-01  0.89864279121E-01  0.51100000000E-03 0.  1.
         11    1    4    4    0    0  0.26257428966E-01  0.28037850886E-01 -0.13926119364E-01  0.40862838616E-01  0.51100000000E-03 0. -1.
</event>
<event>
 8    1  0.1072332E+005  0.1043930E+01  0.7957747E-01            NaN
         13   -1    0    0    0    0  0.00000000000E+00  0.00000000000E+00  0.74505805969E-08  0.10566000000E+00  0.10566000000E+00 0.  1.
     999900   -1    0    0    0    0 -0.00000000000E+00 -0.00000000000E+00 -0.74505805969E-08  0.93827000000E+00  0.93827000000E+00 0.  1.
     999902    2    1    2    0    0  0.23377088778E-01 -0.30528205987E-02 -0.70786281798E-02  0.10193146599E+01  0.10190173997E+01 0.  0.
     999903    2    3    3    0    0  0.10019836193E+00 -0.81217801741E-01  0.20412515358E-01  0.13209031661E+00  0.19878075994E-01 0.  0.
         14    1    1    2    0    0 -0.23377088778E-01  0.30528205987E-02  0.70786281798E-02  0.24615340141E-01  0.00000000000E+00 0.  1.
     999901    1    3    3    0    0 -0.76821273152E-01  0.78164981142E-01 -0.27491143538E-01  0.88722434325E+00  0.88000000000E+00 0. -1.
        -11    1    4    4    0    0  0.69453399320E-01 -0.60608985180E-01  0.22920944683E-01  0.94988707686E-01  0.51100000000E-03 0. -1.
         11    1    4    4    0    0  0.30744962609E-01 -0.20608816561E-01 -0.25084293250E-02  0.37101608921E-01  0.51100000000E-03 0.  1.
</event>
<event>
 8    1  0.1072332E+005  0.1043930E+01  0.7957747E-01            NaN
         13   -1    0    0    0    0  0.00000000000E+00  0.00000000000E+00  0.74505805969E-08  0.10566000000E+00  0.10566000000E+00 0. -1.
     999900   -1    0    0    0    0 -0.00000000000E+00 -0.00000000000E+00 -0.74505805969E-08  0.93827000000E+00  0.93827000000E+00 0.  1.
     999902    2    1    2    0    0  0.41096010710E-02 -0.82368540309E-02  0.22337202404E-01  0.10197704223E+01  0.10194841975E+01 0.  0.
     999903    2    3    3    0    0  0.10587059809E+00  0.62369877246E-01  0.41134204713E-01  0.13089813767E+00  0.18539539370E-01 0.  0.
         14    1    1    2    0    0 -0.41096010710E-02  0.82368540309E-02 -0.22337202404E-01  0.24159577739E-01  0.00000000000E+00 0. -1.
     999901    1    3    3    0    0 -0.10176099702E+00 -0.70606731277E-01 -0.18797002308E-01  0.88887228459E+00  0.88000000000E+00 0. -1.
        -11    1    4    4    0    0  0.76766274207E-01  0.35231400133E-01  0.27507371091E-01  0.88832589719E-01  0.51100000000E-03 0. -1.
         11    1    4    4    0    0  0.29104323886E-01  0.27138477113E-01  0.13626833622E-01  0.42065547951E-01  0.51100000000E-03 0.  1.
</event>
<event>
 8    1  0.1072332E+005  0.1043930E+01  0.7957747E-01            NaN
         13   -1    0    0    0    0  0.00000000000E+00  0.00000000000E+00  0.74505805969E-08  0.10566000000E+00  0.10566000000E+00 0.  1.
     999900   -1    0    0    0    0 -0.00000000000E+00 -0.00000000000E+00 -0.74505805969E-08  0.93827000000E+00  0.93827000000E+00 0.  1.
     999902    2    1    2    0    0 -0.19019000728E-01  0.65647646349E-02  0.13013862999E-01  0.10199679643E+01  0.10196864563E+01 0.  0.
     999903    2    3    3    0    0 -0.75606951469E-01 -0.88799549823E-02  0.10721415056E+00  0.13299872602E+00  0.19963024109E-01 0.  0.
         14    1    1    2    0    0  0.19019000728E-01 -0.65647646349E-02 -0.13013862999E-01  0.23962035672E-01  0.00000000000E+00 0. -1.
     999901    1    3    3    0    0  0.56587950742E-01  0.15444719617E-01 -0.94200287558E-01  0.88696923831E+00  0.88000000000E+00 0.  1.
        -11    1    4    4    0    0 -0.39035180741E-01 -0.14577900511E-01  0.57961070849E-01  0.71386324837E-01  0.51100000000E-03 0. -1.
         11    1    4    4    0    0 -0.36571770729E-01  0.56979455285E-02  0.49253079708E-01  0.61612401180E-01  0.51100000000E-03 0.  1.
</event>
<event>
 8    1  0.1072332E+005  0.1043930E+01  0.7957747E-01            NaN
         13   -1    0    0    0    0  0.00000000000E+00  0.00000000000E+00  0.74505805969E-08  0.10566000000E+00  0.10566000000E+00 0.  1.
     999900   -1    0    0    0    0 -0.00000000000E+00 -0.00000000000E+00 -0.74505805969E-08  0.93827000000E+00  0.93827000000E+00 0.  1.
     999902    2    1    2    0    0 -0.13296008162E-01  0.51214797994E-02 -0.18525880097E-01  0.10205586153E+01  0.10202909711E+01 0.  0.
     999903    2    3    3    0    0  0.46682541405E-01  0.74725839033E-01  0.92011169697E-01  0.12889688989E+00  0.19625039667E-01 0.  0.
         14    1    1    2    0    0  0.13296008162E-01 -0.51214797994E-02  0.18525880097E-01  0.23371384677E-01  0.00000000000E+00 0.  1.
     999901    1    3    3    0    0 -0.59978549567E-01 -0.69604359234E-01 -0.11053704979E+00  0.89166172544E+00  0.88000000000E+00 0.  1.
        -11    1    4    4    0    0  0.25953933672E-01  0.53970176696E-01  0.52211009420E-01  0.79452106777E-01  0.51100000000E-03 0. -1.
         11    1    4    4    0    0  0.20728607733E-01  0.20755662338E-01  0.39800160277E-01  0.49444783109E-01  0.51100000000E-03 0.  1.
</event>
<event>
 8    1  0.1072332E+005  0.1043930E+01  0.7957747E-01            NaN
         13   -1    0    0    0    0  0.00000000000E+00  0.00000000000E+00  0.74505805969E-08  0.10566000000E+00  0.10566000000E+00 0. -1.
     999900   -1    0    0    0    0 -0.00000000000E+00 -0.00000000000E+00 -0.74505805969E-08  0.93827000000E+00  0.93827000000E+00 0. -1.
     999902    2    1    2    0    0  0.28810083319E-03  0.63241959893E-02  0.23239796661E-01  0.10198433521E+01  0.10195588734E+01 0.  0.
     999903    2    3    3    0    0 -0.10420769530E+00  0.32229368475E-02  0.78315892794E-01  0.13194562965E+00  0.20165292913E-01 0.  0.
         14    1    1    2    0    0 -0.28810083319E-03 -0.63241959893E-02 -0.23239796661E-01  0.24086647874E-01  0.00000000000E+00 0.  1.
     999901    1    3    3    0    0  0.10449579613E+00  0.31012591418E-02 -0.55076096133E-01  0.88789772248E+00  0.88000000000E+00 0. -1.
        -11    1    4    4    0    0 -0.64134431894E-01  0.10894839401E-01  0.43010700373E-01  0.77987847435E-01  0.51100000000E-03 0.  1.
         11    1    4    4    0    0 -0.40073263401E-01 -0.76719025534E-02  0.35305192421E-01  0.53957782212E-01  0.51100000000E-03 0. -1.
</event>
<event>
 8    1  0.1072332E+005  0.1043930E+01  0.7957747E-01            NaN
         13   -1    0    0    0    0  0.00000000000E+00  0.00000000000E+00  0.74505805969E-08  0.10566000000E+00  0.10566000000E+00 0.  1.
     999900   -1    0    0    0    0 -0.00000000000E+00 -0.00000000000E+00 -0.74505805969E-08  0.93827000000E+00  0.93827000000E+00 0. -1.
     999902    2    1    2    0    0 -0.12082315163E-01  0.31969349468E-03 -0.20517427075E-01  0.10201172018E+01  0.10198392305E+01 0.  0.
     999903    2    3    3    0    0 -0.11977423593E+00  0.47218366413E-01  0.17426322767E-01  0.13150212009E+00  0.20339349640E-01 0.  0.
         14    1    1    2    0    0  0.12082315163E-01 -0.31969349468E-03  0.20517427075E-01  0.23812798185E-01  0.00000000000E+00 0. -1.
     999901    1    3    3    0    0  0.10769192076E+00 -0.46898672918E-01 -0.37943749842E-01  0.88861508173E+00  0.88000000000E+00 0. -1.
        -11    1    4    4    0    0 -0.83858649336E-01  0.42049299406E-01  0.16138969262E-01  0.95190042015E-01  0.51100000000E-03 0. -1.
         11    1    4    4    0    0 -0.35915586592E-01  0.51690670071E-02  0.12873535052E-02  0.36312078074E-01  0.51100000000E-03 0.  1.
</event>
<event>
 8    1  0.1072332E+005  0.1043930E+01  0.7957747E-01            NaN
         13   -1    0    0    0    0  0.00000000000E+00  0.00000000000E+00  0.74505805969E-08  0.10566000000E+00  0.10566000000E+00 0. -1.
     999900   -1    0    0    0    0 -0.00000000000E+00 -0.00000000000E+00 -0.74505805969E-08  0.93827000000E+00  0.93827000000E+00 0.  1.
     999902    2    1    2    0    0  0.15531046946E-01 -0.10493025908E-01  0.13924638599E-01  0.10205802126E+01  0.10203130685E+01 0.  0.
     999903    2    3    3    0    0  0.11331215073E+00 -0.57975969088E-01 -0.31422232003E-01  0.13273331542E+00  0.20734508954E-01 0.  0.
         14    1    1    2    0    0 -0.15531046946E-01  0.10493025908E-01 -0.13924638599E-01  0.23349787409E-01  0.00000000000E+00 0. -1.
     999901    1    3    3    0    0 -0.97781103788E-01  0.47482943179E-01  0.45346870601E-01  0.88784689718E+00  0.88000000000E+00 0.  1.
        -11    1    4    4    0    0  0.10077612324E+00 -0.57862329242E-01 -0.30550993988E-01  0.12015615055E+00  0.51100000000E-03 0. -1.
         11    1    4    4    0    0  0.12536027495E-01 -0.11363984576E-03 -0.87123801426E-03  0.12577164865E-01  0.51100000000E-03 0.  1.
</event>
<event>
 8    1  0.1072332E+005  0.1043930E+01  0.7957747E-01            NaN
         13   -1    0    0    0    0  0.00000000000E+00  0.00000000000E+00  0.74505805969E-08  0.10566000000E+00  0.10566000000E+00 0. -1.
     999900   -1    0    0    0    0 -0.00000000000E+00 -0.00000000000E+00 -0.74505805969E-08  0.93827000000E+00  0.93827000000E+00 0. -1.
     999902    2    1    2    0    0 -0.15736548148E-01  0.21632558640E-01 -0.20569668605E-02  0.10171002096E+01  0.10167462804E+01 0.  0.
     999903    2    3    3    0    0 -0.95294876067E-01  0.50508554558E-01  0.70129750209E-01  0.13009723732E+00  0.19361864759E-01 0.  0.
         14    1    1    2    0    0  0.15736548148E-01 -0.21632558640E-01  0.20569668605E-02  0.26829790413E-01  0.00000000000E+00 0. -1.
     999901    1    3    3    0    0  0.79558327919E-01 -0.28875995918E-01 -0.72186717070E-01  0.88700297226E+00  0.88000000000E+00 0.  1.
        -11    1    4    4    0    0 -0.82338139963E-01  0.46283567821E-01  0.53374903531E-01  0.10849368364E+00  0.51100000000E-03 0. -1.
         11    1    4    4    0    0 -0.12956736104E-01  0.42249867367E-02  0.16754846679E-01  0.21603553680E-01  0.51100000000E-03 0.  1.
</event>
<event>
 8    1  0.1072332E+005  0.1043930E+01  0.7957747E-01            NaN
         13   -1    0    0    0    0  0.00000000000E+00  0.00000000000E+00  0.74505805969E-08  0.10566000000E+00  0.10566000000E+00 0.  1.
     999900   -1    0    0    0    0 -0.00000000000E+00 -0.00000000000E+00 -0.74505805969E-08  0.93827000000E+00  0.93827000000E+00 0.  1.
     999902    2    1    2    0    0 -0.29233156077E-02  0.39262139762E-02 -0.22743571933E-01  0.10206656282E+01  0.10204004575E+01 0.  0.
     999903    2    3    3    0    0  0.10966151481E+00  0.42676857239E-01 -0.55140778149E-01  0.13205630159E+00  0.23481895178E-01 0.  0.
         14    1    1    2    0    0  0.29233156077E-02 -0.39262139762E-02  0.22743571933E-01  0.23264371786E-01  0.00000000000E+00 0.  1.
     999901    1    3    3    0    0 -0.11258483042E+00 -0.38750643263E-01  0.32397206216E-01  0.88860932662E+00  0.88000000000E+00 0.  1.
        -11    1    4    4    0    0  0.14476471816E-01 -0.29428344323E-03 -0.12688494781E-02  0.14543931346E-01  0.51100000000E-03 0.  1.
         11    1    4    4    0    0  0.95185042991E-01  0.42971140682E-01 -0.53871928671E-01  0.11751237024E+00  0.51100000000E-03 0. -1.
</event>
<event>
 8    1  0.1072332E+005  0.1043930E+01  0.7957747E-01            NaN
         13   -1    0    0    0    0  0.00000000000E+00  0.00000000000E+00  0.74505805969E-08  0.10566000000E+00  0.10566000000E+00 0.  1.
     999900   -1    0    0    0    0 -0.00000000000E+00 -0.00000000000E+00 -0.74505805969E-08  0.93827000000E+00  0.93827000000E+00 0.  1.
     999902    2    1    2    0    0  0.69111689689E-02 -0.17812269712E-01  0.14127487864E-01  0.10201681162E+01  0.10198913463E+01 0.  0.
     999903    2    3    3    0    0 -0.82169197392E-01  0.25205788831E-02 -0.96792261274E-01  0.12851127236E+00  0.19704693931E-01 0.  0.
         14    1    1    2    0    0 -0.69111689689E-02  0.17812269712E-01 -0.14127487864E-01  0.23761883809E-01  0.00000000000E+00 0. -1.
     999901    1    3    3    0    0  0.89080366361E-01 -0.20332848595E-01  0.11091974914E+00  0.89165684383E+00  0.88000000000E+00 0. -1.
        -11    1    4    4    0    0 -0.65730462500E-01  0.13733641963E-03 -0.63971882763E-01  0.91723363801E-01  0.51100000000E-03 0.  1.
         11    1    4    4    0    0 -0.16438734893E-01  0.23832424635E-02 -0.32820378511E-01  0.36787908558E-01  0.51100000000E-03 0. -1.
</event>
<event>
 8    1  0.1072332E+005  0.1043930E+01  0.7957747E-01            NaN
         13   -1    0    0    0    0  0.00000000000E+00  0.00000000000E+00  0.74505805969E-08  0.10566000000E+00  0.10566000000E+00 0.  1.
     999900   -1    0    0    0    0 -0.00000000000E+00 -0.00000000000E+00 -0.74505805969E-08  0.93827000000E+00  0.93827000000E+00 0. -1.
     999902    2    1    2    0    0 -0.17384865115E-01  0.15861395052E-01 -0.50062528714E-02  0.10198700757E+01  0.10195862354E+01 0.  0.
     999903    2    3    3    0    0  0.84551711957E-02 -0.73203648182E-01  0.10321144870E+00  0.12840422650E+00  0.20119100738E-01 0.  0.
         14    1    1    2    0    0  0.17384865115E-01 -0.15861395052E-01  0.50062528714E-02  0.24059924270E-01  0.00000000000E+00 0. -1.
     999901    1    3    3    0    0 -0.25840036311E-01  0.89065043234E-01 -0.10821770157E+00  0.89146584923E+00  0.88000000000E+00 0. -1.
        -11    1    4    4    0    0 -0.27430633368E-02 -0.51404073761E-01  0.63630641198E-01  0.81847558400E-01  0.51100000000E-03 0.  1.
         11    1    4    4    0    0  0.11198234533E-01 -0.21799574421E-01  0.39580807501E-01  0.46556668104E-01  0.51100000000E-03 0. -1.
</event>
<event>
 8    1  0.1072332E+005  0.1043930E+01  0.7957747E-01            NaN
         13   -1    0    0    0    0  0.00000000000E+00  0.00000000000E+00  0.74505805969E-08  0.10566000000E+00  0.10566000000E+00 0.  1.
     999900   -1    0    0    0    0 -0.00000000000E+00 -0.00000000000E+00 -0.74505805969E-08  0.93827000000E+00  0.93827000000E+00 0.  1.
     999902    2    1    2    0    0 -0.43017708491E-03 -0.12867654962E-01  0.17250439233E-01  0.10224046835E+01  0.10221780655E+01 0.  0.
     999903    2    3    3    0    0 -0.98109936529E-01 -0.85747698185E-01 -0.19274551469E-01  0.13325513981E+00  0.20179112012E-01 0.  0.
         14    1    1    2    0    0  0.43017708491E-03  0.12867654962E-01 -0.17250439233E-01  0.21525316496E-01  0.00000000000E+00 0. -1.
     999901    1    3    3    0    0  0.97679759444E-01  0.72880043224E-01  0.36524990702E-01  0.88914954369E+00  0.88000000000E+00 0. -1.
        -11    1    4    4    0    0 -0.37098724920E-01 -0.37137656587E-01 -0.17115493913E-01  0.55215235038E-01  0.51100000000E-03 0. -1.
         11    1    4    4    0    0 -0.61011211609E-01 -0.48610041599E-01 -0.21590575561E-02  0.78039904772E-01  0.51100000000E-03 0.  1.
</event>
<event>
 8    1  0.1072332E+005  0.1043930E+01  0.7957747E-01            NaN
         13   -1    0    0    0    0  0.00000000000E+00  0.00000000000E+00  0.74505805969E-08  0.10566000000E+00  0.10566000000E+00 0.  1.
     999900   -1    0    0    0    0 -0.00000000000E+00 -0.00000000000E+00 -0.74505805969E-08  0.93827000000E+00  0.93827000000E+00 0. -1.
     999902    2    1    2    0    0 -0.14599813358E-01  0.18883860297E-01  0.40309132996E-03  0.10200570611E+01  0.10197776673E+01 0.  0.
     999903    2    3    3    0    0  0.34875676096E-01  0.10314305505E+00  0.71381586149E-01  0.13180856957E+00  0.20575849513E-01 0.  0.
         14    1    1    2    0    0  0.14599813358E-01 -0.18883860297E-01 -0.40309132996E-03  0.23872938914E-01  0.00000000000E+00 0. -1.
     999901    1    3    3    0    0 -0.49475489453E-01 -0.84259194749E-01 -0.70978494819E-01  0.88824849152E+00  0.88000000000E+00 0. -1.
        -11    1    4    4    0    0  0.29586104661E-01  0.79520167037E-01  0.64668053715E-01  0.10668182998E+00  0.51100000000E-03 0. -1.
         11    1    4    4    0    0  0.52895714351E-02  0.23622888009E-01  0.67135324344E-02  0.25126739593E-01  0.51100000000E-03 0.  1.
</event>
<event>
 8    1  0.1072332E+005  0.1043930E+01  0.7957747E-01            NaN
         13   -1    0    0    0    0  0.00000000000E+00  0.00000000000E+00  0.74505805969E-08  0.10566000000E+00  0.10566000000E+00 0. -1.
     999900   -1    0    0    0    0 -0.00000000000E+00 -0.00000000000E+00 -0.74505805969E-08  0.93827000000E+00  0.93827000000E+00 0. -1.
     999902    2    1    2    0    0  0.24211130107E-02  0.79587876204E-02 -0.22375000357E-01  0.10200585792E+01  0.10197792214E+01 0.  0.
     999903    2    3    3    0    0  0.12316866070E+00  0.39779900799E-01 -0.10203717021E-01  0.13115999466E+00  0.18597550157E-01 0.  0.
         14    1    1    2    0    0 -0.24211130107E-02 -0.79587876204E-02  0.22375000357E-01  0.23871420770E-01  0.00000000000E+00 0. -1.
     999901    1    3    3    0    0 -0.12074754769E+00 -0.31821113178E-01 -0.12171283336E-01  0.88889858457E+00  0.88000000000E+00 0.  1.
        -11    1    4    4    0    0  0.38115918437E-01  0.43166589580E-02  0.67366637092E-03  0.38368890136E-01  0.51100000000E-03 0. -1.
         11    1    4    4    0    0  0.85052742262E-01  0.35463241840E-01 -0.10877383392E-01  0.92791104523E-01  0.51100000000E-03 0.  1.
</event>
<event>
 8    1  0.1072332E+005  0.1043930E+01  0.7957747E-01            NaN
         13   -1    0    0    0    0  0.00000000000E+00  0.00000000000E+00  0.74505805969E-08  0.10566000000E+00  0.10566000000E+00 0.  1.
     999900   -1    0    0    0    0 -0.00000000000E+00 -0.00000000000E+00 -0.74505805969E-08  0.93827000000E+00  0.93827000000E+00 0. -1.
     999902    2    1    2    0    0  0.15820761808E-01 -0.22017722421E-01 -0.24940938494E-02  0.10167032281E+01  0.10163386035E+01 0.  0.
     999903    2    3    3    0    0 -0.12365644243E+00  0.83409908177E-02  0.39920091173E-02  0.12517778733E+00  0.17118832400E-01 0.  0.
         14    1    1    2    0    0 -0.15820761808E-01  0.22017722421E-01  0.24940938494E-02  0.27226771916E-01  0.00000000000E+00 0. -1.
     999901    1    3    3    0    0  0.13947720424E+00 -0.30358713239E-01 -0.64861029667E-02  0.89152544075E+00  0.88000000000E+00 0. -1.
        -11    1    4    4    0    0 -0.38848344817E-01 -0.52722736606E-02  0.20231307848E-02  0.39259966171E-01  0.51100000000E-03 0. -1.
         11    1    4    4    0    0 -0.84808097614E-01  0.13613264478E-01  0.19688783324E-02  0.85917821164E-01  0.51100000000E-03 0.  1.
</event>
<event>
 8    1  0.1072332E+005  0.1043930E+01  0.7957747E-01            NaN
         13   -1    0    0    0    0  0.00000000000E+00  0.00000000000E+00  0.74505805969E-08  0.10566000000E+00  0.10566000000E+00 0. -1.
     999900   -1    0    0    0    0 -0.00000000000E+00 -0.00000000000E+00 -0.74505805969E-08  0.93827000000E+00  0.93827000000E+00 0. -1.
     999902    2    1    2    0    0  0.14285585512E-01  0.18635253785E-01  0.10754551301E-02  0.10204245274E+01  0.10201537673E+01 0.  0.
     999903    2    3    3    0    0 -0.52568357848E-02 -0.73964663361E-01 -0.10381853511E+00  0.12915610542E+00  0.20114810130E-01 0.  0.
         14    1    1    2    0    0 -0.14285585512E-01 -0.18635253785E-01 -0.10754551301E-02  0.23505472572E-01  0.00000000000E+00 0.  1.
     999901    1    3    3    0    0  0.19542421297E-01  0.92599917147E-01  0.10489399024E+00  0.89126842201E+00  0.88000000000E+00 0.  1.
        -11    1    4    4    0    0 -0.10912210569E-01 -0.54338849762E-01 -0.84379408811E-01  0.10095510232E+00  0.51100000000E-03 0. -1.
         11    1    4    4    0    0  0.56553747839E-02 -0.19625813600E-01 -0.19439126294E-01  0.28201003094E-01  0.51100000000E-03 0.  1.
</event>
<event>
 8    1  0.1072332E+005  0.1043930E+01  0.7957747E-01            NaN
         13   -1    0    0    0    0  0.00000000000E+00  0.00000000000E+00  0.74505805969E-08  0.10566000000E+00  0.10566000000E+00 0. -1.
     999900   -1    0    0    0    0 -0.00000000000E+00 -0.00000000000E+00 -0.74505805969E-08  0.93827000000E+00  0.93827000000E+00 0.  1.
     999902    2    1    2    0    0 -0.14699758516E-02  0.22089221470E-01 -0.72104542982E-02  0.10206472771E+01  0.10203816830E+01 0.  0.
     999903    2    3    3    0    0 -0.95103215143E-01 -0.30568491302E-01 -0.82618089962E-01  0.13091342379E+00  0.18262572367E-01 0.  0.
         14    1    1    2    0    0  0.14699758516E-02 -0.22089221470E-01  0.72104542982E-02  0.23282722893E-01  0.00000000000E+00 0. -1.
     999901    1    3    3    0    0  0.93633239292E-01  0.52657712771E-01  0.75407635664E-01  0.88973385331E+00  0.88000000000E+00 0. -1.
        -11    1    4    4    0    0 -0.37971314114E-01 -0.19123375827E-01 -0.42864677436E-01  0.60375209244E-01  0.51100000000E-03 0.  1.
         11    1    4    4    0    0 -0.57131901029E-01 -0.11445115475E-01 -0.39753412525E-01  0.70538214550E-01  0.51100000000E-03 0. -1.
</event>
<event>
 8    1  0.1072332E+005  0.1043930E+01  0.7957747E-01            NaN
         13   -1    0    0    0    0  0.00000000000E+00  0.00000000000E+00  0.74505805969E-08  0.10566000000E+00  0.10566000000E+00 0.  1.
     999900   -1    0    0    0    0 -0.00000000000E+00 -0.00000000000E+00 -0.74505805969E-08  0.93827000000E+00  0.93827000000E+00 0.  1.
     999902    2    1    2    0    0  0.23798836347E-01  0.47794058604E-02  0.56650650184E-03  0.10196493851E+01  0.10193602505E+01 0.  0.
     999903    2    3    3    0    0 -0.30715261091E-01  0.11124890121E+00  0.56166894230E-01  0.12981853408E+00  0.19452159234E-01 0.  0.
         14    1    1    2    0    0 -0.23798836347E-01 -0.47794058604E-02 -0.56650650184E-03  0.24280614932E-01  0.00000000000E+00 0. -1.
     999901    1    3    3    0    0  0.54514097438E-01 -0.10646949535E+00 -0.55600387728E-01  0.88983085099E+00  0.88000000000E+00 0.  1.
        -11    1    4    4    0    0 -0.13624614899E-01  0.82268355329E-01  0.40005228349E-01  0.92489955325E-01  0.51100000000E-03 0. -1.
         11    1    4    4    0    0 -0.17090646192E-01  0.28980545879E-01  0.16161665880E-01  0.37328578753E-01  0.51100000000E-03 0.  1.
</event>
<event>
 8    1  0.1072332E+005  0.1043930E+01  0.7957747E-01            NaN
         13   -1    0    0    0    0  0.00000000000E+00  0.00000000000E+00  0.74505805969E-08  0.10566000000E+00  0.10566000000E+00 0.  1.
     999900   -1    0    0    0    0 -0.00000000000E+00 -0.00000000000E+00 -0.74505805969E-08  0.93827000000E+00  0.93827000000E+00 0.  1.
     999902    2    1    2    0    0  0.62689044790E-02 -0.21373483177E-01 -0.96990613132E-02  0.10196360350E+01  0.10193465785E+01 0.  0.
     999903    2    3    3    0    0 -0.87493206056E-01 -0.79040376989E-01 -0.53811891694E-01  0.13168178738E+00  0.23279414487E-01 0.  0.
         14    1    1    2    0    0 -0.62689044790E-02  0.21373483177E-01  0.96990613132E-02  0.24293965029E-01  0.00000000000E+00 0.  1.
     999901    1    3    3    0    0  0.93762110535E-01  0.57666893812E-01  0.44112830381E-01  0.88795424759E+00  0.88000000000E+00 0. -1.
        -11    1    4    4    0    0 -0.37426481434E-01 -0.21428981806E-01 -0.12572178961E-01  0.44925088521E-01  0.51100000000E-03 0.  1.
         11    1    4    4    0    0 -0.50066724622E-01 -0.57611395183E-01 -0.41239712733E-01  0.86756698857E-01  0.51100000000E-03 0. -1.
</event>
<event>
 8    1  0.1072332E+005  0.1043930E+01  0.7957747E-01            NaN
         13   -1    0    0    0    0  0.00000000000E+00  0.00000000000E+00  0.74505805969E-08  0.10566000000E+00  0.10566000000E+00 0. -1.
     999900   -1    0    0    0    0 -0.00000000000E+00 -0.00000000000E+00 -0.74505805969E-08  0.93827000000E+00  0.93827000000E+00 0. -1.
     999902    2    1    2    0    0 -0.76503064581E-02  0.16764121242E-01  0.14091086338E-01  0.10207325505E+01  0.10204689206E+01 0.  0.
     999903    2    3    3    0    0  0.10989927410E-01  0.12582309198E+00 -0.34881687256E-01  0.13245351213E+00  0.19364188330E-01 0.  0.
         14    1    1    2    0    0  0.76503064581E-02 -0.16764121242E-01 -0.14091086338E-01  0.23197449517E-01  0.00000000000E+00 0.  1.
     999901    1    3    3    0    0 -0.18640233868E-01 -0.10905897074E+00  0.48972773595E-01  0.88827903835E+00  0.88000000000E+00 0. -1.
        -11    1    4    4    0    0  0.47656078828E-02  0.63831774628E-01 -0.76845402681E-02  0.64471076855E-01  0.51100000000E-03 0. -1.
         11    1    4    4    0    0  0.62243195271E-02  0.61991317356E-01 -0.27197146988E-01  0.67982435278E-01  0.51100000000E-03 0.  1.
</event>
<event>
 8    1  0.1072332E+005  0.1043930E+01  0.7957747E-01            NaN
         13   -1    0    0    0    0  0.00000000000E+00  0.00000000000E+00  0.74505805969E-08  0.10566000000E+00  0.10566000000E+00 0. -1.
     999900   -1    0    0    0    0 -0.00000000000E+00 -0.00000000000E+00 -0.74505805969E-08  0.93827000000E+00  0.93827000000E+00 0. -1.
     999902    2    1    2    0    0  0.14224428552E-01 -0.19119739138E-01  0.43360270662E-02  0.10197081107E+01  0.10194203897E+01 0.  0.
     999903    2    3    3    0    0 -0.28827085459E-01 -0.11696154776E+00  0.50298730081E-01  0.13204881654E+00  0.19897818747E-01 0.  0.
         14    1    1    2    0    0 -0.14224428552E-01  0.19119739138E-01 -0.43360270662E-02  0.24221889337E-01  0.00000000000E+00 0. -1.
     999901    1    3    3    0    0  0.43051514011E-01  0.97841808624E-01 -0.45962703015E-01  0.88765929412E+00  0.88000000000E+00 0. -1.
        -11    1    4    4    0    0 -0.19649274682E-01 -0.88771099432E-01  0.46600524038E-01  0.10216786213E+00  0.51100000000E-03 0.  1.
         11    1    4    4    0    0 -0.91778107774E-02 -0.28190448330E-01  0.36982060427E-02  0.29880954414E-01  0.51100000000E-03 0. -1.
</event>
<event>
 8    1  0.1078629E+005  0.1043930E+01  0.7957747E-01            NaN
         13   -1    0    0    0    0  0.00000000000E+00  0.00000000000E+00  0.74505805969E-08  0.10566000000E+00  0.10566000000E+00 0. -1.
     999900   -1    0    0    0    0 -0.00000000000E+00 -0.00000000000E+00 -0.74505805969E-08  0.93827000000E+00  0.93827000000E+00 0. -1.
     999902    2    1    2    0    0  0.15036728180E-02 -0.18682606855E-01  0.15522326748E-01  0.10195939474E+01  0.10193034749E+01 0.  0.
     999903    2    3    3    0    0 -0.96268022482E-01 -0.84075508603E-01 -0.20852052271E-01  0.13102282952E+00  0.19898504243E-01 0.  0.
         14    1    1    2    0    0 -0.15036728180E-02  0.18682606855E-01 -0.15522326748E-01  0.24336052649E-01  0.00000000000E+00 0.  1.
     999901    1    3    3    0    0  0.97771695300E-01  0.65392901748E-01  0.36374379019E-01  0.88857111783E+00  0.88000000000E+00 0. -1.
        -11    1    4    4    0    0 -0.33658897353E-01 -0.31990910166E-01  0.18462685372E-02  0.46475902711E-01  0.51100000000E-03 0. -1.
         11    1    4    4    0    0 -0.62609125129E-01 -0.52084598437E-01 -0.22698320808E-01  0.84546926806E-01  0.51100000000E-03 0.  1.
</event>
<event>
 8    1  0.1072332E+005  0.1043930E+01  0.7957747E-01            NaN
         13   -1    0    0    0    0  0.00000000000E+00  0.00000000000E+00  0.74505805969E-08  0.10566000000E+00  0.10566000000E+00 0. -1.
     999900   -1    0    0    0    0 -0.00000000000E+00 -0.00000000000E+00 -0.74505805969E-08  0.93827000000E+00  0.93827000000E+00 0. -1.
     999902    2    1    2    0    0 -0.71441345335E-02 -0.12891042967E-01 -0.18692033336E-01  0.10201264339E+01  0.10198486807E+01 0.  0.
     999903    2    3    3    0    0  0.10584486290E+00  0.35276016277E-01 -0.63909004711E-01  0.13044606794E+00  0.22006440679E-01 0.  0.
         14    1    1    2    0    0  0.71441345335E-02  0.12891042967E-01  0.18692033336E-01  0.23803566061E-01  0.00000000000E+00 0. -1.
     999901    1    3    3    0    0 -0.11298899744E+00 -0.48167059243E-01  0.45216971375E-01  0.88968036600E+00  0.88000000000E+00 0.  1.
        -11    1    4    4    0    0  0.87895710608E-01  0.35612190443E-01 -0.47277339428E-01  0.10596835375E+00  0.51100000000E-03 0.  1.
         11    1    4    4    0    0  0.17949152295E-01 -0.33617416679E-03 -0.16631665283E-01  0.24477714196E-01  0.51100000000E-03 0. -1.
</event>
<event>
 8    1  0.1072332E+005  0.1043930E+01  0.7957747E-01            NaN
         13   -1    0    0    0    0  0.00000000000E+00  0.00000000000E+00  0.74505805969E-08  0.10566000000E+00  0.10566000000E+00 0. -1.
     999900   -1    0    0    0    0 -0.00000000000E+00 -0.00000000000E+00 -0.74505805969E-08  0.93827000000E+00  0.93827000000E+00 0.  1.
     999902    2    1    2    0    0  0.88209780678E-02  0.42464985178E-02 -0.21935659187E-01  0.10199088521E+01  0.10196259368E+01 0.  0.
     999903    2    3    3    0    0 -0.18357544661E-01 -0.11149381986E+00 -0.63292506935E-01  0.13095166399E+00  0.19352662701E-01 0.  0.
         14    1    1    2    0    0 -0.88209780678E-02 -0.42464985178E-02  0.21935659187E-01  0.24021147927E-01  0.00000000000E+00 0. -1.
     999901    1    3    3    0    0  0.27178522729E-01  0.11574031838E+00  0.41356847748E-01  0.88895718809E+00  0.88000000000E+00 0.  1.
        -11    1    4    4    0    0 -0.17560063562E-01 -0.66450583823E-01 -0.30331335979E-01  0.75128469877E-01  0.51100000000E-03 0.  1.
         11    1    4    4    0    0 -0.79748109935E-03 -0.45043236037E-01 -0.32961170957E-01  0.55823194109E-01  0.51100000000E-03 0. -1.
</event>
<event>
 8    1  0.1072332E+005  0.1043930E+01  0.7957747E-01            NaN
         13   -1    0    0    0    0  0.00000000000E+00  0.00000000000E+00  0.74505805969E-08  0.10566000000E+00  0.10566000000E+00 0. -1.
     999900   -1    0    0    0    0 -0.00000000000E+00 -0.00000000000E+00 -0.74505805969E-08  0.93827000000E+00  0.93827000000E+00 0. -1.
     999902    2    1    2    0    0  0.14789770062E-01 -0.18051766564E-01  0.85601785708E-02  0.10190728032E+01  0.10187696001E+01 0.  0.
     999903    2    3    3    0    0 -0.36362519812E-02 -0.46170538222E-02 -0.12668141995E+00  0.12844925774E+00  0.20408090003E-01 0.  0.
         14    1    1    2    0    0 -0.14789770062E-01  0.18051766564E-01 -0.85601785708E-02  0.24857196779E-01  0.00000000000E+00 0.  1.
     999901    1    3    3    0    0  0.18426022043E-01 -0.13434712742E-01  0.13524159853E+00  0.89062354548E+00  0.88000000000E+00 0.  1.
        -11    1    4    4    0    0 -0.20334897176E-02 -0.11632760247E-01 -0.10345693610E+00  0.10412999059E+00  0.51100000000E-03 0.  1.
         11    1    4    4    0    0 -0.16027622636E-02  0.70157064253E-02 -0.23224483856E-01  0.24319267154E-01  0.51100000000E-03 0. -1.
</event>
<event>
 8    1  0.1072332E+005  0.1043930E+01  0.7957747E-01            NaN
         13   -1    0    0    0    0  0.00000000000E+00  0.00000000000E+00  0.74505805969E-08  0.10566000000E+00  0.10566000000E+00 0. -1.
     999900   -1    0    0    0    0 -0.00000000000E+00 -0.00000000000E+00 -0.74505805969E-08  0.93827000000E+00  0.93827000000E+00 0.  1.
     999902    2    1    2    0    0 -0.11941106349E-01  0.15628562142E-01  0.13520838709E-01  0.10200625524E+01  0.10197832886E+01 0.  0.
     999903    2    3    3    0    0  0.45599853461E-01 -0.61668158725E-01 -0.99851937474E-01  0.12757214265E+00  0.20541025485E-01 0.  0.
         14    1    1    2    0    0  0.11941106349E-01 -0.15628562142E-01 -0.13520838709E-01  0.23867447598E-01  0.00000000000E+00 0.  1.
     999901    1    3    3    0    0 -0.57540959809E-01  0.77296720867E-01  0.11337277618E+00  0.89249040975E+00  0.88000000000E+00 0. -1.
        -11    1    4    4    0    0 -0.97735342684E-03 -0.73592145920E-02 -0.60061211871E-02  0.95628380644E-02  0.51100000000E-03 0.  1.
         11    1    4    4    0    0  0.46577206888E-01 -0.54308944133E-01 -0.93845816287E-01  0.11800930459E+00  0.51100000000E-03 0. -1.
</event>
<event>
 8    1  0.1072332E+005  0.1043930E+01  0.7957747E-01            NaN
         13   -1    0    0    0    0  0.00000000000E+00  0.00000000000E+00  0.74505805969E-08  0.10566000000E+00  0.10566000000E+00 0. -1.
     999900   -1    0    0    0    0 -0.00000000000E+00 -0.00000000000E+00 -0.74505805969E-08  0.93827000000E+00  0.93827000000E+00 0. -1.
     999902    2    1    2    0    0 -0.88726045812E-02 -0.22677291108E-01  0.90962610915E-03  0.10195617817E+01  0.10192705316E+01 0.  0.
     999903    2    3    3    0    0  0.63379831722E-01  0.50555255032E-01  0.97412767304E-01  0.12832877252E+00  0.20154149521E-01 0.  0.
         14    1    1    2    0    0  0.88726045812E-02  0.22677291108E-01 -0.90962610915E-03  0.24368218312E-01  0.00000000000E+00 0. -1.
     999901    1    3    3    0    0 -0.72252436303E-01 -0.73232546139E-01 -0.96503141195E-01  0.89123300917E+00  0.88000000000E+00 0. -1.
        -11    1    4    4    0    0  0.46462462426E-01  0.29034711979E-01  0.75362152399E-01  0.93174513949E-01  0.51100000000E-03 0. -1.
         11    1    4    4    0    0  0.16917369296E-01  0.21520543053E-01  0.22050614905E-01  0.35154258574E-01  0.51100000000E-03 0.  1.
</event>
<event>
 8    1  0.1072332E+005  0.1043930E+01  0.7957747E-01            NaN
         13   -1    0    0    0    0  0.00000000000E+00  0.00000000000E+00  0.74505805969E-08  0.10566000000E+00  0.10566000000E+00 0.  1.
     999900   -1    0    0    0    0 -0.00000000000E+00 -0.00000000000E+00 -0.74505805969E-08  0.93827000000E+00  0.93827000000E+00 0. -1.
     999902    2    1    2    0    0  0.23812046287E-02 -0.22101048005E-01  0.15353991621E-01  0.10169138656E+01  0.10165549363E+01 0.  0.
     999903    2    3    3    0    0  0.31436472199E-02 -0.12492919531E+00  0.32566380172E-01  0.13075898326E+00  0.20497712753E-01 0.  0.
         14    1    1    2    0    0 -0.23812046287E-02  0.22101048005E-01 -0.15353991621E-01  0.27016134384E-01  0.00000000000E+00 0.  1.
     999901    1    3    3    0    0 -0.76244259122E-03  0.10282814730E+00 -0.17212388552E-01  0.88615488235E+00  0.88000000000E+00 0. -1.
        -11    1    4    4    0    0  0.80058282837E-02 -0.10002569519E+00  0.32168627758E-01  0.10537701228E+00  0.51100000000E-03 0. -1.
         11    1    4    4    0    0 -0.48621810638E-02 -0.24903500121E-01  0.39775241382E-03  0.25381970983E-01  0.51100000000E-03 0.  1.
</event>
<event>
 8    1  0.1072332E+005  0.1043930E+01  0.7957747E-01            NaN
         13   -1    0    0    0    0  0.00000000000E+00  0.00000000000E+00  0.74505805969E-08  0.10566000000E+00  0.10566000000E+00 0.  1.
     999900   -1    0    0    0    0 -0.00000000000E+00 -0.00000000000E+00 -0.74505805969E-08  0.93827000000E+00  0.93827000000E+00 0.  1.
     999902    2    1    2    0    0  0.35891381698E-02  0.17859370205E-01 -0.19452003615E-01  0.10172800570E+01  0.10169309194E+01 0.  0.
     999903    2    3    3    0    0  0.24562202515E-01 -0.31504755342E-01 -0.12176784937E+00  0.12972993526E+00  0.20164214883E-01 0.  0.
         14    1    1    2    0    0 -0.35891381698E-02 -0.17859370205E-01  0.19452003615E-01  0.26649942993E-01  0.00000000000E+00 0.  1.
     999901    1    3    3    0    0 -0.20973064345E-01  0.49364125546E-01  0.10231584575E+00  0.88755012175E+00  0.88000000000E+00 0. -1.
        -11    1    4    4    0    0  0.16685535598E-01 -0.23629451318E-01 -0.56085040906E-01  0.63107455996E-01  0.51100000000E-03 0. -1.
         11    1    4    4    0    0  0.78766669169E-02 -0.78753040239E-02 -0.65682808461E-01  0.66622479265E-01  0.51100000000E-03 0.  1.
</event>
<event>
 8    1  0.1072332E+005  0.1043930E+01  0.7957747E-01            NaN
         13   -1    0    0    0    0  0.00000000000E+00  0.00000000000E+00  0.74505805969E-08  0.10566000000E+00  0.10566000000E+00 0.  1.
     999900   -1    0    0    0    0 -0.00000000000E+00 -0.00000000000E+00 -0.74505805969E-08  0.93827000000E+00  0.93827000000E+00 0.  1.
     999902    2    1    2    0    0  0.16475379320E-01  0.14598677450E-01 -0.93993741343E-02  0.10199945088E+01  0.10197136314E+01 0.  0.
     999903    2    3    3    0    0  0.57981507804E-01 -0.80768912329E-01 -0.82716211818E-01  0.13084148786E+00  0.19800272760E-01 0.  0.
         14    1    1    2    0    0 -0.16475379320E-01 -0.14598677450E-01  0.93993741343E-02  0.23935491245E-01  0.00000000000E+00 0.  1.
     999901    1    3    3    0    0 -0.41506128484E-01  0.95367589779E-01  0.73316837684E-01  0.88915302090E+00  0.88000000000E+00 0. -1.
        -11    1    4    4    0    0  0.35353213241E-01 -0.35033077514E-01 -0.47801558363E-01  0.69010262349E-01  0.51100000000E-03 0. -1.
         11    1    4    4    0    0  0.22628294563E-01 -0.45735834816E-01 -0.34914653455E-01  0.61831225510E-01  0.51100000000E-03 0.  1.
</event>
<event>
 8    1  0.1072332E+005  0.1043930E+01  0.7957747E-01            NaN
         13   -1    0    0    0    0  0.00000000000E+00  0.00000000000E+00  0.74505805969E-08  0.10566000000E+00  0.10566000000E+00 0. -1.
     999900   -1    0    0    0    0 -0.00000000000E+00 -0.00000000000E+00 -0.74505805969E-08  0.93827000000E+00  0.93827000000E+00 0. -1.
     999902    2    1    2    0    0  0.17336579396E-01 -0.13155423062E-01  0.86600753680E-02  0.10205073817E+01  0.10202385491E+01 0.  0.
     999903    2    3    3    0    0 -0.81420848916E-01 -0.67466411299E-01 -0.71651316710E-01  0.12969166971E+00  0.22471019424E-01 0.  0.
         14    1    1    2    0    0 -0.17336579396E-01  0.13155423062E-01 -0.86600753680E-02  0.23422618267E-01  0.00000000000E+00 0. -1.
     999901    1    3    3    0    0  0.98757428313E-01  0.54310988237E-01  0.80311392078E-01  0.89081571202E+00  0.88000000000E+00 0.  1.
        -11    1    4    4    0    0 -0.18414871323E-01 -0.26388933221E-01 -0.14882222189E-01  0.35457367932E-01  0.51100000000E-03 0.  1.
         11    1    4    4    0    0 -0.63005977594E-01 -0.41077478078E-01 -0.56769094521E-01  0.94234301777E-01  0.51100000000E-03 0. -1.
</event>
<event>
 8    1  0.1072332E+005  0.1043930E+01  0.7957747E-01            NaN
         13   -1    0    0    0    0  0.00000000000E+00  0.00000000000E+00  0.74505805969E-08  0.10566000000E+00  0.10566000000E+00 0.  1.
     999900   -1    0    0    0    0 -0.00000000000E+00 -0.00000000000E+00 -0.74505805969E-08  0.93827000000E+00  0.93827000000E+00 0.  1.
     999902    2    1    2    0    0  0.23969207926E-01 -0.55504364898E-02  0.18720899755E-02  0.10192554180E+01  0.10189567077E+01 0.  0.
     999903    2    3    3    0    0 -0.59487379278E-01 -0.48952670790E-01  0.10246457870E+00  0.12854356527E+00  0.94523019917E-02 0.  0.
         14    1    1    2    0    0 -0.23969207926E-01  0.55504364898E-02 -0.18720899755E-02  0.24674581956E-01  0.00000000000E+00 0. -1.
     999901    1    3    3    0    0  0.83456587203E-01  0.43402234300E-01 -0.10059248872E+00  0.89071185278E+00  0.88000000000E+00 0.  1.
        -11    1    4    4    0    0 -0.53409710898E-01 -0.42096389105E-01  0.94273507840E-01  0.11624310128E+00  0.51100000000E-03 0. -1.
         11    1    4    4    0    0 -0.60776683793E-02 -0.68562816850E-02  0.81910708591E-02  0.12300463987E-01  0.51100000000E-03 0.  1.
</event>
<event>
 8    1  0.1072332E+005  0.1043930E+01  0.7957747E-01            NaN
         13   -1    0    0    0    0  0.00000000000E+00  0.00000000000E+00  0.74505805969E-08  0.10566000000E+00  0.10566000000E+00 0.  1.
     999900   -1    0    0    0    0 -0.00000000000E+00 -0.00000000000E+00 -0.74505805969E-08  0.93827000000E+00  0.93827000000E+00 0. -1.
     999902    2    1    2    0    0  0.10084822602E-01  0.21961128828E-01  0.25939017289E-04  0.10197640012E+01  0.10194776224E+01 0.  0.
     999903    2    3    3    0    0 -0.92415238630E-01  0.32424959493E-01 -0.82813720053E-01  0.12988863720E+00  0.20518077745E-01 0.  0.
         14    1    1    2    0    0 -0.10084822602E-01 -0.21961128828E-01 -0.25939017289E-04  0.24165998824E-01  0.00000000000E+00 0.  1.
     999901    1    3    3    0    0  0.10250006123E+00 -0.10463830665E-01  0.82839659070E-01  0.88987536398E+00  0.88000000000E+00 0.  1.
        -11    1    4    4    0    0 -0.26091624158E-01  0.17019752679E-01 -0.33947150024E-01  0.46077271493E-01  0.51100000000E-03 0.  1.
         11    1    4    4    0    0 -0.66323614472E-01  0.15405206814E-01 -0.48866570029E-01  0.83811365703E-01  0.51100000000E-03 0. -1.
</event>
<event>
 8    1  0.1072332E+005  0.1043930E+01  0.7957747E-01            NaN
         13   -1    0    0    0    0  0.00000000000E+00  0.00000000000E+00  0.74505805969E-08  0.10566000000E+00  0.10566000000E+00 0.  1.
     999900   -1    0    0    0    0 -0.00000000000E+00 -0.00000000000E+00 -0.74505805969E-08  0.93827000000E+00  0.93827000000E+00 0. -1.
     999902    2    1    2    0    0 -0.15286722856E-01 -0.26343523346E-02 -0.17630642401E-01  0.10204467451E+01  0.10201765026E+01 0.  0.
     999903    2    3    3    0    0  0.36456670273E-01 -0.11924316699E+00  0.30603947735E-01  0.12994038913E+00  0.19997035479E-01 0.  0.
         14    1    1    2    0    0  0.15286722856E-01  0.26343523346E-02  0.17630642401E-01  0.23483254872E-01  0.00000000000E+00 0.  1.
     999901    1    3    3    0    0 -0.51743393129E-01  0.11660881466E+00 -0.48234590136E-01  0.89050635600E+00  0.88000000000E+00 0. -1.
        -11    1    4    4    0    0  0.32132341440E-01 -0.80549562158E-01  0.27032622698E-01  0.90839105792E-01  0.51100000000E-03 0. -1.
         11    1    4    4    0    0  0.43243288330E-02 -0.38693604836E-01  0.35713250372E-02  0.39101283337E-01  0.51100000000E-03 0.  1.
</event>
<event>
 8    1  0.1072332E+005  0.1043930E+01  0.7957747E-01            NaN
         13   -1    0    0    0    0  0.00000000000E+00  0.00000000000E+00  0.74505805969E-08  0.10566000000E+00  0.10566000000E+00 0. -1.
     999900   -1    0    0    0    0 -0.00000000000E+00 -0.00000000000E+00 -0.74505805969E-08  0.93827000000E+00  0.93827000000E+00 0. -1.
     999902    2    1    2    0    0 -0.56800971074E-02 -0.11386441958E-01 -0.19944001999E-01  0.10202724900E+01  0.10199981745E+01 0.  0.
     999903    2    3    3    0    0  0.11132932599E+00  0.61783952546E-01 -0.13116643375E-01  0.12949096541E+00  0.19605819865E-01 0.  0.
         14    1    1    2    0    0  0.56800971074E-02  0.11386441958E-01  0.19944001999E-01  0.23657509998E-01  0.00000000000E+00 0. -1.
     999901    1    3    3    0    0 -0.11700942310E+00 -0.73170394504E-01 -0.68273586234E-02  0.89078152459E+00  0.88000000000E+00 0. -1.
        -11    1    4    4    0    0  0.38430790772E-01  0.17182480105E-01 -0.12888009230E-01  0.44028686159E-01  0.51100000000E-03 0.  1.
         11    1    4    4    0    0  0.72898535216E-01  0.44601472442E-01 -0.22863414556E-03  0.85462279253E-01  0.51100000000E-03 0. -1.
</event>
<event>
 8    1  0.1072332E+005  0.1043930E+01  0.7957747E-01            NaN
         13   -1    0    0    0    0  0.00000000000E+00  0.00000000000E+00  0.74505805969E-08  0.10566000000E+00  0.10566000000E+00 0.  1.
     999900   -1    0    0    0    0 -0.00000000000E+00 -0.00000000000E+00 -0.74505805969E-08  0.93827000000E+00  0.93827000000E+00 0.  1.
     999902    2    1    2    0    0  0.86546008536E-02  0.41901240627E-02 -0.12267629513E-01  0.10283430186E+01  0.10282248829E+01 0.  0.
     999903    2    3    3    0    0  0.38052086264E-01 -0.10148735174E-01  0.12914549601E+00  0.13645317836E+00  0.19747218803E-01 0.  0.
         14    1    1    2    0    0 -0.86546008536E-02 -0.41901240627E-02  0.12267629513E-01  0.15586981409E-01  0.00000000000E+00 0.  1.
     999901    1    3    3    0    0 -0.29397485410E-01  0.14338859236E-01 -0.14141312552E+00  0.89188984023E+00  0.88000000000E+00 0.  1.
        -11    1    4    4    0    0  0.15163808179E-01 -0.55637263722E-02  0.84906492544E-01  0.86430722123E-01  0.51100000000E-03 0.  1.
         11    1    4    4    0    0  0.22888278084E-01 -0.45850088015E-02  0.44239003468E-01  0.50022456239E-01  0.51100000000E-03 0. -1.
</event>
<event>
 8    1  0.1072332E+005  0.1043930E+01  0.7957747E-01            NaN
         13   -1    0    0    0    0  0.00000000000E+00  0.00000000000E+00  0.74505805969E-08  0.10566000000E+00  0.10566000000E+00 0.  1.
     999900   -1    0    0    0    0 -0.00000000000E+00 -0.00000000000E+00 -0.74505805969E-08  0.93827000000E+00  0.93827000000E+00 0.  1.
     999902    2    1    2    0    0 -0.12669488512E-01 -0.19617615845E-01  0.25063996676E-02  0.10204427943E+01  0.10201724598E+01 0.  0.
     999903    2    3    3    0    0 -0.21289787497E-01  0.94024431397E-02  0.12699615112E+00  0.13116546324E+00  0.23123480686E-01 0.  0.
         14    1    1    2    0    0  0.12669488512E-01  0.19617615845E-01 -0.25063996676E-02  0.23487205664E-01  0.00000000000E+00 0. -1.
     999901    1    3    3    0    0  0.86202989846E-02 -0.29020058985E-01 -0.12448975146E+00  0.88927733109E+00  0.88000000000E+00 0.  1.
        -11    1    4    4    0    0 -0.20333794635E-01 -0.12008960192E-02  0.10160523784E+00  0.10362813726E+00  0.51100000000E-03 0.  1.
         11    1    4    4    0    0 -0.95599286196E-03  0.10603339159E-01  0.25390913285E-01  0.27537325980E-01  0.51100000000E-03 0. -1.
</event>
<event>
 8    1  0.1072332E+005  0.1043930E+01  0.7957747E-01            NaN
         13   -1    0    0    0    0  0.00000000000E+00  0.00000000000E+00  0.74505805969E-08  0.10566000000E+00  0.10566000000E+00 0.  1.
     999900   -1    0    0    0    0 -0.00000000000E+00 -0.00000000000E+00 -0.74505805969E-08  0.93827000000E+00  0.93827000000E+00 0.  1.
     999902    2    1    2    0    0 -0.22443591734E-01  0.93817809637E-02  0.57267157748E-03  0.10195977051E+01  0.10193073234E+01 0.  0.
     999903    2    3    3    0    0  0.16498587297E-01  0.96413871175E-01  0.83974812713E-01  0.13052684446E+00  0.20436487388E-01 0.  0.
         14    1    1    2    0    0  0.22443591734E-01 -0.93817809637E-02 -0.57267157748E-03  0.24332294933E-01  0.00000000000E+00 0.  1.
     999901    1    3    3    0    0 -0.38942179031E-01 -0.87032090211E-01 -0.83402141135E-01  0.88907086061E+00  0.88000000000E+00 0.  1.
        -11    1    4    4    0    0 -0.29891713128E-02  0.33044251390E-01  0.22336531731E-01  0.40000493320E-01  0.51100000000E-03 0.  1.
         11    1    4    4    0    0  0.19487758609E-01  0.63369619785E-01  0.61638280982E-01  0.90526351140E-01  0.51100000000E-03 0. -1.
</event>
<event>
 8    1  0.1072332E+005  0.1043930E+01  0.7957747E-01            NaN
         13   -1    0    0    0    0  0.00000000000E+00  0.00000000000E+00  0.74505805969E-08  0.10566000000E+00  0.10566000000E+00 0.  1.
     999900   -1    0    0    0    0 -0.00000000000E+00 -0.00000000000E+00 -0.74505805969E-08  0.93827000000E+00  0.93827000000E+00 0.  1.
     999902    2    1    2    0    0  0.13999267005E-01 -0.18565284811E-01 -0.12083682170E-02  0.10206467564E+01  0.10203811504E+01 0.  0.
     999903    2    3    3    0    0  0.10224739337E+00 -0.81171220064E-01  0.21216783740E-01  0.13373631994E+00  0.19797851910E-01 0.  0.
         14    1    1    2    0    0 -0.13999267005E-01  0.18565284811E-01  0.12083682170E-02  0.23283243557E-01  0.00000000000E+00 0. -1.
     999901    1    3    3    0    0 -0.88248126370E-01  0.62605935253E-01 -0.22425151957E-01  0.88691043650E+00  0.88000000000E+00 0. -1.
        -11    1    4    4    0    0  0.32319528346E-01 -0.36879689205E-01  0.11686272958E-01  0.50413227282E-01  0.51100000000E-03 0. -1.
         11    1    4    4    0    0  0.69927865029E-01 -0.44291530859E-01  0.95305107826E-02  0.83323092658E-01  0.51100000000E-03 0.  1.
</event>
<event>
 8    1  0.1072332E+005  0.1043930E+01  0.7957747E-01            NaN
         13   -1    0    0    0    0  0.00000000000E+00  0.00000000000E+00  0.74505805969E-08  0.10566000000E+00  0.10566000000E+00 0.  1.
     999900   -1    0    0    0    0 -0.00000000000E+00 -0.00000000000E+00 -0.74505805969E-08  0.93827000000E+00  0.93827000000E+00 0.  1.
     999902    2    1    2    0    0 -0.23710364924E-01  0.20695021312E-02 -0.92624696859E-03  0.10201114741E+01  0.10198333674E+01 0.  0.
     999903    2    3    3    0    0 -0.41796265546E-01 -0.10376775341E+00 -0.66191069860E-01  0.13118621199E+00  0.17716941786E-01 0.  0.
         14    1    1    2    0    0  0.23710364924E-01 -0.20695021312E-02  0.92624696859E-03  0.23818525927E-01  0.00000000000E+00 0.  1.
     999901    1    3    3    0    0  0.18085900622E-01  0.10583725554E+00  0.65264822891E-01  0.88892526208E+00  0.88000000000E+00 0. -1.
        -11    1    4    4    0    0 -0.40764298474E-01 -0.84513798206E-01 -0.57324013789E-01  0.10995732716E+00  0.51100000000E-03 0.  1.
         11    1    4    4    0    0 -0.10319670714E-02 -0.19253955203E-01 -0.88670560708E-02  0.21228884835E-01  0.51100000000E-03 0. -1.
</event>
<event>
 8    1  0.1072332E+005  0.1043930E+01  0.7957747E-01            NaN
         13   -1    0    0    0    0  0.00000000000E+00  0.00000000000E+00  0.74505805969E-08  0.10566000000E+00  0.10566000000E+00 0. -1.
     999900   -1    0    0    0    0 -0.00000000000E+00 -0.00000000000E+00 -0.74505805969E-08  0.93827000000E+00  0.93827000000E+00 0.  1.
     999902    2    1    2    0    0  0.14065917605E-01 -0.10949309191E-01 -0.16795636604E-01  0.10194385562E+01  0.10191443171E+01 0.  0.
     999903    2    3    3    0    0 -0.84733101062E-01  0.64551117506E-01  0.65931244667E-01  0.12685506017E+00  0.19968276863E-01 0.  0.
         14    1    1    2    0    0 -0.14065917605E-01  0.10949309191E-01  0.16795636604E-01  0.24491443787E-01  0.00000000000E+00 0. -1.
     999901    1    3    3    0    0  0.98799018667E-01 -0.75500426697E-01 -0.82726881271E-01  0.89258349604E+00  0.88000000000E+00 0.  1.
        -11    1    4    4    0    0 -0.36140544890E-01  0.28411440141E-01  0.40139838245E-01  0.61031276008E-01  0.51100000000E-03 0. -1.
         11    1    4    4    0    0 -0.48592556172E-01  0.36139677365E-01  0.25791406422E-01  0.65823784164E-01  0.51100000000E-03 0.  1.
</event>
<event>
 8    1  0.1072332E+005  0.1043930E+01  0.7957747E-01            NaN
         13   -1    0    0    0    0  0.00000000000E+00  0.00000000000E+00  0.74505805969E-08  0.10566000000E+00  0.10566000000E+00 0.  1.
     999900   -1    0    0    0    0 -0.00000000000E+00 -0.00000000000E+00 -0.74505805969E-08  0.93827000000E+00  0.93827000000E+00 0. -1.
     999902    2    1    2    0    0  0.15065817642E-01  0.20493912125E-01  0.42734156402E-02  0.10181377264E+01  0.10178109788E+01 0.  0.
     999903    2    3    3    0    0 -0.71762915578E-01 -0.99022265318E-01 -0.17799415580E-01  0.12555128497E+00  0.22158088378E-01 0.  0.
         14    1    1    2    0    0 -0.15065817642E-01 -0.20493912125E-01 -0.42734156402E-02  0.25792273584E-01  0.00000000000E+00 0. -1.
     999901    1    3    3    0    0  0.86828733219E-01  0.11951617744E+00  0.22072831220E-01  0.89258644145E+00  0.88000000000E+00 0.  1.
        -11    1    4    4    0    0 -0.60556612264E-01 -0.83210356705E-01 -0.65171648472E-02  0.10312032443E+00  0.51100000000E-03 0.  1.
         11    1    4    4    0    0 -0.11206303313E-01 -0.15811908612E-01 -0.11282250733E-01  0.22430960535E-01  0.51100000000E-03 0. -1.
</event>
<event>
 8    1  0.1072332E+005  0.1043930E+01  0.7957747E-01            NaN
         13   -1    0    0    0    0  0.00000000000E+00  0.00000000000E+00  0.74505805969E-08  0.10566000000E+00  0.10566000000E+00 0. -1.
     999900   -1    0    0    0    0 -0.00000000000E+00 -0.00000000000E+00 -0.74505805969E-08  0.93827000000E+00  0.93827000000E+00 0.  1.
     999902    2    1    2    0    0 -0.22626802929E-01  0.16309123227E-02 -0.92666769666E-04  0.10212443069E+01  0.10209923083E+01 0.  0.
     999903    2    3    3    0    0 -0.11717252803E+00 -0.53510753596E-01 -0.30830979169E-01  0.13393131738E+00  0.19855639596E-01 0.  0.
         14    1    1    2    0    0  0.22626802929E-01 -0.16309123227E-02  0.92666769666E-04  0.22685693133E-01  0.00000000000E+00 0. -1.
     999901    1    3    3    0    0  0.94545725103E-01  0.55141665919E-01  0.30738312399E-01  0.88731298948E+00  0.88000000000E+00 0. -1.
        -11    1    4    4    0    0 -0.15848039182E-01 -0.11200707251E-02 -0.71523628666E-02  0.17430786555E-01  0.51100000000E-03 0.  1.
         11    1    4    4    0    0 -0.10132448885E+00 -0.52390682871E-01 -0.23678616302E-01  0.11650053083E+00  0.51100000000E-03 0. -1.
</event>
<event>
 8    1  0.1072332E+005  0.1043930E+01  0.7957747E-01            NaN
         13   -1    0    0    0    0  0.00000000000E+00  0.00000000000E+00  0.74505805969E-08  0.10566000000E+00  0.10566000000E+00 0.  1.
     999900   -1    0    0    0    0 -0.00000000000E+00 -0.00000000000E+00 -0.74505805969E-08  0.93827000000E+00  0.93827000000E+00 0.  1.
     999902    2    1    2    0    0 -0.15917427808E-01  0.14989312124E-01  0.80134664500E-02  0.10206435312E+01  0.10203778506E+01 0.  0.
     999903    2    3    3    0    0 -0.27458213934E-01  0.12027876988E+00 -0.44586497927E-01  0.13273260326E+00  0.20225038260E-01 0.  0.
         14    1    1    2    0    0  0.15917427808E-01 -0.14989312124E-01 -0.80134664500E-02  0.23286468829E-01  0.00000000000E+00 0. -1.
     999901    1    3    3    0    0  0.11540786127E-01 -0.10528945776E+00  0.52599964377E-01  0.88791092792E+00  0.88000000000E+00 0. -1.
        -11    1    4    4    0    0  0.28281354532E-03  0.41389384565E-01 -0.14672545610E-01  0.43917033755E-01  0.51100000000E-03 0.  1.
         11    1    4    4    0    0 -0.27741027480E-01  0.78889385318E-01 -0.29913952317E-01  0.88815569500E-01  0.51100000000E-03 0. -1.
</event>
<event>
 8    1  0.1072332E+005  0.1043930E+01  0.7957747E-01            NaN
         13   -1    0    0    0    0  0.00000000000E+00  0.00000000000E+00  0.74505805969E-08  0.10566000000E+00  0.10566000000E+00 0.  1.
     999900   -1    0    0    0    0 -0.00000000000E+00 -0.00000000000E+00 -0.74505805969E-08  0.93827000000E+00  0.93827000000E+00 0.  1.
     999902    2    1    2    0    0 -0.17695195864E-01 -0.14434150377E-01  0.62891061736E-02  0.10202441918E+01  0.10199692120E+01 0.  0.
     999903    2    3    3    0    0 -0.67084815287E-01 -0.11272702477E+00 -0.94842497266E-02  0.13325511496E+00  0.21429421712E-01 0.  0.
         14    1    1    2    0    0  0.17695195864E-01  0.14434150377E-01 -0.62891061736E-02  0.23685808203E-01  0.00000000000E+00 0. -1.
     999901    1    3    3    0    0  0.49389619423E-01  0.98292874396E-01  0.15773355900E-01  0.88698907683E+00  0.88000000000E+00 0. -1.
        -11    1    4    4    0    0 -0.48525434534E-01 -0.87276202062E-01 -0.15862977310E-01  0.10111255319E+00  0.51100000000E-03 0. -1.
         11    1    4    4    0    0 -0.18559380754E-01 -0.25450822711E-01  0.63787275838E-02  0.32142561771E-01  0.51100000000E-03 0.  1.
</event>
<event>
 8    1  0.1072332E+005  0.1043930E+01  0.7957747E-01            NaN
         13   -1    0    0    0    0  0.00000000000E+00  0.00000000000E+00  0.74505805969E-08  0.10566000000E+00  0.10566000000E+00 0.  1.
     999900   -1    0    0    0    0 -0.00000000000E+00 -0.00000000000E+00 -0.74505805969E-08  0.93827000000E+00  0.93827000000E+00 0.  1.
     999902    2    1    2    0    0  0.21832091085E-01  0.84809393058E-02 -0.12032580010E-01  0.10175984692E+01  0.10172577328E+01 0.  0.
     999903    2    3    3    0    0  0.74971584300E-01  0.22411445439E-01  0.10024456950E+00  0.12876551355E+00  0.20213174574E-01 0.  0.
         14    1    1    2    0    0 -0.21832091085E-01 -0.84809393058E-02  0.12032580010E-01  0.26331530802E-01  0.00000000000E+00 0. -1.
     999901    1    3    3    0    0 -0.53139493214E-01 -0.13930506133E-01 -0.11227714951E+00  0.88883295565E+00  0.88000000000E+00 0.  1.
        -11    1    4    4    0    0  0.36752325963E-01  0.18482767030E-01  0.40495216790E-01  0.57727548403E-01  0.51100000000E-03 0. -1.
         11    1    4    4    0    0  0.38219258337E-01  0.39286784092E-02  0.59749352714E-01  0.71037965149E-01  0.51100000000E-03 0.  1.
</event>
<event>
 7    1  0.1072332E+005  0.1043930E+01  0.7957747E-01            NaN
         13   -1    0    0    0    0  0.00000000000E+00  0.00000000000E+00  0.74505805969E-08  0.10566000000E+00  0.10566000000E+00 0. -1.
     999900   -1    0    0    0    0 -0.00000000000E+00 -0.00000000000E+00 -0.74505805969E-08  0.93827000000E+00  0.93827000000E+00 0.  1.
     999903    2    1    2    0    0  0.30798473006E-01  0.51947191430E-01  0.24240210029E-01  0.67886124542E-01  0.19336015260E-01 0.  0.
         14    1    1    2    0    0  0.45763643136E-01  0.46729707477E-01  0.52567470005E-01  0.83912546718E-01  0.00000000000E+00 0. -1.
     999901    1    1    2    0    0 -0.76562116142E-01 -0.98676898908E-01 -0.76807680033E-01  0.89213132874E+00  0.88000000000E+00 0. -1.
        -11    1    3    3    0    0  0.13430732876E-01  0.30287513322E-01  0.36887652362E-02  0.33340458286E-01  0.51100000000E-03 0.  1.
         11    1    3    3    0    0  0.17367740130E-01  0.21659678109E-01  0.20551444793E-01  0.34545666256E-01  0.51100000000E-03 0. -1.
</event>
<event>
 8    1  0.1072332E+005  0.1043930E+01  0.7957747E-01            NaN
         13   -1    0    0    0    0  0.00000000000E+00  0.00000000000E+00  0.74505805969E-08  0.10566000000E+00  0.10566000000E+00 0.  1.
     999900   -1    0    0    0    0 -0.00000000000E+00 -0.00000000000E+00 -0.74505805969E-08  0.93827000000E+00  0.93827000000E+00 0. -1.
     999902    2    1    2    0    0 -0.56177356729E-02  0.10282278496E-01  0.20939265985E-01  0.10199354784E+01  0.10196531975E+01 0.  0.
     999903    2    3    3    0    0  0.44758206860E-01  0.76674223772E-03 -0.11792041075E+00  0.12757328132E+00  0.19126783845E-01 0.  0.
         14    1    1    2    0    0  0.56177356729E-02 -0.10282278496E-01 -0.20939265985E-01  0.23994521565E-01  0.00000000000E+00 0. -1.
     999901    1    3    3    0    0 -0.50375942533E-01  0.95155362581E-02  0.13885967674E+00  0.89236219711E+00  0.88000000000E+00 0.  1.
        -11    1    4    4    0    0  0.14161285741E-01 -0.57965347273E-02 -0.23029211972E-01  0.27654069388E-01  0.51100000000E-03 0. -1.
         11    1    4    4    0    0  0.30596921119E-01  0.65632769650E-02 -0.94891198779E-01  0.99919211932E-01  0.51100000000E-03 0.  1.
</event>
<event>
 8    1  0.1072332E+005  0.1043930E+01  0.7957747E-01            NaN
         13   -1    0    0    0    0  0.00000000000E+00  0.00000000000E+00  0.74505805969E-08  0.10566000000E+00  0.10566000000E+00 0.  1.
     999900   -1    0    0    0    0 -0.00000000000E+00 -0.00000000000E+00 -0.74505805969E-08  0.93827000000E+00  0.93827000000E+00 0.  1.
     999902    2    1    2    0    0  0.85716373880E-02 -0.67707310615E-02 -0.21501309347E-01  0.10198131580E+01  0.10195279570E+01 0.  0.
     999903    2    3    3    0    0  0.97094548716E-01 -0.81613065221E-01  0.26573290687E-01  0.13090998664E+00  0.18526764902E-01 0.  0.
         14    1    1    2    0    0 -0.85716373880E-02  0.67707310615E-02  0.21501309347E-01  0.24116842046E-01  0.00000000000E+00 0.  1.
     999901    1    3    3    0    0 -0.88522911328E-01  0.74842334160E-01 -0.48074600034E-01  0.88890317132E+00  0.88000000000E+00 0. -1.
        -11    1    4    4    0    0  0.22123504239E-01 -0.23543718277E-01  0.14130272401E-01  0.35265873437E-01  0.51100000000E-03 0.  1.
         11    1    4    4    0    0  0.74971044477E-01 -0.58069346944E-01  0.12443018286E-01  0.95644113199E-01  0.51100000000E-03 0. -1.
</event>
<event>
 8    1  0.1072332E+005  0.1043930E+01  0.7957747E-01            NaN
         13   -1    0    0    0    0  0.00000000000E+00  0.00000000000E+00  0.74505805969E-08  0.10566000000E+00  0.10566000000E+00 0.  1.
     999900   -1    0    0    0    0 -0.00000000000E+00 -0.00000000000E+00 -0.74505805969E-08  0.93827000000E+00  0.93827000000E+00 0. -1.
     999902    2    1    2    0    0 -0.79956332400E-02 -0.23043965859E-01 -0.27914309822E-02  0.10193791018E+01  0.10190834150E+01 0.  0.
     999903    2    3    3    0    0  0.10396705983E+00  0.15014861375E-01 -0.71272445184E-01  0.12883220904E+00  0.21985928515E-01 0.  0.
         14    1    1    2    0    0  0.79956332400E-02  0.23043965859E-01  0.27914309822E-02  0.24550898157E-01  0.00000000000E+00 0. -1.
     999901    1    3    3    0    0 -0.11196269307E+00 -0.38058827234E-01  0.68481014202E-01  0.89054689280E+00  0.88000000000E+00 0. -1.
        -11    1    4    4    0    0  0.28364041451E-01 -0.56627919760E-02 -0.20076774480E-01  0.35212555359E-01  0.51100000000E-03 0.  1.
         11    1    4    4    0    0  0.75603018378E-01  0.20677653351E-01 -0.51195670704E-01  0.93619653683E-01  0.51100000000E-03 0. -1.
</event>
<event>
 8    1  0.1072332E+005  0.1043930E+01  0.7957747E-01            NaN
         13   -1    0    0    0    0  0.00000000000E+00  0.00000000000E+00  0.74505805969E-08  0.10566000000E+00  0.10566000000E+00 0.  1.
     999900   -1    0    0    0    0 -0.00000000000E+00 -0.00000000000E+00 -0.74505805969E-08  0.93827000000E+00  0.93827000000E+00 0. -1.
     999902    2    1    2    0    0  0.23174558902E-01  0.24210311390E-02  0.19740035897E-02  0.10205458545E+01  0.10202779145E+01 0.  0.
     999903    2    3    3    0    0 -0.66979634532E-01 -0.85476545301E-01 -0.66745280788E-01  0.12893153057E+00  0.19388033131E-01 0.  0.
         14    1    1    2    0    0 -0.23174558902E-01 -0.24210311390E-02 -0.19740035897E-02  0.23384145532E-01  0.00000000000E+00 0.  1.
     999901    1    3    3    0    0  0.90154193434E-01  0.87897576440E-01  0.68719284377E-01  0.89161432390E+00  0.88000000000E+00 0.  1.
        -11    1    4    4    0    0 -0.12308514481E-01 -0.24888005188E-01 -0.24515112874E-01  0.37042734932E-01  0.51100000000E-03 0. -1.
         11    1    4    4    0    0 -0.54671120051E-01 -0.60588540113E-01 -0.42230167914E-01  0.91888795637E-01  0.51100000000E-03 0.  1.
</event>
<event>
 8    1  0.1072332E+005  0.1043930E+01  0.7957747E-01            NaN
         13   -1    0    0    0    0  0.00000000000E+00  0.00000000000E+00  0.74505805969E-08  0.10566000000E+00  0.10566000000E+00 0. -1.
     999900   -1    0    0    0    0 -0.00000000000E+00 -0.00000000000E+00 -0.74505805969E-08  0.93827000000E+00  0.93827000000E+00 0. -1.
     999902    2    1    2    0    0 -0.24885459371E-02 -0.22057046034E-01 -0.69095838667E-02  0.10206824520E+01  0.10204176690E+01 0.  0.
     999903    2    3    3    0    0 -0.97439637104E-01  0.48058093446E-01  0.67808768565E-01  0.12966355503E+00  0.20261914618E-01 0.  0.
         14    1    1    2    0    0  0.24885459371E-02  0.22057046034E-01  0.69095838667E-02  0.23247548039E-01  0.00000000000E+00 0.  1.
     999901    1    3    3    0    0  0.94951091167E-01 -0.70115139480E-01 -0.74718352431E-01  0.89101889693E+00  0.88000000000E+00 0. -1.
        -11    1    4    4    0    0 -0.45874089844E-01  0.20713188536E-01  0.43147316577E-01  0.66297966387E-01  0.51100000000E-03 0. -1.
         11    1    4    4    0    0 -0.51565547261E-01  0.27344904911E-01  0.24661451988E-01  0.63365588643E-01  0.51100000000E-03 0.  1.
</event>
<event>
 8    1  0.1072332E+005  0.1043930E+01  0.7957747E-01            NaN
         13   -1    0    0    0    0  0.00000000000E+00  0.00000000000E+00  0.74505805969E-08  0.10566000000E+00  0.10566000000E+00 0. -1.
     999900   -1    0    0    0    0 -0.00000000000E+00 -0.00000000000E+00 -0.74505805969E-08  0.93827000000E+00  0.93827000000E+00 0.  1.
     999902    2    1    2    0    0 -0.22959993250E-01  0.25064207246E-02 -0.13437805641E-01  0.10172088837E+01  0.10168578539E+01 0.  0.
     999903    2    3    3    0    0 -0.50233799371E-01  0.11388709417E+00  0.26367361636E-01  0.12887675762E+00  0.20500636024E-01 0.  0.
         14    1    1    2    0    0  0.22959993250E-01 -0.25064207246E-02  0.13437805641E-01  0.26721116282E-01  0.00000000000E+00 0.  1.
     999901    1    3    3    0    0  0.27273806121E-01 -0.11138067344E+00 -0.39805167277E-01  0.88833212610E+00  0.88000000000E+00 0. -1.
        -11    1    4    4    0    0 -0.32445081215E-01  0.94093422361E-01  0.20531867242E-01  0.10162713279E+00  0.51100000000E-03 0. -1.
         11    1    4    4    0    0 -0.17788718156E-01  0.19793671809E-01  0.58354943933E-02  0.27249624825E-01  0.51100000000E-03 0.  1.
</event>
<event>
 8    1  0.1072332E+005  0.1043930E+01  0.7957747E-01            NaN
         13   -1    0    0    0    0  0.00000000000E+00  0.00000000000E+00  0.74505805969E-08  0.10566000000E+00  0.10566000000E+00 0.  1.
     999900   -1    0    0    0    0 -0.00000000000E+00 -0.00000000000E+00 -0.74505805969E-08  0.93827000000E+00  0.93827000000E+00 0.  1.
     999902    2    1    2    0    0 -0.99762065608E-02  0.21287566125E-01 -0.29645722295E-02  0.10202345604E+01  0.10199593543E+01 0.  0.
     999903    2    3    3    0    0 -0.41144075248E-01  0.28364161904E-01 -0.12123991563E+00  0.13174676021E+00  0.12677976049E-01 0.  0.
         14    1    1    2    0    0  0.99762065608E-02 -0.21287566125E-01  0.29645722295E-02  0.23695439590E-01  0.00000000000E+00 0. -1.
     999901    1    3    3    0    0  0.31167868688E-01 -0.70765957793E-02  0.11827534340E+00  0.88848780020E+00  0.88000000000E+00 0. -1.
        -11    1    4    4    0    0 -0.25628881809E-01  0.10057993886E-01 -0.63035703391E-01  0.68787817575E-01  0.51100000000E-03 0. -1.
         11    1    4    4    0    0 -0.15515193439E-01  0.18306168019E-01 -0.58204212235E-01  0.62958942636E-01  0.51100000000E-03 0.  1.
</event>
<event>
 8    1  0.1072332E+005  0.1043930E+01  0.7957747E-01            NaN
         13   -1    0    0    0    0  0.00000000000E+00  0.00000000000E+00  0.74505805969E-08  0.10566000000E+00  0.10566000000E+00 0. -1.
     999900   -1    0    0    0    0 -0.00000000000E+00 -0.00000000000E+00 -0.74505805969E-08  0.93827000000E+00  0.93827000000E+00 0.  1.
     999902    2    1    2    0    0 -0.17396543352E-01  0.10457145636E-01  0.11724275184E-01  0.10204896450E+01  0.10202204003E+01 0.  0.
     999903    2    3    3    0    0  0.12690147728E+00  0.41714205527E-02  0.66335348860E-02  0.12870079959E+00  0.19962623685E-01 0.  0.
         14    1    1    2    0    0  0.17396543352E-01 -0.10457145636E-01 -0.11724275184E-01  0.23440355032E-01  0.00000000000E+00 0.  1.
     999901    1    3    3    0    0 -0.14429802064E+00  0.62857250830E-02  0.50907402983E-02  0.89178884538E+00  0.88000000000E+00 0.  1.
        -11    1    4    4    0    0  0.40178087767E-01 -0.66464791735E-02 -0.26422250650E-02  0.40812950106E-01  0.51100000000E-03 0. -1.
         11    1    4    4    0    0  0.86723389516E-01  0.10817899726E-01  0.92757599510E-02  0.87887849487E-01  0.51100000000E-03 0.  1.
</event>
<event>
 8    1  0.1072332E+005  0.1043930E+01  0.7957747E-01            NaN
         13   -1    0    0    0    0  0.00000000000E+00  0.00000000000E+00  0.74505805969E-08  0.10566000000E+00  0.10566000000E+00 0.  1.
     999900   -1    0    0    0    0 -0.00000000000E+00 -0.00000000000E+00 -0.74505805969E-08  0.93827000000E+00  0.93827000000E+00 0. -1.
     999902    2    1    2    0    0  0.12116111617E-01  0.10069176934E-01 -0.17744260339E-01  0.10202013831E+01  0.10199253967E+01 0.  0.
     999903    2    3    3    0    0  0.16233010906E-01  0.11124469281E+00 -0.67850676124E-01  0.13297870149E+00  0.20993534148E-01 0.  0.
         14    1    1    2    0    0 -0.12116111617E-01 -0.10069176934E-01  0.17744260339E-01  0.23728616896E-01  0.00000000000E+00 0.  1.
     999901    1    3    3    0    0 -0.41168992893E-02 -0.10117551588E+00  0.50106415785E-01  0.88722268162E+00  0.88000000000E+00 0.  1.
        -11    1    4    4    0    0  0.32920397806E-02  0.74880010747E-01 -0.52122078192E-01  0.91295266533E-01  0.51100000000E-03 0.  1.
         11    1    4    4    0    0  0.12940971126E-01  0.36364682068E-01 -0.15728597932E-01  0.41683434953E-01  0.51100000000E-03 0. -1.
</event>
<event>
 8    1  0.1072332E+005  0.1043930E+01  0.7957747E-01            NaN
         13   -1    0    0    0    0  0.00000000000E+00  0.00000000000E+00  0.74505805969E-08  0.10566000000E+00  0.10566000000E+00 0. -1.
     999900   -1    0    0    0    0 -0.00000000000E+00 -0.00000000000E+00 -0.74505805969E-08  0.93827000000E+00  0.93827000000E+00 0.  1.
     999902    2    1    2    0    0  0.20791496554E-01 -0.97243523302E-02 -0.53788887631E-02  0.10203549750E+01  0.10200825914E+01 0.  0.
     999903    2    3    3    0    0  0.13136597489E+00 -0.11208097577E-01  0.15289162998E-02  0.13340704279E+00  0.20309127787E-01 0.  0.
         14    1    1    2    0    0 -0.20791496554E-01  0.97243523302E-02  0.53788887631E-02  0.23575024953E-01  0.00000000000E+00 0. -1.
     999901    1    3    3    0    0 -0.11057447834E+00  0.14837452471E-02 -0.69078050629E-02  0.88694793225E+00  0.88000000000E+00 0.  1.
        -11    1    4    4    0    0  0.50156800720E-01  0.50001261892E-02 -0.27611395432E-02  0.50483570921E-01  0.51100000000E-03 0. -1.
         11    1    4    4    0    0  0.81209174170E-01 -0.16208223767E-01  0.42900558430E-02  0.82923471871E-01  0.51100000000E-03 0.  1.
</event>
<event>
 8    1  0.1072332E+005  0.1043930E+01  0.7957747E-01            NaN
         13   -1    0    0    0    0  0.00000000000E+00  0.00000000000E+00  0.74505805969E-08  0.10566000000E+00  0.10566000000E+00 0.  1.
     999900   -1    0    0    0    0 -0.00000000000E+00 -0.00000000000E+00 -0.74505805969E-08  0.93827000000E+00  0.93827000000E+00 0.  1.
     999902    2    1    2    0    0  0.19946148646E-01 -0.84486957994E-02 -0.14111006698E-03  0.10222678390E+01  0.10220382994E+01 0.  0.
     999903    2    3    3    0    0 -0.10877280263E+00  0.46770426149E-01 -0.49787800489E-01  0.12980914881E+00  0.18777504734E-01 0.  0.
         14    1    1    2    0    0 -0.19946148646E-01  0.84486957994E-02  0.14111006698E-03  0.21662160986E-01  0.00000000000E+00 0.  1.
     999901    1    3    3    0    0  0.12871895128E+00 -0.55219121949E-01  0.49646690422E-01  0.89245869020E+00  0.88000000000E+00 0. -1.
        -11    1    4    4    0    0 -0.95718141637E-01  0.33970087527E-01 -0.41276269427E-01  0.10963540041E+00  0.51100000000E-03 0.  1.
         11    1    4    4    0    0 -0.13054660993E-01  0.12800338622E-01 -0.85115310620E-02  0.20173748400E-01  0.51100000000E-03 0. -1.
</event>
<event>
 8    1  0.1072332E+005  0.1043930E+01  0.7957747E-01            NaN
         13   -1    0    0    0    0  0.00000000000E+00  0.00000000000E+00  0.74505805969E-08  0.10566000000E+00  0.10566000000E+00 0.  1.
     999900   -1    0    0    0    0 -0.00000000000E+00 -0.00000000000E+00 -0.74505805969E-08  0.93827000000E+00  0.93827000000E+00 0. -1.
     999902    2    1    2    0    0  0.59259524678E-02 -0.34872803049E-02 -0.19015477963E-01  0.10237095539E+01  0.10235098360E+01 0.  0.
     999903    2    3    3    0    0  0.17992850074E-01  0.31599811241E-01  0.12460250707E+00  0.13129550226E+00  0.19759388237E-01 0.  0.
         14    1    1    2    0    0 -0.59259524678E-02  0.34872803049E-02  0.19015477963E-01  0.20220446057E-01  0.00000000000E+00 0.  1.
     999901    1    3    3    0    0 -0.12066897606E-01 -0.35087091546E-01 -0.14361798503E+00  0.89241405168E+00  0.88000000000E+00 0. -1.
        -11    1    4    4    0    0  0.96808199796E-02  0.12395353997E-01  0.25175031344E-01  0.29688489358E-01  0.51100000000E-03 0.  1.
         11    1    4    4    0    0  0.83120300946E-02  0.19204457244E-01  0.99427475722E-01  0.10160701291E+00  0.51100000000E-03 0. -1.
</event>
<event>
 8    1  0.1072332E+005  0.1043930E+01  0.7957747E-01            NaN
         13   -1    0    0    0    0  0.00000000000E+00  0.00000000000E+00  0.74505805969E-08  0.10566000000E+00  0.10566000000E+00 0. -1.
     999900   -1    0    0    0    0 -0.00000000000E+00 -0.00000000000E+00 -0.74505805969E-08  0.93827000000E+00  0.93827000000E+00 0.  1.
     999902    2    1    2    0    0  0.18295814241E-02 -0.99626493852E-02  0.21658271138E-01  0.10200201180E+01  0.10197398485E+01 0.  0.
     999903    2    3    3    0    0  0.85249777765E-01  0.67481629125E-01  0.69278151719E-01  0.13141210625E+00  0.25463395003E-01 0.  0.
         14    1    1    2    0    0 -0.18295814241E-02  0.99626493852E-02 -0.21658271138E-01  0.23909882050E-01  0.00000000000E+00 0. -1.
     999901    1    3    3    0    0 -0.83420196341E-01 -0.77444278511E-01 -0.47619880581E-01  0.88860801170E+00  0.88000000000E+00 0.  1.
        -11    1    4    4    0    0  0.41247078642E-01  0.38657614663E-01  0.49726528953E-01  0.75290912271E-01  0.51100000000E-03 0. -1.
         11    1    4    4    0    0  0.44002699123E-01  0.28824014462E-01  0.19551622766E-01  0.56121193979E-01  0.51100000000E-03 0.  1.
</event>
<event>
 8    1  0.1072332E+005  0.1043930E+01  0.7957747E-01            NaN
         13   -1    0    0    0    0  0.00000000000E+00  0.00000000000E+00  0.74505805969E-08  0.10566000000E+00  0.10566000000E+00 0.  1.
     999900   -1    0    0    0    0 -0.00000000000E+00 -0.00000000000E+00 -0.74505805969E-08  0.93827000000E+00  0.93827000000E+00 0.  1.
     999902    2    1    2    0    0 -0.17141007754E-01 -0.16456591639E-01 -0.14255777944E-02  0.10201252562E+01  0.10198474751E+01 0.  0.
     999903    2    3    3    0    0 -0.75479546920E-01  0.58541984071E-02  0.10560782761E+00  0.13144235079E+00  0.19815263988E-01 0.  0.
         14    1    1    2    0    0  0.17141007754E-01  0.16456591639E-01  0.14255777944E-02  0.23804743797E-01  0.00000000000E+00 0.  1.
     999901    1    3    3    0    0  0.58338539166E-01 -0.22310790047E-01 -0.10703340540E+00  0.88868290541E+00  0.88000000000E+00 0.  1.
        -11    1    4    4    0    0 -0.63842900436E-01  0.61337170343E-02  0.74962366173E-01  0.98656757924E-01  0.51100000000E-03 0.  1.
         11    1    4    4    0    0 -0.11636646483E-01 -0.27951862717E-03  0.30645461433E-01  0.32785592865E-01  0.51100000000E-03 0. -1.
</event>
<event>
 8    1  0.1072332E+005  0.1043930E+01  0.7957747E-01            NaN
         13   -1    0    0    0    0  0.00000000000E+00  0.00000000000E+00  0.74505805969E-08  0.10566000000E+00  0.10566000000E+00 0.  1.
     999900   -1    0    0    0    0 -0.00000000000E+00 -0.00000000000E+00 -0.74505805969E-08  0.93827000000E+00  0.93827000000E+00 0.  1.
     999902    2    1    2    0    0  0.45028590339E-02 -0.23322252443E-01  0.44329818551E-02  0.10197669181E+01  0.10194806093E+01 0.  0.
     999903    2    3    3    0    0 -0.76045159398E-01  0.87304264998E-02 -0.10221541854E+00  0.12909905700E+00  0.18960171829E-01 0.  0.
         14    1    1    2    0    0 -0.45028590339E-02  0.23322252443E-01 -0.44329818551E-02  0.24163081894E-01  0.00000000000E+00 0. -1.
     999901    1    3    3    0    0  0.80548018432E-01 -0.32052678942E-01  0.10664840040E+00  0.89066786111E+00  0.88000000000E+00 0. -1.
        -11    1    4    4    0    0 -0.49154968959E-01  0.14528653672E-01 -0.63618889344E-01  0.81700164952E-01  0.51100000000E-03 0. -1.
         11    1    4    4    0    0 -0.26890190440E-01 -0.57982271726E-02 -0.38596529198E-01  0.47398892048E-01  0.51100000000E-03 0.  1.
</event>
<event>
 8    1  0.1072332E+005  0.1043930E+01  0.7957747E-01            NaN
         13   -1    0    0    0    0  0.00000000000E+00  0.00000000000E+00  0.74505805969E-08  0.10566000000E+00  0.10566000000E+00 0.  1.
     999900   -1    0    0    0    0 -0.00000000000E+00 -0.00000000000E+00 -0.74505805969E-08  0.93827000000E+00  0.93827000000E+00 0.  1.
     999902    2    1    2    0    0  0.82578328690E-02 -0.13226477889E-01  0.17438799927E-01  0.10205367688E+01  0.10202686182E+01 0.  0.
     999903    2    3    3    0    0  0.10137027539E+00 -0.63841159911E-01  0.54880243207E-01  0.13338760739E+00  0.20707155313E-01 0.  0.
         14    1    1    2    0    0 -0.82578328690E-02  0.13226477889E-01 -0.17438799927E-01  0.23393231156E-01  0.00000000000E+00 0. -1.
     999901    1    3    3    0    0 -0.93112442516E-01  0.50614682022E-01 -0.37441443280E-01  0.88714916145E+00  0.88000000000E+00 0. -1.
        -11    1    4    4    0    0  0.37899912474E-01 -0.28829230787E-01  0.31999033473E-01  0.57373575603E-01  0.51100000000E-03 0.  1.
         11    1    4    4    0    0  0.63470362911E-01 -0.35011929125E-01  0.22881209734E-01  0.76014031790E-01  0.51100000000E-03 0. -1.
</event>
<event>
 8    1  0.1072332E+005  0.1043930E+01  0.7957747E-01            NaN
         13   -1    0    0    0    0  0.00000000000E+00  0.00000000000E+00  0.74505805969E-08  0.10566000000E+00  0.10566000000E+00 0. -1.
     999900   -1    0    0    0    0 -0.00000000000E+00 -0.00000000000E+00 -0.74505805969E-08  0.93827000000E+00  0.93827000000E+00 0. -1.
     999902    2    1    2    0    0 -0.59827897350E-02  0.14343081493E-01 -0.17671710241E-01  0.10203968935E+01  0.10201254889E+01 0.  0.
     999903    2    3    3    0    0  0.41139182470E-01  0.12651271996E-01  0.11981410230E+00  0.12847442424E+00  0.17256058557E-01 0.  0.
         14    1    1    2    0    0  0.59827897350E-02 -0.14343081493E-01  0.17671710241E-01  0.23533106522E-01  0.00000000000E+00 0. -1.
     999901    1    3    3    0    0 -0.47121972205E-01  0.16918094967E-02 -0.13748581254E+00  0.89192246924E+00  0.88000000000E+00 0. -1.
        -11    1    4    4    0    0  0.18968783996E-01  0.14795619092E-01  0.64479237058E-01  0.68822657920E-01  0.51100000000E-03 0.  1.
         11    1    4    4    0    0  0.22170398474E-01 -0.21443470962E-02  0.55334865239E-01  0.59651766319E-01  0.51100000000E-03 0. -1.
</event>
<event>
 8    1  0.1072332E+005  0.1043930E+01  0.7957747E-01            NaN
         13   -1    0    0    0    0  0.00000000000E+00  0.00000000000E+00  0.74505805969E-08  0.10566000000E+00  0.10566000000E+00 0. -1.
     999900   -1    0    0    0    0 -0.00000000000E+00 -0.00000000000E+00 -0.74505805969E-08  0.93827000000E+00  0.93827000000E+00 0.  1.
     999902    2    1    2    0    0 -0.18069805941E-01 -0.73677572995E-02  0.14497886314E-01  0.10196197050E+01  0.10193298546E+01 0.  0.
     999903    2    3    3    0    0  0.89587638627E-01  0.30926891932E-01 -0.82257956542E-01  0.12697291112E+00  0.19321778004E-01 0.  0.
         14    1    1    2    0    0  0.18069805941E-01  0.73677572995E-02 -0.14497886314E-01  0.24310294979E-01  0.00000000000E+00 0.  1.
     999901    1    3    3    0    0 -0.10765744457E+00 -0.38294649231E-01  0.96755842856E-01  0.89264679390E+00  0.88000000000E+00 0. -1.
        -11    1    4    4    0    0  0.32318528637E-01  0.15480313555E-01 -0.20259516346E-01  0.41168392301E-01  0.51100000000E-03 0.  1.
         11    1    4    4    0    0  0.57269109990E-01  0.15446578376E-01 -0.61998440196E-01  0.85804518822E-01  0.51100000000E-03 0. -1.
</event>
<event>
 8    1  0.1072332E+005  0.1043930E+01  0.7957747E-01            NaN
         13   -1    0    0    0    0  0.00000000000E+00  0.00000000000E+00  0.74505805969E-08  0.10566000000E+00  0.10566000000E+00 0.  1.
     999900   -1    0    0    0    0 -0.00000000000E+00 -0.00000000000E+00 -0.74505805969E-08  0.93827000000E+00  0.93827000000E+00 0.  1.
     999902    2    1    2    0    0 -0.14851619756E-02  0.19958246773E-01 -0.16810792775E-01  0.10177930516E+01  0.10174573975E+01 0.  0.
     999903    2    3    3    0    0 -0.74748830613E-01 -0.75452035909E-01  0.64564165314E-01  0.12588914923E+00  0.19978714906E-01 0.  0.
         14    1    1    2    0    0  0.14851619756E-02 -0.19958246773E-01  0.16810792775E-01  0.26136948446E-01  0.00000000000E+00 0.  1.
     999901    1    3    3    0    0  0.73263668638E-01  0.95410282682E-01 -0.81374958090E-01  0.89190390233E+00  0.88000000000E+00 0.  1.
        -11    1    4    4    0    0 -0.77691937373E-02 -0.13139474081E-02  0.25689801214E-02  0.83034696954E-02  0.51100000000E-03 0.  1.
         11    1    4    4    0    0 -0.66979636876E-01 -0.74138088501E-01  0.61995185193E-01  0.11758567953E+00  0.51100000000E-03 0. -1.
</event>
<event>
 8    1  0.1072332E+005  0.1043930E+01  0.7957747E-01            NaN
         13   -1    0    0    0    0  0.00000000000E+00  0.00000000000E+00  0.74505805969E-08  0.10566000000E+00  0.10566000000E+00 0. -1.
     999900   -1    0    0    0    0 -0.00000000000E+00 -0.00000000000E+00 -0.74505805969E-08  0.93827000000E+00  0.93827000000E+00 0.  1.
     999902    2    1    2    0    0  0.93489772259E-03  0.96404001980E-03 -0.22363931341E-01  0.10215257854E+01  0.10212800700E+01 0.  0.
     999903    2    3    3    0    0  0.11621113517E-02  0.85924455451E-01 -0.10061324491E+00  0.13397788309E+00  0.21040094066E-01 0.  0.
         14    1    1    2    0    0 -0.93489772259E-03 -0.96404001980E-03  0.22363931341E-01  0.22404214603E-01  0.00000000000E+00 0. -1.
     999901    1    3    3    0    0 -0.22721362910E-03 -0.84960415431E-01  0.78249313570E-01  0.88754790231E+00  0.88000000000E+00 0. -1.
        -11    1    4    4    0    0  0.58162779129E-02  0.30157765413E-01 -0.23392490665E-01  0.38610745188E-01  0.51100000000E-03 0.  1.
         11    1    4    4    0    0 -0.46541665613E-02  0.55766690037E-01 -0.77220754247E-01  0.95367137902E-01  0.51100000000E-03 0. -1.
</event>
<event>
 8    1  0.1072332E+005  0.1043930E+01  0.7957747E-01            NaN
         13   -1    0    0    0    0  0.00000000000E+00  0.00000000000E+00  0.74505805969E-08  0.10566000000E+00  0.10566000000E+00 0.  1.
     999900   -1    0    0    0    0 -0.00000000000E+00 -0.00000000000E+00 -0.74505805969E-08  0.93827000000E+00  0.93827000000E+00 0. -1.
     999902    2    1    2    0    0  0.22996332089E-01  0.35016418994E-02 -0.52509085913E-02  0.10200833058E+01  0.10198045332E+01 0.  0.
     999903    2    3    3    0    0 -0.32791935602E-01  0.11718690797E+00 -0.43140153763E-01  0.13021125572E+00  0.16906087891E-01 0.  0.
         14    1    1    2    0    0 -0.22996332089E-01 -0.35016418994E-02  0.52509085913E-02  0.23846694249E-01  0.00000000000E+00 0.  1.
     999901    1    3    3    0    0  0.55788267692E-01 -0.11368526607E+00  0.37889245172E-01  0.88987205004E+00  0.88000000000E+00 0. -1.
        -11    1    4    4    0    0 -0.97902668766E-02  0.14225038805E-01 -0.77258998731E-02  0.18924896416E-01  0.51100000000E-03 0. -1.
         11    1    4    4    0    0 -0.23001668726E-01  0.10296186917E+00 -0.35414253890E-01  0.11128635930E+00  0.51100000000E-03 0.  1.
</event>
<event>
 8    1  0.1072332E+005  0.1043930E+01  0.7957747E-01            NaN
         13   -1    0    0    0    0  0.00000000000E+00  0.00000000000E+00  0.74505805969E-08  0.10566000000E+00  0.10566000000E+00 0.  1.
     999900   -1    0    0    0    0 -0.00000000000E+00 -0.00000000000E+00 -0.74505805969E-08  0.93827000000E+00  0.93827000000E+00 0. -1.
     999902    2    1    2    0    0  0.13512613616E-01 -0.19288972165E-01 -0.44429314550E-02  0.10199634647E+01  0.10196818497E+01 0.  0.
     999903    2    3    3    0    0  0.77376555534E-01  0.77302145434E-01 -0.67674483790E-01  0.13012826857E+00  0.19768092734E-01 0.  0.
         14    1    1    2    0    0 -0.13512613616E-01  0.19288972165E-01  0.44429314550E-02  0.23966535290E-01  0.00000000000E+00 0.  1.
     999901    1    3    3    0    0 -0.63863941918E-01 -0.96591117598E-01  0.63231552334E-01  0.88983519614E+00  0.88000000000E+00 0.  1.
        -11    1    4    4    0    0  0.55587372661E-01  0.59072627593E-01 -0.59383400936E-01  0.10052950193E+00  0.51100000000E-03 0. -1.
         11    1    4    4    0    0  0.21789182873E-01  0.18229517841E-01 -0.82910828537E-02  0.29598766644E-01  0.51100000000E-03 0.  1.
</event>
<event>
 8    1  0.1072332E+005  0.1043930E+01  0.7957747E-01            NaN
         13   -1    0    0    0    0  0.00000000000E+00  0.00000000000E+00  0.74505805969E-08  0.10566000000E+00  0.10566000000E+00 0. -1.
     999900   -1    0    0    0    0 -0.00000000000E+00 -0.00000000000E+00 -0.74505805969E-08  0.93827000000E+00  0.93827000000E+00 0. -1.
     999902    2    1    2    0    0 -0.10710434523E-01 -0.20686431379E-01  0.55113633104E-02  0.10199922270E+01  0.10197112955E+01 0.  0.
     999903    2    3    3    0    0  0.22081749873E-04  0.12616915516E+00  0.14505965652E-02  0.12774885211E+00  0.19975204244E-01 0.  0.
         14    1    1    2    0    0  0.10710434523E-01  0.20686431379E-01 -0.55113633104E-02  0.23937773004E-01  0.00000000000E+00 0.  1.
     999901    1    3    3    0    0 -0.10732516273E-01 -0.14685558653E+00  0.40607667453E-02  0.89224337489E+00  0.88000000000E+00 0. -1.
        -11    1    4    4    0    0  0.11407778307E-02  0.10159115837E+00 -0.67155667570E-02  0.10182055191E+00  0.51100000000E-03 0.  1.
         11    1    4    4    0    0 -0.11186960809E-02  0.24577996785E-01  0.81661633222E-02  0.25928300200E-01  0.51100000000E-03 0. -1.
</event>
<event>
 8    1  0.1072332E+005  0.1043930E+01  0.7957747E-01            NaN
         13   -1    0    0    0    0  0.00000000000E+00  0.00000000000E+00  0.74505805969E-08  0.10566000000E+00  0.10566000000E+00 0. -1.
     999900   -1    0    0    0    0 -0.00000000000E+00 -0.00000000000E+00 -0.74505805969E-08  0.93827000000E+00  0.93827000000E+00 0.  1.
     999902    2    1    2    0    0 -0.11760565613E-01 -0.16944256772E-01  0.79702717449E-02  0.10218179225E+01  0.10215786424E+01 0.  0.
     999903    2    3    3    0    0 -0.93471185530E-01 -0.79739378633E-02 -0.91372114875E-01  0.13242149690E+00  0.19650528136E-01 0.  0.
         14    1    1    2    0    0  0.11760565613E-01  0.16944256772E-01 -0.79702717449E-02  0.22112077532E-01  0.00000000000E+00 0.  1.
     999901    1    3    3    0    0  0.81710619918E-01 -0.89703189084E-02  0.99342386619E-01  0.88939642557E+00  0.88000000000E+00 0. -1.
        -11    1    4    4    0    0 -0.39840251338E-01  0.40604755825E-02 -0.30049352430E-01  0.50069529567E-01  0.51100000000E-03 0.  1.
         11    1    4    4    0    0 -0.53630934193E-01 -0.12034413446E-01 -0.61322762445E-01  0.82351967336E-01  0.51100000000E-03 0. -1.
</event>
<event>
 8    1  0.1072332E+005  0.1043930E+01  0.7957747E-01            NaN
         13   -1    0    0    0    0  0.00000000000E+00  0.00000000000E+00  0.74505805969E-08  0.10566000000E+00  0.10566000000E+00 0. -1.
     999900   -1    0    0    0    0 -0.00000000000E+00 -0.00000000000E+00 -0.74505805969E-08  0.93827000000E+00  0.93827000000E+00 0. -1.
     999902    2    1    2    0    0 -0.78010727608E-02  0.91318498205E-02  0.19160295448E-01  0.10213166336E+01  0.10210662573E+01 0.  0.
     999903    2    3    3    0    0 -0.12771575045E+00 -0.27224863123E-01  0.91320422575E-02  0.13238361794E+00  0.19736312186E-01 0.  0.
         14    1    1    2    0    0  0.78010727608E-02 -0.91318498205E-02 -0.19160295448E-01  0.22613366380E-01  0.00000000000E+00 0.  1.
     999901    1    3    3    0    0  0.11991467769E+00  0.36356712943E-01  0.10028253191E-01  0.88893301568E+00  0.88000000000E+00 0.  1.
        -11    1    4    4    0    0 -0.61825197422E-01 -0.21096258589E-01  0.10647134818E-01  0.66189347811E-01  0.51100000000E-03 0.  1.
         11    1    4    4    0    0 -0.65890553027E-01 -0.61286045338E-02 -0.15150925609E-02  0.66194270131E-01  0.51100000000E-03 0. -1.
</event>
<event>
 8    1  0.1072332E+005  0.1043930E+01  0.7957747E-01            NaN
         13   -1    0    0    0    0  0.00000000000E+00  0.00000000000E+00  0.74505805969E-08  0.10566000000E+00  0.10566000000E+00 0.  1.
     999900   -1    0    0    0    0 -0.00000000000E+00 -0.00000000000E+00 -0.74505805969E-08  0.93827000000E+00  0.93827000000E+00 0. -1.
     999902    2    1    2    0    0  0.70314915610E-02 -0.20634586104E-01 -0.72971369489E-02  0.10209413892E+01  0.10206825383E+01 0.  0.
     999903    2    3    3    0    0 -0.87510469608E-01 -0.47375134769E-01  0.82447007725E-01  0.13093731572E+00  0.21085205251E-01 0.  0.
         14    1    1    2    0    0 -0.70314915610E-02  0.20634586104E-01  0.72971369489E-02  0.22988610765E-01  0.00000000000E+00 0.  1.
     999901    1    3    3    0    0  0.94541961169E-01  0.26740548665E-01 -0.89744144674E-01  0.89000407351E+00  0.88000000000E+00 0. -1.
        -11    1    4    4    0    0 -0.43239575477E-01 -0.35069488660E-01  0.47940859445E-01  0.73471879299E-01  0.51100000000E-03 0. -1.
         11    1    4    4    0    0 -0.44270894131E-01 -0.12305646109E-01  0.34506148280E-01  0.57465436424E-01  0.51100000000E-03 0.  1.
</event>
<event>
 8    1  0.1072332E+005  0.1043930E+01  0.7957747E-01            NaN
         13   -1    0    0    0    0  0.00000000000E+00  0.00000000000E+00  0.74505805969E-08  0.10566000000E+00  0.10566000000E+00 0.  1.
     999900   -1    0    0    0    0 -0.00000000000E+00 -0.00000000000E+00 -0.74505805969E-08  0.93827000000E+00  0.93827000000E+00 0. -1.
     999902    2    1    2    0    0  0.22787640286E-01  0.33536029247E-02 -0.62162407206E-02  0.10200728239E+01  0.10197938033E+01 0.  0.
     999903    2    3    3    0    0  0.12311749627E+00 -0.12884407631E-01  0.43650095788E-01  0.13282065879E+00  0.20299524439E-01 0.  0.
         14    1    1    2    0    0 -0.22787640286E-01 -0.33536029247E-02  0.62162407206E-02  0.23857176092E-01  0.00000000000E+00 0.  1.
     999901    1    3    3    0    0 -0.10032985598E+00  0.16238010556E-01 -0.49866336508E-01  0.88725216512E+00  0.88000000000E+00 0. -1.
        -11    1    4    4    0    0  0.24677625425E-01 -0.45019644910E-02  0.17596879562E-01  0.30645785554E-01  0.51100000000E-03 0.  1.
         11    1    4    4    0    0  0.98439870842E-01 -0.83824431401E-02  0.26053216225E-01  0.10217487324E+00  0.51100000000E-03 0. -1.
</event>
<event>
 8    1  0.1072332E+005  0.1043930E+01  0.7957747E-01            NaN
         13   -1    0    0    0    0  0.00000000000E+00  0.00000000000E+00  0.74505805969E-08  0.10566000000E+00  0.10566000000E+00 0. -1.
     999900   -1    0    0    0    0 -0.00000000000E+00 -0.00000000000E+00 -0.74505805969E-08  0.93827000000E+00  0.93827000000E+00 0.  1.
     999902    2    1    2    0    0  0.66040152950E-02  0.18356267089E-01 -0.12753668620E-01  0.10206228847E+01  0.10203567274E+01 0.  0.
     999903    2    3    3    0    0  0.43837075795E-01 -0.11898906079E+00  0.11489178401E-01  0.12886184301E+00  0.19831479055E-01 0.  0.
         14    1    1    2    0    0 -0.66040152950E-02 -0.18356267089E-01  0.12753668620E-01  0.23307115281E-01  0.00000000000E+00 0.  1.
     999901    1    3    3    0    0 -0.37233060500E-01  0.13734532788E+00 -0.24242847021E-01  0.89176104171E+00  0.88000000000E+00 0.  1.
        -11    1    4    4    0    0  0.27017127785E-01 -0.67486755398E-01 -0.30624608246E-02  0.72760065525E-01  0.51100000000E-03 0.  1.
         11    1    4    4    0    0  0.16819948010E-01 -0.51502305389E-01  0.14551639226E-01  0.56101777482E-01  0.51100000000E-03 0. -1.
</event>
<event>
 8    1  0.1072332E+005  0.1043930E+01  0.7957747E-01            NaN
         13   -1    0    0    0    0  0.00000000000E+00  0.00000000000E+00  0.74505805969E-08  0.10566000000E+00  0.10566000000E+00 0.  1.
     999900   -1    0    0    0    0 -0.00000000000E+00 -0.00000000000E+00 -0.74505805969E-08  0.93827000000E+00  0.93827000000E+00 0. -1.
     999902    2    1    2    0    0  0.23436847847E-01  0.14050696185E-01  0.27142896544E-02  0.10164695690E+01  0.10160985727E+01 0.  0.
     999903    2    3    3    0    0 -0.11175002154E+00 -0.39997365580E-01 -0.29464425313E-01  0.12392704774E+00  0.20047549344E-01 0.  0.
         14    1    1    2    0    0 -0.23436847847E-01 -0.14050696185E-01 -0.27142896544E-02  0.27460430962E-01  0.00000000000E+00 0. -1.
     999901    1    3    3    0    0  0.13518686938E+00  0.54048061765E-01  0.32178714967E-01  0.89254252130E+00  0.88000000000E+00 0. -1.
        -11    1    4    4    0    0 -0.36753219514E-01 -0.45238788715E-02 -0.13643165400E-01  0.39467223209E-01  0.51100000000E-03 0. -1.
         11    1    4    4    0    0 -0.74996802023E-01 -0.35473486708E-01 -0.15821259913E-01  0.84459824528E-01  0.51100000000E-03 0.  1.
</event>
<event>
 8    1  0.1072332E+005  0.1043930E+01  0.7957747E-01            NaN
         13   -1    0    0    0    0  0.00000000000E+00  0.00000000000E+00  0.74505805969E-08  0.10566000000E+00  0.10566000000E+00 0.  1.
     999900   -1    0    0    0    0 -0.00000000000E+00 -0.00000000000E+00 -0.74505805969E-08  0.93827000000E+00  0.93827000000E+00 0. -1.
     999902    2    1    2    0    0  0.13664344027E-01 -0.70493318704E-02 -0.17628311114E-01  0.10205384475E+01  0.10202703358E+01 0.  0.
     999903    2    3    3    0    0 -0.86788119960E-01  0.85753197095E-01 -0.37363767161E-01  0.12975649034E+00  0.23556466435E-01 0.  0.
         14    1    1    2    0    0 -0.13664344027E-01  0.70493318704E-02  0.17628311114E-01  0.23391552540E-01  0.00000000000E+00 0.  1.
     999901    1    3    3    0    0  0.10045246399E+00 -0.92802528965E-01  0.19735456047E-01  0.89078195712E+00  0.88000000000E+00 0.  1.
        -11    1    4    4    0    0 -0.25146596741E-01  0.14853325227E-01 -0.16385917553E-01  0.33492267959E-01  0.51100000000E-03 0.  1.
         11    1    4    4    0    0 -0.61641523219E-01  0.70899871868E-01 -0.20977849607E-01  0.96264222382E-01  0.51100000000E-03 0. -1.
</event>
<event>
 8    1  0.1072332E+005  0.1043930E+01  0.7957747E-01            NaN
         13   -1    0    0    0    0  0.00000000000E+00  0.00000000000E+00  0.74505805969E-08  0.10566000000E+00  0.10566000000E+00 0. -1.
     999900   -1    0    0    0    0 -0.00000000000E+00 -0.00000000000E+00 -0.74505805969E-08  0.93827000000E+00  0.93827000000E+00 0. -1.
     999902    2    1    2    0    0  0.18543200586E-01  0.14195000506E-01 -0.45901347829E-02  0.10201304692E+01  0.10198528112E+01 0.  0.
     999903    2    3    3    0    0  0.37897258703E-01  0.72087448455E-01  0.10164389662E+00  0.13164198618E+00  0.19113564902E-01 0.  0.
         14    1    1    2    0    0 -0.18543200586E-01 -0.14195000506E-01  0.45901347829E-02  0.23799530765E-01  0.00000000000E+00 0.  1.
     999901    1    3    3    0    0 -0.19354058117E-01 -0.57892447949E-01 -0.10623403140E+00  0.88848848306E+00  0.88000000000E+00 0. -1.
        -11    1    4    4    0    0  0.25221874193E-01  0.40668821706E-01  0.72920782174E-01  0.87222689654E-01  0.51100000000E-03 0. -1.
         11    1    4    4    0    0  0.12675384510E-01  0.31418626749E-01  0.28723114445E-01  0.44419296524E-01  0.51100000000E-03 0.  1.
</event>
<event>
 8    1  0.1072332E+005  0.1043930E+01  0.7957747E-01            NaN
         13   -1    0    0    0    0  0.00000000000E+00  0.00000000000E+00  0.74505805969E-08  0.10566000000E+00  0.10566000000E+00 0. -1.
     999900   -1    0    0    0    0 -0.00000000000E+00 -0.00000000000E+00 -0.74505805969E-08  0.93827000000E+00  0.93827000000E+00 0.  1.
     999902    2    1    2    0    0 -0.48981639443E-02  0.21659005845E-01 -0.84483253877E-02  0.10201712385E+01  0.10198945422E+01 0.  0.
     999903    2    3    3    0    0  0.76918649690E-01 -0.95817555029E-01  0.28912836313E-01  0.12782008022E+00  0.20113137064E-01 0.  0.
         14    1    1    2    0    0  0.48981639443E-02 -0.21659005845E-01  0.84483253877E-02  0.23758761459E-01  0.00000000000E+00 0. -1.
     999901    1    3    3    0    0 -0.81816813634E-01  0.11747656087E+00 -0.37361161701E-01  0.89235115832E+00  0.88000000000E+00 0. -1.
        -11    1    4    4    0    0  0.43492750644E-01 -0.49507135893E-01  0.56271420174E-02  0.66140015961E-01  0.51100000000E-03 0.  1.
         11    1    4    4    0    0  0.33425899045E-01 -0.46310419136E-01  0.23285694296E-01  0.61680064262E-01  0.51100000000E-03 0. -1.
</event>
<event>
 8    1  0.1072332E+005  0.1043930E+01  0.7957747E-01            NaN
         13   -1    0    0    0    0  0.00000000000E+00  0.00000000000E+00  0.74505805969E-08  0.10566000000E+00  0.10566000000E+00 0. -1.
     999900   -1    0    0    0    0 -0.00000000000E+00 -0.00000000000E+00 -0.74505805969E-08  0.93827000000E+00  0.93827000000E+00 0.  1.
     999902    2    1    2    0    0  0.82687992171E-02 -0.13729999220E-01  0.17644378650E-01  0.10200928438E+01  0.10198142968E+01 0.  0.
     999903    2    3    3    0    0 -0.12642762122E+00 -0.23538842907E-01  0.67765736635E-02  0.12972356742E+00  0.15628866286E-01 0.  0.
         14    1    1    2    0    0 -0.82687992171E-02  0.13729999220E-01 -0.17644378650E-01  0.23837156227E-01  0.00000000000E+00 0. -1.
     999901    1    3    3    0    0  0.13469642043E+00  0.98088436875E-02  0.10867804986E-01  0.89036927636E+00  0.88000000000E+00 0.  1.
        -11    1    4    4    0    0 -0.62201707600E-01 -0.11421987123E-01  0.11139068412E-01  0.64217242111E-01  0.51100000000E-03 0.  1.
         11    1    4    4    0    0 -0.64225913615E-01 -0.12116855784E-01 -0.43624947488E-02  0.65506325307E-01  0.51100000000E-03 0. -1.
</event>
<event>
 8    1  0.1072332E+005  0.1043930E+01  0.7957747E-01            NaN
         13   -1    0    0    0    0  0.00000000000E+00  0.00000000000E+00  0.74505805969E-08  0.10566000000E+00  0.10566000000E+00 0. -1.
     999900   -1    0    0    0    0 -0.00000000000E+00 -0.00000000000E+00 -0.74505805969E-08  0.93827000000E+00  0.93827000000E+00 0.  1.
     999902    2    1    2    0    0 -0.24868458191E-02 -0.62086170149E-02  0.23852995825E-01  0.10191570967E+01  0.10188559717E+01 0.  0.
     999903    2    3    3    0    0  0.76468926096E-01  0.73705321827E-01 -0.68738749608E-01  0.12719662513E+00  0.13190702180E-01 0.  0.
         14    1    1    2    0    0  0.24868458191E-02  0.62086170149E-02 -0.23852995825E-01  0.24772903285E-01  0.00000000000E+00 0.  1.
     999901    1    3    3    0    0 -0.78955771915E-01 -0.79913938842E-01  0.92591745432E-01  0.89196047158E+00  0.88000000000E+00 0. -1.
        -11    1    4    4    0    0  0.33373870986E-01  0.33629139347E-01 -0.38381304087E-01  0.60976388071E-01  0.51100000000E-03 0.  1.
         11    1    4    4    0    0  0.43095055111E-01  0.40076182480E-01 -0.30357445521E-01  0.66220237063E-01  0.51100000000E-03 0. -1.
</event>
<event>
 8    1  0.1072332E+005  0.1043930E+01  0.7957747E-01            NaN
         13   -1    0    0    0    0  0.00000000000E+00  0.00000000000E+00  0.74505805969E-08  0.10566000000E+00  0.10566000000E+00 0. -1.
     999900   -1    0    0    0    0 -0.00000000000E+00 -0.00000000000E+00 -0.74505805969E-08  0.93827000000E+00  0.93827000000E+00 0. -1.
     999902    2    1    2    0    0 -0.21623680357E-01  0.11767930552E-01 -0.41522193569E-02  0.10189638496E+01  0.10186579495E+01 0.  0.
     999903    2    3    3    0    0  0.82711922667E-01 -0.87373268269E-01 -0.34759039195E-01  0.12674657066E+00  0.19523119875E-01 0.  0.
         14    1    1    2    0    0  0.21623680357E-01 -0.11767930552E-01  0.41522193569E-02  0.24966150429E-01  0.00000000000E+00 0.  1.
     999901    1    3    3    0    0 -0.10433560302E+00  0.99141198821E-01  0.30606819838E-01  0.89221727891E+00  0.88000000000E+00 0.  1.
        -11    1    4    4    0    0  0.51569609109E-01 -0.57302867544E-01 -0.31665158340E-01  0.83342585670E-01  0.51100000000E-03 0.  1.
         11    1    4    4    0    0  0.31142313558E-01 -0.30070400726E-01 -0.30938808552E-02  0.43403984993E-01  0.51100000000E-03 0. -1.
</event>
<event>
 7    1  0.1072332E+005  0.1043930E+01  0.7957747E-01            NaN
         13   -1    0    0    0    0  0.00000000000E+00  0.00000000000E+00  0.74505805969E-08  0.10566000000E+00  0.10566000000E+00 0. -1.
     999900   -1    0    0    0    0 -0.00000000000E+00 -0.00000000000E+00 -0.74505805969E-08  0.93827000000E+00  0.93827000000E+00 0. -1.
     999902    2    1    2    0    0  0.10230726571E-01  0.98887907382E-02  0.18966106702E-01  0.10202198935E+01  0.10199443425E+01 0.  0.
         14    1    1    2    0    0 -0.10230726571E-01 -0.98887907382E-02 -0.18966106702E-01  0.23710106535E-01  0.00000000000E+00 0.  1.
     999901    1    3    3    0    0  0.93933087594E-01  0.75878310778E-01  0.79404016496E-01  0.89178805824E+00  0.88000000000E+00 0.  1.
        -11    1    3    3    0    0 -0.38138351833E-01 -0.39547409524E-01 -0.50889783286E-01  0.74890337457E-01  0.51100000000E-03 0. -1.
         11    1    3    3    0    0 -0.45564009190E-01 -0.26442110515E-01 -0.95481265079E-02  0.53541497764E-01  0.51100000000E-03 0.  1.
</event>
<event>
 8    1  0.1072332E+005  0.1043930E+01  0.7957747E-01            NaN
         13   -1    0    0    0    0  0.00000000000E+00  0.00000000000E+00  0.74505805969E-08  0.10566000000E+00  0.10566000000E+00 0. -1.
     999900   -1    0    0    0    0 -0.00000000000E+00 -0.00000000000E+00 -0.74505805969E-08  0.93827000000E+00  0.93827000000E+00 0.  1.
     999902    2    1    2    0    0 -0.37308888074E-02  0.22971593502E-01 -0.75374881893E-02  0.10194672249E+01  0.10191736825E+01 0.  0.
     999903    2    3    3    0    0 -0.35506926020E-01 -0.57712570254E-01 -0.10833002365E+00  0.12947914290E+00  0.20927777263E-01 0.  0.
         14    1    1    2    0    0  0.37308888074E-02 -0.22971593502E-01  0.75374881893E-02  0.24462775140E-01  0.00000000000E+00 0. -1.
     999901    1    3    3    0    0  0.31776037213E-01  0.80684163756E-01  0.10079253546E+00  0.88998808196E+00  0.88000000000E+00 0. -1.
        -11    1    4    4    0    0 -0.36712045120E-01 -0.44724000427E-01 -0.88437248415E-01  0.10568546967E+00  0.51100000000E-03 0.  1.
         11    1    4    4    0    0  0.12051191004E-02 -0.12988569826E-01 -0.19892775239E-01  0.23793673233E-01  0.51100000000E-03 0. -1.
</event>
<event>
 8    1  0.1072332E+005  0.1043930E+01  0.7957747E-01            NaN
         13   -1    0    0    0    0  0.00000000000E+00  0.00000000000E+00  0.74505805969E-08  0.10566000000E+00  0.10566000000E+00 0. -1.
     999900   -1    0    0    0    0 -0.00000000000E+00 -0.00000000000E+00 -0.74505805969E-08  0.93827000000E+00  0.93827000000E+00 0. -1.
     999902    2    1    2    0    0 -0.78457618132E-02 -0.23769434237E-01 -0.23568239767E-02  0.10187884686E+01  0.10184782016E+01 0.  0.
     999903    2    3    3    0    0 -0.93723625869E-01  0.29602001655E-01  0.81188737235E-01  0.12906751318E+00  0.20159745927E-01 0.  0.
         14    1    1    2    0    0  0.78457618132E-02  0.23769434237E-01  0.23568239767E-02  0.25141531410E-01  0.00000000000E+00 0.  1.
     999901    1    3    3    0    0  0.85877864055E-01 -0.53371435892E-01 -0.83545561212E-01  0.88972095541E+00  0.88000000000E+00 0. -1.
        -11    1    4    4    0    0 -0.82884869470E-01  0.28505855112E-01  0.78882549405E-01  0.11792032515E+00  0.51100000000E-03 0.  1.
         11    1    4    4    0    0 -0.10838756399E-01  0.10961465429E-02  0.23061878303E-02  0.11147188023E-01  0.51100000000E-03 0. -1.
</event>
<event>
 8    1  0.1072332E+005  0.1043930E+01  0.7957747E-01            NaN
         13   -1    0    0    0    0  0.00000000000E+00  0.00000000000E+00  0.74505805969E-08  0.10566000000E+00  0.10566000000E+00 0.  1.
     999900   -1    0    0    0    0 -0.00000000000E+00 -0.00000000000E+00 -0.74505805969E-08  0.93827000000E+00  0.93827000000E+00 0.  1.
     999902    2    1    2    0    0  0.45450844808E-02 -0.22182293609E-01 -0.66212451754E-02  0.10203386281E+01  0.10200658621E+01 0.  0.
     999903    2    3    3    0    0 -0.10662082589E+00 -0.73974516016E-01  0.39825791493E-02  0.13177082815E+00  0.22526887993E-01 0.  0.
         14    1    1    2    0    0 -0.45450844808E-02  0.22182293609E-01  0.66212451754E-02  0.23591371948E-01  0.00000000000E+00 0.  1.
     999901    1    3    3    0    0  0.11116591037E+00  0.51792222407E-01 -0.10603824325E-01  0.88856779990E+00  0.88000000000E+00 0. -1.
        -11    1    4    4    0    0 -0.57735725133E-01 -0.41964431496E-01  0.13276303295E-01  0.72601300385E-01  0.51100000000E-03 0. -1.
         11    1    4    4    0    0 -0.48885100753E-01 -0.32010084520E-01 -0.92937241457E-02  0.59169527767E-01  0.51100000000E-03 0.  1.
</event>
<event>
 8    1  0.1072332E+005  0.1043930E+01  0.7957747E-01            NaN
         13   -1    0    0    0    0  0.00000000000E+00  0.00000000000E+00  0.74505805969E-08  0.10566000000E+00  0.10566000000E+00 0. -1.
     999900   -1    0    0    0    0 -0.00000000000E+00 -0.00000000000E+00 -0.74505805969E-08  0.93827000000E+00  0.93827000000E+00 0. -1.
     999902    2    1    2    0    0 -0.22060971187E-01  0.17506013739E-02  0.67401901367E-02  0.10207960160E+01  0.10205338431E+01 0.  0.
     999903    2    3    3    0    0  0.12549423713E+00 -0.14443175138E-01 -0.17708879998E-02  0.12832348621E+00  0.22502715554E-01 0.  0.
         14    1    1    2    0    0  0.22060971187E-01 -0.17506013739E-02 -0.67401901367E-02  0.23133984049E-01  0.00000000000E+00 0.  1.
     999901    1    3    3    0    0 -0.14755520832E+00  0.16193776512E-01  0.85110781365E-02  0.89247252975E+00  0.88000000000E+00 0. -1.
        -11    1    4    4    0    0  0.20958968968E-01 -0.57129341323E-02  0.75640571041E-02  0.23008521845E-01  0.51100000000E-03 0.  1.
         11    1    4    4    0    0  0.10453526816E+00 -0.87302410055E-02 -0.93349451038E-02  0.10531496436E+00  0.51100000000E-03 0. -1.
</event>
<event>
 8    1  0.1072332E+005  0.1043930E+01  0.7957747E-01            NaN
         13   -1    0    0    0    0  0.00000000000E+00  0.00000000000E+00  0.74505805969E-08  0.10566000000E+00  0.10566000000E+00 0.  1.
     999900   -1    0    0    0    0 -0.00000000000E+00 -0.00000000000E+00 -0.74505805969E-08  0.93827000000E+00  0.93827000000E+00 0.  1.
     999902    2    1    2    0    0 -0.21071876928E-01 -0.42005087505E-02 -0.87745098528E-02  0.10207209437E+01  0.10204570469E+01 0.  0.
     999903    2    3    3    0    0 -0.76104825812E-01 -0.10628281144E+00 -0.15189663804E-01  0.13308893877E+00  0.19848405877E-01 0.  0.
         14    1    1    2    0    0  0.21071876928E-01  0.42005087505E-02  0.87745098528E-02  0.23209056296E-01  0.00000000000E+00 0.  1.
     999901    1    3    3    0    0  0.55032948884E-01  0.10208230269E+00  0.64151539514E-02  0.88763200494E+00  0.88000000000E+00 0. -1.
        -11    1    4    4    0    0 -0.32362940605E-01 -0.47785344784E-01  0.30678435155E-02  0.57796815532E-01  0.51100000000E-03 0.  1.
         11    1    4    4    0    0 -0.43741885206E-01 -0.58497466659E-01 -0.18257507320E-01  0.75292123236E-01  0.51100000000E-03 0. -1.
</event>
<event>
 8    1  0.1072332E+005  0.1043930E+01  0.7957747E-01            NaN
         13   -1    0    0    0    0  0.00000000000E+00  0.00000000000E+00  0.74505805969E-08  0.10566000000E+00  0.10566000000E+00 0. -1.
     999900   -1    0    0    0    0 -0.00000000000E+00 -0.00000000000E+00 -0.74505805969E-08  0.93827000000E+00  0.93827000000E+00 0.  1.
     999902    2    1    2    0    0  0.47992999137E-02 -0.42137992662E-02 -0.21026731757E-01  0.10219547222E+01  0.10217184257E+01 0.  0.
     999903    2    3    3    0    0 -0.98684476231E-01 -0.83018060877E-01 -0.21428133047E-01  0.13239350193E+00  0.20934425860E-01 0.  0.
         14    1    1    2    0    0 -0.47992999137E-02  0.42137992662E-02  0.21026731757E-01  0.21975277752E-01  0.00000000000E+00 0. -1.
     999901    1    3    3    0    0  0.10348377615E+00  0.78804261611E-01  0.40140129030E-03  0.88956122032E+00  0.88000000000E+00 0. -1.
        -11    1    4    4    0    0 -0.31128042006E-01 -0.14265676645E-01 -0.64354179693E-02  0.34844515418E-01  0.51100000000E-03 0.  1.
         11    1    4    4    0    0 -0.67556434226E-01 -0.68752384231E-01 -0.14992715078E-01  0.97548986510E-01  0.51100000000E-03 0. -1.
</event>
<event>
 8    1  0.1072332E+005  0.1043930E+01  0.7957747E-01            NaN
         13   -1    0    0    0    0  0.00000000000E+00  0.00000000000E+00  0.74505805969E-08  0.10566000000E+00  0.10566000000E+00 0. -1.
     999900   -1    0    0    0    0 -0.00000000000E+00 -0.00000000000E+00 -0.74505805969E-08  0.93827000000E+00  0.93827000000E+00 0. -1.
     999902    2    1    2    0    0  0.10613652786E-01 -0.46571422402E-02  0.19891179565E-01  0.10209083227E+01  0.10206487181E+01 0.  0.
     999903    2    3    3    0    0  0.13257620926E-01 -0.11487477343E+00 -0.57444760929E-01  0.13066354489E+00  0.20027064777E-01 0.  0.
         14    1    1    2    0    0 -0.10613652786E-01  0.46571422402E-02 -0.19891179565E-01  0.23021677259E-01  0.00000000000E+00 0. -1.
     999901    1    3    3    0    0 -0.26439681394E-02  0.11021763119E+00  0.77335940495E-01  0.89024477785E+00  0.88000000000E+00 0.  1.
        -11    1    4    4    0    0  0.87155606367E-02 -0.78284507391E-01 -0.49218576421E-01  0.92882476714E-01  0.51100000000E-03 0.  1.
         11    1    4    4    0    0  0.45420602890E-02 -0.36590266036E-01 -0.82261845086E-02  0.37781068180E-01  0.51100000000E-03 0. -1.
</event>
<event>
 8    1  0.1072332E+005  0.1043930E+01  0.7957747E-01            NaN
         13   -1    0    0    0    0  0.00000000000E+00  0.00000000000E+00  0.74505805969E-08  0.10566000000E+00  0.10566000000E+00 0. -1.
     999900   -1    0    0    0    0 -0.00000000000E+00 -0.00000000000E+00 -0.74505805969E-08  0.93827000000E+00  0.93827000000E+00 0.  1.
     999902    2    1    2    0    0  0.44113302400E-02  0.13216670624E-01  0.16800686523E-01  0.10221033355E+01  0.10218702584E+01 0.  0.
     999903    2    3    3    0    0 -0.71555794909E-01  0.10408405249E+00  0.40318588239E-01  0.13385732400E+00  0.18397631986E-01 0.  0.
         14    1    1    2    0    0 -0.44113302400E-02 -0.13216670624E-01 -0.16800686523E-01  0.21826664530E-01  0.00000000000E+00 0.  1.
     999901    1    3    3    0    0  0.75967125149E-01 -0.90867381867E-01 -0.23517901716E-01  0.88824601147E+00  0.88000000000E+00 0.  1.
        -11    1    4    4    0    0 -0.32346810716E-01  0.32056081488E-01  0.12024317274E-01  0.47103650079E-01  0.51100000000E-03 0. -1.
         11    1    4    4    0    0 -0.39208984193E-01  0.72027971003E-01  0.28294270964E-01  0.86753673920E-01  0.51100000000E-03 0.  1.
</event>
<event>
 8    1  0.1072332E+005  0.1043930E+01  0.7957747E-01            NaN
         13   -1    0    0    0    0  0.00000000000E+00  0.00000000000E+00  0.74505805969E-08  0.10566000000E+00  0.10566000000E+00 0. -1.
     999900   -1    0    0    0    0 -0.00000000000E+00 -0.00000000000E+00 -0.74505805969E-08  0.93827000000E+00  0.93827000000E+00 0.  1.
     999902    2    1    2    0    0 -0.65278348218E-02 -0.14702539968E-02  0.22770439009E-01  0.10201967498E+01  0.10199206543E+01 0.  0.
     999903    2    3    3    0    0  0.45684954611E-01 -0.87472636162E-01 -0.78911493354E-01  0.12864652656E+00  0.24172874424E-01 0.  0.
         14    1    1    2    0    0  0.65278348218E-02  0.14702539968E-02 -0.22770439009E-01  0.23733250239E-01  0.00000000000E+00 0.  1.
     999901    1    3    3    0    0 -0.52212789432E-01  0.86002382165E-01  0.10168193236E+00  0.89155022320E+00  0.88000000000E+00 0.  1.
        -11    1    4    4    0    0  0.24423279686E-01 -0.22970490338E-01 -0.22816401686E-01  0.40558467968E-01  0.51100000000E-03 0.  1.
         11    1    4    4    0    0  0.21261674924E-01 -0.64502145824E-01 -0.56095091668E-01  0.88088058593E-01  0.51100000000E-03 0. -1.
</event>
<event>
 8    1  0.1072332E+005  0.1043930E+01  0.7957747E-01            NaN
         13   -1    0    0    0    0  0.00000000000E+00  0.00000000000E+00  0.74505805969E-08  0.10566000000E+00  0.10566000000E+00 0. -1.
     999900   -1    0    0    0    0 -0.00000000000E+00 -0.00000000000E+00 -0.74505805969E-08  0.93827000000E+00  0.93827000000E+00 0.  1.
     999902    2    1    2    0    0  0.86741564829E-02 -0.11340716905E-01 -0.18817456050E-01  0.10203090453E+01  0.10200355868E+01 0.  0.
     999903    2    3    3    0    0  0.67565917258E-01  0.32601751331E-01  0.10288625671E+00  0.12889950207E+00  0.20036777409E-01 0.  0.
         14    1    1    2    0    0 -0.86741564829E-02  0.11340716905E-01  0.18817456050E-01  0.23620954739E-01  0.00000000000E+00 0. -1.
     999901    1    3    3    0    0 -0.58891760776E-01 -0.43942468236E-01 -0.12170371276E+00  0.89140954320E+00  0.88000000000E+00 0.  1.
        -11    1    4    4    0    0  0.44711838911E-01  0.31548695844E-01  0.74452017051E-01  0.92400393464E-01  0.51100000000E-03 0. -1.
         11    1    4    4    0    0  0.22854078347E-01  0.10530554864E-02  0.28434239655E-01  0.36499108601E-01  0.51100000000E-03 0.  1.
</event>
<event>
 8    1  0.1072332E+005  0.1043930E+01  0.7957747E-01            NaN
         13   -1    0    0    0    0  0.00000000000E+00  0.00000000000E+00  0.74505805969E-08  0.10566000000E+00  0.10566000000E+00 0. -1.
     999900   -1    0    0    0    0 -0.00000000000E+00 -0.00000000000E+00 -0.74505805969E-08  0.93827000000E+00  0.93827000000E+00 0. -1.
     999902    2    1    2    0    0 -0.41488870723E-02  0.81030815870E-02  0.23206687378E-01  0.10190016319E+01  0.10186966685E+01 0.  0.
     999903    2    3    3    0    0 -0.79469445333E-01  0.14485609730E-01  0.10278989397E+00  0.13218293010E+00  0.19527905072E-01 0.  0.
         14    1    1    2    0    0  0.41488870723E-02 -0.81030815870E-02 -0.23206687378E-01  0.24928368061E-01  0.00000000000E+00 0.  1.
     999901    1    3    3    0    0  0.75320558261E-01 -0.63825281433E-02 -0.79583206591E-01  0.88681870184E+00  0.88000000000E+00 0. -1.
        -11    1    4    4    0    0 -0.54104090317E-01  0.16866456036E-02  0.59929170794E-01  0.80758058394E-01  0.51100000000E-03 0. -1.
         11    1    4    4    0    0 -0.25365355016E-01  0.12798964127E-01  0.42860723175E-01  0.51424871705E-01  0.51100000000E-03 0.  1.
</event>
<event>
 8    1  0.1072332E+005  0.1043930E+01  0.7957747E-01            NaN
         13   -1    0    0    0    0  0.00000000000E+00  0.00000000000E+00  0.74505805969E-08  0.10566000000E+00  0.10566000000E+00 0.  1.
     999900   -1    0    0    0    0 -0.00000000000E+00 -0.00000000000E+00 -0.74505805969E-08  0.93827000000E+00  0.93827000000E+00 0. -1.
     999902    2    1    2    0    0  0.11567901535E-01 -0.79879334868E-02 -0.19393632844E-01  0.10199772043E+01  0.10196959159E+01 0.  0.
     999903    2    3    3    0    0  0.11127249640E+00 -0.32867231248E-01 -0.61275725956E-01  0.13300815443E+00  0.21786032387E-01 0.  0.
         14    1    1    2    0    0 -0.11567901535E-01  0.79879334868E-02  0.19393632844E-01  0.23952795708E-01  0.00000000000E+00 0.  1.
     999901    1    3    3    0    0 -0.99704594868E-01  0.24879297761E-01  0.41882093111E-01  0.88696904986E+00  0.88000000000E+00 0. -1.
        -11    1    4    4    0    0  0.61326873922E-01 -0.18705753163E-01 -0.45927221041E-01  0.78869901864E-01  0.51100000000E-03 0. -1.
         11    1    4    4    0    0  0.49945622481E-01 -0.14161478084E-01 -0.15348504915E-01  0.54138252564E-01  0.51100000000E-03 0.  1.
</event>
<event>
 8    1  0.1072332E+005  0.1043930E+01  0.7957747E-01            NaN
         13   -1    0    0    0    0  0.00000000000E+00  0.00000000000E+00  0.74505805969E-08  0.10566000000E+00  0.10566000000E+00 0.  1.
     999900   -1    0    0    0    0 -0.00000000000E+00 -0.00000000000E+00 -0.74505805969E-08  0.93827000000E+00  0.93827000000E+00 0.  1.
     999902    2    1    2    0    0  0.71718228037E-03  0.10275055027E-01  0.21024939326E-01  0.10205176276E+01  0.10202490329E+01 0.  0.
     999903    2    3    3    0    0  0.99261908430E-01  0.60556811724E-01 -0.55438124504E-01  0.13030084603E+00  0.19618127266E-01 0.  0.
         14    1    1    2    0    0 -0.71718228037E-03 -0.10275055027E-01 -0.21024939326E-01  0.23412372368E-01  0.00000000000E+00 0. -1.
     999901    1    3    3    0    0 -0.98544726150E-01 -0.50281756698E-01  0.76463063829E-01  0.89021678160E+00  0.88000000000E+00 0.  1.
        -11    1    4    4    0    0  0.39167088569E-01  0.31050792960E-01 -0.15449529361E-01  0.52317890333E-01  0.51100000000E-03 0. -1.
         11    1    4    4    0    0  0.60094819861E-01  0.29506018765E-01 -0.39988595143E-01  0.77982955701E-01  0.51100000000E-03 0.  1.
</event>
<event>
 8    1  0.1072332E+005  0.1043930E+01  0.7957747E-01            NaN
         13   -1    0    0    0    0  0.00000000000E+00  0.00000000000E+00  0.74505805969E-08  0.10566000000E+00  0.10566000000E+00 0.  1.
     999900   -1    0    0    0    0 -0.00000000000E+00 -0.00000000000E+00 -0.74505805969E-08  0.93827000000E+00  0.93827000000E+00 0. -1.
     999902    2    1    2    0    0 -0.19816636113E-01 -0.11234708609E-01 -0.95452136014E-02  0.10192312379E+01  0.10189319347E+01 0.  0.
     999903    2    3    3    0    0  0.40741661802E-01 -0.73397855918E-01  0.95626981092E-01  0.12872983151E+00  0.19486450360E-01 0.  0.
         14    1    1    2    0    0  0.19816636113E-01  0.11234708609E-01  0.95452136014E-02  0.24698762055E-01  0.00000000000E+00 0.  1.
     999901    1    3    3    0    0 -0.60558297914E-01  0.62163147308E-01 -0.10517219469E+00  0.89050140644E+00  0.88000000000E+00 0. -1.
        -11    1    4    4    0    0  0.34024801745E-01 -0.55870819968E-01  0.61547005202E-01  0.89819433465E-01  0.51100000000E-03 0. -1.
         11    1    4    4    0    0  0.67168600571E-02 -0.17527035950E-01  0.34079975889E-01  0.38910398043E-01  0.51100000000E-03 0.  1.
</event>
<event>
 8    1  0.1072332E+005  0.1043930E+01  0.7957747E-01            NaN
         13   -1    0    0    0    0  0.00000000000E+00  0.00000000000E+00  0.74505805969E-08  0.10566000000E+00  0.10566000000E+00 0. -1.
     999900   -1    0    0    0    0 -0.00000000000E+00 -0.00000000000E+00 -0.74505805969E-08  0.93827000000E+00  0.93827000000E+00 0. -1.
     999902    2    1    2    0    0  0.53683319758E-02  0.12122658395E-01 -0.20840361564E-01  0.10192298278E+01  0.10189304900E+01 0.  0.
     999903    2    3    3    0    0  0.11730923950E+00  0.39751827800E-01  0.33715425623E-01  0.13003329630E+00  0.20742775498E-01 0.  0.
         14    1    1    2    0    0 -0.53683319758E-02 -0.12122658395E-01  0.20840361564E-01  0.24700172163E-01  0.00000000000E+00 0. -1.
     999901    1    3    3    0    0 -0.11194090753E+00 -0.27629169405E-01 -0.54555787187E-01  0.88919653154E+00  0.88000000000E+00 0. -1.
        -11    1    4    4    0    0  0.52769720374E-01  0.28426341520E-01  0.18915632949E-01  0.62855091849E-01  0.51100000000E-03 0. -1.
         11    1    4    4    0    0  0.64539519131E-01  0.11325486279E-01  0.14799792674E-01  0.67178204452E-01  0.51100000000E-03 0.  1.
</event>
<event>
 8    1  0.1072332E+005  0.1043930E+01  0.7957747E-01            NaN
         13   -1    0    0    0    0  0.00000000000E+00  0.00000000000E+00  0.74505805969E-08  0.10566000000E+00  0.10566000000E+00 0.  1.
     999900   -1    0    0    0    0 -0.00000000000E+00 -0.00000000000E+00 -0.74505805969E-08  0.93827000000E+00  0.93827000000E+00 0. -1.
     999902    2    1    2    0    0 -0.39253985148E-02 -0.13330503946E-01  0.18678257366E-01  0.10206493560E+01  0.10203838099E+01 0.  0.
     999903    2    3    3    0    0  0.38124471365E-01 -0.19479529541E-01 -0.11985679404E+00  0.12879849256E+00  0.19760395260E-01 0.  0.
         14    1    1    2    0    0  0.39253985148E-02  0.13330503946E-01 -0.18678257366E-01  0.23280644046E-01  0.00000000000E+00 0. -1.
     999901    1    3    3    0    0 -0.42049869880E-01  0.61490255949E-02  0.13853505140E+00  0.89185086340E+00  0.88000000000E+00 0.  1.
        -11    1    4    4    0    0  0.34419996276E-01 -0.97323530751E-02 -0.80692647741E-01  0.88266751161E-01  0.51100000000E-03 0.  1.
         11    1    4    4    0    0  0.37044750887E-02 -0.97471764655E-02 -0.39164146295E-01  0.40531741398E-01  0.51100000000E-03 0. -1.
</event>
<event>
 8    1  0.1072332E+005  0.1043930E+01  0.7957747E-01            NaN
         13   -1    0    0    0    0  0.00000000000E+00  0.00000000000E+00  0.74505805969E-08  0.10566000000E+00  0.10566000000E+00 0.  1.
     999900   -1    0    0    0    0 -0.00000000000E+00 -0.00000000000E+00 -0.74505805969E-08  0.93827000000E+00  0.93827000000E+00 0.  1.
     999902    2    1    2    0    0 -0.15030889188E-02  0.44110629872E-02  0.23754193870E-01  0.10197230076E+01  0.10194356448E+01 0.  0.
     999903    2    3    3    0    0  0.38171166400E-01  0.11242933505E+00  0.53432769227E-01  0.13173493819E+00  0.20040952831E-01 0.  0.
         14    1    1    2    0    0  0.15030889188E-02 -0.44110629872E-02 -0.23754193870E-01  0.24206992365E-01  0.00000000000E+00 0. -1.
     999901    1    3    3    0    0 -0.39674255318E-01 -0.10801827206E+00 -0.29678575357E-01  0.88798806944E+00  0.88000000000E+00 0.  1.
        -11    1    4    4    0    0  0.32421206816E-01  0.69067585826E-01  0.28967824060E-01  0.81614104266E-01  0.51100000000E-03 0. -1.
         11    1    4    4    0    0  0.57499595831E-02  0.43361749221E-01  0.24464945167E-01  0.50120833928E-01  0.51100000000E-03 0.  1.
</event>
<event>
 8    1  0.1072332E+005  0.1043930E+01  0.7957747E-01            NaN
         13   -1    0    0    0    0  0.00000000000E+00  0.00000000000E+00  0.74505805969E-08  0.10566000000E+00  0.10566000000E+00 0. -1.
     999900   -1    0    0    0    0 -0.00000000000E+00 -0.00000000000E+00 -0.74505805969E-08  0.93827000000E+00  0.93827000000E+00 0.  1.
     999902    2    1    2    0    0  0.40843104355E-02 -0.22392828431E-01 -0.29448803846E-02  0.10209780354E+01  0.10207200185E+01 0.  0.
     999903    2    3    3    0    0 -0.87105171330E-01 -0.69295059311E-01 -0.69209151212E-01  0.13254891928E+00  0.19753310438E-01 0.  0.
         14    1    1    2    0    0 -0.40843104355E-02  0.22392828431E-01  0.29448803846E-02  0.22951964564E-01  0.00000000000E+00 0.  1.
     999901    1    3    3    0    0  0.91189481765E-01  0.46902230880E-01  0.66264270828E-01  0.88842911616E+00  0.88000000000E+00 0. -1.
        -11    1    4    4    0    0 -0.28723672068E-01 -0.11663557618E-01 -0.19421208150E-01  0.36585958514E-01  0.51100000000E-03 0. -1.
         11    1    4    4    0    0 -0.58381499261E-01 -0.57631501693E-01 -0.49787943063E-01  0.95962960765E-01  0.51100000000E-03 0.  1.
</event>
<event>
 8    1  0.1072332E+005  0.1043930E+01  0.7957747E-01            NaN
         13   -1    0    0    0    0  0.00000000000E+00  0.00000000000E+00  0.74505805969E-08  0.10566000000E+00  0.10566000000E+00 0.  1.
     999900   -1    0    0    0    0 -0.00000000000E+00 -0.00000000000E+00 -0.74505805969E-08  0.93827000000E+00  0.93827000000E+00 0.  1.
     999902    2    1    2    0    0  0.11537450335E-01 -0.60076697864E-03  0.20518252746E-01  0.10203827629E+01  0.10201110284E+01 0.  0.
     999903    2    3    3    0    0  0.10598679969E+00 -0.48904073150E-01  0.60007356859E-01  0.13313235946E+00  0.22327834187E-01 0.  0.
         14    1    1    2    0    0 -0.11537450335E-01  0.60076697864E-03 -0.20518252746E-01  0.23547237140E-01  0.00000000000E+00 0.  1.
     999901    1    3    3    0    0 -0.94449349359E-01  0.48303306172E-01 -0.39489104113E-01  0.88725040340E+00  0.88000000000E+00 0. -1.
        -11    1    4    4    0    0  0.39741347830E-01 -0.30442109110E-01  0.25957380803E-01  0.56392760826E-01  0.51100000000E-03 0. -1.
         11    1    4    4    0    0  0.66245451863E-01 -0.18461964040E-01  0.34049976056E-01  0.76739598639E-01  0.51100000000E-03 0.  1.
</event>
<event>
 8    1  0.1072332E+005  0.1043930E+01  0.7957747E-01            NaN
         13   -1    0    0    0    0  0.00000000000E+00  0.00000000000E+00  0.74505805969E-08  0.10566000000E+00  0.10566000000E+00 0.  1.
     999900   -1    0    0    0    0 -0.00000000000E+00 -0.00000000000E+00 -0.74505805969E-08  0.93827000000E+00  0.93827000000E+00 0. -1.
     999902    2    1    2    0    0  0.14881160470E-01  0.16605954107E-01  0.44216008731E-02  0.10211977057E+01  0.10209446591E+01 0.  0.
     999903    2    3    3    0    0 -0.92222970698E-01 -0.63038502534E-01 -0.61190675504E-01  0.12871829128E+00  0.18578767893E-01 0.  0.
         14    1    1    2    0    0 -0.14881160470E-01 -0.16605954107E-01 -0.44216008731E-02  0.22732294276E-01  0.00000000000E+00 0. -1.
     999901    1    3    3    0    0  0.10710413117E+00  0.79644456641E-01  0.65612276377E-01  0.89247941444E+00  0.88000000000E+00 0. -1.
        -11    1    4    4    0    0 -0.38970587604E-01 -0.19841674720E-01 -0.15874800659E-01  0.46526005318E-01  0.51100000000E-03 0. -1.
         11    1    4    4    0    0 -0.53252383094E-01 -0.43196827814E-01 -0.45315874846E-01  0.82192285967E-01  0.51100000000E-03 0.  1.
</event>
<event>
 8    1  0.1072332E+005  0.1043930E+01  0.7957747E-01            NaN
         13   -1    0    0    0    0  0.00000000000E+00  0.00000000000E+00  0.74505805969E-08  0.10566000000E+00  0.10566000000E+00 0. -1.
     999900   -1    0    0    0    0 -0.00000000000E+00 -0.00000000000E+00 -0.74505805969E-08  0.93827000000E+00  0.93827000000E+00 0.  1.
     999902    2    1    2    0    0  0.65752614119E-02  0.22119651607E-01  0.71892706920E-02  0.10197597980E+01  0.10194733184E+01 0.  0.
     999903    2    3    3    0    0 -0.13572166210E-01  0.12852459015E+00  0.22304066434E-01  0.13299241770E+00  0.22062135342E-01 0.  0.
         14    1    1    2    0    0 -0.65752614119E-02 -0.22119651607E-01 -0.71892706920E-02  0.24170201963E-01  0.00000000000E+00 0.  1.
     999901    1    3    3    0    0  0.20147427622E-01 -0.10640493854E+00 -0.15114795742E-01  0.88676738034E+00  0.88000000000E+00 0. -1.
        -11    1    4    4    0    0  0.27958581535E-02  0.63027724191E-01  0.16598760951E-01  0.65238721827E-01  0.51100000000E-03 0. -1.
         11    1    4    4    0    0 -0.16368024364E-01  0.65496865961E-01  0.57053054827E-02  0.67753695869E-01  0.51100000000E-03 0.  1.
</event>
<event>
 8    1  0.1072332E+005  0.1043930E+01  0.7957747E-01            NaN
         13   -1    0    0    0    0  0.00000000000E+00  0.00000000000E+00  0.74505805969E-08  0.10566000000E+00  0.10566000000E+00 0.  1.
     999900   -1    0    0    0    0 -0.00000000000E+00 -0.00000000000E+00 -0.74505805969E-08  0.93827000000E+00  0.93827000000E+00 0.  1.
     999902    2    1    2    0    0 -0.21716305708E-01 -0.28486224684E-02 -0.85042110366E-02  0.10204345922E+01  0.10201640666E+01 0.  0.
     999903    2    3    3    0    0 -0.39523719755E-01 -0.75819226644E-01  0.96962980378E-01  0.13095994862E+00  0.20928665159E-01 0.  0.
         14    1    1    2    0    0  0.21716305708E-01  0.28486224684E-02  0.85042110366E-02  0.23495407826E-01  0.00000000000E+00 0.  1.
     999901    1    3    3    0    0  0.17807414048E-01  0.72970604176E-01 -0.10546719141E+00  0.88947464356E+00  0.88000000000E+00 0.  1.
        -11    1    4    4    0    0 -0.69479571228E-02 -0.35125484275E-01  0.36625553197E-01  0.51222710019E-01  0.51100000000E-03 0. -1.
         11    1    4    4    0    0 -0.32575762633E-01 -0.40693742369E-01  0.60337427181E-01  0.79737238596E-01  0.51100000000E-03 0.  1.
</event>
<event>
 8    1  0.1072332E+005  0.1043930E+01  0.7957747E-01            NaN
         13   -1    0    0    0    0  0.00000000000E+00  0.00000000000E+00  0.74505805969E-08  0.10566000000E+00  0.10566000000E+00 0. -1.
     999900   -1    0    0    0    0 -0.00000000000E+00 -0.00000000000E+00 -0.74505805969E-08  0.93827000000E+00  0.93827000000E+00 0. -1.
     999902    2    1    2    0    0  0.23940468131E-01 -0.59500317189E-02 -0.70725884829E-02  0.10182673735E+01  0.10179439442E+01 0.  0.
     999903    2    3    3    0    0  0.55684497786E-02 -0.12777761288E+00 -0.13351522520E-01  0.12966233434E+00  0.16611195164E-01 0.  0.
         14    1    1    2    0    0 -0.23940468131E-01  0.59500317189E-02  0.70725884829E-02  0.25662626515E-01  0.00000000000E+00 0. -1.
     999901    1    3    3    0    0  0.18372018352E-01  0.12182758116E+00  0.62789340373E-02  0.88860503915E+00  0.88000000000E+00 0. -1.
        -11    1    4    4    0    0 -0.40087650019E-02 -0.10555502604E-01 -0.22630332517E-02  0.11526980201E-01  0.51100000000E-03 0. -1.
         11    1    4    4    0    0  0.95772147805E-02 -0.11722211028E+00 -0.11088489268E-01  0.11813535413E+00  0.51100000000E-03 0.  1.
</event>
<event>
 8    1  0.1072332E+005  0.1043930E+01  0.7957747E-01            NaN
         13   -1    0    0    0    0  0.00000000000E+00  0.00000000000E+00  0.74505805969E-08  0.10566000000E+00  0.10566000000E+00 0. -1.
     999900   -1    0    0    0    0 -0.00000000000E+00 -0.00000000000E+00 -0.74505805969E-08  0.93827000000E+00  0.93827000000E+00 0. -1.
     999902    2    1    2    0    0 -0.40430215315E-02 -0.95048376004E-02  0.21876321854E-01  0.10197378232E+01  0.10194508162E+01 0.  0.
     999903    2    3    3    0    0 -0.59313043364E-01  0.65079236215E-01 -0.90098615559E-01  0.12779839364E+00  0.21478472749E-01 0.  0.
         14    1    1    2    0    0  0.40430215315E-02  0.95048376004E-02 -0.21876321854E-01  0.24192176809E-01  0.00000000000E+00 0.  1.
     999901    1    3    3    0    0  0.55270021832E-01 -0.74584073816E-01  0.11197493741E+00  0.89193942955E+00  0.88000000000E+00 0.  1.
        -11    1    4    4    0    0 -0.45368453191E-01  0.54199096292E-01 -0.59233026787E-01  0.92220665619E-01  0.51100000000E-03 0.  1.
         11    1    4    4    0    0 -0.13944590173E-01  0.10880139923E-01 -0.30865588772E-01  0.35577728020E-01  0.51100000000E-03 0. -1.
</event>
<event>
 8    1  0.1072332E+005  0.1043930E+01  0.7957747E-01            NaN
         13   -1    0    0    0    0  0.00000000000E+00  0.00000000000E+00  0.74505805969E-08  0.10566000000E+00  0.10566000000E+00 0. -1.
     999900   -1    0    0    0    0 -0.00000000000E+00 -0.00000000000E+00 -0.74505805969E-08  0.93827000000E+00  0.93827000000E+00 0.  1.
     999902    2    1    2    0    0 -0.10037826243E-01 -0.10650244264E-01  0.19874295993E-01  0.10192485637E+01  0.10189496853E+01 0.  0.
     999903    2    3    3    0    0  0.74637817575E-01  0.95424700585E-01  0.39646172631E-01  0.12862362257E+00  0.17191276435E-01 0.  0.
         14    1    1    2    0    0  0.10037826243E-01  0.10650244264E-01 -0.19874295993E-01  0.24681436340E-01  0.00000000000E+00 0.  1.
     999901    1    3    3    0    0 -0.84675643818E-01 -0.10607494485E+00 -0.19771876638E-01  0.89062494109E+00  0.88000000000E+00 0.  1.
        -11    1    4    4    0    0  0.61169599170E-01  0.70612053987E-01  0.36137158206E-01  0.10016954305E+00  0.51100000000E-03 0.  1.
         11    1    4    4    0    0  0.13468218405E-01  0.24812646598E-01  0.35090144247E-02  0.28454079522E-01  0.51100000000E-03 0. -1.
</event>
<event>
 8    1  0.1072332E+005  0.1043930E+01  0.7957747E-01            NaN
         13   -1    0    0    0    0  0.00000000000E+00  0.00000000000E+00  0.74505805969E-08  0.10566000000E+00  0.10566000000E+00 0.  1.
     999900   -1    0    0    0    0 -0.00000000000E+00 -0.00000000000E+00 -0.74505805969E-08  0.93827000000E+00  0.93827000000E+00 0. -1.
     999902    2    1    2    0    0  0.49374407341E-02 -0.14316394609E-01 -0.18309252709E-01  0.10201693979E+01  0.10198926582E+01 0.  0.
     999903    2    3    3    0    0  0.58479877590E-01  0.11121940766E+00 -0.22487985389E-01  0.12963950400E+00  0.22606166984E-01 0.  0.
         14    1    1    2    0    0 -0.49374407341E-02  0.14316394609E-01  0.18309252709E-01  0.23760602062E-01  0.00000000000E+00 0.  1.
     999901    1    3    3    0    0 -0.53542436856E-01 -0.12553580227E+00  0.41787326797E-02  0.89052989394E+00  0.88000000000E+00 0.  1.
        -11    1    4    4    0    0  0.33493102847E-01  0.85123942838E-01 -0.14267296503E-01  0.92583424289E-01  0.51100000000E-03 0.  1.
         11    1    4    4    0    0  0.24986774743E-01  0.26095464825E-01 -0.82206888861E-02  0.37056079707E-01  0.51100000000E-03 0. -1.
</event>
<event>
 8    1  0.1072332E+005  0.1043930E+01  0.7957747E-01            NaN
         13   -1    0    0    0    0  0.00000000000E+00  0.00000000000E+00  0.74505805969E-08  0.10566000000E+00  0.10566000000E+00 0. -1.
     999900   -1    0    0    0    0 -0.00000000000E+00 -0.00000000000E+00 -0.74505805969E-08  0.93827000000E+00  0.93827000000E+00 0.  1.
     999902    2    1    2    0    0  0.98107609089E-02  0.40597007971E-02  0.22446421144E-01  0.10190990914E+01  0.10187965371E+01 0.  0.
     999903    2    3    3    0    0  0.85536138310E-01  0.62868050704E-01  0.77014140289E-01  0.13221105405E+00  0.16726094969E-01 0.  0.
         14    1    1    2    0    0 -0.98107609089E-02 -0.40597007971E-02 -0.22446421144E-01  0.24830908609E-01  0.00000000000E+00 0.  1.
     999901    1    3    3    0    0 -0.75725377401E-01 -0.58808349907E-01 -0.54567719145E-01  0.88688803734E+00  0.88000000000E+00 0. -1.
        -11    1    4    4    0    0  0.42429140228E-01  0.30803539477E-01  0.27787465882E-01  0.59342180327E-01  0.51100000000E-03 0. -1.
         11    1    4    4    0    0  0.43106998082E-01  0.32064511227E-01  0.49226674407E-01  0.72868873726E-01  0.51100000000E-03 0.  1.
</event>
<event>
 8    1  0.1072332E+005  0.1043930E+01  0.7957747E-01            NaN
         13   -1    0    0    0    0  0.00000000000E+00  0.00000000000E+00  0.74505805969E-08  0.10566000000E+00  0.10566000000E+00 0. -1.
     999900   -1    0    0    0    0 -0.00000000000E+00 -0.00000000000E+00 -0.74505805969E-08  0.93827000000E+00  0.93827000000E+00 0.  1.
     999902    2    1    2    0    0  0.53921193758E-02 -0.26443807124E-01  0.27901053660E-02  0.10167981999E+01  0.10164361489E+01 0.  0.
     999903    2    3    3    0    0 -0.71665576307E-02  0.99446317261E-01 -0.72021298381E-01  0.12460831549E+00  0.19980873443E-01 0.  0.
         14    1    1    2    0    0 -0.53921193758E-02  0.26443807124E-01 -0.27901053660E-02  0.27131800061E-01  0.00000000000E+00 0.  1.
     999901    1    3    3    0    0  0.12558677006E-01 -0.12589012438E+00  0.74811403747E-01  0.89218988445E+00  0.88000000000E+00 0. -1.
        -11    1    4    4    0    0  0.36648116939E-02  0.48455482698E-01 -0.43302201210E-01  0.65089986933E-01  0.51100000000E-03 0.  1.
         11    1    4    4    0    0 -0.10831369325E-01  0.50990834562E-01 -0.28719097171E-01  0.59518328556E-01  0.51100000000E-03 0. -1.
</event>
<event>
 8    1  0.1072332E+005  0.1043930E+01  0.7957747E-01            NaN
         13   -1    0    0    0    0  0.00000000000E+00  0.00000000000E+00  0.74505805969E-08  0.10566000000E+00  0.10566000000E+00 0. -1.
     999900   -1    0    0    0    0 -0.00000000000E+00 -0.00000000000E+00 -0.74505805969E-08  0.93827000000E+00  0.93827000000E+00 0.  1.
     999902    2    1    2    0    0 -0.44516097625E-02 -0.12340485141E-01  0.19131375708E-01  0.10207327170E+01  0.10204690909E+01 0.  0.
     999903    2    3    3    0    0  0.61577279210E-01  0.62322225106E-02 -0.11157520229E+00  0.12843850027E+00  0.14724831803E-01 0.  0.
         14    1    1    2    0    0  0.44516097625E-02  0.12340485141E-01 -0.19131375708E-01  0.23197283019E-01  0.00000000000E+00 0.  1.
     999901    1    3    3    0    0 -0.66028888973E-01 -0.18572707652E-01  0.13070657800E+00  0.89229421671E+00  0.88000000000E+00 0. -1.
        -11    1    4    4    0    0  0.19121635236E-01 -0.15564742400E-02 -0.23397809291E-01  0.30261826560E-01  0.51100000000E-03 0. -1.
         11    1    4    4    0    0  0.42455643974E-01  0.77886967506E-02 -0.88177393003E-01  0.98176673706E-01  0.51100000000E-03 0.  1.
</event>
<event>
 7    1  0.1072332E+005  0.1043930E+01  0.7957747E-01            NaN
         13   -1    0    0    0    0  0.00000000000E+00  0.00000000000E+00  0.74505805969E-08  0.10566000000E+00  0.10566000000E+00 0.  1.
     999900   -1    0    0    0    0 -0.00000000000E+00 -0.00000000000E+00 -0.74505805969E-08  0.93827000000E+00  0.93827000000E+00 0. -1.
     999903    2    1    2    0    0 -0.98118006701E-01 -0.49131262367E-01  0.14315690193E-01  0.11244844335E+00  0.19967204248E-01 0.  0.
         14    1    1    2    0    0 -0.17776804272E-01 -0.30917570411E-01  0.17471936264E-01  0.39713719129E-01  0.00000000000E+00 0.  1.
     999901    1    1    2    0    0  0.11589481097E+00  0.80048832778E-01 -0.31787626457E-01  0.89176783752E+00  0.88000000000E+00 0. -1.
        -11    1    3    3    0    0 -0.38401512590E-01 -0.30135340524E-01  0.79329923050E-02  0.49457137054E-01  0.51100000000E-03 0. -1.
         11    1    3    3    0    0 -0.59716494111E-01 -0.18995921844E-01  0.63826978884E-02  0.62991306297E-01  0.51100000000E-03 0.  1.
</event>
<event>
 8    1  0.1072332E+005  0.1043930E+01  0.7957747E-01            NaN
         13   -1    0    0    0    0  0.00000000000E+00  0.00000000000E+00  0.74505805969E-08  0.10566000000E+00  0.10566000000E+00 0. -1.
     999900   -1    0    0    0    0 -0.00000000000E+00 -0.00000000000E+00 -0.74505805969E-08  0.93827000000E+00  0.93827000000E+00 0. -1.
     999902    2    1    2    0    0 -0.38347282738E-02  0.23453407632E-01 -0.14049817587E-02  0.10201236680E+01  0.10198458494E+01 0.  0.
     999903    2    3    3    0    0 -0.51970031747E-01 -0.88420507045E-01 -0.75171546348E-01  0.12867861287E+00  0.19706693397E-01 0.  0.
         14    1    1    2    0    0  0.38347282738E-02 -0.23453407632E-01  0.14049817587E-02  0.23806332019E-01  0.00000000000E+00 0.  1.
     999901    1    3    3    0    0  0.48135303473E-01  0.11187391468E+00  0.73766564589E-01  0.89144505511E+00  0.88000000000E+00 0.  1.
        -11    1    4    4    0    0 -0.16443061722E-01 -0.31543346216E-01 -0.15108536301E-01  0.38650820941E-01  0.51100000000E-03 0.  1.
         11    1    4    4    0    0 -0.35526970025E-01 -0.56877160829E-01 -0.60063010047E-01  0.90027791931E-01  0.51100000000E-03 0. -1.
</event>
<event>
 8    1  0.1072332E+005  0.1043930E+01  0.7957747E-01            NaN
         13   -1    0    0    0    0  0.00000000000E+00  0.00000000000E+00  0.74505805969E-08  0.10566000000E+00  0.10566000000E+00 0. -1.
     999900   -1    0    0    0    0 -0.00000000000E+00 -0.00000000000E+00 -0.74505805969E-08  0.93827000000E+00  0.93827000000E+00 0.  1.
     999902    2    1    2    0    0 -0.17240238043E-01 -0.14993864256E-01 -0.81601968568E-02  0.10196682897E+01  0.10193796106E+01 0.  0.
     999903    2    3    3    0    0 -0.89520154663E-01  0.62968061564E-02 -0.95081950376E-01  0.13218134884E+00  0.19437691093E-01 0.  0.
         14    1    1    2    0    0  0.17240238043E-01  0.14993864256E-01  0.81601968568E-02  0.24261710283E-01  0.00000000000E+00 0.  1.
     999901    1    3    3    0    0  0.72279916620E-01 -0.21290670412E-01  0.86921753519E-01  0.88748694088E+00  0.88000000000E+00 0. -1.
        -11    1    4    4    0    0 -0.42213441545E-01  0.11706531270E-01 -0.51695767689E-01  0.67762312825E-01  0.51100000000E-03 0. -1.
         11    1    4    4    0    0 -0.47306713118E-01 -0.54097251141E-02 -0.43386182687E-01  0.64419036015E-01  0.51100000000E-03 0.  1.
</event>
<event>
 8    1  0.1072332E+005  0.1043930E+01  0.7957747E-01            NaN
         13   -1    0    0    0    0  0.00000000000E+00  0.00000000000E+00  0.74505805969E-08  0.10566000000E+00  0.10566000000E+00 0. -1.
     999900   -1    0    0    0    0 -0.00000000000E+00 -0.00000000000E+00 -0.74505805969E-08  0.93827000000E+00  0.93827000000E+00 0. -1.
     999902    2    1    2    0    0 -0.10845551485E-01  0.19691180169E-01  0.27670179234E-02  0.10212799459E+01  0.10210287473E+01 0.  0.
     999903    2    3    3    0    0  0.12410843087E+00 -0.16237350879E-02  0.34194584170E-01  0.13018253544E+00  0.19305020577E-01 0.  0.
         14    1    1    2    0    0  0.10845551485E-01 -0.19691180169E-01 -0.27670179234E-02  0.22650054120E-01  0.00000000000E+00 0. -1.
     999901    1    3    3    0    0 -0.13495398235E+00  0.21314915257E-01 -0.31427566247E-01  0.89109741044E+00  0.88000000000E+00 0.  1.
        -11    1    4    4    0    0  0.64920843664E-01  0.45566949584E-02  0.95904540830E-02  0.65785388510E-01  0.51100000000E-03 0. -1.
         11    1    4    4    0    0  0.59187587206E-01 -0.61804300463E-02  0.24604130087E-01  0.64397146933E-01  0.51100000000E-03 0.  1.
</event>
<event>
 8    1  0.1072332E+005  0.1043930E+01  0.7957747E-01            NaN
         13   -1    0    0    0    0  0.00000000000E+00  0.00000000000E+00  0.74505805969E-08  0.10566000000E+00  0.10566000000E+00 0.  1.
     999900   -1    0    0    0    0 -0.00000000000E+00 -0.00000000000E+00 -0.74505805969E-08  0.93827000000E+00  0.93827000000E+00 0.  1.
     999902    2    1    2    0    0  0.10373387569E-02  0.23665518971E-01  0.33609830315E-02  0.10200045101E+01  0.10197238703E+01 0.  0.
     999903    2    3    3    0    0 -0.11385036412E+00 -0.11099700654E-02 -0.59773391552E-01  0.12994891724E+00  0.18727661675E-01 0.  0.
         14    1    1    2    0    0 -0.10373387569E-02 -0.23665518971E-01 -0.33609830315E-02  0.23925489896E-01  0.00000000000E+00 0. -1.
     999901    1    3    3    0    0  0.11488770287E+00  0.24775489036E-01  0.63134374583E-01  0.89005559286E+00  0.88000000000E+00 0. -1.
        -11    1    4    4    0    0 -0.81570226457E-01 -0.76187018597E-02 -0.36913003846E-01  0.89858652539E-01  0.51100000000E-03 0. -1.
         11    1    4    4    0    0 -0.32280137660E-01  0.65087317942E-02 -0.22860387706E-01  0.40090264704E-01  0.51100000000E-03 0.  1.
</event>
<event>
 8    1  0.1072332E+005  0.1043930E+01  0.7957747E-01            NaN
         13   -1    0    0    0    0  0.00000000000E+00  0.00000000000E+00  0.74505805969E-08  0.10566000000E+00  0.10566000000E+00 0. -1.
     999900   -1    0    0    0    0 -0.00000000000E+00 -0.00000000000E+00 -0.74505805969E-08  0.93827000000E+00  0.93827000000E+00 0.  1.
     999902    2    1    2    0    0  0.23459363725E-01  0.29707450135E-02  0.12087060340E-01  0.10173731911E+01  0.10170265217E+01 0.  0.
     999903    2    3    3    0    0 -0.11084961949E+00  0.24043761431E-01 -0.47925064849E-01  0.12491342719E+00  0.20995519697E-01 0.  0.
         14    1    1    2    0    0 -0.23459363725E-01 -0.29707450135E-02 -0.12087060340E-01  0.26556808919E-01  0.00000000000E+00 0.  1.
     999901    1    3    3    0    0  0.13430898321E+00 -0.21073016417E-01  0.60012125189E-01  0.89245976389E+00  0.88000000000E+00 0. -1.
        -11    1    4    4    0    0 -0.33114503298E-01  0.10368109098E-01 -0.49880098418E-02  0.35060082404E-01  0.51100000000E-03 0. -1.
         11    1    4    4    0    0 -0.77735116190E-01  0.13675652333E-01 -0.42937055007E-01  0.89853344787E-01  0.51100000000E-03 0.  1.
</event>
<event>
 8    1  0.1072332E+005  0.1043930E+01  0.7957747E-01            NaN
         13   -1    0    0    0    0  0.00000000000E+00  0.00000000000E+00  0.74505805969E-08  0.10566000000E+00  0.10566000000E+00 0.  1.
     999900   -1    0    0    0    0 -0.00000000000E+00 -0.00000000000E+00 -0.74505805969E-08  0.93827000000E+00  0.93827000000E+00 0. -1.
     999902    2    1    2    0    0  0.94623664577E-02 -0.76096544826E-02 -0.17806333944E-01  0.10223775350E+01  0.10221503389E+01 0.  0.
     999903    2    3    3    0    0  0.45005965171E-01 -0.12387929070E+00  0.73300547597E-02  0.13366283736E+00  0.20985919595E-01 0.  0.
         14    1    1    2    0    0 -0.94623664577E-02  0.76096544826E-02  0.17806333944E-01  0.21552465030E-01  0.00000000000E+00 0.  1.
     999901    1    3    3    0    0 -0.35543598713E-01  0.11626963622E+00 -0.25136388704E-01  0.88871469761E+00  0.88000000000E+00 0.  1.
        -11    1    4    4    0    0  0.31870091029E-01 -0.92948889999E-01  0.14421233837E-01  0.99314812393E-01  0.51100000000E-03 0. -1.
         11    1    4    4    0    0  0.13135874141E-01 -0.30930400705E-01 -0.70911790768E-02  0.34348024964E-01  0.51100000000E-03 0.  1.
</event>
<event>
 8    1  0.1072332E+005  0.1043930E+01  0.7957747E-01            NaN
         13   -1    0    0    0    0  0.00000000000E+00  0.00000000000E+00  0.74505805969E-08  0.10566000000E+00  0.10566000000E+00 0.  1.
     999900   -1    0    0    0    0 -0.00000000000E+00 -0.00000000000E+00 -0.74505805969E-08  0.93827000000E+00  0.93827000000E+00 0. -1.
     999902    2    1    2    0    0 -0.19198478764E-01  0.12704122526E-01  0.57974283265E-02  0.10201900234E+01  0.10199137695E+01 0.  0.
     999903    2    3    3    0    0  0.28342999595E-01 -0.12012255709E+00  0.29759364262E-01  0.12863111147E+00  0.20678218717E-01 0.  0.
         14    1    1    2    0    0  0.19198478764E-01 -0.12704122526E-01 -0.57974283265E-02  0.23739976647E-01  0.00000000000E+00 0.  1.
     999901    1    3    3    0    0 -0.47541478359E-01  0.13282667961E+00 -0.23961935935E-01  0.89155891188E+00  0.88000000000E+00 0. -1.
        -11    1    4    4    0    0  0.15747272051E-01 -0.42454033164E-01  0.19412133063E-01  0.49268788700E-01  0.51100000000E-03 0. -1.
         11    1    4    4    0    0  0.12595727544E-01 -0.77668523925E-01  0.10347231199E-01  0.79362322771E-01  0.51100000000E-03 0.  1.
</event>
<event>
 8    1  0.1072332E+005  0.1043930E+01  0.7957747E-01            NaN
         13   -1    0    0    0    0  0.00000000000E+00  0.00000000000E+00  0.74505805969E-08  0.10566000000E+00  0.10566000000E+00 0.  1.
     999900   -1    0    0    0    0 -0.00000000000E+00 -0.00000000000E+00 -0.74505805969E-08  0.93827000000E+00  0.93827000000E+00 0. -1.
     999902    2    1    2    0    0 -0.40671326568E-02  0.20273109167E-01 -0.12253828597E-01  0.10198946752E+01  0.10196114219E+01 0.  0.
     999903    2    3    3    0    0  0.39127276935E-02  0.12627930365E+00 -0.37163844008E-01  0.13314696569E+00  0.19626288590E-01 0.  0.
         14    1    1    2    0    0  0.40671326568E-02 -0.20273109167E-01  0.12253828597E-01  0.24035324808E-01  0.00000000000E+00 0.  1.
     999901    1    3    3    0    0 -0.79798603503E-02 -0.10600619448E+00  0.24910015411E-01  0.88674770950E+00  0.88000000000E+00 0. -1.
        -11    1    4    4    0    0 -0.52360406590E-02  0.19069035462E-01 -0.17091509671E-02  0.19855139216E-01  0.51100000000E-03 0. -1.
         11    1    4    4    0    0  0.91487683525E-02  0.10721026818E+00 -0.35454693041E-01  0.11329182647E+00  0.51100000000E-03 0.  1.
</event>
<event>
 8    1  0.1072332E+005  0.1043930E+01  0.7957747E-01            NaN
         13   -1    0    0    0    0  0.00000000000E+00  0.00000000000E+00  0.74505805969E-08  0.10566000000E+00  0.10566000000E+00 0. -1.
     999900   -1    0    0    0    0 -0.00000000000E+00 -0.00000000000E+00 -0.74505805969E-08  0.93827000000E+00  0.93827000000E+00 0.  1.
     999902    2    1    2    0    0  0.96963663745E-02 -0.19659914326E-01  0.12775022571E-01  0.10185581070E+01  0.10182420559E+01 0.  0.
     999903    2    3    3    0    0  0.11689271139E+00  0.21124493699E-02  0.55082640734E-01  0.13077715049E+00  0.20004933415E-01 0.  0.
         14    1    1    2    0    0 -0.96963663745E-02  0.19659914326E-01 -0.12775022571E-01  0.25371892990E-01  0.00000000000E+00 0. -1.
     999901    1    3    3    0    0 -0.10719634502E+00 -0.21772363696E-01 -0.42307618163E-01  0.88778095652E+00  0.88000000000E+00 0.  1.
        -11    1    4    4    0    0  0.94218727104E-01 -0.60730188932E-02  0.41876332155E-01  0.10328571252E+00  0.51100000000E-03 0. -1.
         11    1    4    4    0    0  0.22673984288E-01  0.81854682631E-02  0.13206308579E-01  0.27491437967E-01  0.51100000000E-03 0.  1.
</event>
<event>
 8    1  0.1072332E+005  0.1043930E+01  0.7957747E-01            NaN
         13   -1    0    0    0    0  0.00000000000E+00  0.00000000000E+00  0.74505805969E-08  0.10566000000E+00  0.10566000000E+00 0. -1.
     999900   -1    0    0    0    0 -0.00000000000E+00 -0.00000000000E+00 -0.74505805969E-08  0.93827000000E+00  0.93827000000E+00 0. -1.
     999902    2    1    2    0    0 -0.25688580052E-02 -0.80423433347E-03  0.22854490885E-01  0.10209175343E+01  0.10206581398E+01 0.  0.
     999903    2    3    3    0    0  0.12203863992E+00  0.40249186266E-01  0.17284203596E-01  0.13117406566E+00  0.19861147471E-01 0.  0.
         14    1    1    2    0    0  0.25688580052E-02  0.80423433347E-03 -0.22854490885E-01  0.23012465707E-01  0.00000000000E+00 0.  1.
     999901    1    3    3    0    0 -0.12460749792E+00 -0.41053420599E-01  0.55702872888E-02  0.88974346864E+00  0.88000000000E+00 0.  1.
        -11    1    4    4    0    0  0.78692841365E-01  0.34746733119E-01  0.71721772902E-02  0.86322650519E-01  0.51100000000E-03 0.  1.
         11    1    4    4    0    0  0.43345798553E-01  0.55024531462E-02  0.10112026306E-01  0.44851415137E-01  0.51100000000E-03 0. -1.
</event>
<event>
 8    1  0.1072332E+005  0.1043930E+01  0.7957747E-01            NaN
         13   -1    0    0    0    0  0.00000000000E+00  0.00000000000E+00  0.74505805969E-08  0.10566000000E+00  0.10566000000E+00 0.  1.
     999900   -1    0    0    0    0 -0.00000000000E+00 -0.00000000000E+00 -0.74505805969E-08  0.93827000000E+00  0.93827000000E+00 0. -1.
     999902    2    1    2    0    0  0.18731606629E-01  0.11114762025E-01 -0.12409491145E-01  0.10188619627E+01  0.10185535296E+01 0.  0.
     999903    2    3    3    0    0 -0.16721885127E-01  0.11611867967E+00 -0.54500418788E-01  0.13091240393E+00  0.20114488403E-01 0.  0.
         14    1    1    2    0    0 -0.18731606629E-01 -0.11114762025E-01  0.12409491145E-01  0.25068037264E-01  0.00000000000E+00 0.  1.
     999901    1    3    3    0    0  0.35453491756E-01 -0.10500391764E+00  0.42090927643E-01  0.88794955881E+00  0.88000000000E+00 0. -1.
        -11    1    4    4    0    0  0.39512515000E-02  0.23831933723E-01 -0.74847417953E-02  0.25295373769E-01  0.51100000000E-03 0.  1.
         11    1    4    4    0    0 -0.20673136627E-01  0.92286745947E-01 -0.47015676993E-01  0.10561703016E+00  0.51100000000E-03 0. -1.
</event>
<event>
 8    1  0.1072332E+005  0.1043930E+01  0.7957747E-01            NaN
         13   -1    0    0    0    0  0.00000000000E+00  0.00000000000E+00  0.74505805969E-08  0.10566000000E+00  0.10566000000E+00 0.  1.
     999900   -1    0    0    0    0 -0.00000000000E+00 -0.00000000000E+00 -0.74505805969E-08  0.93827000000E+00  0.93827000000E+00 0.  1.
     999902    2    1    2    0    0  0.67353090084E-02 -0.23612390308E-02  0.19616818050E-01  0.10230551494E+01  0.10228421576E+01 0.  0.
     999903    2    3    3    0    0  0.12302179890E+00 -0.38686117509E-02  0.51263604262E-01  0.13483989453E+00  0.20112455681E-01 0.  0.
         14    1    1    2    0    0 -0.67353090084E-02  0.23612390308E-02 -0.19616818050E-01  0.20874850601E-01  0.00000000000E+00 0. -1.
     999901    1    3    3    0    0 -0.11628648989E+00  0.15073727201E-02 -0.31646786212E-01  0.88821525487E+00  0.88000000000E+00 0.  1.
        -11    1    4    4    0    0  0.82281266237E-01 -0.22361737056E-02  0.44287189775E-01  0.93470977023E-01  0.51100000000E-03 0. -1.
         11    1    4    4    0    0  0.40740532663E-01 -0.16324380453E-02  0.69764144865E-02  0.41368917508E-01  0.51100000000E-03 0.  1.
</event>
<event>
 8    1  0.1072332E+005  0.1043930E+01  0.7957747E-01            NaN
         13   -1    0    0    0    0  0.00000000000E+00  0.00000000000E+00  0.74505805969E-08  0.10566000000E+00  0.10566000000E+00 0.  1.
     999900   -1    0    0    0    0 -0.00000000000E+00 -0.00000000000E+00 -0.74505805969E-08  0.93827000000E+00  0.93827000000E+00 0. -1.
     999902    2    1    2    0    0 -0.11283424674E-01 -0.20366523485E-01 -0.52600520229E-02  0.10200599539E+01  0.10197806286E+01 0.  0.
     999903    2    3    3    0    0  0.35367398690E-01 -0.98621307057E-01  0.77166937662E-01  0.13152502548E+00  0.19159357106E-01 0.  0.
         14    1    1    2    0    0  0.11283424674E-01  0.20366523485E-01  0.52600520229E-02  0.23870046052E-01  0.00000000000E+00 0. -1.
     999901    1    3    3    0    0 -0.46650823364E-01  0.78254783571E-01 -0.82426989685E-01  0.88853492846E+00  0.88000000000E+00 0. -1.
        -11    1    4    4    0    0  0.81602180845E-02 -0.33789111466E-01  0.15745034472E-01  0.38163601041E-01  0.51100000000E-03 0.  1.
         11    1    4    4    0    0  0.27207180605E-01 -0.64832195590E-01  0.61421903189E-01  0.93361424442E-01  0.51100000000E-03 0. -1.
</event>
<event>
 8    1  0.1072332E+005  0.1043930E+01  0.7957747E-01            NaN
         13   -1    0    0    0    0  0.00000000000E+00  0.00000000000E+00  0.74505805969E-08  0.10566000000E+00  0.10566000000E+00 0. -1.
     999900   -1    0    0    0    0 -0.00000000000E+00 -0.00000000000E+00 -0.74505805969E-08  0.93827000000E+00  0.93827000000E+00 0.  1.
     999902    2    1    2    0    0 -0.78671184646E-02  0.22821460017E-01  0.11343358339E-01  0.10172582477E+01  0.10169085309E+01 0.  0.
     999903    2    3    3    0    0  0.96213878392E-01  0.44958666318E-02  0.80088017533E-01  0.12827314694E+00  0.27614968059E-01 0.  0.
         14    1    1    2    0    0  0.78671184646E-02 -0.22821460017E-01 -0.11343358339E-01  0.26671752261E-01  0.00000000000E+00 0.  1.
     999901    1    3    3    0    0 -0.10408099686E+00  0.18325593385E-01 -0.68744659194E-01  0.88898510080E+00  0.88000000000E+00 0.  1.
        -11    1    4    4    0    0  0.27756972371E-01  0.10771977141E-02  0.82521469150E-02  0.28982217304E-01  0.51100000000E-03 0.  1.
         11    1    4    4    0    0  0.68456906020E-01  0.34186689176E-02  0.71835870618E-01  0.99290929634E-01  0.51100000000E-03 0. -1.
</event>
<event>
 8    1  0.1072332E+005  0.1043930E+01  0.7957747E-01            NaN
         13   -1    0    0    0    0  0.00000000000E+00  0.00000000000E+00  0.74505805969E-08  0.10566000000E+00  0.10566000000E+00 0. -1.
     999900   -1    0    0    0    0 -0.00000000000E+00 -0.00000000000E+00 -0.74505805969E-08  0.93827000000E+00  0.93827000000E+00 0. -1.
     999902    2    1    2    0    0 -0.12447034852E-01  0.13991856834E-01 -0.13999221475E-01  0.10205488337E+01  0.10202809628E+01 0.  0.
     999903    2    3    3    0    0  0.30236965573E-01 -0.58993174793E-01  0.10783658820E+00  0.12814046126E+00  0.19919319698E-01 0.  0.
         14    1    1    2    0    0  0.12447034852E-01 -0.13991856834E-01  0.13999221475E-01  0.23381166270E-01  0.00000000000E+00 0. -1.
     999901    1    3    3    0    0 -0.42684000425E-01  0.72985031627E-01 -0.12183580968E+00  0.89240837247E+00  0.88000000000E+00 0. -1.
        -11    1    4    4    0    0  0.25972846345E-01 -0.39972403728E-01  0.61087263833E-01  0.77487397238E-01  0.51100000000E-03 0.  1.
         11    1    4    4    0    0  0.42641192276E-02 -0.19020771065E-01  0.46749324371E-01  0.50653064022E-01  0.51100000000E-03 0. -1.
</event>
<event>
 8    1  0.1072332E+005  0.1043930E+01  0.7957747E-01            NaN
         13   -1    0    0    0    0  0.00000000000E+00  0.00000000000E+00  0.74505805969E-08  0.10566000000E+00  0.10566000000E+00 0.  1.
     999900   -1    0    0    0    0 -0.00000000000E+00 -0.00000000000E+00 -0.74505805969E-08  0.93827000000E+00  0.93827000000E+00 0.  1.
     999902    2    1    2    0    0  0.23324303068E-01  0.11727538962E-01  0.16590814018E-02  0.10177706645E+01  0.10174344277E+01 0.  0.
     999903    2    3    3    0    0 -0.85145973107E-01  0.89469728285E-01 -0.23403382697E-01  0.12735628009E+00  0.20426324731E-01 0.  0.
         14    1    1    2    0    0 -0.23324303068E-01 -0.11727538962E-01 -0.16590814018E-02  0.26159335520E-01  0.00000000000E+00 0.  1.
     999901    1    3    3    0    0  0.10847027618E+00 -0.77742189324E-01  0.25062464099E-01  0.89041438439E+00  0.88000000000E+00 0. -1.
        -11    1    4    4    0    0 -0.40555153827E-01  0.53667801682E-01 -0.19485529628E-01  0.70034994290E-01  0.51100000000E-03 0.  1.
         11    1    4    4    0    0 -0.44590819280E-01  0.35801926603E-01 -0.39178530686E-02  0.57321285804E-01  0.51100000000E-03 0. -1.
</event>
<event>
 8    1  0.1072332E+005  0.1043930E+01  0.7957747E-01            NaN
         13   -1    0    0    0    0  0.00000000000E+00  0.00000000000E+00  0.74505805969E-08  0.10566000000E+00  0.10566000000E+00 0. -1.
     999900   -1    0    0    0    0 -0.00000000000E+00 -0.00000000000E+00 -0.74505805969E-08  0.93827000000E+00  0.93827000000E+00 0.  1.
     999902    2    1    2    0    0  0.88957087508E-02  0.18980327946E-01 -0.10183128959E-01  0.10206258674E+01  0.10203597790E+01 0.  0.
     999903    2    3    3    0    0  0.10033634184E+00 -0.90121692774E-02  0.80921266256E-01  0.13076914849E+00  0.20092739376E-01 0.  0.
         14    1    1    2    0    0 -0.88957087508E-02 -0.18980327946E-01  0.10183128959E-01  0.23304132649E-01  0.00000000000E+00 0. -1.
     999901    1    3    3    0    0 -0.91440633085E-01  0.27992497223E-01 -0.91104395216E-01  0.88985671886E+00  0.88000000000E+00 0.  1.
        -11    1    4    4    0    0  0.30021770516E-01 -0.11942504234E-01  0.23932267838E-01  0.40211250629E-01  0.51100000000E-03 0.  1.
         11    1    4    4    0    0  0.70314571320E-01  0.29303349566E-02  0.56988998418E-01  0.90557897859E-01  0.51100000000E-03 0. -1.
</event>
<event>
 8    1  0.1072332E+005  0.1043930E+01  0.7957747E-01            NaN
         13   -1    0    0    0    0  0.00000000000E+00  0.00000000000E+00  0.74505805969E-08  0.10566000000E+00  0.10566000000E+00 0.  1.
     999900   -1    0    0    0    0 -0.00000000000E+00 -0.00000000000E+00 -0.74505805969E-08  0.93827000000E+00  0.93827000000E+00 0. -1.
     999902    2    1    2    0    0 -0.99397376049E-02  0.19443525257E-01  0.96599431601E-02  0.10200519021E+01  0.10197723861E+01 0.  0.
     999903    2    3    3    0    0  0.12674415764E+00 -0.13085286100E-01  0.70663821226E-03  0.12886125332E+00  0.19220225289E-01 0.  0.
         14    1    1    2    0    0  0.99397376049E-02 -0.19443525257E-01 -0.96599431601E-02  0.23878097913E-01  0.00000000000E+00 0. -1.
     999901    1    3    3    0    0 -0.13668389525E+00  0.32528811357E-01  0.89533049478E-02  0.89119064877E+00  0.88000000000E+00 0.  1.
        -11    1    4    4    0    0  0.96506005385E-01 -0.17396588808E-01 -0.28670764049E-02  0.98104697266E-01  0.51100000000E-03 0.  1.
         11    1    4    4    0    0  0.30238152256E-01  0.43113027081E-02  0.35737146172E-02  0.30756556050E-01  0.51100000000E-03 0. -1.
</event>
<event>
 8    1  0.1072332E+005  0.1043930E+01  0.7957747E-01            NaN
         13   -1    0    0    0    0  0.00000000000E+00  0.00000000000E+00  0.74505805969E-08  0.10566000000E+00  0.10566000000E+00 0.  1.
     999900   -1    0    0    0    0 -0.00000000000E+00 -0.00000000000E+00 -0.74505805969E-08  0.93827000000E+00  0.93827000000E+00 0.  1.
     999902    2    1    2    0    0  0.10071956939E-01  0.11320084790E-01 -0.17985287234E-01  0.10204127894E+01  0.10201417557E+01 0.  0.
     999903    2    3    3    0    0  0.29529790583E-01 -0.70406638705E-01 -0.10700638364E+00  0.13194071883E+00  0.11352701920E-01 0.  0.
         14    1    1    2    0    0 -0.10071956939E-01 -0.11320084790E-01  0.17985287234E-01  0.23517210573E-01  0.00000000000E+00 0.  1.
     999901    1    3    3    0    0 -0.19457833645E-01  0.81726723495E-01  0.89021096404E-01  0.88847207060E+00  0.88000000000E+00 0. -1.
        -11    1    4    4    0    0  0.22224037132E-01 -0.62281929412E-01 -0.94265617974E-01  0.11514866222E+00  0.51100000000E-03 0. -1.
         11    1    4    4    0    0  0.73057534513E-02 -0.81247092927E-02 -0.12740765664E-01  0.16792056613E-01  0.51100000000E-03 0.  1.
</event>
<event>
 8    1  0.1072332E+005  0.1043930E+01  0.7957747E-01            NaN
         13   -1    0    0    0    0  0.00000000000E+00  0.00000000000E+00  0.74505805969E-08  0.10566000000E+00  0.10566000000E+00 0. -1.
     999900   -1    0    0    0    0 -0.00000000000E+00 -0.00000000000E+00 -0.74505805969E-08  0.93827000000E+00  0.93827000000E+00 0. -1.
     999902    2    1    2    0    0  0.18778309600E-01 -0.76560221439E-02  0.13197096492E-01  0.10197348984E+01  0.10194478211E+01 0.  0.
     999903    2    3    3    0    0  0.73712232204E-01  0.92162561570E-01  0.54597216783E-01  0.13142444844E+00  0.19081368842E-01 0.  0.
         14    1    1    2    0    0 -0.18778309600E-01  0.76560221439E-02 -0.13197096492E-01  0.24195101618E-01  0.00000000000E+00 0.  1.
     999901    1    3    3    0    0 -0.54933922605E-01 -0.99818583714E-01 -0.41400120290E-01  0.88831044994E+00  0.88000000000E+00 0.  1.
        -11    1    4    4    0    0  0.52080097644E-01  0.56100621196E-01  0.42995113985E-01  0.87797820114E-01  0.51100000000E-03 0. -1.
         11    1    4    4    0    0  0.21632134561E-01  0.36061940374E-01  0.11602102798E-01  0.43626628331E-01  0.51100000000E-03 0.  1.
</event>
<event>
 8    1  0.1072332E+005  0.1043930E+01  0.7957747E-01            NaN
         13   -1    0    0    0    0  0.00000000000E+00  0.00000000000E+00  0.74505805969E-08  0.10566000000E+00  0.10566000000E+00 0. -1.
     999900   -1    0    0    0    0 -0.00000000000E+00 -0.00000000000E+00 -0.74505805969E-08  0.93827000000E+00  0.93827000000E+00 0. -1.
     999902    2    1    2    0    0  0.11535726427E-01 -0.19131392873E-01 -0.90682183790E-02  0.10198195093E+01  0.10195344603E+01 0.  0.
     999903    2    3    3    0    0  0.25001542028E-01 -0.12287908851E+00 -0.37313760263E-01  0.13317261048E+00  0.24865236380E-01 0.  0.
         14    1    1    2    0    0 -0.11535726427E-01  0.19131392873E-01  0.90682183790E-02  0.24110490704E-01  0.00000000000E+00 0. -1.
     999901    1    3    3    0    0 -0.13465815601E-01  0.10374769564E+00  0.28245541884E-01  0.88664689881E+00  0.88000000000E+00 0. -1.
        -11    1    4    4    0    0 -0.20185500213E-02 -0.15384097163E-01 -0.11625302772E-01  0.19394684201E-01  0.51100000000E-03 0.  1.
         11    1    4    4    0    0  0.27020092049E-01 -0.10749499135E+00 -0.25688457490E-01  0.11377792628E+00  0.51100000000E-03 0. -1.
</event>
<event>
 8    1  0.1072332E+005  0.1043930E+01  0.7957747E-01            NaN
         13   -1    0    0    0    0  0.00000000000E+00  0.00000000000E+00  0.74505805969E-08  0.10566000000E+00  0.10566000000E+00 0.  1.
     999900   -1    0    0    0    0 -0.00000000000E+00 -0.00000000000E+00 -0.74505805969E-08  0.93827000000E+00  0.93827000000E+00 0.  1.
     999902    2    1    2    0    0  0.23433536595E-02  0.10784333808E-01 -0.22063881091E-01  0.10192600180E+01  0.10189614204E+01 0.  0.
     999903    2    3    3    0    0 -0.33640508457E-01 -0.10694618659E+00 -0.62284184835E-01  0.12978096453E+00  0.19864753686E-01 0.  0.
         14    1    1    2    0    0 -0.23433536595E-02 -0.10784333808E-01  0.22063881091E-01  0.24669981979E-01  0.00000000000E+00 0.  1.
     999901    1    3    3    0    0  0.35983862116E-01  0.11773052040E+00  0.40220303744E-01  0.88947905349E+00  0.88000000000E+00 0. -1.
        -11    1    4    4    0    0 -0.30365836912E-01 -0.67943009675E-01 -0.45190414258E-01  0.87067624734E-01  0.51100000000E-03 0.  1.
         11    1    4    4    0    0 -0.32746715449E-02 -0.39003176913E-01 -0.17093770577E-01  0.42713339796E-01  0.51100000000E-03 0. -1.
</event>
<event>
 8    1  0.1072332E+005  0.1043930E+01  0.7957747E-01            NaN
         13   -1    0    0    0    0  0.00000000000E+00  0.00000000000E+00  0.74505805969E-08  0.10566000000E+00  0.10566000000E+00 0.  1.
     999900   -1    0    0    0    0 -0.00000000000E+00 -0.00000000000E+00 -0.74505805969E-08  0.93827000000E+00  0.93827000000E+00 0.  1.
     999902    2    1    2    0    0 -0.69454148101E-02  0.19061459134E-01 -0.11404584504E-01  0.10206567845E+01  0.10203914098E+01 0.  0.
     999903    2    3    3    0    0 -0.32774656554E-01  0.19285114604E-01  0.12281360725E+00  0.13010542567E+00  0.19953593796E-01 0.  0.
         14    1    1    2    0    0  0.69454148101E-02 -0.19061459134E-01  0.11404584504E-01  0.23273215483E-01  0.00000000000E+00 0.  1.
     999901    1    3    3    0    0  0.25829241744E-01 -0.22365546934E-03 -0.13421819175E+00  0.89055135885E+00  0.88000000000E+00 0.  1.
        -11    1    4    4    0    0 -0.17525435494E-01  0.13334913541E-01  0.97490589400E-01  0.99948171324E-01  0.51100000000E-03 0.  1.
         11    1    4    4    0    0 -0.15249221060E-01  0.59502010629E-02  0.25323017847E-01  0.30157254343E-01  0.51100000000E-03 0. -1.
</event>
<event>
 8    1  0.1072332E+005  0.1043930E+01  0.7957747E-01            NaN
         13   -1    0    0    0    0  0.00000000000E+00  0.00000000000E+00  0.74505805969E-08  0.10566000000E+00  0.10566000000E+00 0.  1.
     999900   -1    0    0    0    0 -0.00000000000E+00 -0.00000000000E+00 -0.74505805969E-08  0.93827000000E+00  0.93827000000E+00 0.  1.
     999902    2    1    2    0    0 -0.87568217005E-02  0.21743832010E-01  0.25078344645E-02  0.10203553231E+01  0.10200829476E+01 0.  0.
     999903    2    3    3    0    0  0.57994404103E-01 -0.34182386008E-01  0.10896009468E+00  0.12967269068E+00  0.20271113777E-01 0.  0.
         14    1    1    2    0    0  0.87568217005E-02 -0.21743832010E-01 -0.25078344645E-02  0.23574676890E-01  0.00000000000E+00 0.  1.
     999901    1    3    3    0    0 -0.66751225804E-01  0.55926218018E-01 -0.10645226022E+00  0.89068263243E+00  0.88000000000E+00 0.  1.
        -11    1    4    4    0    0  0.39325927433E-01 -0.33404817766E-01  0.81020448610E-01  0.96057194589E-01  0.51100000000E-03 0. -1.
         11    1    4    4    0    0  0.18668476671E-01 -0.77756824162E-03  0.27939646075E-01  0.33615496090E-01  0.51100000000E-03 0.  1.
</event>
<event>
 8    1  0.1072332E+005  0.1043930E+01  0.7957747E-01            NaN
         13   -1    0    0    0    0  0.00000000000E+00  0.00000000000E+00  0.74505805969E-08  0.10566000000E+00  0.10566000000E+00 0.  1.
     999900   -1    0    0    0    0 -0.00000000000E+00 -0.00000000000E+00 -0.74505805969E-08  0.93827000000E+00  0.93827000000E+00 0.  1.
     999902    2    1    2    0    0  0.69499128672E-02 -0.19601308480E-02 -0.22692905588E-01  0.10201158999E+01  0.10198378978E+01 0.  0.
     999903    2    3    3    0    0  0.38232134909E-01 -0.20527907111E-01 -0.12462696209E+00  0.13348525995E+00  0.20083421880E-01 0.  0.
         14    1    1    2    0    0 -0.69499128672E-02  0.19601308480E-02  0.22692905588E-01  0.23814100147E-01  0.00000000000E+00 0.  1.
     999901    1    3    3    0    0 -0.31282222042E-01  0.18567776263E-01  0.10193405650E+00  0.88663063990E+00  0.88000000000E+00 0. -1.
        -11    1    4    4    0    0  0.30788899886E-01 -0.19926598785E-01 -0.77185135838E-01  0.85456608935E-01  0.51100000000E-03 0. -1.
         11    1    4    4    0    0  0.74432350235E-02 -0.60130832570E-03 -0.47441826255E-01  0.48028651020E-01  0.51100000000E-03 0.  1.
</event>
<event>
 8    1  0.1072332E+005  0.1043930E+01  0.7957747E-01            NaN
         13   -1    0    0    0    0  0.00000000000E+00  0.00000000000E+00  0.74505805969E-08  0.10566000000E+00  0.10566000000E+00 0.  1.
     999900   -1    0    0    0    0 -0.00000000000E+00 -0.00000000000E+00 -0.74505805969E-08  0.93827000000E+00  0.93827000000E+00 0. -1.
     999902    2    1    2    0    0  0.66670815888E-02  0.10694665972E-01 -0.22078364395E-01  0.10185079617E+01  0.10181906442E+01 0.  0.
     999903    2    3    3    0    0 -0.26705913571E-01  0.92799073281E-01  0.81607688204E-01  0.12799929357E+00  0.19978252144E-01 0.  0.
         14    1    1    2    0    0 -0.66670815888E-02 -0.10694665972E-01  0.22078364395E-01  0.25422038304E-01  0.00000000000E+00 0.  1.
     999901    1    3    3    0    0  0.33372995160E-01 -0.82104407308E-01 -0.10368605260E+00  0.89050866813E+00  0.88000000000E+00 0. -1.
        -11    1    4    4    0    0 -0.21115532929E-01  0.83344130138E-01  0.78855289321E-01  0.11666416560E+00  0.51100000000E-03 0.  1.
         11    1    4    4    0    0 -0.55903806414E-02  0.94549431425E-02  0.27523988829E-02  0.11335127973E-01  0.51100000000E-03 0. -1.
</event>
<event>
 8    1  0.1072332E+005  0.1043930E+01  0.7957747E-01            NaN
         13   -1    0    0    0    0  0.00000000000E+00  0.00000000000E+00  0.74505805969E-08  0.10566000000E+00  0.10566000000E+00 0.  1.
     999900   -1    0    0    0    0 -0.00000000000E+00 -0.00000000000E+00 -0.74505805969E-08  0.93827000000E+00  0.93827000000E+00 0.  1.
     999902    2    1    2    0    0  0.33694877552E-02 -0.28273539575E-01 -0.10749393217E-01  0.10134948896E+01  0.10130378055E+01 0.  0.
     999903    2    3    3    0    0  0.68175833378E-01  0.97275335044E-01  0.17708961791E-01  0.12177057108E+00  0.20100487267E-01 0.  0.
         14    1    1    2    0    0 -0.33694877552E-02  0.28273539575E-01  0.10749393217E-01  0.30435110356E-01  0.00000000000E+00 0.  1.
     999901    1    3    3    0    0 -0.64806345623E-01 -0.12554887462E+00 -0.28458355008E-01  0.89172431857E+00  0.88000000000E+00 0. -1.
        -11    1    4    4    0    0  0.86966080655E-02  0.10574491003E-01 -0.42779776073E-02  0.14353155236E-01  0.51100000000E-03 0. -1.
         11    1    4    4    0    0  0.59479225313E-01  0.86700844041E-01  0.21986939398E-01  0.10741741584E+00  0.51100000000E-03 0.  1.
</event>
<event>
 8    1  0.1072332E+005  0.1043930E+01  0.7957747E-01            NaN
         13   -1    0    0    0    0  0.00000000000E+00  0.00000000000E+00  0.74505805969E-08  0.10566000000E+00  0.10566000000E+00 0.  1.
     999900   -1    0    0    0    0 -0.00000000000E+00 -0.00000000000E+00 -0.74505805969E-08  0.93827000000E+00  0.93827000000E+00 0. -1.
     999902    2    1    2    0    0 -0.16043761743E-01 -0.14642189549E-01  0.73507673003E-02  0.10209990213E+01  0.10207414813E+01 0.  0.
     999903    2    3    3    0    0  0.11602472849E-01  0.12330201119E+00  0.31608408012E-01  0.12949391756E+00  0.20774500912E-01 0.  0.
         14    1    1    2    0    0  0.16043761743E-01  0.14642189549E-01 -0.73507673003E-02  0.22930978731E-01  0.00000000000E+00 0. -1.
     999901    1    3    3    0    0 -0.27646234592E-01 -0.13794420074E+00 -0.24257640711E-01  0.89150510371E+00  0.88000000000E+00 0.  1.
        -11    1    4    4    0    0  0.74299215612E-02  0.16998634305E-01  0.94435336850E-02  0.20823034171E-01  0.51100000000E-03 0. -1.
         11    1    4    4    0    0  0.41725512880E-02  0.10630337689E+00  0.22164874327E-01  0.10867088339E+00  0.51100000000E-03 0.  1.
</event>
<event>
 8    1  0.1072332E+005  0.1043930E+01  0.7957747E-01            NaN
         13   -1    0    0    0    0  0.00000000000E+00  0.00000000000E+00  0.74505805969E-08  0.10566000000E+00  0.10566000000E+00 0.  1.
     999900   -1    0    0    0    0 -0.00000000000E+00 -0.00000000000E+00 -0.74505805969E-08  0.93827000000E+00  0.93827000000E+00 0. -1.
     999902    2    1    2    0    0 -0.82578022016E-02  0.11055400979E-01 -0.18746710979E-01  0.10206522776E+01  0.10203867989E+01 0.  0.
     999903    2    3    3    0    0 -0.56130271691E-01 -0.31322756093E-01 -0.11532055792E+00  0.13306330208E+00  0.16591830263E-01 0.  0.
         14    1    1    2    0    0  0.82578022016E-02 -0.11055400979E-01  0.18746710979E-01  0.23277722409E-01  0.00000000000E+00 0.  1.
     999901    1    3    3    0    0  0.47872469489E-01  0.42378157072E-01  0.96573846945E-01  0.88758897551E+00  0.88000000000E+00 0.  1.
        -11    1    4    4    0    0 -0.17517821448E-01 -0.13978331823E-01 -0.26785714103E-01  0.34928547491E-01  0.51100000000E-03 0. -1.
         11    1    4    4    0    0 -0.38612450243E-01 -0.17344424270E-01 -0.88534843822E-01  0.98134754590E-01  0.51100000000E-03 0.  1.
</event>
<event>
 8    1  0.1072332E+005  0.1043930E+01  0.7957747E-01            NaN
         13   -1    0    0    0    0  0.00000000000E+00  0.00000000000E+00  0.74505805969E-08  0.10566000000E+00  0.10566000000E+00 0.  1.
     999900   -1    0    0    0    0 -0.00000000000E+00 -0.00000000000E+00 -0.74505805969E-08  0.93827000000E+00  0.93827000000E+00 0.  1.
     999902    2    1    2    0    0  0.16755831844E-01 -0.15855411046E-01  0.88114450327E-02  0.10192360023E+01  0.10189368159E+01 0.  0.
     999903    2    3    3    0    0 -0.60729947390E-01  0.10937657943E+00  0.90057701357E-02  0.12699885040E+00  0.19905814971E-01 0.  0.
         14    1    1    2    0    0 -0.16755831844E-01  0.15855411046E-01 -0.88114450327E-02  0.24693997728E-01  0.00000000000E+00 0. -1.
     999901    1    3    3    0    0  0.77485779233E-01 -0.12523199047E+00 -0.19432510307E-03  0.89223715187E+00  0.88000000000E+00 0. -1.
        -11    1    4    4    0    0 -0.21363171044E-01  0.37511285004E-01 -0.63319352563E-02  0.43632970387E-01  0.51100000000E-03 0. -1.
         11    1    4    4    0    0 -0.39366776346E-01  0.71865294423E-01  0.15337705392E-01  0.83365880011E-01  0.51100000000E-03 0.  1.
</event>
<event>
 8    1  0.1072332E+005  0.1043930E+01  0.7957747E-01            NaN
         13   -1    0    0    0    0  0.00000000000E+00  0.00000000000E+00  0.74505805969E-08  0.10566000000E+00  0.10566000000E+00 0. -1.
     999900   -1    0    0    0    0 -0.00000000000E+00 -0.00000000000E+00 -0.74505805969E-08  0.93827000000E+00  0.93827000000E+00 0. -1.
     999902    2    1    2    0    0 -0.51967018807E-02 -0.20003236672E-01  0.86891719447E-02  0.10215104350E+01  0.10212643790E+01 0.  0.
     999903    2    3    3    0    0  0.44380363507E-01 -0.15751445554E-01 -0.12032115297E+00  0.13071324868E+00  0.19774954534E-01 0.  0.
         14    1    1    2    0    0  0.51967018807E-02  0.20003236672E-01 -0.86891719447E-02  0.22419565047E-01  0.00000000000E+00 0.  1.
     999901    1    3    3    0    0 -0.49577065388E-01 -0.42517911177E-02  0.12901032491E+00  0.89079718627E+00  0.88000000000E+00 0.  1.
        -11    1    4    4    0    0  0.35280942212E-01 -0.13783417285E-01 -0.11194096193E+00  0.11817684863E+00  0.51100000000E-03 0. -1.
         11    1    4    4    0    0  0.90994212956E-02 -0.19680282690E-02 -0.83801910420E-02  0.12536400045E-01  0.51100000000E-03 0.  1.
</event>
<event>
 8    1  0.1072332E+005  0.1043930E+01  0.7957747E-01            NaN
         13   -1    0    0    0    0  0.00000000000E+00  0.00000000000E+00  0.74505805969E-08  0.10566000000E+00  0.10566000000E+00 0. -1.
     999900   -1    0    0    0    0 -0.00000000000E+00 -0.00000000000E+00 -0.74505805969E-08  0.93827000000E+00  0.93827000000E+00 0. -1.
     999902    2    1    2    0    0  0.16329854205E-01  0.11190125123E-01  0.13925557639E-01  0.10197266078E+01  0.10194393314E+01 0.  0.
     999903    2    3    3    0    0  0.75807336700E-01 -0.10339557008E+00  0.25746288516E-02  0.13023445153E+00  0.22737357860E-01 0.  0.
         14    1    1    2    0    0 -0.16329854205E-01 -0.11190125123E-01 -0.13925557639E-01  0.24203392204E-01  0.00000000000E+00 0.  1.
     999901    1    3    3    0    0 -0.59477482495E-01  0.11458569520E+00  0.11350928788E-01  0.88949215626E+00  0.88000000000E+00 0.  1.
        -11    1    4    4    0    0  0.50329760466E-01 -0.71058732362E-01 -0.87973881735E-02  0.87521902363E-01  0.51100000000E-03 0.  1.
         11    1    4    4    0    0  0.25477576234E-01 -0.32336837719E-01  0.11372017025E-01  0.42712549170E-01  0.51100000000E-03 0. -1.
</event>
<event>
 8    1  0.1072332E+005  0.1043930E+01  0.7957747E-01            NaN
         13   -1    0    0    0    0  0.00000000000E+00  0.00000000000E+00  0.74505805969E-08  0.10566000000E+00  0.10566000000E+00 0. -1.
     999900   -1    0    0    0    0 -0.00000000000E+00 -0.00000000000E+00 -0.74505805969E-08  0.93827000000E+00  0.93827000000E+00 0.  1.
     999902    2    1    2    0    0 -0.20539433083E-01  0.36342105480E-02 -0.12060705468E-01  0.10198356767E+01  0.10195510145E+01 0.  0.
     999903    2    3    3    0    0 -0.89691326651E-01 -0.55754866329E-01  0.74772760396E-01  0.13087611767E+00  0.19607480311E-01 0.  0.
         14    1    1    2    0    0  0.20539433083E-01 -0.36342105480E-02  0.12060705468E-01  0.24094323275E-01  0.00000000000E+00 0. -1.
     999901    1    3    3    0    0  0.69151893569E-01  0.59389076877E-01 -0.86833465864E-01  0.88895955905E+00  0.88000000000E+00 0.  1.
        -11    1    4    4    0    0 -0.50186878841E-01 -0.22264293943E-01  0.45994275548E-01  0.71625108005E-01  0.51100000000E-03 0. -1.
         11    1    4    4    0    0 -0.39504447811E-01 -0.33490572386E-01  0.28778484848E-01  0.59251009668E-01  0.51100000000E-03 0.  1.
</event>
<event>
 8    1  0.1072332E+005  0.1043930E+01  0.7957747E-01            NaN
         13   -1    0    0    0    0  0.00000000000E+00  0.00000000000E+00  0.74505805969E-08  0.10566000000E+00  0.10566000000E+00 0.  1.
     999900   -1    0    0    0    0 -0.00000000000E+00 -0.00000000000E+00 -0.74505805969E-08  0.93827000000E+00  0.93827000000E+00 0.  1.
     999902    2    1    2    0    0  0.10737679127E-01  0.18369033896E-01 -0.10156061958E-01  0.10203532158E+01  0.10200807910E+01 0.  0.
     999903    2    3    3    0    0  0.10176107668E+00 -0.54806354919E-01 -0.59082143911E-01  0.13128985588E+00  0.19679259662E-01 0.  0.
         14    1    1    2    0    0 -0.10737679127E-01 -0.18369033896E-01  0.10156061958E-01  0.23576784212E-01  0.00000000000E+00 0.  1.
     999901    1    3    3    0    0 -0.91023397558E-01  0.73175388815E-01  0.48926081953E-01  0.88906335991E+00  0.88000000000E+00 0.  1.
        -11    1    4    4    0    0  0.37166381328E-01 -0.14717648687E-01 -0.29622188946E-01  0.49756248681E-01  0.51100000000E-03 0. -1.
         11    1    4    4    0    0  0.64594695357E-01 -0.40088706232E-01 -0.29459954965E-01  0.81533607201E-01  0.51100000000E-03 0.  1.
</event>
<event>
 8    1  0.1072332E+005  0.1043930E+01  0.7957747E-01            NaN
         13   -1    0    0    0    0  0.00000000000E+00  0.00000000000E+00  0.74505805969E-08  0.10566000000E+00  0.10566000000E+00 0.  1.
     999900   -1    0    0    0    0 -0.00000000000E+00 -0.00000000000E+00 -0.74505805969E-08  0.93827000000E+00  0.93827000000E+00 0. -1.
     999902    2    1    2    0    0 -0.22721536387E-01 -0.10603430111E-01  0.68213578355E-03  0.10188468133E+01  0.10185380026E+01 0.  0.
     999903    2    3    3    0    0  0.18428344293E-01  0.11927255320E+00  0.36326897059E-01  0.12765007142E+00  0.20232435926E-01 0.  0.
         14    1    1    2    0    0  0.22721536387E-01  0.10603430111E-01 -0.68213578355E-03  0.25083186702E-01  0.00000000000E+00 0. -1.
     999901    1    3    3    0    0 -0.41149880680E-01 -0.12987598331E+00 -0.35644761275E-01  0.89119674187E+00  0.88000000000E+00 0. -1.
        -11    1    4    4    0    0 -0.28300482554E-02  0.29061954391E-01  0.39249150435E-02  0.29466463060E-01  0.51100000000E-03 0. -1.
         11    1    4    4    0    0  0.21258392549E-01  0.90210598813E-01  0.32401982015E-01  0.98183608364E-01  0.51100000000E-03 0.  1.
</event>
<event>
 8    1  0.1072332E+005  0.1043930E+01  0.7957747E-01            NaN
         13   -1    0    0    0    0  0.00000000000E+00  0.00000000000E+00  0.74505805969E-08  0.10566000000E+00  0.10566000000E+00 0.  1.
     999900   -1    0    0    0    0 -0.00000000000E+00 -0.00000000000E+00 -0.74505805969E-08  0.93827000000E+00  0.93827000000E+00 0.  1.
     999902    2    1    2    0    0  0.14265134800E-01 -0.12066867372E-02 -0.18624835840E-01  0.10204388384E+01  0.10201684117E+01 0.  0.
     999903    2    3    3    0    0 -0.80103605434E-01  0.79160290560E-01  0.58466263811E-01  0.12841454062E+00  0.19724376603E-01 0.  0.
         14    1    1    2    0    0 -0.14265134800E-01  0.12066867372E-02  0.18624835840E-01  0.23491161611E-01  0.00000000000E+00 0.  1.
     999901    1    3    3    0    0  0.94368740234E-01 -0.80366977297E-01 -0.77091099651E-01  0.89202429777E+00  0.88000000000E+00 0.  1.
        -11    1    4    4    0    0 -0.26136599402E-01  0.34694903194E-01  0.14423239697E-01  0.45772798694E-01  0.51100000000E-03 0.  1.
         11    1    4    4    0    0 -0.53967006032E-01  0.44465387366E-01  0.44043024114E-01  0.82641741921E-01  0.51100000000E-03 0. -1.
</event>
<event>
 8    1  0.1072332E+005  0.1043930E+01  0.7957747E-01            NaN
         13   -1    0    0    0    0  0.00000000000E+00  0.00000000000E+00  0.74505805969E-08  0.10566000000E+00  0.10566000000E+00 0.  1.
     999900   -1    0    0    0    0 -0.00000000000E+00 -0.00000000000E+00 -0.74505805969E-08  0.93827000000E+00  0.93827000000E+00 0.  1.
     999902    2    1    2    0    0  0.10870657989E-01  0.16269797696E-01  0.13535495006E-01  0.10201374140E+01  0.10198599200E+01 0.  0.
     999903    2    3    3    0    0  0.38531429529E-01 -0.58691861533E-01 -0.10556434612E+00  0.12852699417E+00  0.21117561144E-01 0.  0.
         14    1    1    2    0    0 -0.10870657989E-01 -0.16269797696E-01 -0.13535495006E-01  0.23792585972E-01  0.00000000000E+00 0.  1.
     999901    1    3    3    0    0 -0.27660771540E-01  0.74961659229E-01  0.11909984112E+00  0.89161041985E+00  0.88000000000E+00 0. -1.
        -11    1    4    4    0    0  0.20434227934E-01 -0.23043936240E-01 -0.63012791621E-01  0.70138817338E-01  0.51100000000E-03 0. -1.
         11    1    4    4    0    0  0.18097201594E-01 -0.35647925293E-01 -0.42551554495E-01  0.58388176836E-01  0.51100000000E-03 0.  1.
</event>
<event>
 8    1  0.1072332E+005  0.1043930E+01  0.7957747E-01            NaN
         13   -1    0    0    0    0  0.00000000000E+00  0.00000000000E+00  0.74505805969E-08  0.10566000000E+00  0.10566000000E+00 0. -1.
     999900   -1    0    0    0    0 -0.00000000000E+00 -0.00000000000E+00 -0.74505805969E-08  0.93827000000E+00  0.93827000000E+00 0.  1.
     999902    2    1    2    0    0 -0.12241958961E-01 -0.10248723920E-01  0.16908710766E-01  0.10206747554E+01  0.10204097951E+01 0.  0.
     999903    2    3    3    0    0  0.24171733629E-01 -0.66544600694E-01 -0.10660297131E+00  0.12952363559E+00  0.19993051210E-01 0.  0.
         14    1    1    2    0    0  0.12241958961E-01  0.10248723920E-01 -0.16908710766E-01  0.23255244590E-01  0.00000000000E+00 0.  1.
     999901    1    3    3    0    0 -0.36413692589E-01  0.56295876775E-01  0.12351168207E+00  0.89115111982E+00  0.88000000000E+00 0. -1.
        -11    1    4    4    0    0  0.80728511608E-02 -0.48620275593E-01 -0.75771953938E-01  0.90392213432E-01  0.51100000000E-03 0.  1.
         11    1    4    4    0    0  0.16098882468E-01 -0.17924325101E-01 -0.30831017369E-01  0.39131422157E-01  0.51100000000E-03 0. -1.
</event>
<event>
 8    1  0.1072332E+005  0.1043930E+01  0.7957747E-01            NaN
         13   -1    0    0    0    0  0.00000000000E+00  0.00000000000E+00  0.74505805969E-08  0.10566000000E+00  0.10566000000E+00 0. -1.
     999900   -1    0    0    0    0 -0.00000000000E+00 -0.00000000000E+00 -0.74505805969E-08  0.93827000000E+00  0.93827000000E+00 0.  1.
     999902    2    1    2    0    0 -0.20236676502E-01  0.86134439982E-02  0.77711519679E-02  0.10206039353E+01  0.10203373400E+01 0.  0.
     999903    2    3    3    0    0 -0.38726668144E-01  0.63438654662E-01  0.10835338435E+00  0.13298663654E+00  0.20512724537E-01 0.  0.
         14    1    1    2    0    0  0.20236676502E-01 -0.86134439982E-02 -0.77711519679E-02  0.23326064741E-01  0.00000000000E+00 0.  1.
     999901    1    3    3    0    0  0.18489991641E-01 -0.54825210664E-01 -0.10058223238E+00  0.88761729872E+00  0.88000000000E+00 0.  1.
        -11    1    4    4    0    0 -0.10820634468E-01  0.36266898741E-01  0.59273131836E-01  0.70327372716E-01  0.51100000000E-03 0. -1.
         11    1    4    4    0    0 -0.27906033676E-01  0.27171755921E-01  0.49080252511E-01  0.62659263824E-01  0.51100000000E-03 0.  1.
</event>
<event>
 8    1  0.1072332E+005  0.1043930E+01  0.7957747E-01            NaN
         13   -1    0    0    0    0  0.00000000000E+00  0.00000000000E+00  0.74505805969E-08  0.10566000000E+00  0.10566000000E+00 0.  1.
     999900   -1    0    0    0    0 -0.00000000000E+00 -0.00000000000E+00 -0.74505805969E-08  0.93827000000E+00  0.93827000000E+00 0.  1.
     999902    2    1    2    0    0 -0.21882620187E-01 -0.80591420033E-02 -0.23681453637E-03  0.10206093028E+01  0.10203428316E+01 0.  0.
     999903    2    3    3    0    0 -0.10893200591E+00  0.67383705916E-01  0.24379326192E-01  0.13276068214E+00  0.24986024930E-01 0.  0.
         14    1    1    2    0    0  0.21882620187E-01  0.80591420033E-02  0.23681453637E-03  0.23320697185E-01  0.00000000000E+00 0. -1.
     999901    1    3    3    0    0  0.87049385720E-01 -0.75442847919E-01 -0.24616140728E-01  0.88784862068E+00  0.88000000000E+00 0.  1.
        -11    1    4    4    0    0 -0.59683140403E-01  0.41380104952E-01  0.25729242421E-01  0.77049629271E-01  0.51100000000E-03 0. -1.
         11    1    4    4    0    0 -0.49248865504E-01  0.26003600964E-01 -0.13499162297E-02  0.55711052865E-01  0.51100000000E-03 0.  1.
</event>
<event>
 8    1  0.1072332E+005  0.1043930E+01  0.7957747E-01            NaN
         13   -1    0    0    0    0  0.00000000000E+00  0.00000000000E+00  0.74505805969E-08  0.10566000000E+00  0.10566000000E+00 0. -1.
     999900   -1    0    0    0    0 -0.00000000000E+00 -0.00000000000E+00 -0.74505805969E-08  0.93827000000E+00  0.93827000000E+00 0.  1.
     999902    2    1    2    0    0  0.45047731346E-02  0.55334902377E-02  0.22151961393E-01  0.10206572286E+01  0.10203918641E+01 0.  0.
     999903    2    3    3    0    0  0.74195877081E-01  0.21544180215E-01  0.10704392785E+00  0.13368494147E+00  0.21073234432E-01 0.  0.
         14    1    1    2    0    0 -0.45047731346E-02 -0.55334902377E-02 -0.22151961393E-01  0.23272771403E-01  0.00000000000E+00 0.  1.
     999901    1    3    3    0    0 -0.69691103946E-01 -0.16010689977E-01 -0.84891966456E-01  0.88697228713E+00  0.88000000000E+00 0.  1.
        -11    1    4    4    0    0  0.13076311269E-02  0.50413547727E-02  0.53610765998E-02  0.74918235709E-02  0.51100000000E-03 0. -1.
         11    1    4    4    0    0  0.72888245954E-01  0.16502825442E-01  0.10168285125E+00  0.12619311790E+00  0.51100000000E-03 0.  1.
</event>
<event>
 8    1  0.1072332E+005  0.1043930E+01  0.7957747E-01            NaN
         13   -1    0    0    0    0  0.00000000000E+00  0.00000000000E+00  0.74505805969E-08  0.10566000000E+00  0.10566000000E+00 0. -1.
     999900   -1    0    0    0    0 -0.00000000000E+00 -0.00000000000E+00 -0.74505805969E-08  0.93827000000E+00  0.93827000000E+00 0. -1.
     999902    2    1    2    0    0 -0.19358597690E-01  0.76362106995E-02 -0.11584917218E-01  0.10201124156E+01  0.10198343312E+01 0.  0.
     999903    2    3    3    0    0  0.44703813198E-02 -0.12609525640E+00 -0.22022332975E-01  0.12962891484E+00  0.19966832926E-01 0.  0.
         14    1    1    2    0    0  0.19358597690E-01 -0.76362106995E-02  0.11584917218E-01  0.23817584372E-01  0.00000000000E+00 0. -1.
     999901    1    3    3    0    0 -0.23828979010E-01  0.13373146710E+00  0.10437415757E-01  0.89048350079E+00  0.88000000000E+00 0.  1.
        -11    1    4    4    0    0  0.44169981919E-02 -0.11282613878E+00 -0.25798355086E-01  0.11582341608E+00  0.51100000000E-03 0. -1.
         11    1    4    4    0    0  0.53383127920E-04 -0.13269117615E-01  0.37760221105E-02  0.13805498760E-01  0.51100000000E-03 0.  1.
</event>
<event>
 8    1  0.1072332E+005  0.1043930E+01  0.7957747E-01            NaN
         13   -1    0    0    0    0  0.00000000000E+00  0.00000000000E+00  0.74505805969E-08  0.10566000000E+00  0.10566000000E+00 0.  1.
     999900   -1    0    0    0    0 -0.00000000000E+00 -0.00000000000E+00 -0.74505805969E-08  0.93827000000E+00  0.93827000000E+00 0.  1.
     999902    2    1    2    0    0 -0.19219028852E-01  0.28837558357E-02 -0.13942039348E-01  0.10200120657E+01  0.10197316052E+01 0.  0.
     999903    2    3    3    0    0 -0.97418855842E-01 -0.18431431258E-01  0.83105783923E-01  0.13097447929E+00  0.20435062288E-01 0.  0.
         14    1    1    2    0    0  0.19219028852E-01 -0.28837558357E-02  0.13942039348E-01  0.23917934252E-01  0.00000000000E+00 0. -1.
     999901    1    3    3    0    0  0.78199826990E-01  0.21315187094E-01 -0.97047823271E-01  0.88903758646E+00  0.88000000000E+00 0.  1.
        -11    1    4    4    0    0 -0.67184715845E-01 -0.20250776972E-01  0.65188045909E-01  0.95779029341E-01  0.51100000000E-03 0. -1.
         11    1    4    4    0    0 -0.30234139997E-01  0.18193457145E-02  0.17917738014E-01  0.35195449944E-01  0.51100000000E-03 0.  1.
</event>
<event>
 8    1  0.1072332E+005  0.1043930E+01  0.7957747E-01            NaN
         13   -1    0    0    0    0  0.00000000000E+00  0.00000000000E+00  0.74505805969E-08  0.10566000000E+00  0.10566000000E+00 0.  1.
     999900   -1    0    0    0    0 -0.00000000000E+00 -0.00000000000E+00 -0.74505805969E-08  0.93827000000E+00  0.93827000000E+00 0. -1.
     999902    2    1    2    0    0  0.88918696751E-02  0.20641933433E-01  0.15682626019E-02  0.10213997046E+01  0.10211511849E+01 0.  0.
     999903    2    3    3    0    0  0.23374943119E-01  0.88959238805E-01  0.94902619690E-01  0.13371264499E+00  0.20308374412E-01 0.  0.
         14    1    1    2    0    0 -0.88918696751E-02 -0.20641933433E-01 -0.15682626019E-02  0.22530295376E-01  0.00000000000E+00 0. -1.
     999901    1    3    3    0    0 -0.14483073444E-01 -0.68317305372E-01 -0.93334357088E-01  0.88768705963E+00  0.88000000000E+00 0.  1.
        -11    1    4    4    0    0 -0.16549388461E-02  0.30711765928E-01  0.32699943827E-01  0.44894307393E-01  0.51100000000E-03 0.  1.
         11    1    4    4    0    0  0.25029881966E-01  0.58247472877E-01  0.62202675863E-01  0.88818337596E-01  0.51100000000E-03 0. -1.
</event>
<event>
 8    1  0.1072332E+005  0.1043930E+01  0.7957747E-01            NaN
         13   -1    0    0    0    0  0.00000000000E+00  0.00000000000E+00  0.74505805969E-08  0.10566000000E+00  0.10566000000E+00 0. -1.
     999900   -1    0    0    0    0 -0.00000000000E+00 -0.00000000000E+00 -0.74505805969E-08  0.93827000000E+00  0.93827000000E+00 0. -1.
     999902    2    1    2    0    0  0.25255231045E-01 -0.53977153765E-02  0.18195136701E-01  0.10123384659E+01  0.10118454153E+01 0.  0.
     999903    2    3    3    0    0 -0.61169523448E-01  0.95016429321E-01  0.41615199265E-01  0.12211336069E+00  0.20248842148E-01 0.  0.
         14    1    1    2    0    0 -0.25255231045E-01  0.53977153765E-02 -0.18195136701E-01  0.31591534087E-01  0.00000000000E+00 0.  1.
     999901    1    3    3    0    0  0.86424754493E-01 -0.10041414470E+00 -0.23420062565E-01  0.89022510523E+00  0.88000000000E+00 0. -1.
        -11    1    4    4    0    0 -0.41225384684E-01  0.50155063203E-01  0.30696110340E-01  0.71816258732E-01  0.51100000000E-03 0.  1.
         11    1    4    4    0    0 -0.19944138764E-01  0.44861366119E-01  0.10919088926E-01  0.50297101955E-01  0.51100000000E-03 0. -1.
</event>
<event>
 8    1  0.1072332E+005  0.1043930E+01  0.7957747E-01            NaN
         13   -1    0    0    0    0  0.00000000000E+00  0.00000000000E+00  0.74505805969E-08  0.10566000000E+00  0.10566000000E+00 0.  1.
     999900   -1    0    0    0    0 -0.00000000000E+00 -0.00000000000E+00 -0.74505805969E-08  0.93827000000E+00  0.93827000000E+00 0.  1.
     999902    2    1    2    0    0 -0.16802136012E-01 -0.16151672997E-01  0.32952356401E-02  0.10203917993E+01  0.10201202758E+01 0.  0.
     999903    2    3    3    0    0  0.85278264480E-01  0.46730435337E-01 -0.81387633844E-01  0.12823387823E+00  0.19075235337E-01 0.  0.
         14    1    1    2    0    0  0.16802136012E-01  0.16151672997E-01 -0.32952356401E-02  0.23538200719E-01  0.00000000000E+00 0. -1.
     999901    1    3    3    0    0 -0.10208040049E+00 -0.62882108334E-01  0.84682869484E-01  0.89215792105E+00  0.88000000000E+00 0. -1.
        -11    1    4    4    0    0  0.52702560033E-01  0.19971748079E-01 -0.39674186672E-01  0.68925559587E-01  0.51100000000E-03 0. -1.
         11    1    4    4    0    0  0.32575704447E-01  0.26758687258E-01 -0.41713447172E-01  0.59308318641E-01  0.51100000000E-03 0.  1.
</event>
<event>
 8    1  0.1072332E+005  0.1043930E+01  0.7957747E-01            NaN
         13   -1    0    0    0    0  0.00000000000E+00  0.00000000000E+00  0.74505805969E-08  0.10566000000E+00  0.10566000000E+00 0.  1.
     999900   -1    0    0    0    0 -0.00000000000E+00 -0.00000000000E+00 -0.74505805969E-08  0.93827000000E+00  0.93827000000E+00 0.  1.
     999902    2    1    2    0    0 -0.23787155727E-01 -0.29323557776E-02  0.21383811757E-02  0.10198675778E+01  0.10195836778E+01 0.  0.
     999903    2    3    3    0    0  0.75233104809E-01  0.49493724722E-01  0.89352192081E-01  0.12848676427E+00  0.20381008755E-01 0.  0.
         14    1    1    2    0    0  0.23787155727E-01  0.29323557776E-02 -0.21383811757E-02  0.24062422198E-01  0.00000000000E+00 0.  1.
     999901    1    3    3    0    0 -0.99020260536E-01 -0.52426080499E-01 -0.87213810905E-01  0.89138081353E+00  0.88000000000E+00 0.  1.
        -11    1    4    4    0    0  0.34847955595E-01  0.12249264934E-01  0.29798044312E-01  0.47461658909E-01  0.51100000000E-03 0.  1.
         11    1    4    4    0    0  0.40385149214E-01  0.37244459788E-01  0.59554147769E-01  0.81025105365E-01  0.51100000000E-03 0. -1.
</event>
<event>
 8    1  0.1072332E+005  0.1043930E+01  0.7957747E-01            NaN
         13   -1    0    0    0    0  0.00000000000E+00  0.00000000000E+00  0.74505805969E-08  0.10566000000E+00  0.10566000000E+00 0. -1.
     999900   -1    0    0    0    0 -0.00000000000E+00 -0.00000000000E+00 -0.74505805969E-08  0.93827000000E+00  0.93827000000E+00 0.  1.
     999902    2    1    2    0    0  0.16078842637E-01 -0.13953534146E-01  0.89460755489E-02  0.10208375215E+01  0.10205762993E+01 0.  0.
     999903    2    3    3    0    0  0.91869715121E-01 -0.69868212431E-01 -0.62676139225E-01  0.13291835330E+00  0.20429844625E-01 0.  0.
         14    1    1    2    0    0 -0.16078842637E-01  0.13953534146E-01 -0.89460755489E-02  0.23092478503E-01  0.00000000000E+00 0. -1.
     999901    1    3    3    0    0 -0.75790872485E-01  0.55914678285E-01  0.71622214774E-01  0.88791916820E+00  0.88000000000E+00 0. -1.
        -11    1    4    4    0    0  0.32108254781E-01 -0.16049867333E-01 -0.27081803986E-01  0.44969139358E-01  0.51100000000E-03 0.  1.
         11    1    4    4    0    0  0.59761460341E-01 -0.53818345098E-01 -0.35594335239E-01  0.87949213943E-01  0.51100000000E-03 0. -1.
</event>
<event>
 8    1  0.1072332E+005  0.1043930E+01  0.7957747E-01            NaN
         13   -1    0    0    0    0  0.00000000000E+00  0.00000000000E+00  0.74505805969E-08  0.10566000000E+00  0.10566000000E+00 0.  1.
     999900   -1    0    0    0    0 -0.00000000000E+00 -0.00000000000E+00 -0.74505805969E-08  0.93827000000E+00  0.93827000000E+00 0. -1.
     999902    2    1    2    0    0 -0.11976880337E-01 -0.17793824888E-01  0.10491660822E-01  0.10200523784E+01  0.10197728737E+01 0.  0.
     999903    2    3    3    0    0  0.89009155769E-02 -0.81220518722E-01  0.10301902905E+00  0.13268540711E+00  0.17790389401E-01 0.  0.
         14    1    1    2    0    0  0.11976880337E-01  0.17793824888E-01 -0.10491660822E-01  0.23877621606E-01  0.00000000000E+00 0. -1.
     999901    1    3    3    0    0 -0.20877795914E-01  0.63426693833E-01 -0.92527368225E-01  0.88736697128E+00  0.88000000000E+00 0. -1.
        -11    1    4    4    0    0 -0.77023379287E-03 -0.50306568429E-01  0.52890101638E-01  0.72999781229E-01  0.51100000000E-03 0. -1.
         11    1    4    4    0    0  0.96711493698E-02 -0.30913950293E-01  0.50128927409E-01  0.59685625882E-01  0.51100000000E-03 0.  1.
</event>
<event>
 8    1  0.1072332E+005  0.1043930E+01  0.7957747E-01            NaN
         13   -1    0    0    0    0  0.00000000000E+00  0.00000000000E+00  0.74505805969E-08  0.10566000000E+00  0.10566000000E+00 0.  1.
     999900   -1    0    0    0    0 -0.00000000000E+00 -0.00000000000E+00 -0.74505805969E-08  0.93827000000E+00  0.93827000000E+00 0.  1.
     999902    2    1    2    0    0 -0.14187515530E-01  0.17018856069E-01 -0.71687338687E-02  0.10206422821E+01  0.10203765728E+01 0.  0.
     999903    2    3    3    0    0  0.89179821193E-01 -0.76375056851E-01  0.46918030654E-01  0.12804348794E+00  0.20190180449E-01 0.  0.
         14    1    1    2    0    0  0.14187515530E-01 -0.17018856069E-01  0.71687338687E-02  0.23287717881E-01  0.00000000000E+00 0.  1.
     999901    1    3    3    0    0 -0.10336733672E+00  0.93393912920E-01 -0.54086764523E-01  0.89259879418E+00  0.88000000000E+00 0. -1.
        -11    1    4    4    0    0  0.35681640809E-01 -0.43742826934E-01  0.21116461918E-01  0.60272551662E-01  0.51100000000E-03 0. -1.
         11    1    4    4    0    0  0.53498180385E-01 -0.32632229917E-01  0.25801568736E-01  0.67770936279E-01  0.51100000000E-03 0.  1.
</event>
<event>
 8    1  0.1072332E+005  0.1043930E+01  0.7957747E-01            NaN
         13   -1    0    0    0    0  0.00000000000E+00  0.00000000000E+00  0.74505805969E-08  0.10566000000E+00  0.10566000000E+00 0.  1.
     999900   -1    0    0    0    0 -0.00000000000E+00 -0.00000000000E+00 -0.74505805969E-08  0.93827000000E+00  0.93827000000E+00 0.  1.
     999902    2    1    2    0    0 -0.42886696322E-02 -0.14007670099E-01 -0.17653654015E-01  0.10209896642E+01  0.10207319116E+01 0.  0.
     999903    2    3    3    0    0  0.46573906513E-01  0.85178743493E-01  0.81617738395E-01  0.12842047599E+00  0.20144883297E-01 0.  0.
         14    1    1    2    0    0  0.42886696322E-02  0.14007670099E-01  0.17653654015E-01  0.22940335850E-01  0.00000000000E+00 0.  1.
     999901    1    3    3    0    0 -0.50862576146E-01 -0.99186413591E-01 -0.99271392410E-01  0.89256918816E+00  0.88000000000E+00 0.  1.
        -11    1    4    4    0    0  0.36573162202E-01  0.79555780900E-01  0.73960293793E-01  0.11461720921E+00  0.51100000000E-03 0.  1.
         11    1    4    4    0    0  0.10000744311E-01  0.56229625923E-02  0.76574446022E-02  0.13803266785E-01  0.51100000000E-03 0. -1.
</event>
<event>
 8    1  0.1072332E+005  0.1043930E+01  0.7957747E-01            NaN
         13   -1    0    0    0    0  0.00000000000E+00  0.00000000000E+00  0.74505805969E-08  0.10566000000E+00  0.10566000000E+00 0.  1.
     999900   -1    0    0    0    0 -0.00000000000E+00 -0.00000000000E+00 -0.74505805969E-08  0.93827000000E+00  0.93827000000E+00 0. -1.
     999902    2    1    2    0    0  0.13137216758E-01  0.19307088055E-01  0.18083812544E-02  0.10205073538E+01  0.10202385205E+01 0.  0.
     999903    2    3    3    0    0 -0.48541606549E-01  0.11593840891E+00 -0.36245517876E-01  0.13225626954E+00  0.19493102311E-01 0.  0.
         14    1    1    2    0    0 -0.13137216758E-01 -0.19307088055E-01 -0.18083812544E-02  0.23422646223E-01  0.00000000000E+00 0.  1.
     999901    1    3    3    0    0  0.61678823307E-01 -0.96631320859E-01  0.38053899130E-01  0.88825108424E+00  0.88000000000E+00 0.  1.
        -11    1    4    4    0    0 -0.46628927461E-02  0.32189587595E-01 -0.68462636142E-02  0.33242210587E-01  0.51100000000E-03 0. -1.
         11    1    4    4    0    0 -0.43878713803E-01  0.83748821320E-01 -0.29399254261E-01  0.99014058949E-01  0.51100000000E-03 0.  1.
</event>
<event>
 8    1  0.1072332E+005  0.1043930E+01  0.7957747E-01            NaN
         13   -1    0    0    0    0  0.00000000000E+00  0.00000000000E+00  0.74505805969E-08  0.10566000000E+00  0.10566000000E+00 0.  1.
     999900   -1    0    0    0    0 -0.00000000000E+00 -0.00000000000E+00 -0.74505805969E-08  0.93827000000E+00  0.93827000000E+00 0. -1.
     999902    2    1    2    0    0 -0.72853849023E-02 -0.17443050566E-01 -0.14155370959E-01  0.10203140864E+01  0.10200407461E+01 0.  0.
     999903    2    3    3    0    0  0.12416162443E+00 -0.15605865792E-01  0.27450209100E-01  0.12957691095E+00  0.19416741333E-01 0.  0.
         14    1    1    2    0    0  0.72853849023E-02  0.17443050566E-01  0.14155370959E-01  0.23615913559E-01  0.00000000000E+00 0.  1.
     999901    1    3    3    0    0 -0.13144700933E+00 -0.18371847740E-02 -0.41605580059E-01  0.89073717549E+00  0.88000000000E+00 0.  1.
        -11    1    4    4    0    0  0.60605120719E-01 -0.68585650987E-02  0.34992627647E-02  0.61094406728E-01  0.51100000000E-03 0. -1.
         11    1    4    4    0    0  0.63556503710E-01 -0.87473006929E-02  0.23950946335E-01  0.68482504222E-01  0.51100000000E-03 0.  1.
</event>
<event>
 8    1  0.1072332E+005  0.1043930E+01  0.7957747E-01            NaN
         13   -1    0    0    0    0  0.00000000000E+00  0.00000000000E+00  0.74505805969E-08  0.10566000000E+00  0.10566000000E+00 0.  1.
     999900   -1    0    0    0    0 -0.00000000000E+00 -0.00000000000E+00 -0.74505805969E-08  0.93827000000E+00  0.93827000000E+00 0.  1.
     999902    2    1    2    0    0  0.11927662246E-01  0.97881604329E-02  0.17819289447E-01  0.10203587402E+01  0.10200864446E+01 0.  0.
     999903    2    3    3    0    0 -0.10268379118E+00  0.74272028083E-01  0.24378806262E-01  0.13056270645E+00  0.19798964515E-01 0.  0.
         14    1    1    2    0    0 -0.11927662246E-01 -0.97881604329E-02 -0.17819289447E-01  0.23571259782E-01  0.00000000000E+00 0. -1.
     999901    1    3    3    0    0  0.11461145342E+00 -0.64483867651E-01 -0.65595168145E-02  0.88979603376E+00  0.88000000000E+00 0. -1.
        -11    1    4    4    0    0 -0.24552625048E-01  0.21552911277E-01  0.14644478846E-01  0.35806162360E-01  0.51100000000E-03 0.  1.
         11    1    4    4    0    0 -0.78131166127E-01  0.52719116807E-01  0.97343274153E-02  0.94756544093E-01  0.51100000000E-03 0. -1.
</event>
<event>
 8    1  0.1072332E+005  0.1043930E+01  0.7957747E-01            NaN
         13   -1    0    0    0    0  0.00000000000E+00  0.00000000000E+00  0.74505805969E-08  0.10566000000E+00  0.10566000000E+00 0.  1.
     999900   -1    0    0    0    0 -0.00000000000E+00 -0.00000000000E+00 -0.74505805969E-08  0.93827000000E+00  0.93827000000E+00 0.  1.
     999902    2    1    2    0    0  0.14522265442E-01  0.40073605238E-02  0.20266414788E-01  0.10186776199E+01  0.10183645765E+01 0.  0.
     999903    2    3    3    0    0  0.12204383639E-02  0.37179066064E-01 -0.11992224033E+00  0.12686476977E+00  0.18153612819E-01 0.  0.
         14    1    1    2    0    0 -0.14522265442E-01 -0.40073605238E-02 -0.20266414788E-01  0.25252380092E-01  0.00000000000E+00 0. -1.
     999901    1    3    3    0    0  0.13301827078E-01 -0.33171705540E-01  0.14018865512E+00  0.89181285014E+00  0.88000000000E+00 0. -1.
        -11    1    4    4    0    0  0.92432590684E-02  0.13467468530E-01 -0.45832588516E-01  0.48658995447E-01  0.51100000000E-03 0.  1.
         11    1    4    4    0    0 -0.80228207045E-02  0.23711597534E-01 -0.74089651817E-01  0.78205774321E-01  0.51100000000E-03 0. -1.
</event>
<event>
 8    1  0.1072332E+005  0.1043930E+01  0.7957747E-01            NaN
         13   -1    0    0    0    0  0.00000000000E+00  0.00000000000E+00  0.74505805969E-08  0.10566000000E+00  0.10566000000E+00 0.  1.
     999900   -1    0    0    0    0 -0.00000000000E+00 -0.00000000000E+00 -0.74505805969E-08  0.93827000000E+00  0.93827000000E+00 0.  1.
     999902    2    1    2    0    0 -0.22139308383E-01  0.47290527218E-02 -0.63720448696E-02  0.10204115844E+01  0.10201405226E+01 0.  0.
     999903    2    3    3    0    0  0.31067339893E-01 -0.86752134793E-01 -0.89692099268E-01  0.13016331200E+00  0.20166869384E-01 0.  0.
         14    1    1    2    0    0  0.22139308383E-01 -0.47290527218E-02  0.63720448696E-02  0.23518415574E-01  0.00000000000E+00 0.  1.
     999901    1    3    3    0    0 -0.53206648275E-01  0.91481187515E-01  0.83320054399E-01  0.89024827242E+00  0.88000000000E+00 0. -1.
        -11    1    4    4    0    0  0.13799882926E-01 -0.64947240890E-01 -0.66039551663E-01  0.93648621841E-01  0.51100000000E-03 0. -1.
         11    1    4    4    0    0  0.17267456967E-01 -0.21804893904E-01 -0.23652547606E-01  0.36514690160E-01  0.51100000000E-03 0.  1.
</event>
<event>
 8    1  0.1072332E+005  0.1043930E+01  0.7957747E-01            NaN
         13   -1    0    0    0    0  0.00000000000E+00  0.00000000000E+00  0.74505805969E-08  0.10566000000E+00  0.10566000000E+00 0.  1.
     999900   -1    0    0    0    0 -0.00000000000E+00 -0.00000000000E+00 -0.74505805969E-08  0.93827000000E+00  0.93827000000E+00 0. -1.
     999902    2    1    2    0    0  0.19056287527E-01  0.17005579969E-01  0.34886763517E-02  0.10181520500E+01  0.10178256698E+01 0.  0.
     999903    2    3    3    0    0  0.63531485566E-01  0.25708161229E-01 -0.10849040644E+00  0.12989921822E+00  0.20161334090E-01 0.  0.
         14    1    1    2    0    0 -0.19056287527E-01 -0.17005579969E-01 -0.34886763517E-02  0.25777950017E-01  0.00000000000E+00 0.  1.
     999901    1    3    3    0    0 -0.44475198039E-01 -0.87025812608E-02  0.11197908279E+00  0.88825283177E+00  0.88000000000E+00 0. -1.
        -11    1    4    4    0    0  0.47149215873E-01  0.22132569992E-01 -0.95116424324E-01  0.10844489158E+00  0.51100000000E-03 0.  1.
         11    1    4    4    0    0  0.16382269693E-01  0.35755912377E-02 -0.13373982112E-01  0.21454326639E-01  0.51100000000E-03 0. -1.
</event>
<event>
 8    1  0.1072332E+005  0.1043930E+01  0.7957747E-01            NaN
         13   -1    0    0    0    0  0.00000000000E+00  0.00000000000E+00  0.74505805969E-08  0.10566000000E+00  0.10566000000E+00 0. -1.
     999900   -1    0    0    0    0 -0.00000000000E+00 -0.00000000000E+00 -0.74505805969E-08  0.93827000000E+00  0.93827000000E+00 0. -1.
     999902    2    1    2    0    0  0.21365431095E-01  0.17669456491E-02  0.67719563369E-02  0.10214474927E+01  0.10212000378E+01 0.  0.
     999903    2    3    3    0    0  0.95370659565E-01 -0.87136479384E-01 -0.25622186461E-01  0.13328648627E+00  0.20505175863E-01 0.  0.
         14    1    1    2    0    0 -0.21365431095E-01 -0.17669456491E-02 -0.67719563369E-02  0.22482507320E-01  0.00000000000E+00 0.  1.
     999901    1    3    3    0    0 -0.74005228470E-01  0.88903425033E-01  0.32394142798E-01  0.88816100641E+00  0.88000000000E+00 0.  1.
        -11    1    4    4    0    0  0.44183473312E-02 -0.11883247468E-01 -0.37215406271E-02  0.13222872198E-01  0.51100000000E-03 0. -1.
         11    1    4    4    0    0  0.90952312234E-01 -0.75253231916E-01 -0.21900645834E-01  0.12006361407E+00  0.51100000000E-03 0.  1.
</event>
<event>
 8    1  0.1072332E+005  0.1043930E+01  0.7957747E-01            NaN
         13   -1    0    0    0    0  0.00000000000E+00  0.00000000000E+00  0.74505805969E-08  0.10566000000E+00  0.10566000000E+00 0. -1.
     999900   -1    0    0    0    0 -0.00000000000E+00 -0.00000000000E+00 -0.74505805969E-08  0.93827000000E+00  0.93827000000E+00 0.  1.
     999902    2    1    2    0    0  0.86156759262E-02 -0.17753743074E-01 -0.70143632070E-02  0.10229865868E+01  0.10227721791E+01 0.  0.
     999903    2    3    3    0    0  0.10630285905E+00  0.41989208468E-01 -0.66430735304E-01  0.13358099245E+00  0.19168919659E-01 0.  0.
         14    1    1    2    0    0 -0.86156759262E-02  0.17753743074E-01  0.70143632070E-02  0.20943413189E-01  0.00000000000E+00 0.  1.
     999901    1    3    3    0    0 -0.97687183125E-01 -0.59742951541E-01  0.59416372097E-01  0.88940559436E+00  0.88000000000E+00 0. -1.
        -11    1    4    4    0    0  0.70091732178E-01  0.18732569812E-01 -0.46286537280E-01  0.86060820039E-01  0.51100000000E-03 0.  1.
         11    1    4    4    0    0  0.36211126874E-01  0.23256638656E-01 -0.20144198024E-01  0.47520172412E-01  0.51100000000E-03 0. -1.
</event>
<event>
 8    1  0.1072332E+005  0.1043930E+01  0.7957747E-01            NaN
         13   -1    0    0    0    0  0.00000000000E+00  0.00000000000E+00  0.74505805969E-08  0.10566000000E+00  0.10566000000E+00 0. -1.
     999900   -1    0    0    0    0 -0.00000000000E+00 -0.00000000000E+00 -0.74505805969E-08  0.93827000000E+00  0.93827000000E+00 0.  1.
     999902    2    1    2    0    0 -0.19032238301E-01 -0.35874448282E-02 -0.13859225578E-01  0.10201145851E+01  0.10198365519E+01 0.  0.
     999903    2    3    3    0    0  0.14381716147E-01 -0.11484584109E+00 -0.58916635389E-01  0.13133728266E+00  0.19542541159E-01 0.  0.
         14    1    1    2    0    0  0.19032238301E-01  0.35874448282E-02  0.13859225578E-01  0.23815414940E-01  0.00000000000E+00 0.  1.
     999901    1    3    3    0    0 -0.33413954448E-01  0.11125839626E+00  0.45057409811E-01  0.88877730240E+00  0.88000000000E+00 0. -1.
        -11    1    4    4    0    0  0.15080203820E-01 -0.57124194096E-01 -0.36257418506E-01  0.69321335937E-01  0.51100000000E-03 0.  1.
         11    1    4    4    0    0 -0.69848767310E-03 -0.57721646994E-01 -0.22659216883E-01  0.62015946719E-01  0.51100000000E-03 0. -1.
</event>
<event>
 8    1  0.1072332E+005  0.1043930E+01  0.7957747E-01            NaN
         13   -1    0    0    0    0  0.00000000000E+00  0.00000000000E+00  0.74505805969E-08  0.10566000000E+00  0.10566000000E+00 0.  1.
     999900   -1    0    0    0    0 -0.00000000000E+00 -0.00000000000E+00 -0.74505805969E-08  0.93827000000E+00  0.93827000000E+00 0. -1.
     999902    2    1    2    0    0 -0.60651352006E-02 -0.18642425716E-01  0.35989300774E-02  0.10239981612E+01  0.10238041589E+01 0.  0.
     999903    2    3    3    0    0  0.52957675266E-01  0.63626244541E-01 -0.10089415661E+00  0.13205049935E+00  0.20121858184E-01 0.  0.
         14    1    1    2    0    0  0.60651352006E-02  0.18642425716E-01 -0.35989300774E-02  0.19931838833E-01  0.00000000000E+00 0. -1.
     999901    1    3    3    0    0 -0.59022810467E-01 -0.82268670257E-01  0.10449308668E+00  0.89194766182E+00  0.88000000000E+00 0.  1.
        -11    1    4    4    0    0  0.30936448915E-01  0.39098244837E-01 -0.75316369162E-01  0.90324709828E-01  0.51100000000E-03 0.  1.
         11    1    4    4    0    0  0.22021226352E-01  0.24527999704E-01 -0.25577787443E-01  0.41725789519E-01  0.51100000000E-03 0. -1.
</event>
<event>
 8    1  0.1072332E+005  0.1043930E+01  0.7957747E-01            NaN
         13   -1    0    0    0    0  0.00000000000E+00  0.00000000000E+00  0.74505805969E-08  0.10566000000E+00  0.10566000000E+00 0.  1.
     999900   -1    0    0    0    0 -0.00000000000E+00 -0.00000000000E+00 -0.74505805969E-08  0.93827000000E+00  0.93827000000E+00 0. -1.
     999902    2    1    2    0    0 -0.10859630468E-01  0.21224269434E-01  0.84006328786E-03  0.10200740386E+01  0.10197950468E+01 0.  0.
     999903    2    3    3    0    0  0.10926792090E+00 -0.43463461824E-01 -0.47211718450E-01  0.12826458313E+00  0.19857136634E-01 0.  0.
         14    1    1    2    0    0  0.10859630468E-01 -0.21224269434E-01 -0.84006328786E-03  0.23855961378E-01  0.00000000000E+00 0.  1.
     999901    1    3    3    0    0 -0.12012755137E+00  0.64687731258E-01  0.48051781738E-01  0.89180945549E+00  0.88000000000E+00 0.  1.
        -11    1    4    4    0    0  0.77190816129E-01 -0.22253744547E-01 -0.26565724569E-01  0.84614715528E-01  0.51100000000E-03 0.  1.
         11    1    4    4    0    0  0.32077104773E-01 -0.21209717276E-01 -0.20645993881E-01  0.43649867604E-01  0.51100000000E-03 0. -1.
</event>
<event>
 8    1  0.1072332E+005  0.1043930E+01  0.7957747E-01            NaN
         13   -1    0    0    0    0  0.00000000000E+00  0.00000000000E+00  0.74505805969E-08  0.10566000000E+00  0.10566000000E+00 0.  1.
     999900   -1    0    0    0    0 -0.00000000000E+00 -0.00000000000E+00 -0.74505805969E-08  0.93827000000E+00  0.93827000000E+00 0. -1.
     999902    2    1    2    0    0  0.13683959884E-01 -0.93710650132E-02 -0.56458993306E-02  0.10264101884E+01  0.10262606546E+01 0.  0.
     999903    2    3    3    0    0 -0.15443885897E-01 -0.11426556924E+00 -0.71576248570E-01  0.13725435319E+00  0.20505223406E-01 0.  0.
         14    1    1    2    0    0 -0.13683959884E-01  0.93710650132E-02  0.56458993306E-02  0.17519811552E-01  0.00000000000E+00 0. -1.
     999901    1    3    3    0    0  0.29127845781E-01  0.10489450422E+00  0.65930349239E-01  0.88915583525E+00  0.88000000000E+00 0.  1.
        -11    1    4    4    0    0 -0.35122144146E-02 -0.24167558469E-01 -0.25662543929E-01  0.35429279055E-01  0.51100000000E-03 0.  1.
         11    1    4    4    0    0 -0.11931671483E-01 -0.90098010767E-01 -0.45913704641E-01  0.10182507414E+00  0.51100000000E-03 0. -1.
</event>
<event>
 8    1  0.1072332E+005  0.1043930E+01  0.7957747E-01            NaN
         13   -1    0    0    0    0  0.00000000000E+00  0.00000000000E+00  0.74505805969E-08  0.10566000000E+00  0.10566000000E+00 0. -1.
     999900   -1    0    0    0    0 -0.00000000000E+00 -0.00000000000E+00 -0.74505805969E-08  0.93827000000E+00  0.93827000000E+00 0. -1.
     999902    2    1    2    0    0  0.25022390710E-01 -0.41019392669E-02 -0.11339248380E-01  0.10161536702E+01  0.10157739694E+01 0.  0.
     999903    2    3    3    0    0 -0.96369819536E-01 -0.62312995378E-01  0.42785081009E-01  0.12427136924E+00  0.21041828458E-01 0.  0.
         14    1    1    2    0    0 -0.25022390710E-01  0.41019392669E-02  0.11339248380E-01  0.27776329787E-01  0.00000000000E+00 0. -1.
     999901    1    3    3    0    0  0.12139221025E+00  0.58211056111E-01 -0.54124329389E-01  0.89188230098E+00  0.88000000000E+00 0. -1.
        -11    1    4    4    0    0 -0.42386306303E-01 -0.27714991823E-01  0.30076457326E-01  0.58903091091E-01  0.51100000000E-03 0.  1.
         11    1    4    4    0    0 -0.53983513233E-01 -0.34598003555E-01  0.12708623683E-01  0.65368278147E-01  0.51100000000E-03 0. -1.
</event>
<event>
 8    1  0.1072332E+005  0.1043930E+01  0.7957747E-01            NaN
         13   -1    0    0    0    0  0.00000000000E+00  0.00000000000E+00  0.74505805969E-08  0.10566000000E+00  0.10566000000E+00 0.  1.
     999900   -1    0    0    0    0 -0.00000000000E+00 -0.00000000000E+00 -0.74505805969E-08  0.93827000000E+00  0.93827000000E+00 0. -1.
     999902    2    1    2    0    0 -0.10731680474E-01  0.20772223906E-01  0.22762867872E-02  0.10204388158E+01  0.10201683886E+01 0.  0.
     999903    2    3    3    0    0 -0.34741471620E-01 -0.11737808987E+00 -0.34134426092E-01  0.12859369516E+00  0.19661982575E-01 0.  0.
         14    1    1    2    0    0  0.10731680474E-01 -0.20772223906E-01 -0.22762867872E-02  0.23491184162E-01  0.00000000000E+00 0. -1.
     999901    1    3    3    0    0  0.24009791145E-01  0.13815031377E+00  0.36410712879E-01  0.89184512068E+00  0.88000000000E+00 0.  1.
        -11    1    4    4    0    0 -0.14804976199E-01 -0.36884713180E-01 -0.19907947799E-01  0.44455110990E-01  0.51100000000E-03 0.  1.
         11    1    4    4    0    0 -0.19936495420E-01 -0.80493376688E-01 -0.14226478293E-01  0.84138584168E-01  0.51100000000E-03 0. -1.
</event>
<event>
 8    1  0.1072332E+005  0.1043930E+01  0.7957747E-01            NaN
         13   -1    0    0    0    0  0.00000000000E+00  0.00000000000E+00  0.74505805969E-08  0.10566000000E+00  0.10566000000E+00 0. -1.
     999900   -1    0    0    0    0 -0.00000000000E+00 -0.00000000000E+00 -0.74505805969E-08  0.93827000000E+00  0.93827000000E+00 0.  1.
     999902    2    1    2    0    0  0.68985573323E-02 -0.21591910579E-01  0.50484600512E-02  0.10207074324E+01  0.10204432248E+01 0.  0.
     999903    2    3    3    0    0 -0.85190748805E-02 -0.40170246138E-01  0.12418865574E+00  0.13235094758E+00  0.20192270796E-01 0.  0.
         14    1    1    2    0    0 -0.68985573323E-02  0.21591910579E-01 -0.50484600512E-02  0.23222567571E-01  0.00000000000E+00 0.  1.
     999901    1    3    3    0    0  0.15417632213E-01  0.18578335559E-01 -0.11914019569E+00  0.88835648484E+00  0.88000000000E+00 0.  1.
        -11    1    4    4    0    0 -0.24394399248E-02 -0.57324739517E-02  0.46216639451E-02  0.77738679803E-02  0.51100000000E-03 0.  1.
         11    1    4    4    0    0 -0.60796349557E-02 -0.34437772186E-01  0.11956699180E+00  0.12457707960E+00  0.51100000000E-03 0. -1.
</event>
<event>
 8    1  0.1072332E+005  0.1043930E+01  0.7957747E-01            NaN
         13   -1    0    0    0    0  0.00000000000E+00  0.00000000000E+00  0.74505805969E-08  0.10566000000E+00  0.10566000000E+00 0.  1.
     999900   -1    0    0    0    0 -0.00000000000E+00 -0.00000000000E+00 -0.74505805969E-08  0.93827000000E+00  0.93827000000E+00 0. -1.
     999902    2    1    2    0    0  0.85734750345E-02 -0.21036854269E-01 -0.28338191898E-02  0.10210371137E+01  0.10207804384E+01 0.  0.
     999903    2    3    3    0    0  0.83897245578E-02 -0.10026399578E+00  0.84665670896E-01  0.13315585223E+00  0.20951105629E-01 0.  0.
         14    1    1    2    0    0 -0.85734750345E-02  0.21036854269E-01  0.28338191898E-02  0.22892886295E-01  0.00000000000E+00 0.  1.
     999901    1    3    3    0    0  0.18375047667E-03  0.79227141508E-01 -0.87499490086E-01  0.88788126148E+00  0.88000000000E+00 0. -1.
        -11    1    4    4    0    0  0.85843527417E-02 -0.98416346741E-01  0.85860729497E-01  0.13088848081E+00  0.51100000000E-03 0. -1.
         11    1    4    4    0    0 -0.19462818391E-03 -0.18476490368E-02 -0.11950586012E-02  0.22673714194E-02  0.51100000000E-03 0.  1.
</event>
<event>
 7    1  0.1072332E+005  0.1043930E+01  0.7957747E-01            NaN
         13   -1    0    0    0    0  0.00000000000E+00  0.00000000000E+00  0.74505805969E-08  0.10566000000E+00  0.10566000000E+00 0.  1.
     999900   -1    0    0    0    0 -0.00000000000E+00 -0.00000000000E+00 -0.74505805969E-08  0.93827000000E+00  0.93827000000E+00 0. -1.
     999902    2    1    2    0    0  0.19760392216E-02  0.13688250889E-01  0.19128297488E-01  0.10203256634E+01  0.10200525940E+01 0.  0.
         14    1    1    2    0    0 -0.19760392216E-02 -0.13688250889E-01 -0.19128297488E-01  0.23604336640E-01  0.00000000000E+00 0. -1.
     999901    1    3    3    0    0 -0.37617252662E-01 -0.56885761212E-01 -0.80191590202E-01  0.88627407649E+00  0.88000000000E+00 0.  1.
        -11    1    3    3    0    0  0.36489942348E-01  0.29912969454E-01  0.67334658632E-01  0.82222375350E-01  0.51100000000E-03 0.  1.
         11    1    3    3    0    0  0.31033495352E-02  0.40661042647E-01  0.31985229058E-01  0.51829211516E-01  0.51100000000E-03 0. -1.
</event>
<event>
 8    1  0.1072332E+005  0.1043930E+01  0.7957747E-01            NaN
         13   -1    0    0    0    0  0.00000000000E+00  0.00000000000E+00  0.74505805969E-08  0.10566000000E+00  0.10566000000E+00 0. -1.
     999900   -1    0    0    0    0 -0.00000000000E+00 -0.00000000000E+00 -0.74505805969E-08  0.93827000000E+00  0.93827000000E+00 0.  1.
     999902    2    1    2    0    0 -0.17747931125E-01  0.27585902226E-02 -0.13986596749E-01  0.10211654713E+01  0.10209116984E+01 0.  0.
     999903    2    3    3    0    0  0.66825079540E-01  0.10992929294E+00 -0.10506003372E-01  0.13063177277E+00  0.20105801367E-01 0.  0.
         14    1    1    2    0    0  0.17747931125E-01 -0.27585902226E-02  0.13986596749E-01  0.22764528720E-01  0.00000000000E+00 0. -1.
     999901    1    3    3    0    0 -0.84573010665E-01 -0.10717070272E+00 -0.34805933770E-02  0.89053369851E+00  0.88000000000E+00 0. -1.
        -11    1    4    4    0    0  0.12883594758E-01  0.88599916615E-02 -0.12296575550E-02  0.15692662134E-01  0.51100000000E-03 0. -1.
         11    1    4    4    0    0  0.53941484781E-01  0.10106930128E+00 -0.92763458165E-02  0.11493911064E+00  0.51100000000E-03 0.  1.
</event>
<event>
 8    1  0.1072332E+005  0.1043930E+01  0.7957747E-01            NaN
         13   -1    0    0    0    0  0.00000000000E+00  0.00000000000E+00  0.74505805969E-08  0.10566000000E+00  0.10566000000E+00 0.  1.
     999900   -1    0    0    0    0 -0.00000000000E+00 -0.00000000000E+00 -0.74505805969E-08  0.93827000000E+00  0.93827000000E+00 0.  1.
     999902    2    1    2    0    0 -0.95107256117E-02 -0.21713962484E-01 -0.46530770340E-02  0.10197721608E+01  0.10194859777E+01 0.  0.
     999903    2    3    3    0    0 -0.54473884325E-01 -0.49139154766E-01 -0.10835610578E+00  0.13211899375E+00  0.18229707793E-01 0.  0.
         14    1    1    2    0    0  0.95107256117E-02  0.21713962484E-01  0.46530770340E-02  0.24157839189E-01  0.00000000000E+00 0.  1.
     999901    1    3    3    0    0  0.44963158713E-01  0.27425192283E-01  0.10370302875E+00  0.88765316706E+00  0.88000000000E+00 0. -1.
        -11    1    4    4    0    0 -0.43354672768E-01 -0.41834678181E-01 -0.74993372139E-01  0.96197894650E-01  0.51100000000E-03 0. -1.
         11    1    4    4    0    0 -0.11119211556E-01 -0.73044765854E-02 -0.33362733642E-01  0.35921099105E-01  0.51100000000E-03 0.  1.
</event>
<event>
 8    1  0.1072332E+005  0.1043930E+01  0.7957747E-01            NaN
         13   -1    0    0    0    0  0.00000000000E+00  0.00000000000E+00  0.74505805969E-08  0.10566000000E+00  0.10566000000E+00 0.  1.
     999900   -1    0    0    0    0 -0.00000000000E+00 -0.00000000000E+00 -0.74505805969E-08  0.93827000000E+00  0.93827000000E+00 0.  1.
     999902    2    1    2    0    0 -0.23107221282E-01 -0.82806347129E-02 -0.42288660473E-02  0.10190222523E+01  0.10187177994E+01 0.  0.
     999903    2    3    3    0    0  0.75992974085E-01  0.20392475005E-01  0.97836397199E-01  0.12713643344E+00  0.20023160219E-01 0.  0.
         14    1    1    2    0    0  0.23107221282E-01  0.82806347129E-02  0.42288660473E-02  0.24907747684E-01  0.00000000000E+00 0. -1.
     999901    1    3    3    0    0 -0.99100195367E-01 -0.28673109717E-01 -0.10206526325E+00  0.89188581887E+00  0.88000000000E+00 0.  1.
        -11    1    4    4    0    0  0.42880417589E-01  0.14796915563E-01  0.41150629949E-01  0.61247974571E-01  0.51100000000E-03 0.  1.
         11    1    4    4    0    0  0.33112556496E-01  0.55955594418E-02  0.56685767249E-01  0.65888458874E-01  0.51100000000E-03 0. -1.
</event>
<event>
 8    1  0.1072332E+005  0.1043930E+01  0.7957747E-01            NaN
         13   -1    0    0    0    0  0.00000000000E+00  0.00000000000E+00  0.74505805969E-08  0.10566000000E+00  0.10566000000E+00 0. -1.
     999900   -1    0    0    0    0 -0.00000000000E+00 -0.00000000000E+00 -0.74505805969E-08  0.93827000000E+00  0.93827000000E+00 0. -1.
     999902    2    1    2    0    0  0.24003658444E-02  0.18837868041E-01 -0.14436322127E-01  0.10200755575E+01  0.10197966016E+01 0.  0.
     999903    2    3    3    0    0  0.38848576601E-01 -0.11440923216E+00 -0.39742271429E-01  0.12893939912E+00  0.21147959679E-01 0.  0.
         14    1    1    2    0    0 -0.24003658444E-02 -0.18837868041E-01  0.14436322127E-01  0.23854442460E-01  0.00000000000E+00 0. -1.
     999901    1    3    3    0    0 -0.36448210756E-01  0.13324710020E+00  0.25305949302E-01  0.89113615842E+00  0.88000000000E+00 0.  1.
        -11    1    4    4    0    0  0.31160630689E-01 -0.10255862593E+00 -0.40967447356E-01  0.11475125063E+00  0.51100000000E-03 0. -1.
         11    1    4    4    0    0  0.76879459119E-02 -0.11850606229E-01  0.12251759263E-02  0.14188148483E-01  0.51100000000E-03 0.  1.
</event>
<event>
 8    1  0.1072332E+005  0.1043930E+01  0.7957747E-01            NaN
         13   -1    0    0    0    0  0.00000000000E+00  0.00000000000E+00  0.74505805969E-08  0.10566000000E+00  0.10566000000E+00 0.  1.
     999900   -1    0    0    0    0 -0.00000000000E+00 -0.00000000000E+00 -0.74505805969E-08  0.93827000000E+00  0.93827000000E+00 0.  1.
     999902    2    1    2    0    0  0.62954816583E-02  0.16756184662E-01 -0.15719553454E-01  0.10201075909E+01  0.10198293925E+01 0.  0.
     999903    2    3    3    0    0 -0.11279638538E+00  0.51357742852E-01  0.33965211379E-01  0.13002404625E+00  0.19798351300E-01 0.  0.
         14    1    1    2    0    0 -0.62954816583E-02 -0.16756184662E-01  0.15719553454E-01  0.23822409084E-01  0.00000000000E+00 0.  1.
     999901    1    3    3    0    0  0.11909186704E+00 -0.34601558190E-01 -0.49684764833E-01  0.89008354466E+00  0.88000000000E+00 0. -1.
        -11    1    4    4    0    0 -0.80317426221E-01  0.37059856427E-01  0.33330797301E-01  0.94527906371E-01  0.51100000000E-03 0. -1.
         11    1    4    4    0    0 -0.32478959159E-01  0.14297886425E-01  0.63441407818E-03  0.35496139882E-01  0.51100000000E-03 0.  1.
</event>
<event>
 8    1  0.1072332E+005  0.1043930E+01  0.7957747E-01            NaN
         13   -1    0    0    0    0  0.00000000000E+00  0.00000000000E+00  0.74505805969E-08  0.10566000000E+00  0.10566000000E+00 0. -1.
     999900   -1    0    0    0    0 -0.00000000000E+00 -0.00000000000E+00 -0.74505805969E-08  0.93827000000E+00  0.93827000000E+00 0. -1.
     999902    2    1    2    0    0 -0.28854593959E-02 -0.14449958074E-01 -0.18461020968E-01  0.10203093214E+01  0.10200358694E+01 0.  0.
     999903    2    3    3    0    0 -0.11659394022E+00 -0.11020213995E-02  0.53789275446E-01  0.12995664328E+00  0.20002040764E-01 0.  0.
         14    1    1    2    0    0  0.28854593959E-02  0.14449958074E-01  0.18461020968E-01  0.23620678640E-01  0.00000000000E+00 0. -1.
     999901    1    3    3    0    0  0.11370848082E+00 -0.13347936674E-01 -0.72250296414E-01  0.89035267808E+00  0.88000000000E+00 0.  1.
        -11    1    4    4    0    0 -0.64894553123E-01 -0.39988391022E-02  0.40114427815E-01  0.76398443565E-01  0.51100000000E-03 0. -1.
         11    1    4    4    0    0 -0.51699387092E-01  0.28968177026E-02  0.13674847632E-01  0.53558199720E-01  0.51100000000E-03 0.  1.
</event>
<event>
 8    1  0.1072332E+005  0.1043930E+01  0.7957747E-01            NaN
         13   -1    0    0    0    0  0.00000000000E+00  0.00000000000E+00  0.74505805969E-08  0.10566000000E+00  0.10566000000E+00 0.  1.
     999900   -1    0    0    0    0 -0.00000000000E+00 -0.00000000000E+00 -0.74505805969E-08  0.93827000000E+00  0.93827000000E+00 0.  1.
     999902    2    1    2    0    0  0.78101737923E-02  0.17552328405E-01 -0.14067014671E-01  0.10201189952E+01  0.10198410663E+01 0.  0.
     999903    2    3    3    0    0  0.11982213668E+00  0.44226537681E-01  0.25269387219E-01  0.13174658131E+00  0.20131782882E-01 0.  0.
         14    1    1    2    0    0 -0.78101737923E-02 -0.17552328405E-01  0.14067014671E-01  0.23811004784E-01  0.00000000000E+00 0.  1.
     999901    1    3    3    0    0 -0.11201196289E+00 -0.26674209277E-01 -0.39336401890E-01  0.88837241390E+00  0.88000000000E+00 0.  1.
        -11    1    4    4    0    0  0.43491331214E-01  0.71429636046E-02  0.13320713720E-01  0.46045850571E-01  0.51100000000E-03 0.  1.
         11    1    4    4    0    0  0.76330805471E-01  0.37083574076E-01  0.11948673499E-01  0.85700730741E-01  0.51100000000E-03 0. -1.
</event>
<event>
 8    1  0.1072332E+005  0.1043930E+01  0.7957747E-01            NaN
         13   -1    0    0    0    0  0.00000000000E+00  0.00000000000E+00  0.74505805969E-08  0.10566000000E+00  0.10566000000E+00 0.  1.
     999900   -1    0    0    0    0 -0.00000000000E+00 -0.00000000000E+00 -0.74505805969E-08  0.93827000000E+00  0.93827000000E+00 0.  1.
     999902    2    1    2    0    0 -0.55904363100E-02  0.17866023357E-01 -0.14120338996E-01  0.10204815087E+01  0.10202120750E+01 0.  0.
     999903    2    3    3    0    0 -0.61706287348E-01 -0.79593938509E-01  0.77271416996E-01  0.12862956702E+00  0.20780584217E-01 0.  0.
         14    1    1    2    0    0  0.55904363100E-02 -0.17866023357E-01  0.14120338996E-01  0.23448491254E-01  0.00000000000E+00 0. -1.
     999901    1    3    3    0    0  0.56115851038E-01  0.97459961866E-01 -0.91391755992E-01  0.89185194173E+00  0.88000000000E+00 0.  1.
        -11    1    4    4    0    0 -0.53093207283E-01 -0.76384791805E-01  0.65918266573E-01  0.11401317497E+00  0.51100000000E-03 0. -1.
         11    1    4    4    0    0 -0.86130800649E-02 -0.32091467033E-02  0.11353150423E-01  0.14616392041E-01  0.51100000000E-03 0.  1.
</event>
<event>
 8    1  0.1072332E+005  0.1043930E+01  0.7957747E-01            NaN
         13   -1    0    0    0    0  0.00000000000E+00  0.00000000000E+00  0.74505805969E-08  0.10566000000E+00  0.10566000000E+00 0. -1.
     999900   -1    0    0    0    0 -0.00000000000E+00 -0.00000000000E+00 -0.74505805969E-08  0.93827000000E+00  0.93827000000E+00 0. -1.
     999902    2    1    2    0    0 -0.12495538173E-02  0.22382397930E-01 -0.58919694258E-02  0.10207513800E+01  0.10204881828E+01 0.  0.
     999903    2    3    3    0    0 -0.61692782393E-01 -0.43456402087E-01 -0.10506493644E+00  0.13068205187E+00  0.18566085530E-01 0.  0.
         14    1    1    2    0    0  0.12495538173E-02 -0.22382397930E-01  0.58919694258E-02  0.23178620009E-01  0.00000000000E+00 0. -1.
     999901    1    3    3    0    0  0.60443228575E-01  0.65838800016E-01  0.99172967011E-01  0.89006932812E+00  0.88000000000E+00 0.  1.
        -11    1    4    4    0    0 -0.21922842949E-01 -0.13875577401E-01 -0.22329072161E-01  0.34234358117E-01  0.51100000000E-03 0. -1.
         11    1    4    4    0    0 -0.39769939444E-01 -0.29580824686E-01 -0.82735864276E-01  0.96447693757E-01  0.51100000000E-03 0.  1.
</event>
<event>
 8    1  0.1072332E+005  0.1043930E+01  0.7957747E-01            NaN
         13   -1    0    0    0    0  0.00000000000E+00  0.00000000000E+00  0.74505805969E-08  0.10566000000E+00  0.10566000000E+00 0.  1.
     999900   -1    0    0    0    0 -0.00000000000E+00 -0.00000000000E+00 -0.74505805969E-08  0.93827000000E+00  0.93827000000E+00 0. -1.
     999902    2    1    2    0    0 -0.22021159167E-02 -0.95413990015E-02  0.21516680468E-01  0.10202898827E+01  0.10200159751E+01 0.  0.
     999903    2    3    3    0    0  0.11113738442E+00 -0.25225414842E-01 -0.57675301808E-01  0.12935599020E+00  0.20461964524E-01 0.  0.
         14    1    1    2    0    0  0.22021159167E-02  0.95413990015E-02 -0.21516680468E-01  0.23640117338E-01  0.00000000000E+00 0.  1.
     999901    1    3    3    0    0 -0.11333950033E+00  0.15684015841E-01  0.79191982276E-01  0.89093389247E+00  0.88000000000E+00 0.  1.
        -11    1    4    4    0    0  0.72107574256E-01 -0.21376111227E-01 -0.47066664343E-01  0.88724136567E-01  0.51100000000E-03 0.  1.
         11    1    4    4    0    0  0.39029810159E-01 -0.38493036159E-02 -0.10608637465E-01  0.40631853628E-01  0.51100000000E-03 0. -1.
</event>
<event>
 8    1  0.1072332E+005  0.1043930E+01  0.7957747E-01            NaN
         13   -1    0    0    0    0  0.00000000000E+00  0.00000000000E+00  0.74505805969E-08  0.10566000000E+00  0.10566000000E+00 0. -1.
     999900   -1    0    0    0    0 -0.00000000000E+00 -0.00000000000E+00 -0.74505805969E-08  0.93827000000E+00  0.93827000000E+00 0.  1.
     999902    2    1    2    0    0 -0.18595266938E-01 -0.36519019758E-02  0.14145891678E-01  0.10202820277E+01  0.10200079360E+01 0.  0.
     999903    2    3    3    0    0  0.85883238819E-01  0.42425562982E-01 -0.82147807097E-01  0.12769513149E+00  0.19542908949E-01 0.  0.
         14    1    1    2    0    0  0.18595266938E-01  0.36519019758E-02 -0.14145891678E-01  0.23647972258E-01  0.00000000000E+00 0.  1.
     999901    1    3    3    0    0 -0.10447850576E+00 -0.46077464958E-01  0.96293698775E-01  0.89258689625E+00  0.88000000000E+00 0. -1.
        -11    1    4    4    0    0  0.53111058070E-01  0.18640311666E-01 -0.38755367143E-01  0.68340949011E-01  0.51100000000E-03 0.  1.
         11    1    4    4    0    0  0.32772180749E-01  0.23785251316E-01 -0.43392439954E-01  0.59354182476E-01  0.51100000000E-03 0. -1.
</event>
<event>
 8    1  0.1072332E+005  0.1043930E+01  0.7957747E-01            NaN
         13   -1    0    0    0    0  0.00000000000E+00  0.00000000000E+00  0.74505805969E-08  0.10566000000E+00  0.10566000000E+00 0.  1.
     999900   -1    0    0    0    0 -0.00000000000E+00 -0.00000000000E+00 -0.74505805969E-08  0.93827000000E+00  0.93827000000E+00 0.  1.
     999902    2    1    2    0    0 -0.10910102306E-01 -0.18214416652E-01  0.66195586410E-02  0.10216900840E+01  0.10214479986E+01 0.  0.
     999903    2    3    3    0    0 -0.10524671745E+00 -0.33526786526E-02  0.79492098381E-01  0.13352868244E+00  0.20562182290E-01 0.  0.
         14    1    1    2    0    0  0.10910102306E-01  0.18214416652E-01 -0.66195586410E-02  0.22239915983E-01  0.00000000000E+00 0.  1.
     999901    1    3    3    0    0  0.94336615140E-01 -0.14861738000E-01 -0.72872539740E-01  0.88816140158E+00  0.88000000000E+00 0.  1.
        -11    1    4    4    0    0 -0.84555642930E-01  0.27497360300E-02  0.70600242207E-01  0.11019016798E+00  0.51100000000E-03 0. -1.
         11    1    4    4    0    0 -0.20691074516E-01 -0.61024146826E-02  0.88918561736E-02  0.23338514451E-01  0.51100000000E-03 0.  1.
</event>
<event>
 8    1  0.1072332E+005  0.1043930E+01  0.7957747E-01            NaN
         13   -1    0    0    0    0  0.00000000000E+00  0.00000000000E+00  0.74505805969E-08  0.10566000000E+00  0.10566000000E+00 0.  1.
     999900   -1    0    0    0    0 -0.00000000000E+00 -0.00000000000E+00 -0.74505805969E-08  0.93827000000E+00  0.93827000000E+00 0. -1.
     999902    2    1    2    0    0 -0.13400010808E-02  0.75160521126E-02  0.20038772812E-01  0.10224861417E+01  0.10222612538E+01 0.  0.
     999903    2    3    3    0    0 -0.82211523320E-01  0.10281731277E+00  0.11292137311E-01  0.13361098905E+00  0.19855721084E-01 0.  0.
         14    1    1    2    0    0  0.13400010808E-02 -0.75160521126E-02 -0.20038772812E-01  0.21443858283E-01  0.00000000000E+00 0. -1.
     999901    1    3    3    0    0  0.80871522239E-01 -0.95301260653E-01  0.87466355013E-02  0.88887515266E+00  0.88000000000E+00 0.  1.
        -11    1    4    4    0    0 -0.15914825251E-01  0.30047241253E-01  0.88478669229E-02  0.35137789341E-01  0.51100000000E-03 0.  1.
         11    1    4    4    0    0 -0.66296698069E-01  0.72770071512E-01  0.24442703880E-02  0.98473199711E-01  0.51100000000E-03 0. -1.
</event>
<event>
 8    1  0.1072332E+005  0.1043930E+01  0.7957747E-01            NaN
         13   -1    0    0    0    0  0.00000000000E+00  0.00000000000E+00  0.74505805969E-08  0.10566000000E+00  0.10566000000E+00 0. -1.
     999900   -1    0    0    0    0 -0.00000000000E+00 -0.00000000000E+00 -0.74505805969E-08  0.93827000000E+00  0.93827000000E+00 0. -1.
     999902    2    1    2    0    0 -0.10554441094E-01  0.99622549607E-02 -0.19352617952E-01  0.10197397835E+01  0.10194528236E+01 0.  0.
     999903    2    3    3    0    0 -0.23911345593E-01  0.12776746169E+00  0.56935678160E-02  0.13143590251E+00  0.18619963454E-01 0.  0.
         14    1    1    2    0    0  0.10554441094E-01 -0.99622549607E-02  0.19352617952E-01  0.24190216458E-01  0.00000000000E+00 0.  1.
     999901    1    3    3    0    0  0.13356904499E-01 -0.11780520673E+00 -0.25046185768E-01  0.88830388103E+00  0.88000000000E+00 0.  1.
        -11    1    4    4    0    0 -0.16851937030E-01  0.60631064184E-01 -0.48106423451E-02  0.63115110128E-01  0.51100000000E-03 0.  1.
         11    1    4    4    0    0 -0.70594085623E-02  0.67136397510E-01  0.10504210161E-01  0.68320792384E-01  0.51100000000E-03 0. -1.
</event>
<event>
 8    1  0.1072332E+005  0.1043930E+01  0.7957747E-01            NaN
         13   -1    0    0    0    0  0.00000000000E+00  0.00000000000E+00  0.74505805969E-08  0.10566000000E+00  0.10566000000E+00 0. -1.
     999900   -1    0    0    0    0 -0.00000000000E+00 -0.00000000000E+00 -0.74505805969E-08  0.93827000000E+00  0.93827000000E+00 0.  1.
     999902    2    1    2    0    0 -0.24410055727E-01 -0.28496145356E-02  0.82197256583E-03  0.10193404339E+01  0.10190438035E+01 0.  0.
     999903    2    3    3    0    0  0.34624191048E-01  0.11229824078E+00 -0.48228614541E-01  0.12852618220E+00  0.19576791472E-01 0.  0.
         14    1    1    2    0    0  0.24410055727E-01  0.28496145356E-02 -0.82197256583E-03  0.24589566130E-01  0.00000000000E+00 0.  1.
     999901    1    3    3    0    0 -0.59034246775E-01 -0.11514785531E+00  0.49050587107E-01  0.89081425167E+00  0.88000000000E+00 0. -1.
        -11    1    4    4    0    0  0.10727397282E-01  0.56073386163E-01 -0.31393180679E-01  0.65154390507E-01  0.51100000000E-03 0. -1.
         11    1    4    4    0    0  0.23896793766E-01  0.56224854613E-01 -0.16835433862E-01  0.63371791697E-01  0.51100000000E-03 0.  1.
</event>
<event>
 8    1  0.1072332E+005  0.1043930E+01  0.7957747E-01            NaN
         13   -1    0    0    0    0  0.00000000000E+00  0.00000000000E+00  0.74505805969E-08  0.10566000000E+00  0.10566000000E+00 0. -1.
     999900   -1    0    0    0    0 -0.00000000000E+00 -0.00000000000E+00 -0.74505805969E-08  0.93827000000E+00  0.93827000000E+00 0.  1.
     999902    2    1    2    0    0  0.99972271792E-02  0.17191995055E-01  0.12989549910E-01  0.10201763129E+01  0.10198997361E+01 0.  0.
     999903    2    3    3    0    0 -0.58556454493E-01 -0.13186574995E-01 -0.10971040784E+00  0.12850499203E+00  0.29570513427E-01 0.  0.
         14    1    1    2    0    0 -0.99972271792E-02 -0.17191995055E-01 -0.12989549910E-01  0.23753687126E-01  0.00000000000E+00 0.  1.
     999901    1    3    3    0    0  0.68553681672E-01  0.30378570049E-01  0.12269995775E+00  0.89167132085E+00  0.88000000000E+00 0. -1.
        -11    1    4    4    0    0 -0.44612253060E-01  0.39382846016E-02 -0.71555689372E-01  0.84417065877E-01  0.51100000000E-03 0. -1.
         11    1    4    4    0    0 -0.13944201432E-01 -0.17124859596E-01 -0.38154718469E-01  0.44087926150E-01  0.51100000000E-03 0.  1.
</event>
<event>
 8    1  0.1072332E+005  0.1043930E+01  0.7957747E-01            NaN
         13   -1    0    0    0    0  0.00000000000E+00  0.00000000000E+00  0.74505805969E-08  0.10566000000E+00  0.10566000000E+00 0.  1.
     999900   -1    0    0    0    0 -0.00000000000E+00 -0.00000000000E+00 -0.74505805969E-08  0.93827000000E+00  0.93827000000E+00 0. -1.
     999902    2    1    2    0    0 -0.75209675269E-02 -0.19537706017E-01  0.12071930065E-01  0.10197635273E+01  0.10194771371E+01 0.  0.
     999903    2    3    3    0    0  0.14872567504E-01 -0.70314553359E-01  0.10942712115E+00  0.13265711208E+00  0.21407588888E-01 0.  0.
         14    1    1    2    0    0  0.75209675269E-02  0.19537706017E-01 -0.12071930065E-01  0.24166472735E-01  0.00000000000E+00 0. -1.
     999901    1    3    3    0    0 -0.22393535031E-01  0.50776847343E-01 -0.97355191090E-01  0.88710641519E+00  0.88000000000E+00 0. -1.
        -11    1    4    4    0    0  0.36066397737E-02 -0.54941998396E-01  0.71875237832E-01  0.90542487113E-01  0.51100000000E-03 0. -1.
         11    1    4    4    0    0  0.11265927731E-01 -0.15372554963E-01  0.37551883323E-01  0.42114624964E-01  0.51100000000E-03 0.  1.
</event>
<event>
 8    1  0.1072332E+005  0.1043930E+01  0.7957747E-01            NaN
         13   -1    0    0    0    0  0.00000000000E+00  0.00000000000E+00  0.74505805969E-08  0.10566000000E+00  0.10566000000E+00 0. -1.
     999900   -1    0    0    0    0 -0.00000000000E+00 -0.00000000000E+00 -0.74505805969E-08  0.93827000000E+00  0.93827000000E+00 0. -1.
     999902    2    1    2    0    0 -0.72699622807E-02 -0.82381462044E-02 -0.19792973128E-01  0.10212919526E+01  0.10210410233E+01 0.  0.
     999903    2    3    3    0    0  0.12213287184E+00  0.30452647140E-02 -0.44202963671E-01  0.13142215512E+00  0.19803253230E-01 0.  0.
         14    1    1    2    0    0  0.72699622807E-02  0.82381462044E-02  0.19792973128E-01  0.22638047391E-01  0.00000000000E+00 0. -1.
     999901    1    3    3    0    0 -0.12940283412E+00 -0.11283410918E-01  0.24409990543E-01  0.88986979749E+00  0.88000000000E+00 0.  1.
        -11    1    4    4    0    0  0.95062200690E-01  0.90109402289E-02 -0.28966870010E-01  0.99786570855E-01  0.51100000000E-03 0. -1.
         11    1    4    4    0    0  0.27070671151E-01 -0.59656755149E-02 -0.15236093661E-01  0.31635584268E-01  0.51100000000E-03 0.  1.
</event>
<event>
 8    1  0.1072332E+005  0.1043930E+01  0.7957747E-01            NaN
         13   -1    0    0    0    0  0.00000000000E+00  0.00000000000E+00  0.74505805969E-08  0.10566000000E+00  0.10566000000E+00 0.  1.
     999900   -1    0    0    0    0 -0.00000000000E+00 -0.00000000000E+00 -0.74505805969E-08  0.93827000000E+00  0.93827000000E+00 0. -1.
     999902    2    1    2    0    0  0.20361809093E-01 -0.10982233542E-01 -0.45254991329E-02  0.10203568614E+01  0.10200845218E+01 0.  0.
     999903    2    3    3    0    0  0.12165892395E-01 -0.13014337538E+00  0.49792977272E-02  0.13223699786E+00  0.19404203252E-01 0.  0.
         14    1    1    2    0    0 -0.20361809093E-01  0.10982233542E-01  0.45254991329E-02  0.23573138643E-01  0.00000000000E+00 0.  1.
     999901    1    3    3    0    0  0.81959166976E-02  0.11916114184E+00 -0.95047968601E-02  0.88811986350E+00  0.88000000000E+00 0.  1.
        -11    1    4    4    0    0  0.95805857882E-02 -0.11596884899E+00  0.10412100799E-01  0.11682993848E+00  0.51100000000E-03 0. -1.
         11    1    4    4    0    0  0.25853066069E-02 -0.14174526387E-01 -0.54328030714E-02  0.15407059380E-01  0.51100000000E-03 0.  1.
</event>
<event>
 8    1  0.1072332E+005  0.1043930E+01  0.7957747E-01            NaN
         13   -1    0    0    0    0  0.00000000000E+00  0.00000000000E+00  0.74505805969E-08  0.10566000000E+00  0.10566000000E+00 0.  1.
     999900   -1    0    0    0    0 -0.00000000000E+00 -0.00000000000E+00 -0.74505805969E-08  0.93827000000E+00  0.93827000000E+00 0. -1.
     999902    2    1    2    0    0 -0.13789510846E-01  0.58552383419E-02 -0.17654452103E-01  0.10207758620E+01  0.10205132270E+01 0.  0.
     999903    2    3    3    0    0  0.32365324166E-01  0.88071310905E-01  0.87102553774E-01  0.12956108341E+00  0.19878366294E-01 0.  0.
         14    1    1    2    0    0  0.13789510846E-01 -0.58552383419E-02  0.17654452103E-01  0.23154137956E-01  0.00000000000E+00 0.  1.
     999901    1    3    3    0    0 -0.46154835012E-01 -0.82216072563E-01 -0.10475700588E+00  0.89121477864E+00  0.88000000000E+00 0. -1.
        -11    1    4    4    0    0 -0.47158066446E-03  0.15413879314E-01  0.20571982348E-01  0.25715319219E-01  0.51100000000E-03 0.  1.
         11    1    4    4    0    0  0.32836904831E-01  0.72657431591E-01  0.66530571426E-01  0.10384576419E+00  0.51100000000E-03 0. -1.
</event>
<event>
 8    1  0.1072332E+005  0.1043930E+01  0.7957747E-01            NaN
         13   -1    0    0    0    0  0.00000000000E+00  0.00000000000E+00  0.74505805969E-08  0.10566000000E+00  0.10566000000E+00 0. -1.
     999900   -1    0    0    0    0 -0.00000000000E+00 -0.00000000000E+00 -0.74505805969E-08  0.93827000000E+00  0.93827000000E+00 0.  1.
     999902    2    1    2    0    0 -0.11737232768E-01 -0.17729328247E-01 -0.10980070988E-01  0.10199998167E+01  0.10197190654E+01 0.  0.
     999903    2    3    3    0    0 -0.95149279495E-01  0.83674443258E-01 -0.22202582087E-01  0.13018734256E+00  0.20024776342E-01 0.  0.
         14    1    1    2    0    0  0.11737232768E-01  0.17729328247E-01  0.10980070988E-01  0.23930183285E-01  0.00000000000E+00 0. -1.
     999901    1    3    3    0    0  0.83412046727E-01 -0.10140377150E+00  0.11222511099E-01  0.88981247416E+00  0.88000000000E+00 0.  1.
        -11    1    4    4    0    0 -0.23489733663E-01  0.13514566509E-01  0.14638652456E-02  0.27144338599E-01  0.51100000000E-03 0. -1.
         11    1    4    4    0    0 -0.71659545832E-01  0.70159876749E-01 -0.23666447333E-01  0.10304300396E+00  0.51100000000E-03 0.  1.
</event>
<event>
 8    1  0.1072332E+005  0.1043930E+01  0.7957747E-01            NaN
         13   -1    0    0    0    0  0.00000000000E+00  0.00000000000E+00  0.74505805969E-08  0.10566000000E+00  0.10566000000E+00 0.  1.
     999900   -1    0    0    0    0 -0.00000000000E+00 -0.00000000000E+00 -0.74505805969E-08  0.93827000000E+00  0.93827000000E+00 0.  1.
     999902    2    1    2    0    0  0.14228194088E-01 -0.17785370956E-01  0.63539409637E-02  0.10202839963E+01  0.10200099507E+01 0.  0.
     999903    2    3    3    0    0  0.11295925535E-01  0.12088240929E+00  0.39142991467E-01  0.12881752280E+00  0.17933922831E-01 0.  0.
         14    1    1    2    0    0 -0.14228194088E-01  0.17785370956E-01 -0.63539409637E-02  0.23646003739E-01  0.00000000000E+00 0.  1.
     999901    1    3    3    0    0  0.29322685532E-02 -0.13866778025E+00 -0.32789050504E-01  0.89146647346E+00  0.88000000000E+00 0. -1.
        -11    1    4    4    0    0  0.87746376134E-02  0.88137205939E-01  0.36713429181E-01  0.95881689281E-01  0.51100000000E-03 0. -1.
         11    1    4    4    0    0  0.25212879216E-02  0.32745203354E-01  0.24295622864E-02  0.32935833516E-01  0.51100000000E-03 0.  1.
</event>
<event>
 8    1  0.1072332E+005  0.1043930E+01  0.7957747E-01            NaN
         13   -1    0    0    0    0  0.00000000000E+00  0.00000000000E+00  0.74505805969E-08  0.10566000000E+00  0.10566000000E+00 0. -1.
     999900   -1    0    0    0    0 -0.00000000000E+00 -0.00000000000E+00 -0.74505805969E-08  0.93827000000E+00  0.93827000000E+00 0. -1.
     999902    2    1    2    0    0 -0.11045835015E-01 -0.20604134418E-01 -0.42019085804E-02  0.10201771715E+01  0.10199006150E+01 0.  0.
     999903    2    3    3    0    0  0.57466076249E-01 -0.11274908323E+00 -0.33147899141E-01  0.13224561786E+00  0.19375617059E-01 0.  0.
         14    1    1    2    0    0  0.11045835015E-01  0.20604134418E-01  0.42019085804E-02  0.23752828506E-01  0.00000000000E+00 0. -1.
     999901    1    3    3    0    0 -0.68511911264E-01  0.92144948810E-01  0.28945990561E-01  0.88793155364E+00  0.88000000000E+00 0.  1.
        -11    1    4    4    0    0  0.24149205045E-01 -0.64326760990E-01 -0.23860461026E-01  0.72737191348E-01  0.51100000000E-03 0. -1.
         11    1    4    4    0    0  0.33316871204E-01 -0.48422322238E-01 -0.92874381149E-02  0.59508426509E-01  0.51100000000E-03 0.  1.
</event>
<event>
 8    1  0.1072332E+005  0.1043930E+01  0.7957747E-01            NaN
         13   -1    0    0    0    0  0.00000000000E+00  0.00000000000E+00  0.74505805969E-08  0.10566000000E+00  0.10566000000E+00 0. -1.
     999900   -1    0    0    0    0 -0.00000000000E+00 -0.00000000000E+00 -0.74505805969E-08  0.93827000000E+00  0.93827000000E+00 0.  1.
     999902    2    1    2    0    0  0.91540988106E-02 -0.23258516251E-01 -0.14758528240E-02  0.10188913450E+01  0.10185836434E+01 0.  0.
     999903    2    3    3    0    0 -0.12604249010E+00 -0.12752351193E-01  0.72790737319E-02  0.12846159150E+00  0.20001595083E-01 0.  0.
         14    1    1    2    0    0 -0.91540988106E-02  0.23258516251E-01  0.14758528240E-02  0.25038655011E-01  0.00000000000E+00 0.  1.
     999901    1    3    3    0    0  0.13519658891E+00 -0.10506165058E-01 -0.87549265559E-02  0.89042975349E+00  0.88000000000E+00 0.  1.
        -11    1    4    4    0    0 -0.75903818039E-01 -0.16610120197E-01  0.84403396504E-02  0.78158724019E-01  0.51100000000E-03 0. -1.
         11    1    4    4    0    0 -0.50138672058E-01  0.38577690040E-02 -0.11612659185E-02  0.50302867482E-01  0.51100000000E-03 0.  1.
</event>
<event>
 8    1  0.1072332E+005  0.1043930E+01  0.7957747E-01            NaN
         13   -1    0    0    0    0  0.00000000000E+00  0.00000000000E+00  0.74505805969E-08  0.10566000000E+00  0.10566000000E+00 0.  1.
     999900   -1    0    0    0    0 -0.00000000000E+00 -0.00000000000E+00 -0.74505805969E-08  0.93827000000E+00  0.93827000000E+00 0. -1.
     999902    2    1    2    0    0 -0.11559423524E-01  0.16681426550E-01  0.10265553203E-01  0.10211863889E+01  0.10209330874E+01 0.  0.
     999903    2    3    3    0    0 -0.34736293251E-01 -0.63585759394E-01  0.10833808508E+00  0.13180558746E+00  0.19642131773E-01 0.  0.
         14    1    1    2    0    0  0.11559423524E-01 -0.16681426550E-01 -0.10265553203E-01  0.22743611114E-01  0.00000000000E+00 0. -1.
     999901    1    3    3    0    0  0.23176869727E-01  0.80267185944E-01 -0.98072531880E-01  0.88938080142E+00  0.88000000000E+00 0. -1.
        -11    1    4    4    0    0 -0.19316810424E-01 -0.52826226488E-01  0.82186189758E-01  0.99592069353E-01  0.51100000000E-03 0. -1.
         11    1    4    4    0    0 -0.15419482827E-01 -0.10759532906E-01  0.26151895324E-01  0.32213518111E-01  0.51100000000E-03 0.  1.
</event>
<event>
 8    1  0.1072332E+005  0.1043930E+01  0.7957747E-01            NaN
         13   -1    0    0    0    0  0.00000000000E+00  0.00000000000E+00  0.74505805969E-08  0.10566000000E+00  0.10566000000E+00 0. -1.
     999900   -1    0    0    0    0 -0.00000000000E+00 -0.00000000000E+00 -0.74505805969E-08  0.93827000000E+00  0.93827000000E+00 0.  1.
     999902    2    1    2    0    0 -0.28531856906E-02  0.21832677746E-01  0.83416999234E-02  0.10203845027E+01  0.10201128089E+01 0.  0.
     999903    2    3    3    0    0  0.70787469799E-01 -0.10417975310E-01  0.10804316618E+00  0.13111320936E+00  0.19948629507E-01 0.  0.
         14    1    1    2    0    0  0.28531856906E-02 -0.21832677746E-01 -0.83416999234E-02  0.23545497314E-01  0.00000000000E+00 0.  1.
     999901    1    3    3    0    0 -0.73640655489E-01  0.32250653057E-01 -0.99701466259E-01  0.88927129333E+00  0.88000000000E+00 0.  1.
        -11    1    4    4    0    0  0.61483990684E-01 -0.15635294012E-01  0.95314646022E-01  0.11449841220E+00  0.51100000000E-03 0. -1.
         11    1    4    4    0    0  0.93034791153E-02  0.52173187016E-02  0.12728520161E-01  0.16614797157E-01  0.51100000000E-03 0.  1.
</event>
<event>
 8    1  0.1072332E+005  0.1043930E+01  0.7957747E-01            NaN
         13   -1    0    0    0    0  0.00000000000E+00  0.00000000000E+00  0.74505805969E-08  0.10566000000E+00  0.10566000000E+00 0.  1.
     999900   -1    0    0    0    0 -0.00000000000E+00 -0.00000000000E+00 -0.74505805969E-08  0.93827000000E+00  0.93827000000E+00 0. -1.
     999902    2    1    2    0    0  0.22913556153E-01  0.89634836847E-04 -0.37595085029E-02  0.10207099011E+01  0.10204457502E+01 0.  0.
     999903    2    3    3    0    0  0.80983145261E-01  0.64790442873E-01 -0.80789870540E-01  0.13307712317E+00  0.20650574426E-01 0.  0.
         14    1    1    2    0    0 -0.22913556153E-01 -0.89634836847E-04  0.37595085029E-02  0.23220098927E-01  0.00000000000E+00 0.  1.
     999901    1    3    3    0    0 -0.58069589108E-01 -0.64700808036E-01  0.77030362038E-01  0.88763277791E+00  0.88000000000E+00 0.  1.
        -11    1    4    4    0    0  0.44648731899E-01  0.26823294710E-01 -0.49809252051E-01  0.72070944979E-01  0.51100000000E-03 0.  1.
         11    1    4    4    0    0  0.36334413363E-01  0.37967148163E-01 -0.30980618490E-01  0.61006178187E-01  0.51100000000E-03 0. -1.
</event>
<event>
 7    1  0.1072332E+005  0.1043930E+01  0.7957747E-01            NaN
         13   -1    0    0    0    0  0.00000000000E+00  0.00000000000E+00  0.74505805969E-08  0.10566000000E+00  0.10566000000E+00 0.  1.
     999900   -1    0    0    0    0 -0.00000000000E+00 -0.00000000000E+00 -0.74505805969E-08  0.93827000000E+00  0.93827000000E+00 0. -1.
     999903    2    1    2    0    0 -0.50727419587E-01  0.27330463879E-01  0.10998542815E-01  0.62054737027E-01  0.20238505121E-01 0.  0.
         14    1    1    2    0    0 -0.45466734039E-01  0.28620541172E-01 -0.75343085664E-01  0.92536154223E-01  0.00000000000E+00 0. -1.
     999901    1    1    2    0    0  0.96194153626E-01 -0.55951005051E-01  0.64344542848E-01  0.88933910875E+00  0.88000000000E+00 0.  1.
        -11    1    3    3    0    0 -0.14679770021E-01 -0.88058269404E-03 -0.94409787665E-03  0.14745287910E-01  0.51100000000E-03 0. -1.
         11    1    3    3    0    0 -0.36047649566E-01  0.28211046573E-01  0.11942640692E-01  0.47309449117E-01  0.51100000000E-03 0.  1.
</event>
<event>
 8    1  0.1072332E+005  0.1043930E+01  0.7957747E-01            NaN
         13   -1    0    0    0    0  0.00000000000E+00  0.00000000000E+00  0.74505805969E-08  0.10566000000E+00  0.10566000000E+00 0. -1.
     999900   -1    0    0    0    0 -0.00000000000E+00 -0.00000000000E+00 -0.74505805969E-08  0.93827000000E+00  0.93827000000E+00 0. -1.
     999902    2    1    2    0    0  0.10633224697E-01  0.12294857745E-01 -0.17746825383E-01  0.10198638660E+01  0.10195798774E+01 0.  0.
     999903    2    3    3    0    0  0.17497418207E-01 -0.48155276256E-01  0.11524064653E+00  0.12779492049E+00  0.20640853062E-01 0.  0.
         14    1    1    2    0    0 -0.10633224697E-01 -0.12294857745E-01  0.17746825383E-01  0.24066133998E-01  0.00000000000E+00 0. -1.
     999901    1    3    3    0    0 -0.68641935097E-02  0.60450134001E-01 -0.13298747192E+00  0.89206894551E+00  0.88000000000E+00 0. -1.
        -11    1    4    4    0    0  0.17180285738E-01 -0.18233776715E-01  0.46494074037E-01  0.52816596566E-01  0.51100000000E-03 0.  1.
         11    1    4    4    0    0  0.31713246930E-03 -0.29921499541E-01  0.68746572498E-01  0.74978323927E-01  0.51100000000E-03 0. -1.
</event>
<event>
 8    1  0.1072332E+005  0.1043930E+01  0.7957747E-01            NaN
         13   -1    0    0    0    0  0.00000000000E+00  0.00000000000E+00  0.74505805969E-08  0.10566000000E+00  0.10566000000E+00 0.  1.
     999900   -1    0    0    0    0 -0.00000000000E+00 -0.00000000000E+00 -0.74505805969E-08  0.93827000000E+00  0.93827000000E+00 0.  1.
     999902    2    1    2    0    0 -0.13557566901E-01  0.23028542905E-01 -0.69871681492E-02  0.10163085966E+01  0.10159331777E+01 0.  0.
     999903    2    3    3    0    0  0.17572420917E-01  0.11183889061E+00 -0.60174262319E-01  0.12969412512E+00  0.19567749365E-01 0.  0.
         14    1    1    2    0    0  0.13557566901E-01 -0.23028542905E-01  0.69871681492E-02  0.27621403429E-01  0.00000000000E+00 0. -1.
     999901    1    3    3    0    0 -0.31129987818E-01 -0.88810347705E-01  0.53187094170E-01  0.88661447145E+00  0.88000000000E+00 0.  1.
        -11    1    4    4    0    0  0.15205026911E-01  0.94643558481E-01 -0.58379757153E-01  0.11223659462E+00  0.51100000000E-03 0. -1.
         11    1    4    4    0    0  0.23673940054E-02  0.17195332129E-01 -0.17945051654E-02  0.17457530501E-01  0.51100000000E-03 0.  1.
</event>
<event>
 7    1  0.1072332E+005  0.1043930E+01  0.7957747E-01            NaN
         13   -1    0    0    0    0  0.00000000000E+00  0.00000000000E+00  0.74505805969E-08  0.10566000000E+00  0.10566000000E+00 0. -1.
     999900   -1    0    0    0    0 -0.00000000000E+00 -0.00000000000E+00 -0.74505805969E-08  0.93827000000E+00  0.93827000000E+00 0. -1.
     999902    2    1    2    0    0  0.15088512161E-01 -0.47907448574E-03  0.22383542091E-01  0.10169315617E+01  0.10165731088E+01 0.  0.
         14    1    1    2    0    0 -0.15088512161E-01  0.47907448574E-03 -0.22383542091E-01  0.26998438253E-01  0.00000000000E+00 0.  1.
     999901    1    3    3    0    0 -0.12856966477E-02 -0.11739026077E+00  0.51384943279E-01  0.88928203554E+00  0.88000000000E+00 0.  1.
        -11    1    3    3    0    0 -0.97426207525E-02  0.69325809698E-01 -0.15233912105E-01  0.71647189397E-01  0.51100000000E-03 0. -1.
         11    1    3    3    0    0  0.26116829561E-01  0.47585376589E-01 -0.13767489084E-01  0.56002336809E-01  0.51100000000E-03 0.  1.
</event>
<event>
 8    1  0.1072332E+005  0.1043930E+01  0.7957747E-01            NaN
         13   -1    0    0    0    0  0.00000000000E+00  0.00000000000E+00  0.74505805969E-08  0.10566000000E+00  0.10566000000E+00 0.  1.
     999900   -1    0    0    0    0 -0.00000000000E+00 -0.00000000000E+00 -0.74505805969E-08  0.93827000000E+00  0.93827000000E+00 0.  1.
     999902    2    1    2    0    0  0.16258533729E-01  0.14712451812E-01  0.87154340720E-02  0.10203343447E+01  0.10200614786E+01 0.  0.
     999903    2    3    3    0    0 -0.56102996589E-01  0.10071280614E+00  0.60316688305E-01  0.13168652839E+00  0.20313131853E-01 0.  0.
         14    1    1    2    0    0 -0.16258533729E-01 -0.14712451812E-01 -0.87154340720E-02  0.23595655286E-01  0.00000000000E+00 0. -1.
     999901    1    3    3    0    0  0.72361530318E-01 -0.86000354326E-01 -0.51601254233E-01  0.88864781632E+00  0.88000000000E+00 0.  1.
        -11    1    4    4    0    0 -0.28377308251E-01  0.34634162826E-01  0.29863966819E-01  0.53822992237E-01  0.51100000000E-03 0. -1.
         11    1    4    4    0    0 -0.27725688338E-01  0.66078643311E-01  0.30452721486E-01  0.77863536155E-01  0.51100000000E-03 0.  1.
</event>
<event>
 8    1  0.1072332E+005  0.1043930E+01  0.7957747E-01            NaN
         13   -1    0    0    0    0  0.00000000000E+00  0.00000000000E+00  0.74505805969E-08  0.10566000000E+00  0.10566000000E+00 0. -1.
     999900   -1    0    0    0    0 -0.00000000000E+00 -0.00000000000E+00 -0.74505805969E-08  0.93827000000E+00  0.93827000000E+00 0. -1.
     999902    2    1    2    0    0  0.23284992888E-01 -0.41672607759E-02 -0.20129359880E-02  0.10201895521E+01  0.10199132872E+01 0.  0.
     999903    2    3    3    0    0  0.58162109184E-01 -0.11624382764E+00  0.11655146202E-01  0.13229069154E+00  0.21668553865E-01 0.  0.
         14    1    1    2    0    0 -0.23284992888E-01  0.41672607759E-02  0.20129359880E-02  0.23740447920E-01  0.00000000000E+00 0. -1.
     999901    1    3    3    0    0 -0.34877116296E-01  0.11207656686E+00 -0.13668082190E-01  0.88789886054E+00  0.88000000000E+00 0. -1.
        -11    1    4    4    0    0  0.20716010998E-01 -0.45589958688E-01  0.14935227472E-01  0.52258201131E-01  0.51100000000E-03 0. -1.
         11    1    4    4    0    0  0.37446098186E-01 -0.70653868948E-01 -0.32800812699E-02  0.80032490407E-01  0.51100000000E-03 0.  1.
</event>
<event>
 8    1  0.1072332E+005  0.1043930E+01  0.7957747E-01            NaN
         13   -1    0    0    0    0  0.00000000000E+00  0.00000000000E+00  0.74505805969E-08  0.10566000000E+00  0.10566000000E+00 0. -1.
     999900   -1    0    0    0    0 -0.00000000000E+00 -0.00000000000E+00 -0.74505805969E-08  0.93827000000E+00  0.93827000000E+00 0. -1.
     999902    2    1    2    0    0 -0.17244255758E-01  0.16028963768E-01  0.28278847785E-02  0.10202173669E+01  0.10199417566E+01 0.  0.
     999903    2    3    3    0    0  0.16653263666E-01 -0.42163820127E-01  0.11944698470E+00  0.12997276210E+00  0.23879233978E-01 0.  0.
         14    1    1    2    0    0  0.17244255758E-01 -0.16028963768E-01 -0.28278847785E-02  0.23712633098E-01  0.00000000000E+00 0.  1.
     999901    1    3    3    0    0 -0.33897519424E-01  0.58192783896E-01 -0.11661909992E+00  0.89024460481E+00  0.88000000000E+00 0. -1.
        -11    1    4    4    0    0  0.60722471697E-03 -0.29298460022E-01  0.84269596387E-01  0.89221042797E-01  0.51100000000E-03 0. -1.
         11    1    4    4    0    0  0.16046038949E-01 -0.12865360105E-01  0.35177388309E-01  0.40751719299E-01  0.51100000000E-03 0.  1.
</event>
<event>
 8    1  0.1072332E+005  0.1043930E+01  0.7957747E-01            NaN
         13   -1    0    0    0    0  0.00000000000E+00  0.00000000000E+00  0.74505805969E-08  0.10566000000E+00  0.10566000000E+00 0. -1.
     999900   -1    0    0    0    0 -0.00000000000E+00 -0.00000000000E+00 -0.74505805969E-08  0.93827000000E+00  0.93827000000E+00 0. -1.
     999902    2    1    2    0    0  0.16059040939E-01 -0.14472718352E-01  0.98202333866E-02  0.10201857511E+01  0.10199093967E+01 0.  0.
     999903    2    3    3    0    0  0.10930717867E+00  0.60084782507E-01  0.37447981119E-01  0.13169414811E+00  0.19564175422E-01 0.  0.
         14    1    1    2    0    0 -0.16059040939E-01  0.14472718352E-01 -0.98202333866E-02  0.23744248907E-01  0.00000000000E+00 0. -1.
     999901    1    3    3    0    0 -0.93248137728E-01 -0.74557500859E-01 -0.27627747732E-01  0.88849160298E+00  0.88000000000E+00 0.  1.
        -11    1    4    4    0    0  0.71080936012E-01  0.28697581062E-01  0.25744903989E-01  0.80864774936E-01  0.51100000000E-03 0. -1.
         11    1    4    4    0    0  0.38226242655E-01  0.31387201445E-01  0.11703077130E-01  0.50829373176E-01  0.51100000000E-03 0.  1.
</event>
<event>
 8    1  0.1072332E+005  0.1043930E+01  0.7957747E-01            NaN
         13   -1    0    0    0    0  0.00000000000E+00  0.00000000000E+00  0.74505805969E-08  0.10566000000E+00  0.10566000000E+00 0.  1.
     999900   -1    0    0    0    0 -0.00000000000E+00 -0.00000000000E+00 -0.74505805969E-08  0.93827000000E+00  0.93827000000E+00 0. -1.
     999902    2    1    2    0    0  0.15665167945E-01 -0.16030868486E-01  0.41597056558E-02  0.10211333033E+01  0.10208788046E+01 0.  0.
     999903    2    3    3    0    0  0.11844931583E+00 -0.19102810854E-01  0.55623041793E-01  0.13365232157E+00  0.19335523795E-01 0.  0.
         14    1    1    2    0    0 -0.15665167945E-01  0.16030868486E-01 -0.41597056558E-02  0.22796696741E-01  0.00000000000E+00 0.  1.
     999901    1    3    3    0    0 -0.10278414789E+00  0.30719423687E-02 -0.51463336137E-01  0.88748098169E+00  0.88000000000E+00 0.  1.
        -11    1    4    4    0    0  0.48085537643E-01  0.58184640585E-03  0.17021154265E-01  0.51015079037E-01  0.51100000000E-03 0.  1.
         11    1    4    4    0    0  0.70363778188E-01 -0.19684657260E-01  0.38601887528E-01  0.82637242537E-01  0.51100000000E-03 0. -1.
</event>
<event>
 8    1  0.1072332E+005  0.1043930E+01  0.7957747E-01            NaN
         13   -1    0    0    0    0  0.00000000000E+00  0.00000000000E+00  0.74505805969E-08  0.10566000000E+00  0.10566000000E+00 0. -1.
     999900   -1    0    0    0    0 -0.00000000000E+00 -0.00000000000E+00 -0.74505805969E-08  0.93827000000E+00  0.93827000000E+00 0.  1.
     999902    2    1    2    0    0  0.56259702024E-03 -0.14513167691E-01  0.19064794306E-01  0.10199630450E+01  0.10196814199E+01 0.  0.
     999903    2    3    3    0    0  0.23009677877E-01  0.11798153090E+00  0.43366285210E-01  0.12942990181E+00  0.20551834012E-01 0.  0.
         14    1    1    2    0    0 -0.56259702024E-03  0.14513167691E-01 -0.19064794306E-01  0.23966955037E-01  0.00000000000E+00 0.  1.
     999901    1    3    3    0    0 -0.22447080856E-01 -0.13249469859E+00 -0.24301490904E-01  0.89053314315E+00  0.88000000000E+00 0.  1.
        -11    1    4    4    0    0  0.14181501512E-01  0.10654811604E+00  0.37824988621E-01  0.11395001931E+00  0.51100000000E-03 0.  1.
         11    1    4    4    0    0  0.88281763646E-02  0.11433414858E-01  0.55412965885E-02  0.15479882497E-01  0.51100000000E-03 0. -1.
</event>
<event>
 8    1  0.1072332E+005  0.1043930E+01  0.7957747E-01            NaN
         13   -1    0    0    0    0  0.00000000000E+00  0.00000000000E+00  0.74505805969E-08  0.10566000000E+00  0.10566000000E+00 0. -1.
     999900   -1    0    0    0    0 -0.00000000000E+00 -0.00000000000E+00 -0.74505805969E-08  0.93827000000E+00  0.93827000000E+00 0. -1.
     999902    2    1    2    0    0  0.32950646598E-02  0.19314681975E-01 -0.12594906320E-01  0.10206373819E+01  0.10203715595E+01 0.  0.
     999903    2    3    3    0    0 -0.79543658236E-01 -0.87602608156E-01  0.45600711860E-01  0.12840406553E+00  0.20168505163E-01 0.  0.
         14    1    1    2    0    0 -0.32950646598E-02 -0.19314681975E-01  0.12594906320E-01  0.23292618061E-01  0.00000000000E+00 0.  1.
     999901    1    3    3    0    0  0.82838722896E-01  0.10691729013E+00 -0.58195618180E-01  0.89223331641E+00  0.88000000000E+00 0. -1.
        -11    1    4    4    0    0 -0.16676006718E-01 -0.28905713772E-01  0.18842919518E-01  0.38326834277E-01  0.51100000000E-03 0.  1.
         11    1    4    4    0    0 -0.62867651518E-01 -0.58696894384E-01  0.26757792342E-01  0.90077231251E-01  0.51100000000E-03 0. -1.
</event>
<event>
 8    1  0.1072332E+005  0.1043930E+01  0.7957747E-01            NaN
         13   -1    0    0    0    0  0.00000000000E+00  0.00000000000E+00  0.74505805969E-08  0.10566000000E+00  0.10566000000E+00 0.  1.
     999900   -1    0    0    0    0 -0.00000000000E+00 -0.00000000000E+00 -0.74505805969E-08  0.93827000000E+00  0.93827000000E+00 0.  1.
     999902    2    1    2    0    0  0.10615935706E-01  0.21867352594E-01 -0.28029681185E-02  0.10194609209E+01  0.10191672255E+01 0.  0.
     999903    2    3    3    0    0  0.53861575414E-01  0.11174511484E+00  0.42512378864E-01  0.13266800363E+00  0.20135958700E-01 0.  0.
         14    1    1    2    0    0 -0.10615935706E-01 -0.21867352594E-01  0.28029681185E-02  0.24469079073E-01  0.00000000000E+00 0.  1.
     999901    1    3    3    0    0 -0.43245639708E-01 -0.89877762247E-01 -0.45315346983E-01  0.88679291730E+00  0.88000000000E+00 0. -1.
        -11    1    4    4    0    0  0.61462656127E-02  0.32281380508E-01  0.13659027855E-01  0.35590648652E-01  0.51100000000E-03 0. -1.
         11    1    4    4    0    0  0.47715309801E-01  0.79463734334E-01  0.28853351009E-01  0.97077354976E-01  0.51100000000E-03 0.  1.
</event>
<event>
 8    1  0.1072332E+005  0.1043930E+01  0.7957747E-01            NaN
         13   -1    0    0    0    0  0.00000000000E+00  0.00000000000E+00  0.74505805969E-08  0.10566000000E+00  0.10566000000E+00 0.  1.
     999900   -1    0    0    0    0 -0.00000000000E+00 -0.00000000000E+00 -0.74505805969E-08  0.93827000000E+00  0.93827000000E+00 0.  1.
     999902    2    1    2    0    0 -0.19083526964E-01 -0.13913857868E-01  0.47155559562E-02  0.10198465428E+01  0.10195621403E+01 0.  0.
     999903    2    3    3    0    0 -0.18319348680E-01  0.63989000608E-01  0.11007827368E+00  0.13014392867E+00  0.19749053069E-01 0.  0.
         14    1    1    2    0    0  0.19083526964E-01  0.13913857868E-01 -0.47155559562E-02  0.24083457188E-01  0.00000000000E+00 0. -1.
     999901    1    3    3    0    0 -0.76417828393E-03 -0.77902858475E-01 -0.10536271773E+00  0.88970261414E+00  0.88000000000E+00 0.  1.
        -11    1    4    4    0    0 -0.10194978464E-01  0.46626507834E-01  0.92692007996E-01  0.10425947576E+00  0.51100000000E-03 0. -1.
         11    1    4    4    0    0 -0.81243702162E-02  0.17362492773E-01  0.17386265688E-01  0.25884452907E-01  0.51100000000E-03 0.  1.
</event>
<event>
 8    1  0.1072332E+005  0.1043930E+01  0.7957747E-01            NaN
         13   -1    0    0    0    0  0.00000000000E+00  0.00000000000E+00  0.74505805969E-08  0.10566000000E+00  0.10566000000E+00 0. -1.
     999900   -1    0    0    0    0 -0.00000000000E+00 -0.00000000000E+00 -0.74505805969E-08  0.93827000000E+00  0.93827000000E+00 0. -1.
     999902    2    1    2    0    0 -0.18866943526E-01 -0.39628719212E-02  0.13383125389E-01  0.10204614262E+01  0.10201915253E+01 0.  0.
     999903    2    3    3    0    0 -0.28914889427E-01 -0.12642634297E+00  0.12852232080E-01  0.13192411982E+00  0.20471992896E-01 0.  0.
         14    1    1    2    0    0  0.18866943526E-01  0.39628719212E-02 -0.13383125389E-01  0.23468573819E-01  0.00000000000E+00 0.  1.
     999901    1    3    3    0    0  0.10047945901E-01  0.12246347104E+00  0.53089330909E-03  0.88853730637E+00  0.88000000000E+00 0. -1.
        -11    1    4    4    0    0 -0.51605736533E-03 -0.45932525121E-01  0.46052000382E-02  0.46168519226E-01  0.51100000000E-03 0.  1.
         11    1    4    4    0    0 -0.28398832062E-01 -0.80493817845E-01  0.82470320421E-02  0.85755600589E-01  0.51100000000E-03 0. -1.
</event>
<event>
 8    1  0.1154767E+005  0.1043930E+01  0.7957747E-01            NaN
         13   -1    0    0    0    0  0.00000000000E+00  0.00000000000E+00  0.74505805969E-08  0.10566000000E+00  0.10566000000E+00 0.  1.
     999900   -1    0    0    0    0 -0.00000000000E+00 -0.00000000000E+00 -0.74505805969E-08  0.93827000000E+00  0.93827000000E+00 0. -1.
     999902    2    1    2    0    0  0.18612778291E-01  0.19853517064E-03  0.16061149019E-01  0.10193447312E+01  0.10190482058E+01 0.  0.
     999903    2    3    3    0    0 -0.63791185275E-01 -0.83244957435E-01 -0.69550483113E-01  0.12744642918E+00  0.20156496537E-01 0.  0.
         14    1    1    2    0    0 -0.18612778291E-01 -0.19853517064E-03 -0.16061149019E-01  0.24585268755E-01  0.00000000000E+00 0. -1.
     999901    1    3    3    0    0  0.82403963566E-01  0.83443492605E-01  0.85611632131E-01  0.89189830206E+00  0.88000000000E+00 0.  1.
        -11    1    4    4    0    0 -0.35656182765E-01 -0.30160576549E-01 -0.29557063570E-01  0.55271193899E-01  0.51100000000E-03 0.  1.
         11    1    4    4    0    0 -0.28135002510E-01 -0.53084380886E-01 -0.39993419543E-01  0.72175235282E-01  0.51100000000E-03 0. -1.
</event>
<event>
 8    1  0.1072332E+005  0.1043930E+01  0.7957747E-01            NaN
         13   -1    0    0    0    0  0.00000000000E+00  0.00000000000E+00  0.74505805969E-08  0.10566000000E+00  0.10566000000E+00 0.  1.
     999900   -1    0    0    0    0 -0.00000000000E+00 -0.00000000000E+00 -0.74505805969E-08  0.93827000000E+00  0.93827000000E+00 0.  1.
     999902    2    1    2    0    0 -0.21921097615E-01 -0.62852384435E-02  0.82164103402E-02  0.10196906076E+01  0.10194024657E+01 0.  0.
     999903    2    3    3    0    0  0.88976902269E-01 -0.90081621993E-01 -0.92048721078E-02  0.12861053192E+00  0.20599793475E-01 0.  0.
         14    1    1    2    0    0  0.21921097615E-01  0.62852384435E-02 -0.82164103402E-02  0.24239392357E-01  0.00000000000E+00 0.  1.
     999901    1    3    3    0    0 -0.11089799988E+00  0.83796383550E-01  0.17421282448E-01  0.89108007573E+00  0.88000000000E+00 0.  1.
        -11    1    4    4    0    0  0.63452716686E-01 -0.72648858880E-01 -0.13502853956E-01  0.97399651629E-01  0.51100000000E-03 0. -1.
         11    1    4    4    0    0  0.25524185583E-01 -0.17432763113E-01  0.42979818480E-02  0.31210880288E-01  0.51100000000E-03 0.  1.
</event>
<event>
 8    1  0.1072332E+005  0.1043930E+01  0.7957747E-01            NaN
         13   -1    0    0    0    0  0.00000000000E+00  0.00000000000E+00  0.74505805969E-08  0.10566000000E+00  0.10566000000E+00 0. -1.
     999900   -1    0    0    0    0 -0.00000000000E+00 -0.00000000000E+00 -0.74505805969E-08  0.93827000000E+00  0.93827000000E+00 0. -1.
     999902    2    1    2    0    0 -0.72124031586E-02 -0.19559256188E-02 -0.22955882251E-01  0.10197883983E+01  0.10195026044E+01 0.  0.
     999903    2    3    3    0    0 -0.74918664038E-02 -0.35001063902E-01 -0.12700143771E+00  0.13304292358E+00  0.17025034456E-01 0.  0.
         14    1    1    2    0    0  0.72124031586E-02  0.19559256188E-02  0.22955882251E-01  0.24141601734E-01  0.00000000000E+00 0. -1.
     999901    1    3    3    0    0  0.27946324513E-03  0.33045138283E-01  0.10404555546E+00  0.88674547469E+00  0.88000000000E+00 0.  1.
        -11    1    4    4    0    0  0.23326413879E-02 -0.18438398034E-01 -0.82181537253E-01  0.84258423461E-01  0.51100000000E-03 0. -1.
         11    1    4    4    0    0 -0.98245077917E-02 -0.16562665868E-01 -0.44819900456E-01  0.48784500120E-01  0.51100000000E-03 0.  1.
</event>
<event>
 8    1  0.1072332E+005  0.1043930E+01  0.7957747E-01            NaN
         13   -1    0    0    0    0  0.00000000000E+00  0.00000000000E+00  0.74505805969E-08  0.10566000000E+00  0.10566000000E+00 0. -1.
     999900   -1    0    0    0    0 -0.00000000000E+00 -0.00000000000E+00 -0.74505805969E-08  0.93827000000E+00  0.93827000000E+00 0.  1.
     999902    2    1    2    0    0  0.63614411816E-02 -0.19132412815E-01 -0.11812056212E-01  0.10205624621E+01  0.10202949070E+01 0.  0.
     999903    2    3    3    0    0 -0.79525687417E-01 -0.15773643427E-02 -0.10290262992E+00  0.13152800206E+00  0.19591861676E-01 0.  0.
         14    1    1    2    0    0 -0.63614411816E-02  0.19132412815E-01  0.11812056212E-01  0.23367537867E-01  0.00000000000E+00 0. -1.
     999901    1    3    3    0    0  0.85887128599E-01 -0.17555048472E-01  0.91090573704E-01  0.88903446008E+00  0.88000000000E+00 0. -1.
        -11    1    4    4    0    0 -0.12805852020E-01  0.36633899070E-02 -0.28437928991E-01  0.31406801777E-01  0.51100000000E-03 0.  1.
         11    1    4    4    0    0 -0.66719835397E-01 -0.52407542496E-02 -0.74464700924E-01  0.10012120028E+00  0.51100000000E-03 0. -1.
</event>
<event>
 8    1  0.1072332E+005  0.1043930E+01  0.7957747E-01            NaN
         13   -1    0    0    0    0  0.00000000000E+00  0.00000000000E+00  0.74505805969E-08  0.10566000000E+00  0.10566000000E+00 0.  1.
     999900   -1    0    0    0    0 -0.00000000000E+00 -0.00000000000E+00 -0.74505805969E-08  0.93827000000E+00  0.93827000000E+00 0.  1.
     999902    2    1    2    0    0  0.16768540194E-01  0.75860552249E-02 -0.18275486256E-01  0.10179930462E+01  0.10176625750E+01 0.  0.
     999903    2    3    3    0    0 -0.55757118627E-01  0.44355983049E-01  0.10211666289E+00  0.12608146519E+00  0.19809429945E-01 0.  0.
         14    1    1    2    0    0 -0.16768540194E-01 -0.75860552249E-02  0.18275486256E-01  0.25936953792E-01  0.00000000000E+00 0.  1.
     999901    1    3    3    0    0  0.72525658821E-01 -0.36769927824E-01 -0.12039214915E+00  0.89191158102E+00  0.88000000000E+00 0.  1.
        -11    1    4    4    0    0 -0.36333096848E-01  0.19041703658E-01  0.67594079106E-01  0.79068963923E-01  0.51100000000E-03 0.  1.
         11    1    4    4    0    0 -0.19424021779E-01  0.25314279391E-01  0.34522583784E-01  0.47012501266E-01  0.51100000000E-03 0. -1.
</event>
<event>
 8    1  0.1072332E+005  0.1043930E+01  0.7957747E-01            NaN
         13   -1    0    0    0    0  0.00000000000E+00  0.00000000000E+00  0.74505805969E-08  0.10566000000E+00  0.10566000000E+00 0. -1.
     999900   -1    0    0    0    0 -0.00000000000E+00 -0.00000000000E+00 -0.74505805969E-08  0.93827000000E+00  0.93827000000E+00 0. -1.
     999902    2    1    2    0    0 -0.19771749499E-01 -0.77474405332E-02 -0.38547860980E-02  0.10223475004E+01  0.10221196639E+01 0.  0.
     999903    2    3    3    0    0 -0.26403033434E-01 -0.62945937020E-03  0.12806362808E+00  0.13246149221E+00  0.21171624542E-01 0.  0.
         14    1    1    2    0    0  0.19771749499E-01  0.77474405332E-02  0.38547860980E-02  0.21582499599E-01  0.00000000000E+00 0.  1.
     999901    1    3    3    0    0  0.66312839346E-02 -0.71179811630E-02 -0.13191841418E+00  0.88988600820E+00  0.88000000000E+00 0. -1.
        -11    1    4    4    0    0 -0.15137249049E-01  0.92840695356E-02  0.85526832029E-01  0.87352334679E-01  0.51100000000E-03 0. -1.
         11    1    4    4    0    0 -0.11265784386E-01 -0.99135289058E-02  0.42536796054E-01  0.45109157526E-01  0.51100000000E-03 0.  1.
</event>
<event>
 8    1  0.1072332E+005  0.1043930E+01  0.7957747E-01            NaN
         13   -1    0    0    0    0  0.00000000000E+00  0.00000000000E+00  0.74505805969E-08  0.10566000000E+00  0.10566000000E+00 0.  1.
     999900   -1    0    0    0    0 -0.00000000000E+00 -0.00000000000E+00 -0.74505805969E-08  0.93827000000E+00  0.93827000000E+00 0.  1.
     999902    2    1    2    0    0  0.95755938375E-03 -0.19283908702E-01 -0.12330935434E-01  0.10210206564E+01  0.10207636077E+01 0.  0.
     999903    2    3    3    0    0 -0.90014444588E-01 -0.94561220437E-01  0.14769326209E-01  0.13272059261E+00  0.18766940668E-01 0.  0.
         14    1    1    2    0    0 -0.95755938375E-03  0.19283908702E-01  0.12330935434E-01  0.22909343584E-01  0.00000000000E+00 0. -1.
     999901    1    3    3    0    0  0.90972003972E-01  0.75277311736E-01 -0.27100261642E-01  0.88830006380E+00  0.88000000000E+00 0. -1.
        -11    1    4    4    0    0 -0.23715318658E-01 -0.14424847679E-01  0.54839264228E-02  0.28298889371E-01  0.51100000000E-03 0. -1.
         11    1    4    4    0    0 -0.66299125930E-01 -0.80136372759E-01  0.92853997859E-02  0.10442170324E+00  0.51100000000E-03 0.  1.
</event>
<event>
 8    1  0.1072332E+005  0.1043930E+01  0.7957747E-01            NaN
         13   -1    0    0    0    0  0.00000000000E+00  0.00000000000E+00  0.74505805969E-08  0.10566000000E+00  0.10566000000E+00 0.  1.
     999900   -1    0    0    0    0 -0.00000000000E+00 -0.00000000000E+00 -0.74505805969E-08  0.93827000000E+00  0.93827000000E+00 0. -1.
     999902    2    1    2    0    0  0.20101967736E-01  0.79652815993E-02  0.28546874907E-02  0.10221198176E+01  0.10218870962E+01 0.  0.
     999903    2    3    3    0    0 -0.70772940194E-01  0.17347446854E-01 -0.10699213284E+00  0.13059718864E+00  0.17279068712E-01 0.  0.
         14    1    1    2    0    0 -0.20101967736E-01 -0.79652815993E-02 -0.28546874907E-02  0.21810182449E-01  0.00000000000E+00 0.  1.
     999901    1    3    3    0    0  0.90874907929E-01 -0.93821652543E-02  0.10984682033E+00  0.89152262891E+00  0.88000000000E+00 0. -1.
        -11    1    4    4    0    0 -0.24096424461E-01  0.50773251313E-02 -0.22863703310E-01  0.33606947978E-01  0.51100000000E-03 0.  1.
         11    1    4    4    0    0 -0.46676515733E-01  0.12270121722E-01 -0.84128429532E-01  0.96990240666E-01  0.51100000000E-03 0. -1.
</event>
<event>
 8    1  0.1072332E+005  0.1043930E+01  0.7957747E-01            NaN
         13   -1    0    0    0    0  0.00000000000E+00  0.00000000000E+00  0.74505805969E-08  0.10566000000E+00  0.10566000000E+00 0.  1.
     999900   -1    0    0    0    0 -0.00000000000E+00 -0.00000000000E+00 -0.74505805969E-08  0.93827000000E+00  0.93827000000E+00 0. -1.
     999902    2    1    2    0    0 -0.88913286292E-03  0.13548226281E-01  0.19223175774E-01  0.10203954407E+01  0.10201240023E+01 0.  0.
     999903    2    3    3    0    0 -0.26141050033E-01 -0.12458377390E+00 -0.45695223465E-02  0.12894482446E+00  0.20035368842E-01 0.  0.
         14    1    1    2    0    0  0.88913286292E-03 -0.13548226281E-01 -0.19223175774E-01  0.23534559258E-01  0.00000000000E+00 0. -1.
     999901    1    3    3    0    0  0.25251917170E-01  0.13813200018E+00  0.23792698121E-01  0.89145061629E+00  0.88000000000E+00 0. -1.
        -11    1    4    4    0    0 -0.27406745053E-01 -0.11553742641E+00 -0.59077492237E-04  0.11874464698E+00  0.51100000000E-03 0. -1.
         11    1    4    4    0    0  0.12656950193E-02 -0.90463474847E-02 -0.45104448543E-02  0.10200177473E-01  0.51100000000E-03 0.  1.
</event>
<event>
 8    1  0.1072332E+005  0.1043930E+01  0.7957747E-01            NaN
         13   -1    0    0    0    0  0.00000000000E+00  0.00000000000E+00  0.74505805969E-08  0.10566000000E+00  0.10566000000E+00 0.  1.
     999900   -1    0    0    0    0 -0.00000000000E+00 -0.00000000000E+00 -0.74505805969E-08  0.93827000000E+00  0.93827000000E+00 0. -1.
     999902    2    1    2    0    0 -0.26682424455E-03  0.47278907285E-02  0.23069176216E-01  0.10203798187E+01  0.10201080156E+01 0.  0.
     999903    2    3    3    0    0  0.40113426514E-01  0.12329167445E+00 -0.38564538377E-02  0.13110318855E+00  0.19059114271E-01 0.  0.
         14    1    1    2    0    0  0.26682424455E-03 -0.47278907285E-02 -0.23069176216E-01  0.23550181256E-01  0.00000000000E+00 0. -1.
     999901    1    3    3    0    0 -0.40380250759E-01 -0.11856378372E+00  0.26925630053E-01  0.88927663020E+00  0.88000000000E+00 0.  1.
        -11    1    4    4    0    0  0.50845984914E-02  0.38585129669E-01 -0.61749464314E-02  0.39408837306E-01  0.51100000000E-03 0. -1.
         11    1    4    4    0    0  0.35028828023E-01  0.84706544776E-01  0.23184925937E-02  0.91694351241E-01  0.51100000000E-03 0.  1.
</event>
<event>
 8    1  0.1072332E+005  0.1043930E+01  0.7957747E-01            NaN
         13   -1    0    0    0    0  0.00000000000E+00  0.00000000000E+00  0.74505805969E-08  0.10566000000E+00  0.10566000000E+00 0. -1.
     999900   -1    0    0    0    0 -0.00000000000E+00 -0.00000000000E+00 -0.74505805969E-08  0.93827000000E+00  0.93827000000E+00 0. -1.
     999902    2    1    2    0    0  0.15684810535E-01 -0.36786559519E-02 -0.17212108928E-01  0.10203545364E+01  0.10200821425E+01 0.  0.
     999903    2    3    3    0    0 -0.42254219871E-01  0.34966295505E-03  0.11898489820E+00  0.12798533961E+00  0.20911714287E-01 0.  0.
         14    1    1    2    0    0 -0.15684810535E-01  0.36786559519E-02  0.17212108928E-01  0.23575463619E-01  0.00000000000E+00 0. -1.
     999901    1    3    3    0    0  0.57939030406E-01 -0.40283189070E-02 -0.13619700713E+00  0.89236919677E+00  0.88000000000E+00 0. -1.
        -11    1    4    4    0    0 -0.39183484058E-01 -0.64075318436E-02  0.10025940626E+00  0.10783604013E+00  0.51100000000E-03 0.  1.
         11    1    4    4    0    0 -0.30707358132E-02  0.67571947986E-02  0.18725491938E-01  0.20149299474E-01  0.51100000000E-03 0. -1.
</event>
<event>
 8    1  0.1072332E+005  0.1043930E+01  0.7957747E-01            NaN
         13   -1    0    0    0    0  0.00000000000E+00  0.00000000000E+00  0.74505805969E-08  0.10566000000E+00  0.10566000000E+00 0. -1.
     999900   -1    0    0    0    0 -0.00000000000E+00 -0.00000000000E+00 -0.74505805969E-08  0.93827000000E+00  0.93827000000E+00 0. -1.
     999902    2    1    2    0    0 -0.21532131840E-01 -0.19962042892E-02  0.95376713609E-02  0.10202956033E+01  0.10200218299E+01 0.  0.
     999903    2    3    3    0    0  0.40731782505E-01  0.67925981805E-01  0.10169672689E+00  0.13054327895E+00  0.20647186499E-01 0.  0.
         14    1    1    2    0    0  0.21532131840E-01  0.19962042892E-02 -0.95376713609E-02  0.23634396716E-01  0.00000000000E+00 0.  1.
     999901    1    3    3    0    0 -0.62263914345E-01 -0.69922186095E-01 -0.92159055524E-01  0.88975232433E+00  0.88000000000E+00 0. -1.
        -11    1    4    4    0    0  0.79199321385E-02  0.24056867935E-02  0.73480038161E-02  0.11080024147E-01  0.51100000000E-03 0. -1.
         11    1    4    4    0    0  0.32811850366E-01  0.65520295012E-01  0.94348723069E-01  0.11946325481E+00  0.51100000000E-03 0.  1.
</event>
<event>
 8    1  0.1072332E+005  0.1043930E+01  0.7957747E-01            NaN
         13   -1    0    0    0    0  0.00000000000E+00  0.00000000000E+00  0.74505805969E-08  0.10566000000E+00  0.10566000000E+00 0.  1.
     999900   -1    0    0    0    0 -0.00000000000E+00 -0.00000000000E+00 -0.74505805969E-08  0.93827000000E+00  0.93827000000E+00 0.  1.
     999902    2    1    2    0    0 -0.22073196766E-01  0.75469969886E-02 -0.51999714124E-02  0.10200297305E+01  0.10197496890E+01 0.  0.
     999903    2    3    3    0    0  0.58775592983E-01 -0.10595750113E+00 -0.37668062632E-01  0.12847267970E+00  0.20119247300E-01 0.  0.
         14    1    1    2    0    0  0.22073196766E-01 -0.75469969886E-02  0.51999714124E-02  0.23900269490E-01  0.00000000000E+00 0. -1.
     999901    1    3    3    0    0 -0.80848789749E-01  0.11350449812E+00  0.32468091219E-01  0.89155705081E+00  0.88000000000E+00 0. -1.
        -11    1    4    4    0    0  0.50369357094E-01 -0.73743630764E-01 -0.23951392533E-01  0.92461481372E-01  0.51100000000E-03 0. -1.
         11    1    4    4    0    0  0.84062358899E-02 -0.32213870363E-01 -0.13716670099E-01  0.36011198330E-01  0.51100000000E-03 0.  1.
</event>
<event>
 7    1  0.1072332E+005  0.1043930E+01  0.7957747E-01            NaN
         13   -1    0    0    0    0  0.00000000000E+00  0.00000000000E+00  0.74505805969E-08  0.10566000000E+00  0.10566000000E+00 0. -1.
     999900   -1    0    0    0    0 -0.00000000000E+00 -0.00000000000E+00 -0.74505805969E-08  0.93827000000E+00  0.93827000000E+00 0.  1.
     999903    2    1    2    0    0  0.48015537599E-02 -0.61185404926E-01  0.35877928264E-01  0.72805293350E-01  0.15705932284E-01 0.  0.
         14    1    1    2    0    0  0.17325741516E-01 -0.17717074556E-01  0.76303304543E-01  0.80226369319E-01  0.00000000000E+00 0. -1.
     999901    1    1    2    0    0 -0.22127295276E-01  0.78902479482E-01 -0.11218123281E+00  0.89089833733E+00  0.88000000000E+00 0.  1.
        -11    1    3    3    0    0  0.35859128487E-02 -0.15058978999E-01  0.21257651256E-02  0.15633669365E-01  0.51100000000E-03 0.  1.
         11    1    3    3    0    0  0.12156409112E-02 -0.46126425927E-01  0.33752163138E-01  0.57171623985E-01  0.51100000000E-03 0. -1.
</event>
<event>
 8    1  0.1072332E+005  0.1043930E+01  0.7957747E-01            NaN
         13   -1    0    0    0    0  0.00000000000E+00  0.00000000000E+00  0.74505805969E-08  0.10566000000E+00  0.10566000000E+00 0. -1.
     999900   -1    0    0    0    0 -0.00000000000E+00 -0.00000000000E+00 -0.74505805969E-08  0.93827000000E+00  0.93827000000E+00 0.  1.
     999902    2    1    2    0    0  0.13294980106E-01 -0.23754379226E-01 -0.12747469019E-02  0.10166783577E+01  0.10163130576E+01 0.  0.
     999903    2    3    3    0    0  0.10730981499E+00 -0.40539366488E-01  0.56746186896E-01  0.12961186992E+00  0.20500499268E-01 0.  0.
         14    1    1    2    0    0 -0.13294980106E-01  0.23754379226E-01  0.12747469019E-02  0.27251642301E-01  0.00000000000E+00 0.  1.
     999901    1    3    3    0    0 -0.94014834881E-01  0.16784987262E-01 -0.58020933797E-01  0.88706648778E+00  0.88000000000E+00 0.  1.
        -11    1    4    4    0    0  0.75383562567E-01 -0.37439360311E-01  0.45032081607E-01  0.95459607692E-01  0.51100000000E-03 0.  1.
         11    1    4    4    0    0  0.31926252420E-01 -0.31000061774E-02  0.11714105289E-01  0.34152262232E-01  0.51100000000E-03 0. -1.
</event>
<event>
 8    1  0.1072332E+005  0.1043930E+01  0.7957747E-01            NaN
         13   -1    0    0    0    0  0.00000000000E+00  0.00000000000E+00  0.74505805969E-08  0.10566000000E+00  0.10566000000E+00 0.  1.
     999900   -1    0    0    0    0 -0.00000000000E+00 -0.00000000000E+00 -0.74505805969E-08  0.93827000000E+00  0.93827000000E+00 0.  1.
     999902    2    1    2    0    0 -0.22852492301E-01 -0.30689850824E-02  0.64322751929E-02  0.10199919709E+01  0.10197110333E+01 0.  0.
     999903    2    3    3    0    0 -0.45679991311E-01  0.11218877078E+00  0.46926014826E-01  0.13125962200E+00  0.18816365404E-01 0.  0.
         14    1    1    2    0    0  0.22852492301E-01  0.30689850824E-02 -0.64322751929E-02  0.23938029116E-01  0.00000000000E+00 0. -1.
     999901    1    3    3    0    0  0.22827499010E-01 -0.11525775586E+00 -0.40493739633E-01  0.88873234888E+00  0.88000000000E+00 0.  1.
        -11    1    4    4    0    0 -0.34824231720E-01  0.66424862316E-01  0.22764564659E-01  0.78380328997E-01  0.51100000000E-03 0. -1.
         11    1    4    4    0    0 -0.10855759591E-01  0.45763908459E-01  0.24161450167E-01  0.52879293007E-01  0.51100000000E-03 0.  1.
</event>
<event>
 8    1  0.1072332E+005  0.1043930E+01  0.7957747E-01            NaN
         13   -1    0    0    0    0  0.00000000000E+00  0.00000000000E+00  0.74505805969E-08  0.10566000000E+00  0.10566000000E+00 0. -1.
     999900   -1    0    0    0    0 -0.00000000000E+00 -0.00000000000E+00 -0.74505805969E-08  0.93827000000E+00  0.93827000000E+00 0. -1.
     999902    2    1    2    0    0  0.17211771107E-01 -0.16731919465E-01  0.38429532057E-02  0.10196201155E+01  0.10193302750E+01 0.  0.
     999903    2    3    3    0    0 -0.12512463931E+00 -0.18098093304E-01 -0.67514070958E-02  0.12811926829E+00  0.19627762587E-01 0.  0.
         14    1    1    2    0    0 -0.17211771107E-01  0.16731919465E-01 -0.38429532057E-02  0.24309884471E-01  0.00000000000E+00 0. -1.
     999901    1    3    3    0    0  0.14233641042E+00  0.13661738382E-02  0.10594360301E-01  0.89150084724E+00  0.88000000000E+00 0. -1.
        -11    1    4    4    0    0 -0.90490156945E-01 -0.21748914202E-01 -0.34392239209E-02  0.93132020031E-01  0.51100000000E-03 0.  1.
         11    1    4    4    0    0 -0.34634482368E-01  0.36508208982E-02 -0.33121831749E-02  0.34987248256E-01  0.51100000000E-03 0. -1.
</event>
<event>
 8    1  0.1072332E+005  0.1043930E+01  0.7957747E-01            NaN
         13   -1    0    0    0    0  0.00000000000E+00  0.00000000000E+00  0.74505805969E-08  0.10566000000E+00  0.10566000000E+00 0. -1.
     999900   -1    0    0    0    0 -0.00000000000E+00 -0.00000000000E+00 -0.74505805969E-08  0.93827000000E+00  0.93827000000E+00 0. -1.
     999902    2    1    2    0    0  0.16854331548E-01 -0.17168014526E-01 -0.19677054647E-02  0.10197912121E+01  0.10195054857E+01 0.  0.
     999903    2    3    3    0    0  0.56939880497E-01 -0.11541253032E+00  0.26595275681E-01  0.13295713520E+00  0.20201212016E-01 0.  0.
         14    1    1    2    0    0 -0.16854331548E-01  0.17168014526E-01  0.19677054647E-02  0.24138787863E-01  0.00000000000E+00 0. -1.
     999901    1    3    3    0    0 -0.40085548950E-01  0.98244515795E-01 -0.28562981145E-01  0.88683407693E+00  0.88000000000E+00 0. -1.
        -11    1    4    4    0    0  0.51449417280E-01 -0.92484893061E-01  0.27535316223E-01  0.10935699677E+00  0.51100000000E-03 0. -1.
         11    1    4    4    0    0  0.54904632169E-02 -0.22927637260E-01 -0.94004054265E-03  0.23600138429E-01  0.51100000000E-03 0.  1.
</event>
<event>
 8    1  0.1072332E+005  0.1043930E+01  0.7957747E-01            NaN
         13   -1    0    0    0    0  0.00000000000E+00  0.00000000000E+00  0.74505805969E-08  0.10566000000E+00  0.10566000000E+00 0.  1.
     999900   -1    0    0    0    0 -0.00000000000E+00 -0.00000000000E+00 -0.74505805969E-08  0.93827000000E+00  0.93827000000E+00 0. -1.
     999902    2    1    2    0    0  0.34680905028E-02  0.13578268797E-01 -0.17488353673E-01  0.10215192983E+01  0.10212734390E+01 0.  0.
     999903    2    3    3    0    0 -0.66022304119E-01 -0.62507854740E-01 -0.93934826445E-01  0.13221503300E+00  0.19770856973E-01 0.  0.
         14    1    1    2    0    0 -0.34680905028E-02 -0.13578268797E-01  0.17488353673E-01  0.22410701672E-01  0.00000000000E+00 0.  1.
     999901    1    3    3    0    0  0.69490394621E-01  0.76086123537E-01  0.76446472772E-01  0.88930426533E+00  0.88000000000E+00 0.  1.
        -11    1    4    4    0    0 -0.38453819816E-01 -0.22832393192E-01 -0.45686452089E-01  0.63933774038E-01  0.51100000000E-03 0.  1.
         11    1    4    4    0    0 -0.27568484302E-01 -0.39675461547E-01 -0.48248374356E-01  0.68281258957E-01  0.51100000000E-03 0. -1.
</event>
<event>
 8    1  0.1072332E+005  0.1043930E+01  0.7957747E-01            NaN
         13   -1    0    0    0    0  0.00000000000E+00  0.00000000000E+00  0.74505805969E-08  0.10566000000E+00  0.10566000000E+00 0.  1.
     999900   -1    0    0    0    0 -0.00000000000E+00 -0.00000000000E+00 -0.74505805969E-08  0.93827000000E+00  0.93827000000E+00 0. -1.
     999902    2    1    2    0    0 -0.27222336862E-02  0.23815983143E-01 -0.21874007009E-02  0.10198593471E+01  0.10195752505E+01 0.  0.
     999903    2    3    3    0    0  0.85177337659E-01  0.80962806618E-01 -0.56694385383E-01  0.13196120798E+00  0.19732008780E-01 0.  0.
         14    1    1    2    0    0  0.27222336862E-02 -0.23815983143E-01  0.21874007009E-02  0.24070652903E-01  0.00000000000E+00 0. -1.
     999901    1    3    3    0    0 -0.87899571345E-01 -0.57146823475E-01  0.54506984682E-01  0.88789813912E+00  0.88000000000E+00 0.  1.
        -11    1    4    4    0    0  0.36088622416E-01  0.47118374472E-01 -0.31920676417E-01  0.67392288763E-01  0.51100000000E-03 0. -1.
         11    1    4    4    0    0  0.49088715242E-01  0.33844432146E-01 -0.24773708966E-01  0.64568919213E-01  0.51100000000E-03 0.  1.
</event>
<event>
 8    1  0.1072332E+005  0.1043930E+01  0.7957747E-01            NaN
         13   -1    0    0    0    0  0.00000000000E+00  0.00000000000E+00  0.74505805969E-08  0.10566000000E+00  0.10566000000E+00 0.  1.
     999900   -1    0    0    0    0 -0.00000000000E+00 -0.00000000000E+00 -0.74505805969E-08  0.93827000000E+00  0.93827000000E+00 0.  1.
     999902    2    1    2    0    0  0.10283472589E-01  0.30263534060E-02 -0.20898646463E-01  0.10204425130E+01  0.10201721718E+01 0.  0.
     999903    2    3    3    0    0  0.11406624115E+00  0.58494502602E-01  0.22350684344E-01  0.13155664670E+00  0.19361921276E-01 0.  0.
         14    1    1    2    0    0 -0.10283472589E-01 -0.30263534060E-02  0.20898646463E-01  0.23487487039E-01  0.00000000000E+00 0.  1.
     999901    1    3    3    0    0 -0.10378276856E+00 -0.55468149196E-01 -0.43249330807E-01  0.88888586626E+00  0.88000000000E+00 0.  1.
        -11    1    4    4    0    0  0.50402743293E-01  0.36385905049E-01  0.13075132968E-01  0.63526300387E-01  0.51100000000E-03 0. -1.
         11    1    4    4    0    0  0.63663497856E-01  0.22108597553E-01  0.92755513763E-02  0.68030346312E-01  0.51100000000E-03 0.  1.
</event>
<event>
 8    1  0.1072332E+005  0.1043930E+01  0.7957747E-01            NaN
         13   -1    0    0    0    0  0.00000000000E+00  0.00000000000E+00  0.74505805969E-08  0.10566000000E+00  0.10566000000E+00 0. -1.
     999900   -1    0    0    0    0 -0.00000000000E+00 -0.00000000000E+00 -0.74505805969E-08  0.93827000000E+00  0.93827000000E+00 0. -1.
     999902    2    1    2    0    0 -0.14958369228E-01  0.95422297123E-02  0.17086621673E-01  0.10192975093E+01  0.10189998297E+01 0.  0.
     999903    2    3    3    0    0 -0.95732865957E-01  0.43865342058E-01  0.78140069996E-01  0.13282691254E+00  0.21169985800E-01 0.  0.
         14    1    1    2    0    0  0.14958369228E-01 -0.95422297123E-02 -0.17086621673E-01  0.24632490699E-01  0.00000000000E+00 0.  1.
     999901    1    3    3    0    0  0.80774496729E-01 -0.34323112346E-01 -0.61053448323E-01  0.88647059676E+00  0.88000000000E+00 0. -1.
        -11    1    4    4    0    0 -0.36942590723E-01  0.27386200630E-01  0.28203581387E-01  0.53948698949E-01  0.51100000000E-03 0. -1.
         11    1    4    4    0    0 -0.58790275234E-01  0.16479141428E-01  0.49936488609E-01  0.78878213595E-01  0.51100000000E-03 0.  1.
</event>
<event>
 8    1  0.1072332E+005  0.1043930E+01  0.7957747E-01            NaN
         13   -1    0    0    0    0  0.00000000000E+00  0.00000000000E+00  0.74505805969E-08  0.10566000000E+00  0.10566000000E+00 0.  1.
     999900   -1    0    0    0    0 -0.00000000000E+00 -0.00000000000E+00 -0.74505805969E-08  0.93827000000E+00  0.93827000000E+00 0. -1.
     999902    2    1    2    0    0 -0.98247564576E-02  0.94369926405E-02 -0.18854070906E-01  0.10206693324E+01  0.10204042470E+01 0.  0.
     999903    2    3    3    0    0  0.90182732531E-01  0.74467547467E-01 -0.56284274065E-01  0.13183217572E+00  0.23096800087E-01 0.  0.
         14    1    1    2    0    0  0.98247564576E-02 -0.94369926405E-02  0.18854070906E-01  0.23260667645E-01  0.00000000000E+00 0.  1.
     999901    1    3    3    0    0 -0.10000748899E+00 -0.65030554827E-01  0.37430203159E-01  0.88883715664E+00  0.88000000000E+00 0.  1.
        -11    1    4    4    0    0  0.82906446014E-01  0.58227431805E-01 -0.45932494426E-01  0.11123833768E+00  0.51100000000E-03 0. -1.
         11    1    4    4    0    0  0.72762865168E-02  0.16240115663E-01 -0.10351779639E-01  0.20593838032E-01  0.51100000000E-03 0.  1.
</event>
<event>
 8    1  0.1072332E+005  0.1043930E+01  0.7957747E-01            NaN
         13   -1    0    0    0    0  0.00000000000E+00  0.00000000000E+00  0.74505805969E-08  0.10566000000E+00  0.10566000000E+00 0.  1.
     999900   -1    0    0    0    0 -0.00000000000E+00 -0.00000000000E+00 -0.74505805969E-08  0.93827000000E+00  0.93827000000E+00 0. -1.
     999902    2    1    2    0    0 -0.13862702094E-01 -0.17605928736E-01 -0.61848397289E-03  0.10215129137E+01  0.10212669128E+01 0.  0.
     999903    2    3    3    0    0 -0.12253456440E+00  0.44695074984E-01 -0.13887269343E-01  0.13254325764E+00  0.19039162126E-01 0.  0.
         14    1    1    2    0    0  0.13862702094E-01  0.17605928736E-01  0.61848397289E-03  0.22417086305E-01  0.00000000000E+00 0. -1.
     999901    1    3    3    0    0  0.10867186231E+00 -0.62301003720E-01  0.13268785370E-01  0.88896965606E+00  0.88000000000E+00 0.  1.
        -11    1    4    4    0    0 -0.72016449474E-02 -0.16649384231E-02 -0.19932864833E-02  0.76726802296E-02  0.51100000000E-03 0. -1.
         11    1    4    4    0    0 -0.11533291946E+00  0.46360013407E-01 -0.11893982860E-01  0.12487057741E+00  0.51100000000E-03 0.  1.
</event>
<event>
 8    1  0.1072332E+005  0.1043930E+01  0.7957747E-01            NaN
         13   -1    0    0    0    0  0.00000000000E+00  0.00000000000E+00  0.74505805969E-08  0.10566000000E+00  0.10566000000E+00 0.  1.
     999900   -1    0    0    0    0 -0.00000000000E+00 -0.00000000000E+00 -0.74505805969E-08  0.93827000000E+00  0.93827000000E+00 0. -1.
     999902    2    1    2    0    0  0.31300968752E-02  0.58847196421E-02  0.21713030335E-01  0.10212169395E+01  0.10209643257E+01 0.  0.
     999903    2    3    3    0    0  0.33397887366E-01  0.56044475456E-01  0.11570120816E+00  0.13427504859E+00  0.19662578560E-01 0.  0.
         14    1    1    2    0    0 -0.31300968752E-02 -0.58847196421E-02 -0.21713030335E-01  0.22713060517E-01  0.00000000000E+00 0. -1.
     999901    1    3    3    0    0 -0.30267790490E-01 -0.50159755813E-01 -0.93988177825E-01  0.88694189089E+00  0.88000000000E+00 0. -1.
        -11    1    4    4    0    0  0.19412050775E-01  0.22878965658E-01  0.36322044253E-01  0.47115037987E-01  0.51100000000E-03 0. -1.
         11    1    4    4    0    0  0.13985836591E-01  0.33165509798E-01  0.79379163907E-01  0.87160010606E-01  0.51100000000E-03 0.  1.
</event>
<event>
 8    1  0.1072332E+005  0.1043930E+01  0.7957747E-01            NaN
         13   -1    0    0    0    0  0.00000000000E+00  0.00000000000E+00  0.74505805969E-08  0.10566000000E+00  0.10566000000E+00 0. -1.
     999900   -1    0    0    0    0 -0.00000000000E+00 -0.00000000000E+00 -0.74505805969E-08  0.93827000000E+00  0.93827000000E+00 0. -1.
     999902    2    1    2    0    0  0.18761573422E-01  0.15898168830E-01 -0.13319262660E-01  0.10159630344E+01  0.10155780305E+01 0.  0.
     999903    2    3    3    0    0 -0.12141821627E+00  0.17322824058E-01 -0.12422845780E-01  0.12486640287E+00  0.19870279122E-01 0.  0.
         14    1    1    2    0    0 -0.18761573422E-01 -0.15898168830E-01  0.13319262660E-01  0.27966965642E-01  0.00000000000E+00 0. -1.
     999901    1    3    3    0    0  0.14017978970E+00 -0.14246552280E-02 -0.89641687971E-03  0.89109663149E+00  0.88000000000E+00 0. -1.
        -11    1    4    4    0    0 -0.66387960548E-01  0.14036628271E-03 -0.10216458639E-01  0.67171557646E-01  0.51100000000E-03 0. -1.
         11    1    4    4    0    0 -0.55030255727E-01  0.17182457775E-01 -0.22063871415E-02  0.57694845227E-01  0.51100000000E-03 0.  1.
</event>
<event>
 8    1  0.1072332E+005  0.1043930E+01  0.7957747E-01            NaN
         13   -1    0    0    0    0  0.00000000000E+00  0.00000000000E+00  0.74505805969E-08  0.10566000000E+00  0.10566000000E+00 0. -1.
     999900   -1    0    0    0    0 -0.00000000000E+00 -0.00000000000E+00 -0.74505805969E-08  0.93827000000E+00  0.93827000000E+00 0. -1.
     999902    2    1    2    0    0 -0.19533045341E-01 -0.11947246192E-01 -0.75886617159E-02  0.10198081357E+01  0.10195228145E+01 0.  0.
     999903    2    3    3    0    0  0.47123655747E-01  0.39116827542E-01  0.11051477560E+00  0.12795664729E+00  0.20214421400E-01 0.  0.
         14    1    1    2    0    0  0.19533045341E-01  0.11947246192E-01  0.75886617159E-02  0.24121864325E-01  0.00000000000E+00 0.  1.
     999901    1    3    3    0    0 -0.66656701088E-01 -0.51064073735E-01 -0.11810343731E+00  0.89185148838E+00  0.88000000000E+00 0. -1.
        -11    1    4    4    0    0  0.95623973055E-02  0.18687706430E-01  0.45887561410E-01  0.50463840788E-01  0.51100000000E-03 0.  1.
         11    1    4    4    0    0  0.37561258442E-01  0.20429121112E-01  0.64627214188E-01  0.77492806504E-01  0.51100000000E-03 0. -1.
</event>
<event>
 8    1  0.1072332E+005  0.1043930E+01  0.7957747E-01            NaN
         13   -1    0    0    0    0  0.00000000000E+00  0.00000000000E+00  0.74505805969E-08  0.10566000000E+00  0.10566000000E+00 0. -1.
     999900   -1    0    0    0    0 -0.00000000000E+00 -0.00000000000E+00 -0.74505805969E-08  0.93827000000E+00  0.93827000000E+00 0.  1.
     999902    2    1    2    0    0  0.15071123169E-01  0.15658594962E-01  0.92780706094E-02  0.10202992373E+01  0.10200255491E+01 0.  0.
     999903    2    3    3    0    0  0.10569532139E+00 -0.52633614781E-01 -0.52607764274E-01  0.13085759913E+00  0.20355245507E-01 0.  0.
         14    1    1    2    0    0 -0.15071123169E-01 -0.15658594962E-01 -0.92780706094E-02  0.23630762662E-01  0.00000000000E+00 0.  1.
     999901    1    3    3    0    0 -0.90624198223E-01  0.68292209743E-01  0.61885834883E-01  0.88944163821E+00  0.88000000000E+00 0. -1.
        -11    1    4    4    0    0  0.48018791317E-01 -0.28707935364E-01 -0.34939366605E-01  0.65961885450E-01  0.51100000000E-03 0. -1.
         11    1    4    4    0    0  0.57676530075E-01 -0.23925679417E-01 -0.17668397669E-01  0.64895713682E-01  0.51100000000E-03 0.  1.
</event>
<event>
 8    1  0.1072332E+005  0.1043930E+01  0.7957747E-01            NaN
         13   -1    0    0    0    0  0.00000000000E+00  0.00000000000E+00  0.74505805969E-08  0.10566000000E+00  0.10566000000E+00 0.  1.
     999900   -1    0    0    0    0 -0.00000000000E+00 -0.00000000000E+00 -0.74505805969E-08  0.93827000000E+00  0.93827000000E+00 0. -1.
     999902    2    1    2    0    0 -0.19632589585E-01  0.16330461720E-01  0.30855364253E-02  0.10182075761E+01  0.10178826185E+01 0.  0.
     999903    2    3    3    0    0 -0.62294075182E-01 -0.43619459409E-01  0.10287326548E+00  0.12951663647E+00  0.20209931468E-01 0.  0.
         14    1    1    2    0    0  0.19632589585E-01 -0.16330461720E-01 -0.30855364253E-02  0.25722423852E-01  0.00000000000E+00 0. -1.
     999901    1    3    3    0    0  0.42661485596E-01  0.59949921129E-01 -0.99787729055E-01  0.88869093968E+00  0.88000000000E+00 0. -1.
        -11    1    4    4    0    0 -0.28639543852E-01 -0.23129390773E-01  0.65873738364E-01  0.75463916653E-01  0.51100000000E-03 0.  1.
         11    1    4    4    0    0 -0.33654531329E-01 -0.20490068636E-01  0.36999527116E-01  0.54052719816E-01  0.51100000000E-03 0. -1.
</event>
<event>
 8    1  0.1072332E+005  0.1043930E+01  0.7957747E-01            NaN
         13   -1    0    0    0    0  0.00000000000E+00  0.00000000000E+00  0.74505805969E-08  0.10566000000E+00  0.10566000000E+00 0.  1.
     999900   -1    0    0    0    0 -0.00000000000E+00 -0.00000000000E+00 -0.74505805969E-08  0.93827000000E+00  0.93827000000E+00 0. -1.
     999902    2    1    2    0    0  0.55157978646E-02  0.18850427629E-01  0.44475153637E-02  0.10237919008E+01  0.10235938223E+01 0.  0.
     999903    2    3    3    0    0 -0.63579600920E-01  0.87582709808E-01  0.79168913894E-01  0.13526413634E+00  0.17764372872E-01 0.  0.
         14    1    1    2    0    0 -0.55157978646E-02 -0.18850427629E-01 -0.44475153637E-02  0.20138099235E-01  0.00000000000E+00 0. -1.
     999901    1    3    3    0    0  0.69095398785E-01 -0.68732282178E-01 -0.74721398531E-01  0.88852776442E+00  0.88000000000E+00 0. -1.
        -11    1    4    4    0    0 -0.28507116540E-01  0.29645647305E-01  0.38047031769E-01  0.56029972738E-01  0.51100000000E-03 0. -1.
         11    1    4    4    0    0 -0.35072484380E-01  0.57937062502E-01  0.41121882126E-01  0.79234163607E-01  0.51100000000E-03 0.  1.
</event>
<event>
 8    1  0.1072332E+005  0.1043930E+01  0.7957747E-01            NaN
         13   -1    0    0    0    0  0.00000000000E+00  0.00000000000E+00  0.74505805969E-08  0.10566000000E+00  0.10566000000E+00 0. -1.
     999900   -1    0    0    0    0 -0.00000000000E+00 -0.00000000000E+00 -0.74505805969E-08  0.93827000000E+00  0.93827000000E+00 0. -1.
     999902    2    1    2    0    0 -0.30256380719E-02 -0.26908217202E-01 -0.11084127088E-02  0.10168295347E+01  0.10164683308E+01 0.  0.
     999903    2    3    3    0    0  0.94176530557E-01  0.70902152754E-01 -0.38221763058E-01  0.12531816026E+00  0.18638775319E-01 0.  0.
         14    1    1    2    0    0  0.30256380719E-02  0.26908217202E-01  0.11084127088E-02  0.27100465263E-01  0.00000000000E+00 0.  1.
     999901    1    3    3    0    0 -0.97202168629E-01 -0.97810369956E-01  0.37113350350E-01  0.89151137448E+00  0.88000000000E+00 0.  1.
        -11    1    4    4    0    0  0.38219367645E-01  0.38305110298E-01 -0.22959664777E-01  0.58782725914E-01  0.51100000000E-03 0.  1.
         11    1    4    4    0    0  0.55957162912E-01  0.32597042456E-01 -0.15262098281E-01  0.66535434341E-01  0.51100000000E-03 0. -1.
</event>
<event>
 8    1  0.1072332E+005  0.1043930E+01  0.7957747E-01            NaN
         13   -1    0    0    0    0  0.00000000000E+00  0.00000000000E+00  0.74505805969E-08  0.10566000000E+00  0.10566000000E+00 0.  1.
     999900   -1    0    0    0    0 -0.00000000000E+00 -0.00000000000E+00 -0.74505805969E-08  0.93827000000E+00  0.93827000000E+00 0.  1.
     999902    2    1    2    0    0 -0.19081883081E-01 -0.14257468813E-01  0.89660676224E-03  0.10200931046E+01  0.10198145638E+01 0.  0.
     999903    2    3    3    0    0 -0.80617674027E-01 -0.27640044052E-01 -0.97199372749E-01  0.13240590288E+00  0.28643038502E-01 0.  0.
         14    1    1    2    0    0  0.19081883081E-01  0.14257468813E-01 -0.89660676224E-03  0.23836895405E-01  0.00000000000E+00 0. -1.
     999901    1    3    3    0    0  0.61535790945E-01  0.13382575239E-01  0.98095979511E-01  0.88768720171E+00  0.88000000000E+00 0. -1.
        -11    1    4    4    0    0 -0.22184953516E-01 -0.21779213612E-01 -0.36460562086E-01  0.47918055227E-01  0.51100000000E-03 0. -1.
         11    1    4    4    0    0 -0.58432720511E-01 -0.58608304393E-02 -0.60738810663E-01  0.84487847656E-01  0.51100000000E-03 0.  1.
</event>
<event>
 8    1  0.1072332E+005  0.1043930E+01  0.7957747E-01            NaN
         13   -1    0    0    0    0  0.00000000000E+00  0.00000000000E+00  0.74505805969E-08  0.10566000000E+00  0.10566000000E+00 0. -1.
     999900   -1    0    0    0    0 -0.00000000000E+00 -0.00000000000E+00 -0.74505805969E-08  0.93827000000E+00  0.93827000000E+00 0.  1.
     999902    2    1    2    0    0 -0.39738653090E-02  0.31058475664E-01 -0.46497821660E-03  0.10126148803E+01  0.10121305544E+01 0.  0.
     999903    2    3    3    0    0 -0.21155047568E-01  0.74311678077E-01  0.97397800179E-01  0.12596773746E+00  0.20292310478E-01 0.  0.
         14    1    1    2    0    0  0.39738653090E-02 -0.31058475664E-01  0.46497821660E-03  0.31315119683E-01  0.00000000000E+00 0.  1.
     999901    1    3    3    0    0  0.17181182259E-01 -0.43253202413E-01 -0.97862778396E-01  0.88664714286E+00  0.88000000000E+00 0.  1.
        -11    1    4    4    0    0 -0.33410829639E-02  0.58236955223E-02  0.19953978657E-01  0.21059455125E-01  0.51100000000E-03 0.  1.
         11    1    4    4    0    0 -0.17813964604E-01  0.68487982554E-01  0.77443821522E-01  0.10490828233E+00  0.51100000000E-03 0. -1.
</event>
<event>
 8    1  0.1072332E+005  0.1043930E+01  0.7957747E-01            NaN
         13   -1    0    0    0    0  0.00000000000E+00  0.00000000000E+00  0.74505805969E-08  0.10566000000E+00  0.10566000000E+00 0.  1.
     999900   -1    0    0    0    0 -0.00000000000E+00 -0.00000000000E+00 -0.74505805969E-08  0.93827000000E+00  0.93827000000E+00 0.  1.
     999902    2    1    2    0    0  0.12036350373E-01 -0.21238364296E-01  0.29064518368E-02  0.10193456694E+01  0.10190491668E+01 0.  0.
     999903    2    3    3    0    0  0.33077113040E-01  0.42903560411E-01 -0.11532016130E+00  0.12887701064E+00  0.19383842913E-01 0.  0.
         14    1    1    2    0    0 -0.12036350373E-01  0.21238364296E-01 -0.29064518368E-02  0.24584330590E-01  0.00000000000E+00 0.  1.
     999901    1    3    3    0    0 -0.21040762667E-01 -0.64141924707E-01  0.11822661314E+00  0.89046865877E+00  0.88000000000E+00 0. -1.
        -11    1    4    4    0    0  0.13936163507E-01  0.14324350409E-01 -0.64352543926E-01  0.67386309430E-01  0.51100000000E-03 0.  1.
         11    1    4    4    0    0  0.19140949534E-01  0.28579210002E-01 -0.50967617374E-01  0.61490701209E-01  0.51100000000E-03 0. -1.
</event>
<event>
 7    1  0.1072332E+005  0.1043930E+01  0.7957747E-01            NaN
         13   -1    0    0    0    0  0.00000000000E+00  0.00000000000E+00  0.74505805969E-08  0.10566000000E+00  0.10566000000E+00 0.  1.
     999900   -1    0    0    0    0 -0.00000000000E+00 -0.00000000000E+00 -0.74505805969E-08  0.93827000000E+00  0.93827000000E+00 0. -1.
     999903    2    1    2    0    0 -0.11994895009E-01 -0.78573833118E-01 -0.33501887678E-01  0.88548305149E-01  0.20017520067E-01 0.  0.
         14    1    1    2    0    0 -0.13988310252E-01 -0.18289590070E-01 -0.60478476012E-01  0.64713429745E-01  0.00000000000E+00 0. -1.
     999901    1    1    2    0    0  0.25983205261E-01  0.96863423189E-01  0.93980363690E-01  0.89066826511E+00  0.88000000000E+00 0.  1.
        -11    1    3    3    0    0 -0.15300532474E-01 -0.60243114722E-01 -0.31847234646E-01  0.69841582463E-01  0.51100000000E-03 0. -1.
         11    1    3    3    0    0  0.33056374656E-02 -0.18330718396E-01 -0.16546530315E-02  0.18706722686E-01  0.51100000000E-03 0.  1.
</event>
<event>
 8    1  0.1072332E+005  0.1043930E+01  0.7957747E-01            NaN
         13   -1    0    0    0    0  0.00000000000E+00  0.00000000000E+00  0.74505805969E-08  0.10566000000E+00  0.10566000000E+00 0. -1.
     999900   -1    0    0    0    0 -0.00000000000E+00 -0.00000000000E+00 -0.74505805969E-08  0.93827000000E+00  0.93827000000E+00 0. -1.
     999902    2    1    2    0    0  0.44370211017E-02 -0.19048603395E-01  0.15355367558E-01  0.10190638833E+01  0.10187604598E+01 0.  0.
     999903    2    3    3    0    0 -0.98007208103E-01 -0.82811429537E-01  0.16480898351E-01  0.13082867518E+00  0.19528864212E-01 0.  0.
         14    1    1    2    0    0 -0.44370211017E-02  0.19048603395E-01 -0.15355367558E-01  0.24866116714E-01  0.00000000000E+00 0.  1.
     999901    1    3    3    0    0  0.10244422921E+00  0.63762826142E-01 -0.11255307925E-02  0.88823520810E+00  0.88000000000E+00 0.  1.
        -11    1    4    4    0    0 -0.79597366730E-01 -0.75137684715E-01  0.10314096900E-01  0.10994568737E+00  0.51100000000E-03 0.  1.
         11    1    4    4    0    0 -0.18409841373E-01 -0.76737448221E-02  0.61668014510E-02  0.20882987816E-01  0.51100000000E-03 0. -1.
</event>
<event>
 8    1  0.1072332E+005  0.1043930E+01  0.7957747E-01            NaN
         13   -1    0    0    0    0  0.00000000000E+00  0.00000000000E+00  0.74505805969E-08  0.10566000000E+00  0.10566000000E+00 0. -1.
     999900   -1    0    0    0    0 -0.00000000000E+00 -0.00000000000E+00 -0.74505805969E-08  0.93827000000E+00  0.93827000000E+00 0.  1.
     999902    2    1    2    0    0 -0.35430086734E-02 -0.20624055712E-01 -0.14405917905E-01  0.10185245861E+01  0.10182076888E+01 0.  0.
     999903    2    3    3    0    0 -0.66134536736E-01  0.79176572022E-01 -0.75971681390E-01  0.12854244701E+00  0.10428700910E-01 0.  0.
         14    1    1    2    0    0  0.35430086734E-02  0.20624055712E-01  0.14405917905E-01  0.25405413895E-01  0.00000000000E+00 0.  1.
     999901    1    3    3    0    0  0.62591528063E-01 -0.99800627734E-01  0.61565763485E-01  0.88998213910E+00  0.88000000000E+00 0. -1.
        -11    1    4    4    0    0 -0.39510340418E-01  0.42969827021E-01 -0.37519534336E-01  0.69393440698E-01  0.51100000000E-03 0. -1.
         11    1    4    4    0    0 -0.26624196319E-01  0.36206745001E-01 -0.38452147054E-01  0.59149006308E-01  0.51100000000E-03 0.  1.
</event>
<event>
 8    1  0.1072332E+005  0.1043930E+01  0.7957747E-01            NaN
         13   -1    0    0    0    0  0.00000000000E+00  0.00000000000E+00  0.74505805969E-08  0.10566000000E+00  0.10566000000E+00 0.  1.
     999900   -1    0    0    0    0 -0.00000000000E+00 -0.00000000000E+00 -0.74505805969E-08  0.93827000000E+00  0.93827000000E+00 0.  1.
     999902    2    1    2    0    0  0.33426524966E-02  0.23594548835E-01  0.28361080193E-02  0.10199316757E+01  0.10196493042E+01 0.  0.
     999903    2    3    3    0    0 -0.90018533040E-01 -0.35418283062E-01 -0.82681309013E-01  0.12891424944E+00  0.20612951799E-01 0.  0.
         14    1    1    2    0    0 -0.33426524966E-02 -0.23594548835E-01 -0.28361080193E-02  0.23998324298E-01  0.00000000000E+00 0. -1.
     999901    1    3    3    0    0  0.93361185536E-01  0.59012831897E-01  0.85517417032E-01  0.89101742627E+00  0.88000000000E+00 0.  1.
        -11    1    4    4    0    0 -0.17045743519E-01 -0.13743297704E-01 -0.11703459700E-01  0.24832794725E-01  0.51100000000E-03 0. -1.
         11    1    4    4    0    0 -0.72972789521E-01 -0.21674985358E-01 -0.70977849313E-01  0.10408145471E+00  0.51100000000E-03 0.  1.
</event>
<event>
 8    1  0.1072332E+005  0.1043930E+01  0.7957747E-01            NaN
         13   -1    0    0    0    0  0.00000000000E+00  0.00000000000E+00  0.74505805969E-08  0.10566000000E+00  0.10566000000E+00 0. -1.
     999900   -1    0    0    0    0 -0.00000000000E+00 -0.00000000000E+00 -0.74505805969E-08  0.93827000000E+00  0.93827000000E+00 0.  1.
     999902    2    1    2    0    0 -0.16645309141E-01  0.15982840165E-01  0.41128099613E-02  0.10204900192E+01  0.10202207832E+01 0.  0.
     999903    2    3    3    0    0  0.39040565137E-01 -0.10259447350E+00  0.64391414014E-01  0.12875294691E+00  0.19526275131E-01 0.  0.
         14    1    1    2    0    0  0.16645309141E-01 -0.15982840165E-01 -0.41128099613E-02  0.23439980843E-01  0.00000000000E+00 0. -1.
     999901    1    3    3    0    0 -0.55685874278E-01  0.11857731367E+00 -0.60278604053E-01  0.89173707225E+00  0.88000000000E+00 0.  1.
        -11    1    4    4    0    0  0.20976991727E-01 -0.31400784750E-01  0.26212813985E-01  0.45971906670E-01  0.51100000000E-03 0.  1.
         11    1    4    4    0    0  0.18063573410E-01 -0.71193688751E-01  0.38178600028E-01  0.82781040242E-01  0.51100000000E-03 0. -1.
</event>
<event>
 8    1  0.1072332E+005  0.1043930E+01  0.7957747E-01            NaN
         13   -1    0    0    0    0  0.00000000000E+00  0.00000000000E+00  0.74505805969E-08  0.10566000000E+00  0.10566000000E+00 0.  1.
     999900   -1    0    0    0    0 -0.00000000000E+00 -0.00000000000E+00 -0.74505805969E-08  0.93827000000E+00  0.93827000000E+00 0.  1.
     999902    2    1    2    0    0 -0.21967744912E-01  0.97495239246E-02 -0.24230097214E-02  0.10197741310E+01  0.10194879951E+01 0.  0.
     999903    2    3    3    0    0 -0.48262219918E-01 -0.99025617158E-01 -0.66683486618E-01  0.13036261786E+00  0.20307880805E-01 0.  0.
         14    1    1    2    0    0  0.21967744912E-01 -0.97495239246E-02  0.24230097214E-02  0.24155869046E-01  0.00000000000E+00 0.  1.
     999901    1    3    3    0    0  0.26294475006E-01  0.10877514108E+00  0.64260476896E-01  0.88941151309E+00  0.88000000000E+00 0. -1.
        -11    1    4    4    0    0 -0.17961899393E-01 -0.18705826309E-01 -0.19087195500E-01  0.32204346302E-01  0.51100000000E-03 0.  1.
         11    1    4    4    0    0 -0.30300320525E-01 -0.80319790849E-01 -0.47596291118E-01  0.98158271557E-01  0.51100000000E-03 0. -1.
</event>
<event>
 8    1  0.1072332E+005  0.1043930E+01  0.7957747E-01            NaN
         13   -1    0    0    0    0  0.00000000000E+00  0.00000000000E+00  0.74505805969E-08  0.10566000000E+00  0.10566000000E+00 0.  1.
     999900   -1    0    0    0    0 -0.00000000000E+00 -0.00000000000E+00 -0.74505805969E-08  0.93827000000E+00  0.93827000000E+00 0.  1.
     999902    2    1    2    0    0 -0.15453451188E-01  0.18257166114E-01 -0.44938087775E-02  0.10195922190E+01  0.10193017048E+01 0.  0.
     999903    2    3    3    0    0  0.71114812408E-02 -0.77582362046E-01 -0.10129003313E+00  0.12882631236E+00  0.16338662071E-01 0.  0.
         14    1    1    2    0    0  0.15453451188E-01 -0.18257166114E-01  0.44938087775E-02  0.24337781031E-01  0.00000000000E+00 0.  1.
     999901    1    3    3    0    0 -0.22564932429E-01  0.95839528161E-01  0.96796224351E-01  0.89076590661E+00  0.88000000000E+00 0. -1.
        -11    1    4    4    0    0  0.48632162267E-02 -0.66532634297E-01 -0.75966586639E-01  0.10110106679E+00  0.51100000000E-03 0.  1.
         11    1    4    4    0    0  0.22482650141E-02 -0.11049727749E-01 -0.25323446490E-01  0.27725245572E-01  0.51100000000E-03 0. -1.
</event>
<event>
 8    1  0.1072332E+005  0.1043930E+01  0.7957747E-01            NaN
         13   -1    0    0    0    0  0.00000000000E+00  0.00000000000E+00  0.74505805969E-08  0.10566000000E+00  0.10566000000E+00 0. -1.
     999900   -1    0    0    0    0 -0.00000000000E+00 -0.00000000000E+00 -0.74505805969E-08  0.93827000000E+00  0.93827000000E+00 0. -1.
     999902    2    1    2    0    0  0.67730555637E-02 -0.22890327717E-01 -0.80503792090E-03  0.10200450786E+01  0.10197654009E+01 0.  0.
     999903    2    3    3    0    0 -0.87030492526E-01  0.90974505939E-01 -0.21659195623E-02  0.12776364430E+00  0.21637704078E-01 0.  0.
         14    1    1    2    0    0 -0.67730555637E-02  0.22890327717E-01  0.80503792090E-03  0.23884921409E-01  0.00000000000E+00 0. -1.
     999901    1    3    3    0    0  0.93803548089E-01 -0.11386483366E+00  0.13608816414E-02  0.89228143429E+00  0.88000000000E+00 0.  1.
        -11    1    4    4    0    0 -0.34863330474E-01  0.30584094330E-01 -0.10413440777E-01  0.47534613784E-01  0.51100000000E-03 0.  1.
         11    1    4    4    0    0 -0.52167162051E-01  0.60390411608E-01  0.82475212143E-02  0.80229030518E-01  0.51100000000E-03 0. -1.
</event>
<event>
 8    1  0.1072332E+005  0.1043930E+01  0.7957747E-01            NaN
         13   -1    0    0    0    0  0.00000000000E+00  0.00000000000E+00  0.74505805969E-08  0.10566000000E+00  0.10566000000E+00 0. -1.
     999900   -1    0    0    0    0 -0.00000000000E+00 -0.00000000000E+00 -0.74505805969E-08  0.93827000000E+00  0.93827000000E+00 0. -1.
     999902    2    1    2    0    0 -0.63697788217E-02  0.20293705561E-01  0.13258363073E-01  0.10188662262E+01  0.10185578992E+01 0.  0.
     999903    2    3    3    0    0  0.46584268013E-02  0.32535673248E-01  0.12574496668E+00  0.13155302155E+00  0.20350180831E-01 0.  0.
         14    1    1    2    0    0  0.63697788217E-02 -0.20293705561E-01 -0.13258363073E-01  0.25063773838E-01  0.00000000000E+00 0.  1.
     999901    1    3    3    0    0 -0.11028205623E-01 -0.12241967687E-01 -0.11248660360E+00  0.88731320461E+00  0.88000000000E+00 0. -1.
        -11    1    4    4    0    0  0.56755571315E-02  0.14802897996E-02  0.38307669618E-01  0.38757475140E-01  0.51100000000E-03 0.  1.
         11    1    4    4    0    0 -0.10171303301E-02  0.31055383449E-01  0.87437297059E-01  0.92795546408E-01  0.51100000000E-03 0. -1.
</event>
<event>
 8    1  0.1072332E+005  0.1043930E+01  0.7957747E-01            NaN
         13   -1    0    0    0    0  0.00000000000E+00  0.00000000000E+00  0.74505805969E-08  0.10566000000E+00  0.10566000000E+00 0. -1.
     999900   -1    0    0    0    0 -0.00000000000E+00 -0.00000000000E+00 -0.74505805969E-08  0.93827000000E+00  0.93827000000E+00 0.  1.
     999902    2    1    2    0    0  0.17180356525E-01 -0.27663946028E-01  0.84309293463E-02  0.10102916420E+01  0.10097314805E+01 0.  0.
     999903    2    3    3    0    0  0.89964027981E-01  0.20327170136E-01  0.78740023788E-01  0.12319301228E+00  0.21675026020E-01 0.  0.
         14    1    1    2    0    0 -0.17180356525E-01  0.27663946028E-01 -0.84309293463E-02  0.33638358013E-01  0.00000000000E+00 0.  1.
     999901    1    3    3    0    0 -0.72783671456E-01 -0.47991116164E-01 -0.70309094442E-01  0.88709862970E+00  0.88000000000E+00 0.  1.
        -11    1    4    4    0    0  0.23725761956E-01  0.20107660823E-02  0.32768059139E-01  0.40508786472E-01  0.51100000000E-03 0.  1.
         11    1    4    4    0    0  0.66238266024E-01  0.18316404054E-01  0.45971964649E-01  0.82684225812E-01  0.51100000000E-03 0. -1.
</event>
<event>
 8    1  0.1072332E+005  0.1043930E+01  0.7957747E-01            NaN
         13   -1    0    0    0    0  0.00000000000E+00  0.00000000000E+00  0.74505805969E-08  0.10566000000E+00  0.10566000000E+00 0. -1.
     999900   -1    0    0    0    0 -0.00000000000E+00 -0.00000000000E+00 -0.74505805969E-08  0.93827000000E+00  0.93827000000E+00 0.  1.
     999902    2    1    2    0    0 -0.21231239568E-01  0.20268045238E-02  0.10512806136E-01  0.10201520152E+01  0.10198748656E+01 0.  0.
     999903    2    3    3    0    0 -0.66375378044E-01  0.47053102878E-01 -0.10058732241E+00  0.13087781709E+00  0.19786568102E-01 0.  0.
         14    1    1    2    0    0  0.21231239568E-01 -0.20268045238E-02 -0.10512806136E-01  0.23777984840E-01  0.00000000000E+00 0.  1.
     999901    1    3    3    0    0  0.45144138476E-01 -0.45026298354E-01  0.11110012855E+00  0.88927419807E+00  0.88000000000E+00 0. -1.
        -11    1    4    4    0    0 -0.48290343353E-01  0.28104459688E-01 -0.55647422504E-01  0.78858827457E-01  0.51100000000E-03 0. -1.
         11    1    4    4    0    0 -0.18085034690E-01  0.18948643190E-01 -0.44939899905E-01  0.52018989638E-01  0.51100000000E-03 0.  1.
</event>
<event>
 8    1  0.1072332E+005  0.1043930E+01  0.7957747E-01            NaN
         13   -1    0    0    0    0  0.00000000000E+00  0.00000000000E+00  0.74505805969E-08  0.10566000000E+00  0.10566000000E+00 0. -1.
     999900   -1    0    0    0    0 -0.00000000000E+00 -0.00000000000E+00 -0.74505805969E-08  0.93827000000E+00  0.93827000000E+00 0.  1.
     999902    2    1    2    0    0 -0.16699091522E-01 -0.46638731275E-02 -0.17854249438E-01  0.10190425414E+01  0.10187385905E+01 0.  0.
     999903    2    3    3    0    0  0.12570493326E+00 -0.64889720696E-02  0.60254407982E-02  0.12727324569E+00  0.17841976549E-01 0.  0.
         14    1    1    2    0    0  0.16699091522E-01  0.46638731275E-02  0.17854249438E-01  0.24887458553E-01  0.00000000000E+00 0. -1.
     999901    1    3    3    0    0 -0.14240402478E+00  0.18250989422E-02 -0.23879690236E-01  0.89176929576E+00  0.88000000000E+00 0. -1.
        -11    1    4    4    0    0  0.54963646944E-01 -0.11304339755E-01  0.66337341528E-04  0.56116451281E-01  0.51100000000E-03 0. -1.
         11    1    4    4    0    0  0.70741286311E-01  0.48153676857E-02  0.59591034567E-02  0.71156794404E-01  0.51100000000E-03 0.  1.
</event>
<event>
 8    1  0.1072332E+005  0.1043930E+01  0.7957747E-01            NaN
         13   -1    0    0    0    0  0.00000000000E+00  0.00000000000E+00  0.74505805969E-08  0.10566000000E+00  0.10566000000E+00 0. -1.
     999900   -1    0    0    0    0 -0.00000000000E+00 -0.00000000000E+00 -0.74505805969E-08  0.93827000000E+00  0.93827000000E+00 0.  1.
     999902    2    1    2    0    0 -0.10179272170E-02 -0.14798053181E-01  0.16118879827E-01  0.10220248216E+01  0.10217900465E+01 0.  0.
     999903    2    3    3    0    0  0.10215331651E+00  0.46562007136E-01 -0.63094303590E-01  0.13034994197E+00  0.20171654484E-01 0.  0.
         14    1    1    2    0    0  0.10179272170E-02  0.14798053181E-01 -0.16118879827E-01  0.21905178398E-01  0.00000000000E+00 0.  1.
     999901    1    3    3    0    0 -0.10317124373E+00 -0.61360060318E-01  0.79213183416E-01  0.89167487963E+00  0.88000000000E+00 0. -1.
        -11    1    4    4    0    0  0.13883584707E-01  0.89078253510E-02 -0.17660553557E-01  0.24171461473E-01  0.51100000000E-03 0.  1.
         11    1    4    4    0    0  0.88269731802E-01  0.37654181785E-01 -0.45433750033E-01  0.10617848050E+00  0.51100000000E-03 0. -1.
</event>
<event>
 8    1  0.1072332E+005  0.1043930E+01  0.7957747E-01            NaN
         13   -1    0    0    0    0  0.00000000000E+00  0.00000000000E+00  0.74505805969E-08  0.10566000000E+00  0.10566000000E+00 0. -1.
     999900   -1    0    0    0    0 -0.00000000000E+00 -0.00000000000E+00 -0.74505805969E-08  0.93827000000E+00  0.93827000000E+00 0.  1.
     999902    2    1    2    0    0  0.77156625934E-02  0.21944836396E-02 -0.20205248999E-01  0.10221906510E+01  0.10219594550E+01 0.  0.
     999903    2    3    3    0    0 -0.11689668514E+00  0.56277412457E-01  0.66649346410E-02  0.13136226845E+00  0.19484405802E-01 0.  0.
         14    1    1    2    0    0 -0.77156625934E-02 -0.21944836396E-02  0.20205248999E-01  0.21739348997E-01  0.00000000000E+00 0. -1.
     999901    1    3    3    0    0  0.12461234773E+00 -0.54082928818E-01 -0.26870183640E-01  0.89082838255E+00  0.88000000000E+00 0. -1.
        -11    1    4    4    0    0 -0.30419506807E-01  0.57402145799E-02 -0.24403430836E-03  0.30961542783E-01  0.51100000000E-03 0.  1.
         11    1    4    4    0    0 -0.86477178330E-01  0.50537197877E-01  0.69089689493E-02  0.10040072567E+00  0.51100000000E-03 0. -1.
</event>
<event>
 8    1  0.1072332E+005  0.1043930E+01  0.7957747E-01            NaN
         13   -1    0    0    0    0  0.00000000000E+00  0.00000000000E+00  0.74505805969E-08  0.10566000000E+00  0.10566000000E+00 0. -1.
     999900   -1    0    0    0    0 -0.00000000000E+00 -0.00000000000E+00 -0.74505805969E-08  0.93827000000E+00  0.93827000000E+00 0. -1.
     999902    2    1    2    0    0 -0.53182670533E-02 -0.23078187182E-01  0.79044379218E-02  0.10189626848E+01  0.10186567559E+01 0.  0.
     999903    2    3    3    0    0 -0.87753500948E-01  0.33614293400E-01 -0.85085096392E-01  0.12842539834E+00  0.20567247270E-01 0.  0.
         14    1    1    2    0    0  0.53182670533E-02  0.23078187182E-01 -0.79044379218E-02  0.24967315172E-01  0.00000000000E+00 0.  1.
     999901    1    3    3    0    0  0.82435233894E-01 -0.56692480582E-01  0.92989534313E-01  0.89053728649E+00  0.88000000000E+00 0.  1.
        -11    1    4    4    0    0 -0.24619810752E-01  0.19068199452E-01 -0.32133733767E-01  0.44750075739E-01  0.51100000000E-03 0.  1.
         11    1    4    4    0    0 -0.63133690195E-01  0.14546093948E-01 -0.52951362624E-01  0.83675322596E-01  0.51100000000E-03 0. -1.
</event>
<event>
 8    1  0.1072332E+005  0.1043930E+01  0.7957747E-01            NaN
         13   -1    0    0    0    0  0.00000000000E+00  0.00000000000E+00  0.74505805969E-08  0.10566000000E+00  0.10566000000E+00 0. -1.
     999900   -1    0    0    0    0 -0.00000000000E+00 -0.00000000000E+00 -0.74505805969E-08  0.93827000000E+00  0.93827000000E+00 0.  1.
     999902    2    1    2    0    0 -0.21598637803E-01 -0.10571824206E-01  0.32119726895E-02  0.10196693036E+01  0.10193806489E+01 0.  0.
     999903    2    3    3    0    0  0.94513490223E-01 -0.10669669153E-01  0.83949337607E-01  0.12837779238E+00  0.19665315101E-01 0.  0.
         14    1    1    2    0    0  0.21598637803E-01  0.10571824206E-01 -0.32119726895E-02  0.24260696416E-01  0.00000000000E+00 0.  1.
     999901    1    3    3    0    0 -0.11611212803E+00  0.97844946167E-04 -0.80737364918E-01  0.89129151120E+00  0.88000000000E+00 0.  1.
        -11    1    4    4    0    0  0.27077863661E-01 -0.12095632062E-01  0.26568356421E-01  0.39820267445E-01  0.51100000000E-03 0. -1.
         11    1    4    4    0    0  0.67435626562E-01  0.14259629099E-02  0.57380981186E-01  0.88557524936E-01  0.51100000000E-03 0.  1.
</event>
<event>
 8    1  0.1072332E+005  0.1043930E+01  0.7957747E-01            NaN
         13   -1    0    0    0    0  0.00000000000E+00  0.00000000000E+00  0.74505805969E-08  0.10566000000E+00  0.10566000000E+00 0. -1.
     999900   -1    0    0    0    0 -0.00000000000E+00 -0.00000000000E+00 -0.74505805969E-08  0.93827000000E+00  0.93827000000E+00 0. -1.
     999902    2    1    2    0    0 -0.19825498087E-01  0.83718947636E-02  0.98952207794E-02  0.10202434133E+01  0.10199684152E+01 0.  0.
     999903    2    3    3    0    0 -0.21476182173E-01 -0.43706220238E-01  0.12098335766E+00  0.13173036949E+00  0.18559561623E-01 0.  0.
         14    1    1    2    0    0  0.19825498087E-01 -0.83718947636E-02 -0.98952207794E-02  0.23686586724E-01  0.00000000000E+00 0. -1.
     999901    1    3    3    0    0  0.16506840858E-02  0.52078115002E-01 -0.11108813688E+00  0.88851304378E+00  0.88000000000E+00 0. -1.
        -11    1    4    4    0    0 -0.19232682396E-01 -0.32049277651E-01  0.10721160189E+00  0.11354136238E+00  0.51100000000E-03 0. -1.
         11    1    4    4    0    0 -0.22434997772E-02 -0.11656942587E-01  0.13771755764E-01  0.18189007108E-01  0.51100000000E-03 0.  1.
</event>
<event>
 8    1  0.1072332E+005  0.1043930E+01  0.7957747E-01            NaN
         13   -1    0    0    0    0  0.00000000000E+00  0.00000000000E+00  0.74505805969E-08  0.10566000000E+00  0.10566000000E+00 0.  1.
     999900   -1    0    0    0    0 -0.00000000000E+00 -0.00000000000E+00 -0.74505805969E-08  0.93827000000E+00  0.93827000000E+00 0.  1.
     999902    2    1    2    0    0  0.23027880211E-01  0.43955366740E-03 -0.34777666286E-02  0.10206368393E+01  0.10203710043E+01 0.  0.
     999903    2    3    3    0    0  0.85898267645E-01  0.66312575742E-01  0.73416083408E-01  0.13260271562E+00  0.20437436264E-01 0.  0.
         14    1    1    2    0    0 -0.23027880211E-01 -0.43955366740E-03  0.34777666286E-02  0.23293160695E-01  0.00000000000E+00 0. -1.
     999901    1    3    3    0    0 -0.62870387435E-01 -0.65873022075E-01 -0.76893850037E-01  0.88803412368E+00  0.88000000000E+00 0. -1.
        -11    1    4    4    0    0  0.45723330080E-01  0.24818259162E-01  0.41924142774E-01  0.66816642911E-01  0.51100000000E-03 0. -1.
         11    1    4    4    0    0  0.40174937565E-01  0.41494316580E-01  0.31491940634E-01  0.65786072711E-01  0.51100000000E-03 0.  1.
</event>
<event>
 8    1  0.1072332E+005  0.1043930E+01  0.7957747E-01            NaN
         13   -1    0    0    0    0  0.00000000000E+00  0.00000000000E+00  0.74505805969E-08  0.10566000000E+00  0.10566000000E+00 0. -1.
     999900   -1    0    0    0    0 -0.00000000000E+00 -0.00000000000E+00 -0.74505805969E-08  0.93827000000E+00  0.93827000000E+00 0. -1.
     999902    2    1    2    0    0 -0.61663168920E-02  0.11427203720E-01 -0.19051001695E-01  0.10208747378E+01  0.10206143665E+01 0.  0.
     999903    2    3    3    0    0 -0.11723296578E+00  0.56173691306E-01 -0.18069367586E-01  0.13276494041E+00  0.20024372530E-01 0.  0.
         14    1    1    2    0    0  0.61663168920E-02 -0.11427203720E-01  0.19051001695E-01  0.23055262186E-01  0.00000000000E+00 0. -1.
     999901    1    3    3    0    0  0.11106664889E+00 -0.44746487586E-01 -0.98163410903E-03  0.88810979741E+00  0.88000000000E+00 0. -1.
        -11    1    4    4    0    0 -0.27739999247E-01  0.20462191604E-01  0.12240869683E-02  0.34495917923E-01  0.51100000000E-03 0. -1.
         11    1    4    4    0    0 -0.89492966535E-01  0.35711499702E-01 -0.19293454555E-01  0.98269022483E-01  0.51100000000E-03 0.  1.
</event>
<event>
 8    1  0.1072332E+005  0.1043930E+01  0.7957747E-01            NaN
         13   -1    0    0    0    0  0.00000000000E+00  0.00000000000E+00  0.74505805969E-08  0.10566000000E+00  0.10566000000E+00 0. -1.
     999900   -1    0    0    0    0 -0.00000000000E+00 -0.00000000000E+00 -0.74505805969E-08  0.93827000000E+00  0.93827000000E+00 0. -1.
     999902    2    1    2    0    0  0.13644713462E-01 -0.16945820074E-01 -0.98999413767E-02  0.10200271160E+01  0.10197470125E+01 0.  0.
     999903    2    3    3    0    0  0.56599597850E-01 -0.87749255288E-01 -0.80392292052E-01  0.13333245604E+00  0.20277498153E-01 0.  0.
         14    1    1    2    0    0 -0.13644713462E-01  0.16945820074E-01  0.98999413767E-02  0.23902883983E-01  0.00000000000E+00 0. -1.
     999901    1    3    3    0    0 -0.42954884389E-01  0.70803435214E-01  0.70492350676E-01  0.88669465998E+00  0.88000000000E+00 0.  1.
        -11    1    4    4    0    0  0.29167544106E-01 -0.47436638928E-01 -0.30190287208E-01  0.63345835732E-01  0.51100000000E-03 0.  1.
         11    1    4    4    0    0  0.27432053744E-01 -0.40312616360E-01 -0.50202004844E-01  0.69986620306E-01  0.51100000000E-03 0. -1.
</event>
<event>
 8    1  0.1072332E+005  0.1043930E+01  0.7957747E-01            NaN
         13   -1    0    0    0    0  0.00000000000E+00  0.00000000000E+00  0.74505805969E-08  0.10566000000E+00  0.10566000000E+00 0.  1.
     999900   -1    0    0    0    0 -0.00000000000E+00 -0.00000000000E+00 -0.74505805969E-08  0.93827000000E+00  0.93827000000E+00 0.  1.
     999902    2    1    2    0    0  0.23347668912E-02  0.23545564345E-01 -0.51102296507E-02  0.10197234062E+01  0.10194360529E+01 0.  0.
     999903    2    3    3    0    0 -0.90526635991E-02 -0.35325811630E-01  0.11922353670E+00  0.12896283346E+00  0.32974187234E-01 0.  0.
         14    1    1    2    0    0 -0.23347668912E-02 -0.23545564345E-01  0.51102296507E-02  0.24206593809E-01  0.00000000000E+00 0.  1.
     999901    1    3    3    0    0  0.11387430490E-01  0.58871375974E-01 -0.12433376635E+00  0.89076057273E+00  0.88000000000E+00 0.  1.
        -11    1    4    4    0    0 -0.78817621658E-02 -0.29469262316E-01  0.44240092115E-01  0.53740175546E-01  0.51100000000E-03 0.  1.
         11    1    4    4    0    0 -0.11709014333E-02 -0.58565493135E-02  0.74983444588E-01  0.75222657911E-01  0.51100000000E-03 0. -1.
</event>
<event>
 8    1  0.1072332E+005  0.1043930E+01  0.7957747E-01            NaN
         13   -1    0    0    0    0  0.00000000000E+00  0.00000000000E+00  0.74505805969E-08  0.10566000000E+00  0.10566000000E+00 0.  1.
     999900   -1    0    0    0    0 -0.00000000000E+00 -0.00000000000E+00 -0.74505805969E-08  0.93827000000E+00  0.93827000000E+00 0. -1.
     999902    2    1    2    0    0  0.97385309298E-03  0.86672384866E-02  0.21857259061E-01  0.10203968492E+01  0.10201254436E+01 0.  0.
     999903    2    3    3    0    0 -0.13178951567E-01  0.11415534584E+00 -0.58160335353E-01  0.13037951337E+00  0.20274741659E-01 0.  0.
         14    1    1    2    0    0 -0.97385309298E-03 -0.86672384866E-02 -0.21857259061E-01  0.23533150798E-01  0.00000000000E+00 0. -1.
     999901    1    3    3    0    0  0.14152804660E-01 -0.10548810735E+00  0.80017594413E-01  0.89001733584E+00  0.88000000000E+00 0.  1.
        -11    1    4    4    0    0 -0.74666924742E-02  0.39539474571E-01 -0.30887380274E-01  0.50728817520E-01  0.51100000000E-03 0. -1.
         11    1    4    4    0    0 -0.57122590924E-02  0.74615871268E-01 -0.27272955079E-01  0.79650695846E-01  0.51100000000E-03 0.  1.
</event>
<event>
 8    1  0.1072332E+005  0.1043930E+01  0.7957747E-01            NaN
         13   -1    0    0    0    0  0.00000000000E+00  0.00000000000E+00  0.74505805969E-08  0.10566000000E+00  0.10566000000E+00 0.  1.
     999900   -1    0    0    0    0 -0.00000000000E+00 -0.00000000000E+00 -0.74505805969E-08  0.93827000000E+00  0.93827000000E+00 0.  1.
     999902    2    1    2    0    0  0.11596883315E-01  0.20583609181E-01 -0.31255549798E-02  0.10200984712E+01  0.10198200573E+01 0.  0.
     999903    2    3    3    0    0  0.11895327371E+00 -0.17300469350E-01  0.48696632501E-01  0.13125307574E+00  0.20169787014E-01 0.  0.
         14    1    1    2    0    0 -0.11596883315E-01 -0.20583609181E-01  0.31255549798E-02  0.23831528769E-01  0.00000000000E+00 0. -1.
     999901    1    3    3    0    0 -0.10735639040E+00  0.37884078531E-01 -0.51822187481E-01  0.88884539549E+00  0.88000000000E+00 0.  1.
        -11    1    4    4    0    0  0.59628722183E-01  0.14774053395E-02  0.24604953580E-01  0.64524662706E-01  0.51100000000E-03 0. -1.
         11    1    4    4    0    0  0.59324551530E-01 -0.18777874690E-01  0.24091678921E-01  0.66728413036E-01  0.51100000000E-03 0.  1.
</event>
<event>
 8    1  0.1072332E+005  0.1043930E+01  0.7957747E-01            NaN
         13   -1    0    0    0    0  0.00000000000E+00  0.00000000000E+00  0.74505805969E-08  0.10566000000E+00  0.10566000000E+00 0. -1.
     999900   -1    0    0    0    0 -0.00000000000E+00 -0.00000000000E+00 -0.74505805969E-08  0.93827000000E+00  0.93827000000E+00 0.  1.
     999902    2    1    2    0    0 -0.80054793726E-02 -0.53871381705E-02 -0.21353612891E-01  0.10204974214E+01  0.10202283574E+01 0.  0.
     999903    2    3    3    0    0  0.20089303579E-01  0.14557673827E-01 -0.12914910749E+00  0.13325056676E+00  0.21464286416E-01 0.  0.
         14    1    1    2    0    0  0.80054793726E-02  0.53871381705E-02  0.21353612891E-01  0.23432578628E-01  0.00000000000E+00 0. -1.
     999901    1    3    3    0    0 -0.28094782952E-01 -0.19944811997E-01  0.10779549460E+00  0.88724685461E+00  0.88000000000E+00 0. -1.
        -11    1    4    4    0    0  0.84722243445E-02  0.15631564992E-01 -0.46595657234E-01  0.49875252415E-01  0.51100000000E-03 0.  1.
         11    1    4    4    0    0  0.11617079235E-01 -0.10738911651E-02 -0.82553450259E-01  0.83375314349E-01  0.51100000000E-03 0. -1.
</event>
<event>
 8    1  0.1072332E+005  0.1043930E+01  0.7957747E-01            NaN
         13   -1    0    0    0    0  0.00000000000E+00  0.00000000000E+00  0.74505805969E-08  0.10566000000E+00  0.10566000000E+00 0.  1.
     999900   -1    0    0    0    0 -0.00000000000E+00 -0.00000000000E+00 -0.74505805969E-08  0.93827000000E+00  0.93827000000E+00 0.  1.
     999902    2    1    2    0    0 -0.16353936644E-01 -0.90647399287E-02 -0.21641174370E-01  0.10153299793E+01  0.10149270938E+01 0.  0.
     999903    2    3    3    0    0  0.96937629784E-02  0.14362384876E-01  0.12022843667E+00  0.12327936454E+00  0.21039904876E-01 0.  0.
         14    1    1    2    0    0  0.16353936644E-01  0.90647399287E-02  0.21641174370E-01  0.28600020662E-01  0.00000000000E+00 0.  1.
     999901    1    3    3    0    0 -0.26047699623E-01 -0.23427124805E-01 -0.14186961104E+00  0.89205061480E+00  0.88000000000E+00 0.  1.
        -11    1    4    4    0    0  0.71429764926E-02 -0.43136969974E-02  0.40085477453E-01  0.40947975757E-01  0.51100000000E-03 0.  1.
         11    1    4    4    0    0  0.25507864858E-02  0.18676081874E-01  0.80142959214E-01  0.82331388779E-01  0.51100000000E-03 0. -1.
</event>
<event>
 8    1  0.1072332E+005  0.1043930E+01  0.7957747E-01            NaN
         13   -1    0    0    0    0  0.00000000000E+00  0.00000000000E+00  0.74505805969E-08  0.10566000000E+00  0.10566000000E+00 0. -1.
     999900   -1    0    0    0    0 -0.00000000000E+00 -0.00000000000E+00 -0.74505805969E-08  0.93827000000E+00  0.93827000000E+00 0.  1.
     999902    2    1    2    0    0 -0.21689925936E-01 -0.86560851628E-02 -0.54073230133E-02  0.10199587706E+01  0.10196770439E+01 0.  0.
     999903    2    3    3    0    0 -0.94351903680E-02 -0.91667345103E-01 -0.91913096971E-01  0.13174466535E+00  0.20413585589E-01 0.  0.
         14    1    1    2    0    0  0.21689925936E-01  0.86560851628E-02  0.54073230133E-02  0.23971229414E-01  0.00000000000E+00 0. -1.
     999901    1    3    3    0    0 -0.12254735568E-01  0.83011259940E-01  0.86505773958E-01  0.88821410524E+00  0.88000000000E+00 0. -1.
        -11    1    4    4    0    0  0.33827089665E-02 -0.56336305952E-01 -0.49486879168E-01  0.75062869776E-01  0.51100000000E-03 0. -1.
         11    1    4    4    0    0 -0.12817899335E-01 -0.35331039151E-01 -0.42426217803E-01  0.56681795569E-01  0.51100000000E-03 0.  1.
</event>
<event>
 8    1  0.1072332E+005  0.1043930E+01  0.7957747E-01            NaN
         13   -1    0    0    0    0  0.00000000000E+00  0.00000000000E+00  0.74505805969E-08  0.10566000000E+00  0.10566000000E+00 0. -1.
     999900   -1    0    0    0    0 -0.00000000000E+00 -0.00000000000E+00 -0.74505805969E-08  0.93827000000E+00  0.93827000000E+00 0. -1.
     999902    2    1    2    0    0 -0.44014245553E-02 -0.22610692663E-01  0.49268041883E-02  0.10203739103E+01  0.10201019692E+01 0.  0.
     999903    2    3    3    0    0  0.14156366767E-02 -0.11236713806E+00 -0.67781038056E-01  0.13280617319E+00  0.20367444022E-01 0.  0.
         14    1    1    2    0    0  0.44014245553E-02  0.22610692663E-01 -0.49268041883E-02  0.23556089666E-01  0.00000000000E+00 0.  1.
     999901    1    3    3    0    0 -0.58170612320E-02  0.89756445393E-01  0.72707842244E-01  0.88756773714E+00  0.88000000000E+00 0.  1.
        -11    1    4    4    0    0  0.69507714495E-02 -0.78454374352E-01 -0.55328110497E-01  0.96254158408E-01  0.51100000000E-03 0. -1.
         11    1    4    4    0    0 -0.55351347728E-02 -0.33912763704E-01 -0.12452927559E-01  0.36552014784E-01  0.51100000000E-03 0.  1.
</event>
<event>
 8    1  0.1072332E+005  0.1043930E+01  0.7957747E-01            NaN
         13   -1    0    0    0    0  0.00000000000E+00  0.00000000000E+00  0.74505805969E-08  0.10566000000E+00  0.10566000000E+00 0.  1.
     999900   -1    0    0    0    0 -0.00000000000E+00 -0.00000000000E+00 -0.74505805969E-08  0.93827000000E+00  0.93827000000E+00 0. -1.
     999902    2    1    2    0    0  0.27736815455E-02  0.15713604610E-01  0.18823536910E-01  0.10192533669E+01  0.10189546063E+01 0.  0.
     999903    2    3    3    0    0 -0.61674194631E-01 -0.44123841122E-01  0.10459794501E+00  0.13072013863E+00  0.19909919769E-01 0.  0.
         14    1    1    2    0    0 -0.27736815455E-02 -0.15713604610E-01 -0.18823536910E-01  0.24676633097E-01  0.00000000000E+00 0. -1.
     999901    1    3    3    0    0  0.64447876177E-01  0.59837445732E-01 -0.85774408099E-01  0.88853322827E+00  0.88000000000E+00 0. -1.
        -11    1    4    4    0    0 -0.57029786669E-01 -0.38486609946E-01  0.10182440171E+00  0.12289054323E+00  0.51100000000E-03 0. -1.
         11    1    4    4    0    0 -0.46444079620E-02 -0.56372311761E-02  0.27735433039E-02  0.78295953988E-02  0.51100000000E-03 0.  1.
</event>
<event>
 8    1  0.1072332E+005  0.1043930E+01  0.7957747E-01            NaN
         13   -1    0    0    0    0  0.00000000000E+00  0.00000000000E+00  0.74505805969E-08  0.10566000000E+00  0.10566000000E+00 0.  1.
     999900   -1    0    0    0    0 -0.00000000000E+00 -0.00000000000E+00 -0.74505805969E-08  0.93827000000E+00  0.93827000000E+00 0. -1.
     999902    2    1    2    0    0  0.24376079166E-02 -0.20570467621E-01 -0.12059541878E-01  0.10199608819E+01  0.10196792055E+01 0.  0.
     999903    2    3    3    0    0 -0.58253719348E-01 -0.10398707935E+00  0.51781458202E-01  0.13163805683E+00  0.20986903088E-01 0.  0.
         14    1    1    2    0    0 -0.24376079166E-02  0.20570467621E-01  0.12059541878E-01  0.23969118065E-01  0.00000000000E+00 0. -1.
     999901    1    3    3    0    0  0.60691327265E-01  0.83416611733E-01 -0.63841000080E-01  0.88832282511E+00  0.88000000000E+00 0. -1.
        -11    1    4    4    0    0 -0.35103909485E-01 -0.78268025008E-01  0.30666353350E-01  0.91098049093E-01  0.51100000000E-03 0.  1.
         11    1    4    4    0    0 -0.23149809863E-01 -0.25719054345E-01  0.21115104852E-01  0.40540007733E-01  0.51100000000E-03 0. -1.
</event>
<event>
 8    1  0.1072332E+005  0.1043930E+01  0.7957747E-01            NaN
         13   -1    0    0    0    0  0.00000000000E+00  0.00000000000E+00  0.74505805969E-08  0.10566000000E+00  0.10566000000E+00 0.  1.
     999900   -1    0    0    0    0 -0.00000000000E+00 -0.00000000000E+00 -0.74505805969E-08  0.93827000000E+00  0.93827000000E+00 0.  1.
     999902    2    1    2    0    0 -0.41689988992E-02  0.10746682081E-01 -0.23308974206E-01  0.10179265386E+01  0.10175943484E+01 0.  0.
     999903    2    3    3    0    0  0.90417705677E-02 -0.95181761889E-01  0.79006037517E-01  0.12559043525E+00  0.19740366023E-01 0.  0.
         14    1    1    2    0    0  0.41689988992E-02 -0.10746682081E-01  0.23308974206E-01  0.26003461426E-01  0.00000000000E+00 0.  1.
     999901    1    3    3    0    0 -0.13210769467E-01  0.10592844397E+00 -0.10231501172E+00  0.89233610332E+00  0.88000000000E+00 0. -1.
        -11    1    4    4    0    0  0.33230652216E-02 -0.51431586452E-01  0.54927682578E-01  0.75323052792E-01  0.51100000000E-03 0. -1.
         11    1    4    4    0    0  0.57187053461E-02 -0.43750175437E-01  0.24078354939E-01  0.50267382458E-01  0.51100000000E-03 0.  1.
</event>
<event>
 8    1  0.1072332E+005  0.1043930E+01  0.7957747E-01            NaN
         13   -1    0    0    0    0  0.00000000000E+00  0.00000000000E+00  0.74505805969E-08  0.10566000000E+00  0.10566000000E+00 0. -1.
     999900   -1    0    0    0    0 -0.00000000000E+00 -0.00000000000E+00 -0.74505805969E-08  0.93827000000E+00  0.93827000000E+00 0.  1.
     999902    2    1    2    0    0  0.21894301825E-01  0.39773205340E-02  0.69421534584E-02  0.10206196369E+01  0.10203534046E+01 0.  0.
     999903    2    3    3    0    0  0.10562692124E+00 -0.73654066715E-01  0.27215296537E-01  0.13301117362E+00  0.19218009962E-01 0.  0.
         14    1    1    2    0    0 -0.21894301825E-01 -0.39773205340E-02 -0.69421534584E-02  0.23310363053E-01  0.00000000000E+00 0.  1.
     999901    1    3    3    0    0 -0.83732619419E-01  0.77631387249E-01 -0.20273143079E-01  0.88760846333E+00  0.88000000000E+00 0. -1.
        -11    1    4    4    0    0  0.36859679764E-01 -0.35770468228E-01  0.15321340462E-01  0.53601930787E-01  0.51100000000E-03 0.  1.
         11    1    4    4    0    0  0.68767241480E-01 -0.37883598487E-01  0.11893956075E-01  0.79409242832E-01  0.51100000000E-03 0. -1.
</event>
<event>
 8    1  0.1072332E+005  0.1043930E+01  0.7957747E-01            NaN
         13   -1    0    0    0    0  0.00000000000E+00  0.00000000000E+00  0.74505805969E-08  0.10566000000E+00  0.10566000000E+00 0. -1.
     999900   -1    0    0    0    0 -0.00000000000E+00 -0.00000000000E+00 -0.74505805969E-08  0.93827000000E+00  0.93827000000E+00 0. -1.
     999902    2    1    2    0    0 -0.17886096581E-01 -0.52718350949E-02 -0.69207346028E-02  0.10240402724E+01  0.10238470971E+01 0.  0.
     999903    2    3    3    0    0  0.56028471112E-01  0.92589567100E-01  0.72985428032E-01  0.13194991141E+00  0.19284421328E-01 0.  0.
         14    1    1    2    0    0  0.17886096581E-01  0.52718350949E-02  0.69207346028E-02  0.19889727590E-01  0.00000000000E+00 0. -1.
     999901    1    3    3    0    0 -0.73914567693E-01 -0.97861402195E-01 -0.79906162634E-01  0.89209036100E+00  0.88000000000E+00 0.  1.
        -11    1    4    4    0    0  0.23080660204E-01  0.47807240415E-01  0.45539759416E-01  0.69945549681E-01  0.51100000000E-03 0.  1.
         11    1    4    4    0    0  0.32947810909E-01  0.44782326685E-01  0.27445668616E-01  0.62004361731E-01  0.51100000000E-03 0. -1.
</event>
<event>
 8    1  0.1072332E+005  0.1043930E+01  0.7957747E-01            NaN
         13   -1    0    0    0    0  0.00000000000E+00  0.00000000000E+00  0.74505805969E-08  0.10566000000E+00  0.10566000000E+00 0. -1.
     999900   -1    0    0    0    0 -0.00000000000E+00 -0.00000000000E+00 -0.74505805969E-08  0.93827000000E+00  0.93827000000E+00 0.  1.
     999902    2    1    2    0    0 -0.13542315987E-01 -0.15329183993E-01 -0.11169157447E-01  0.10206248872E+01  0.10203587762E+01 0.  0.
     999903    2    3    3    0    0 -0.39588721718E-01 -0.11426157168E+00 -0.53467923998E-01  0.13368902806E+00  0.19772801478E-01 0.  0.
         14    1    1    2    0    0  0.13542315987E-01  0.15329183993E-01  0.11169157447E-01  0.23305112792E-01  0.00000000000E+00 0. -1.
     999901    1    3    3    0    0  0.26046405730E-01  0.98932387685E-01  0.42298766552E-01  0.88693585914E+00  0.88000000000E+00 0.  1.
        -11    1    4    4    0    0 -0.14640167740E-01 -0.47466872975E-01 -0.11637202350E-01  0.51020820662E-01  0.51100000000E-03 0.  1.
         11    1    4    4    0    0 -0.24948553978E-01 -0.66794698703E-01 -0.41830721648E-01  0.82668207402E-01  0.51100000000E-03 0. -1.
</event>
<event>
 8    1  0.1072332E+005  0.1043930E+01  0.7957747E-01            NaN
         13   -1    0    0    0    0  0.00000000000E+00  0.00000000000E+00  0.74505805969E-08  0.10566000000E+00  0.10566000000E+00 0.  1.
     999900   -1    0    0    0    0 -0.00000000000E+00 -0.00000000000E+00 -0.74505805969E-08  0.93827000000E+00  0.93827000000E+00 0.  1.
     999902    2    1    2    0    0  0.10798211603E-01 -0.17781316849E-01 -0.11912778505E-01  0.10199572885E+01  0.10196755266E+01 0.  0.
     999903    2    3    3    0    0 -0.39116526405E-01 -0.65320352703E-01  0.10330311297E+00  0.12977408120E+00  0.19311340831E-01 0.  0.
         14    1    1    2    0    0 -0.10798211603E-01  0.17781316849E-01  0.11912778505E-01  0.23972711453E-01  0.00000000000E+00 0.  1.
     999901    1    3    3    0    0  0.49914738008E-01  0.47539035854E-01 -0.11521589148E+00  0.89018320735E+00  0.88000000000E+00 0.  1.
        -11    1    4    4    0    0 -0.21667966172E-01 -0.49697808982E-01  0.62638983456E-01  0.82844893295E-01  0.51100000000E-03 0. -1.
         11    1    4    4    0    0 -0.17448560233E-01 -0.15622543721E-01  0.40664129519E-01  0.46929187901E-01  0.51100000000E-03 0.  1.
</event>
<event>
 8    1  0.1072332E+005  0.1043930E+01  0.7957747E-01            NaN
         13   -1    0    0    0    0  0.00000000000E+00  0.00000000000E+00  0.74505805969E-08  0.10566000000E+00  0.10566000000E+00 0. -1.
     999900   -1    0    0    0    0 -0.00000000000E+00 -0.00000000000E+00 -0.74505805969E-08  0.93827000000E+00  0.93827000000E+00 0.  1.
     999902    2    1    2    0    0 -0.11347749907E-01  0.12600650648E-01  0.16633298924E-01  0.10201768011E+01  0.10199002358E+01 0.  0.
     999903    2    3    3    0    0  0.86872308184E-01  0.62164694864E-03  0.96053449916E-01  0.13107712349E+00  0.20193134694E-01 0.  0.
         14    1    1    2    0    0  0.11347749907E-01 -0.12600650648E-01 -0.16633298924E-01  0.23753198896E-01  0.00000000000E+00 0.  1.
     999901    1    3    3    0    0 -0.98220058091E-01  0.11979003699E-01 -0.79420150992E-01  0.88909967761E+00  0.88000000000E+00 0.  1.
        -11    1    4    4    0    0  0.62006786506E-01  0.85828156486E-02  0.61394668106E-01  0.87681655379E-01  0.51100000000E-03 0. -1.
         11    1    4    4    0    0  0.24865521678E-01 -0.79611687000E-02  0.34658781810E-01  0.43395468116E-01  0.51100000000E-03 0.  1.
</event>
<event>
 8    1  0.1072332E+005  0.1043930E+01  0.7957747E-01            NaN
         13   -1    0    0    0    0  0.00000000000E+00  0.00000000000E+00  0.74505805969E-08  0.10566000000E+00  0.10566000000E+00 0. -1.
     999900   -1    0    0    0    0 -0.00000000000E+00 -0.00000000000E+00 -0.74505805969E-08  0.93827000000E+00  0.93827000000E+00 0.  1.
     999902    2    1    2    0    0 -0.12459481550E-01  0.40978119725E-02 -0.20051826036E-01  0.10199694810E+01  0.10196880090E+01 0.  0.
     999903    2    3    3    0    0 -0.47805048870E-01  0.20395591125E-01  0.11610406816E+00  0.12864835241E+00  0.19207839556E-01 0.  0.
         14    1    1    2    0    0  0.12459481550E-01 -0.40978119725E-02  0.20051826036E-01  0.23960519002E-01  0.00000000000E+00 0. -1.
     999901    1    3    3    0    0  0.35345567320E-01 -0.16297779152E-01 -0.13615589420E+00  0.89132112858E+00  0.88000000000E+00 0.  1.
        -11    1    4    4    0    0 -0.29374816549E-01  0.11590847106E-01  0.90735145473E-01  0.96074738245E-01  0.51100000000E-03 0. -1.
         11    1    4    4    0    0 -0.18430232321E-01  0.88047440185E-02  0.25368922689E-01  0.32573614169E-01  0.51100000000E-03 0.  1.
</event>
<event>
 8    1  0.1072332E+005  0.1043930E+01  0.7957747E-01            NaN
         13   -1    0    0    0    0  0.00000000000E+00  0.00000000000E+00  0.74505805969E-08  0.10566000000E+00  0.10566000000E+00 0.  1.
     999900   -1    0    0    0    0 -0.00000000000E+00 -0.00000000000E+00 -0.74505805969E-08  0.93827000000E+00  0.93827000000E+00 0. -1.
     999902    2    1    2    0    0  0.20312719448E-01  0.12385411778E-01 -0.75767877992E-02  0.10189617660E+01  0.10186558142E+01 0.  0.
     999903    2    3    3    0    0 -0.42102344567E-01  0.78051365182E-01  0.90997246102E-01  0.12883565256E+00  0.21295622719E-01 0.  0.
         14    1    1    2    0    0 -0.20312719448E-01 -0.12385411778E-01  0.75767877992E-02  0.24968234011E-01  0.00000000000E+00 0.  1.
     999901    1    3    3    0    0  0.62415064015E-01 -0.65665953404E-01 -0.98574033901E-01  0.89012611343E+00  0.88000000000E+00 0. -1.
        -11    1    4    4    0    0 -0.17088286692E-01  0.51295457062E-01  0.47516878206E-01  0.71981583010E-01  0.51100000000E-03 0. -1.
         11    1    4    4    0    0 -0.25014057875E-01  0.26755908121E-01  0.43480367896E-01  0.56854069548E-01  0.51100000000E-03 0.  1.
</event>
<event>
 8    1  0.1072332E+005  0.1043930E+01  0.7957747E-01            NaN
         13   -1    0    0    0    0  0.00000000000E+00  0.00000000000E+00  0.74505805969E-08  0.10566000000E+00  0.10566000000E+00 0.  1.
     999900   -1    0    0    0    0 -0.00000000000E+00 -0.00000000000E+00 -0.74505805969E-08  0.93827000000E+00  0.93827000000E+00 0.  1.
     999902    2    1    2    0    0 -0.72327288187E-02 -0.13212694407E-02 -0.22704824551E-01  0.10200643934E+01  0.10197851732E+01 0.  0.
     999903    2    3    3    0    0  0.87410079002E-01 -0.27339246213E-01 -0.92504625611E-01  0.13186047066E+00  0.21026689466E-01 0.  0.
         14    1    1    2    0    0  0.72327288187E-02  0.13212694407E-02  0.22704824551E-01  0.23865606571E-01  0.00000000000E+00 0.  1.
     999901    1    3    3    0    0 -0.94642807820E-01  0.26017976772E-01  0.69799801060E-01  0.88820392277E+00  0.88000000000E+00 0.  1.
        -11    1    4    4    0    0  0.40860982634E-01 -0.16627183393E-01 -0.30701809443E-01  0.53748910254E-01  0.51100000000E-03 0. -1.
         11    1    4    4    0    0  0.46549096367E-01 -0.10712062820E-01 -0.61802816168E-01  0.78111560410E-01  0.51100000000E-03 0.  1.
</event>
<event>
 8    1  0.1072332E+005  0.1043930E+01  0.7957747E-01            NaN
         13   -1    0    0    0    0  0.00000000000E+00  0.00000000000E+00  0.74505805969E-08  0.10566000000E+00  0.10566000000E+00 0.  1.
     999900   -1    0    0    0    0 -0.00000000000E+00 -0.00000000000E+00 -0.74505805969E-08  0.93827000000E+00  0.93827000000E+00 0. -1.
     999902    2    1    2    0    0  0.14486929063E-01 -0.11676914426E-01  0.13604175271E-01  0.10208801621E+01  0.10206199147E+01 0.  0.
     999903    2    3    3    0    0 -0.91798045286E-01  0.59834093717E-01  0.67071443509E-01  0.12999909883E+00  0.19854149997E-01 0.  0.
         14    1    1    2    0    0 -0.14486929063E-01  0.11676914426E-01 -0.13604175271E-01  0.23049837939E-01  0.00000000000E+00 0. -1.
     999901    1    3    3    0    0  0.10628497435E+00 -0.71511008143E-01 -0.53467268237E-01  0.89088106323E+00  0.88000000000E+00 0.  1.
        -11    1    4    4    0    0 -0.22414363312E-01  0.13513246196E-01  0.26430484641E-01  0.37200042269E-01  0.51100000000E-03 0.  1.
         11    1    4    4    0    0 -0.69383681974E-01  0.46320847521E-01  0.40640958868E-01  0.92799056558E-01  0.51100000000E-03 0. -1.
</event>
<event>
 8    1  0.1072332E+005  0.1043930E+01  0.7957747E-01            NaN
         13   -1    0    0    0    0  0.00000000000E+00  0.00000000000E+00  0.74505805969E-08  0.10566000000E+00  0.10566000000E+00 0. -1.
     999900   -1    0    0    0    0 -0.00000000000E+00 -0.00000000000E+00 -0.74505805969E-08  0.93827000000E+00  0.93827000000E+00 0. -1.
     999902    2    1    2    0    0  0.15804656563E-01 -0.13759159996E-01  0.10670663811E-01  0.10204147981E+01  0.10201438112E+01 0.  0.
     999903    2    3    3    0    0 -0.90689478500E-01  0.56441575904E-01  0.71196938217E-01  0.12916142562E+00  0.14263129194E-01 0.  0.
         14    1    1    2    0    0 -0.15804656563E-01  0.13759159996E-01 -0.10670663811E-01  0.23515201871E-01  0.00000000000E+00 0.  1.
     999901    1    3    3    0    0  0.10649413506E+00 -0.70200735900E-01 -0.60526274406E-01  0.89125337251E+00  0.88000000000E+00 0. -1.
        -11    1    4    4    0    0 -0.42357621595E-01  0.22746393293E-01  0.24401046753E-01  0.53918815998E-01  0.51100000000E-03 0. -1.
         11    1    4    4    0    0 -0.48331856905E-01  0.33695182611E-01  0.46795891464E-01  0.75242609617E-01  0.51100000000E-03 0.  1.
</event>
<event>
 8    1  0.1072332E+005  0.1043930E+01  0.7957747E-01            NaN
         13   -1    0    0    0    0  0.00000000000E+00  0.00000000000E+00  0.74505805969E-08  0.10566000000E+00  0.10566000000E+00 0. -1.
     999900   -1    0    0    0    0 -0.00000000000E+00 -0.00000000000E+00 -0.74505805969E-08  0.93827000000E+00  0.93827000000E+00 0. -1.
     999902    2    1    2    0    0 -0.21104205803E-01  0.11177631739E-01 -0.18498577828E-02  0.10199769432E+01  0.10196956486E+01 0.  0.
     999903    2    3    3    0    0 -0.28092083506E-01 -0.63190966126E-01 -0.10876636001E+00  0.13036429876E+00  0.19556737084E-01 0.  0.
         14    1    1    2    0    0  0.21104205803E-01 -0.11177631739E-01  0.18498577828E-02  0.23953056751E-01  0.00000000000E+00 0. -1.
     999901    1    3    3    0    0  0.69878777032E-02  0.74368597865E-01  0.10691650223E+00  0.88961264449E+00  0.88000000000E+00 0.  1.
        -11    1    4    4    0    0 -0.93067524826E-02 -0.36865658510E-01 -0.45404660365E-01  0.59224460513E-01  0.51100000000E-03 0. -1.
         11    1    4    4    0    0 -0.18785331024E-01 -0.26325307616E-01 -0.63361699649E-01  0.71139838249E-01  0.51100000000E-03 0.  1.
</event>
<event>
 8    1  0.1072332E+005  0.1043930E+01  0.7957747E-01            NaN
         13   -1    0    0    0    0  0.00000000000E+00  0.00000000000E+00  0.74505805969E-08  0.10566000000E+00  0.10566000000E+00 0.  1.
     999900   -1    0    0    0    0 -0.00000000000E+00 -0.00000000000E+00 -0.74505805969E-08  0.93827000000E+00  0.93827000000E+00 0. -1.
     999902    2    1    2    0    0 -0.15384730769E-01 -0.90086244921E-02  0.16824807138E-01  0.10194163428E+01  0.10191215632E+01 0.  0.
     999903    2    3    3    0    0 -0.91119312584E-01  0.90910327611E-01 -0.40843631271E-02  0.13028377825E+00  0.19742443123E-01 0.  0.
         14    1    1    2    0    0  0.15384730769E-01  0.90086244921E-02 -0.16824807138E-01  0.24513657241E-01  0.00000000000E+00 0.  1.
     999901    1    3    3    0    0  0.75734581816E-01 -0.99918952103E-01  0.20909170265E-01  0.88913256451E+00  0.88000000000E+00 0.  1.
        -11    1    4    4    0    0 -0.20951461085E-01  0.20609922620E-01 -0.92705957202E-02  0.30821059327E-01  0.51100000000E-03 0.  1.
         11    1    4    4    0    0 -0.70167851499E-01  0.70300404991E-01  0.51862325932E-02  0.99462718922E-01  0.51100000000E-03 0. -1.
</event>
<event>
 8    1  0.1072332E+005  0.1043930E+01  0.7957747E-01            NaN
         13   -1    0    0    0    0  0.00000000000E+00  0.00000000000E+00  0.74505805969E-08  0.10566000000E+00  0.10566000000E+00 0.  1.
     999900   -1    0    0    0    0 -0.00000000000E+00 -0.00000000000E+00 -0.74505805969E-08  0.93827000000E+00  0.93827000000E+00 0. -1.
     999902    2    1    2    0    0  0.12282395487E-01  0.19933379233E-01  0.36494179567E-02  0.10202336902E+01  0.10199584636E+01 0.  0.
     999903    2    3    3    0    0  0.38622650688E-01  0.16537091383E-01  0.12327792841E+00  0.13174265236E+00  0.19836690268E-01 0.  0.
         14    1    1    2    0    0 -0.12282395487E-01 -0.19933379233E-01 -0.36494179567E-02  0.23696309796E-01  0.00000000000E+00 0. -1.
     999901    1    3    3    0    0 -0.26340255201E-01  0.33962878498E-02 -0.11962851045E+00  0.88849103784E+00  0.88000000000E+00 0. -1.
        -11    1    4    4    0    0  0.94479652966E-02 -0.25542039063E-02  0.14411326872E-01  0.17428008178E-01  0.51100000000E-03 0.  1.
         11    1    4    4    0    0  0.29174685391E-01  0.19091295290E-01  0.10886660154E+00  0.11431464418E+00  0.51100000000E-03 0. -1.
</event>
<event>
 8    1  0.1072332E+005  0.1043930E+01  0.7957747E-01            NaN
         13   -1    0    0    0    0  0.00000000000E+00  0.00000000000E+00  0.74505805969E-08  0.10566000000E+00  0.10566000000E+00 0. -1.
     999900   -1    0    0    0    0 -0.00000000000E+00 -0.00000000000E+00 -0.74505805969E-08  0.93827000000E+00  0.93827000000E+00 0. -1.
     999902    2    1    2    0    0 -0.16471011295E-01  0.14269517871E-01 -0.92037501995E-02  0.10202736611E+01  0.10199993731E+01 0.  0.
     999903    2    3    3    0    0  0.16511826293E-01 -0.11331284856E+00  0.54311110028E-01  0.12819784296E+00  0.19301508019E-01 0.  0.
         14    1    1    2    0    0  0.16471011295E-01 -0.14269517871E-01  0.92037501995E-02  0.23656338920E-01  0.00000000000E+00 0.  1.
     999901    1    3    3    0    0 -0.32982837589E-01  0.12758236643E+00 -0.63514860227E-01  0.89207581812E+00  0.88000000000E+00 0. -1.
        -11    1    4    4    0    0 -0.68178131627E-03 -0.29787562766E-01  0.67542903478E-02  0.30555609639E-01  0.51100000000E-03 0.  1.
         11    1    4    4    0    0  0.17193607610E-01 -0.83525285793E-01  0.47556819680E-01  0.97642233324E-01  0.51100000000E-03 0. -1.
</event>
<event>
 8    1  0.1072332E+005  0.1043930E+01  0.7957747E-01            NaN
         13   -1    0    0    0    0  0.00000000000E+00  0.00000000000E+00  0.74505805969E-08  0.10566000000E+00  0.10566000000E+00 0.  1.
     999900   -1    0    0    0    0 -0.00000000000E+00 -0.00000000000E+00 -0.74505805969E-08  0.93827000000E+00  0.93827000000E+00 0. -1.
     999902    2    1    2    0    0 -0.73176267449E-02  0.75561091707E-02 -0.21715769993E-01  0.10198008244E+01  0.10195153282E+01 0.  0.
     999903    2    3    3    0    0  0.41981195330E-01 -0.84269533213E-01  0.83554649056E-01  0.12741963706E+00  0.19763844270E-01 0.  0.
         14    1    1    2    0    0  0.73176267449E-02 -0.75561091707E-02  0.21715769993E-01  0.24129175564E-01  0.00000000000E+00 0.  1.
     999901    1    3    3    0    0 -0.49298822075E-01  0.91825642384E-01 -0.10527041905E+00  0.89238118738E+00  0.88000000000E+00 0.  1.
        -11    1    4    4    0    0  0.22330803201E-01 -0.64315056668E-01  0.56443645086E-01  0.88437760473E-01  0.51100000000E-03 0. -1.
         11    1    4    4    0    0  0.19650392128E-01 -0.19954476545E-01  0.27111003970E-01  0.38981876587E-01  0.51100000000E-03 0.  1.
</event>
<event>
 8    1  0.1072332E+005  0.1043930E+01  0.7957747E-01            NaN
         13   -1    0    0    0    0  0.00000000000E+00  0.00000000000E+00  0.74505805969E-08  0.10566000000E+00  0.10566000000E+00 0. -1.
     999900   -1    0    0    0    0 -0.00000000000E+00 -0.00000000000E+00 -0.74505805969E-08  0.93827000000E+00  0.93827000000E+00 0.  1.
     999902    2    1    2    0    0 -0.10840779870E-01 -0.20311406281E-01 -0.45025863224E-02  0.10204704813E+01  0.10202007911E+01 0.  0.
     999903    2    3    3    0    0  0.30899063496E-01  0.33721388006E-01 -0.12029759464E+00  0.13026250487E+00  0.20122742467E-01 0.  0.
         14    1    1    2    0    0  0.10840779870E-01  0.20311406281E-01  0.45025863224E-02  0.23459518685E-01  0.00000000000E+00 0. -1.
     999901    1    3    3    0    0 -0.41739843366E-01 -0.54032794287E-01  0.11579500832E+00  0.89020797645E+00  0.88000000000E+00 0.  1.
        -11    1    4    4    0    0 -0.71570605603E-03  0.10575387281E-01 -0.21456714721E-01  0.23937476453E-01  0.51100000000E-03 0. -1.
         11    1    4    4    0    0  0.31614769552E-01  0.23146000724E-01 -0.98840879917E-01  0.10632502841E+00  0.51100000000E-03 0.  1.
</event>
<event>
 8    1  0.1072332E+005  0.1043930E+01  0.7957747E-01            NaN
         13   -1    0    0    0    0  0.00000000000E+00  0.00000000000E+00  0.74505805969E-08  0.10566000000E+00  0.10566000000E+00 0. -1.
     999900   -1    0    0    0    0 -0.00000000000E+00 -0.00000000000E+00 -0.74505805969E-08  0.93827000000E+00  0.93827000000E+00 0.  1.
     999902    2    1    2    0    0 -0.18881098135E-01  0.11951250246E-01 -0.10017670639E-01  0.10194415951E+01  0.10191474299E+01 0.  0.
     999903    2    3    3    0    0 -0.79624862527E-01  0.73511866923E-01 -0.73902415559E-01  0.13289730683E+00  0.21354480249E-01 0.  0.
         14    1    1    2    0    0  0.18881098135E-01 -0.11951250246E-01  0.10017670639E-01  0.24488404894E-01  0.00000000000E+00 0. -1.
     999901    1    3    3    0    0  0.60743764392E-01 -0.61560616677E-01  0.63884744921E-01  0.88654428827E+00  0.88000000000E+00 0.  1.
        -11    1    4    4    0    0 -0.25996606987E-01  0.30715535453E-01 -0.16714752935E-01  0.43576504904E-01  0.51100000000E-03 0. -1.
         11    1    4    4    0    0 -0.53628255540E-01  0.42796331470E-01 -0.57187662624E-01  0.89320801927E-01  0.51100000000E-03 0.  1.
</event>
<event>
 8    1  0.1072332E+005  0.1043930E+01  0.7957747E-01            NaN
         13   -1    0    0    0    0  0.00000000000E+00  0.00000000000E+00  0.74505805969E-08  0.10566000000E+00  0.10566000000E+00 0. -1.
     999900   -1    0    0    0    0 -0.00000000000E+00 -0.00000000000E+00 -0.74505805969E-08  0.93827000000E+00  0.93827000000E+00 0.  1.
     999902    2    1    2    0    0  0.35284926168E-03 -0.16572036466E-01  0.16315845127E-01  0.10206713737E+01  0.10204063354E+01 0.  0.
     999903    2    3    3    0    0 -0.13103431198E-01 -0.11217563129E+00 -0.65012315828E-01  0.13166328116E+00  0.18802825118E-01 0.  0.
         14    1    1    2    0    0 -0.35284926168E-03  0.16572036466E-01 -0.16315845127E-01  0.23258626301E-01  0.00000000000E+00 0.  1.
     999901    1    3    3    0    0  0.13456280460E-01  0.95603594827E-01  0.81328160955E-01  0.88900809253E+00  0.88000000000E+00 0. -1.
        -11    1    4    4    0    0 -0.78905844704E-02 -0.37323452530E-01 -0.31539618776E-01  0.49500607123E-01  0.51100000000E-03 0.  1.
         11    1    4    4    0    0 -0.52128467276E-02 -0.74852178763E-01 -0.33472697052E-01  0.82162674041E-01  0.51100000000E-03 0. -1.
</event>
<event>
 7    1  0.1072332E+005  0.1043930E+01  0.7957747E-01            NaN
         13   -1    0    0    0    0  0.00000000000E+00  0.00000000000E+00  0.74505805969E-08  0.10566000000E+00  0.10566000000E+00 0. -1.
     999900   -1    0    0    0    0 -0.00000000000E+00 -0.00000000000E+00 -0.74505805969E-08  0.93827000000E+00  0.93827000000E+00 0.  1.
     999902    2    1    2    0    0  0.82148732236E-02 -0.20219499510E-01 -0.11332897677E-01  0.10193383983E+01  0.10190417182E+01 0.  0.
         14    1    1    2    0    0 -0.82148732236E-02  0.20219499510E-01  0.11332897677E-01  0.24591601661E-01  0.00000000000E+00 0.  1.
     999901    1    3    3    0    0  0.84356183305E-01 -0.10412935957E+00 -0.48168450184E-01  0.89144774877E+00  0.88000000000E+00 0.  1.
        -11    1    3    3    0    0 -0.78154953906E-01  0.70212823797E-01  0.21530405150E-01  0.10724671050E+00  0.51100000000E-03 0. -1.
         11    1    3    3    0    0  0.20136438249E-02  0.13697036267E-01  0.15305147357E-01  0.20643939076E-01  0.51100000000E-03 0.  1.
</event>
<event>
 8    1  0.1072332E+005  0.1043930E+01  0.7957747E-01            NaN
         13   -1    0    0    0    0  0.00000000000E+00  0.00000000000E+00  0.74505805969E-08  0.10566000000E+00  0.10566000000E+00 0.  1.
     999900   -1    0    0    0    0 -0.00000000000E+00 -0.00000000000E+00 -0.74505805969E-08  0.93827000000E+00  0.93827000000E+00 0.  1.
     999902    2    1    2    0    0  0.18521241866E-02  0.18146674532E-01 -0.17477802080E-01  0.10186672661E+01  0.10183539626E+01 0.  0.
     999903    2    3    3    0    0  0.78031184027E-01 -0.20450148643E-01 -0.10119014564E+00  0.13057902699E+00  0.17445986756E-01 0.  0.
         14    1    1    2    0    0 -0.18521241866E-02 -0.18146674532E-01  0.17477802080E-01  0.25262733940E-01  0.00000000000E+00 0.  1.
     999901    1    3    3    0    0 -0.76179059841E-01  0.38596823176E-01  0.83712343559E-01  0.88808823907E+00  0.88000000000E+00 0. -1.
        -11    1    4    4    0    0  0.49933273499E-01 -0.14131284289E-01 -0.51310056410E-01  0.72979504026E-01  0.51100000000E-03 0. -1.
         11    1    4    4    0    0  0.28097910528E-01 -0.63188643545E-02 -0.49880089229E-01  0.57599522960E-01  0.51100000000E-03 0.  1.
</event>
<event>
 8    1  0.1072332E+005  0.1043930E+01  0.7957747E-01            NaN
         13   -1    0    0    0    0  0.00000000000E+00  0.00000000000E+00  0.74505805969E-08  0.10566000000E+00  0.10566000000E+00 0.  1.
     999900   -1    0    0    0    0 -0.00000000000E+00 -0.00000000000E+00 -0.74505805969E-08  0.93827000000E+00  0.93827000000E+00 0. -1.
     999902    2    1    2    0    0  0.21300104071E-01  0.72345095335E-02  0.10311302212E-01  0.10191841819E+01  0.10188837230E+01 0.  0.
     999903    2    3    3    0    0  0.15431582947E-01  0.57917449875E-01 -0.11255442541E+00  0.12918463861E+00  0.20678670696E-01 0.  0.
         14    1    1    2    0    0 -0.21300104071E-01 -0.72345095335E-02 -0.10311302212E-01  0.24745818131E-01  0.00000000000E+00 0. -1.
     999901    1    3    3    0    0  0.58685211241E-02 -0.50682940341E-01  0.12286572762E+00  0.88999954326E+00  0.88000000000E+00 0.  1.
        -11    1    4    4    0    0 -0.32813349408E-02  0.21996508577E-01 -0.49090352407E-01  0.53895615490E-01  0.51100000000E-03 0. -1.
         11    1    4    4    0    0  0.18712917888E-01  0.35920941298E-01 -0.63464072998E-01  0.75289023119E-01  0.51100000000E-03 0.  1.
</event>
<event>
 8    1  0.1072332E+005  0.1043930E+01  0.7957747E-01            NaN
         13   -1    0    0    0    0  0.00000000000E+00  0.00000000000E+00  0.74505805969E-08  0.10566000000E+00  0.10566000000E+00 0.  1.
     999900   -1    0    0    0    0 -0.00000000000E+00 -0.00000000000E+00 -0.74505805969E-08  0.93827000000E+00  0.93827000000E+00 0. -1.
     999902    2    1    2    0    0  0.10089613439E-01 -0.13002732911E-01 -0.16461768601E-01  0.10206520880E+01  0.10203866049E+01 0.  0.
     999903    2    3    3    0    0  0.67917440381E-01 -0.11220094279E+00  0.55001185436E-02  0.13292089730E+00  0.20877819917E-01 0.  0.
         14    1    1    2    0    0 -0.10089613439E-01  0.13002732911E-01  0.16461768601E-01  0.23277912019E-01  0.00000000000E+00 0.  1.
     999901    1    3    3    0    0 -0.57827826942E-01  0.99198209883E-01 -0.21961887145E-01  0.88773119068E+00  0.88000000000E+00 0.  1.
        -11    1    4    4    0    0  0.32773181385E-01 -0.59955461749E-01 -0.71221230852E-02  0.68700251600E-01  0.51100000000E-03 0.  1.
         11    1    4    4    0    0  0.35144258996E-01 -0.52245481045E-01  0.12622241629E-01  0.64220645705E-01  0.51100000000E-03 0. -1.
</event>
<event>
 8    1  0.1072332E+005  0.1043930E+01  0.7957747E-01            NaN
         13   -1    0    0    0    0  0.00000000000E+00  0.00000000000E+00  0.74505805969E-08  0.10566000000E+00  0.10566000000E+00 0. -1.
     999900   -1    0    0    0    0 -0.00000000000E+00 -0.00000000000E+00 -0.74505805969E-08  0.93827000000E+00  0.93827000000E+00 0. -1.
     999902    2    1    2    0    0 -0.13768224516E-01 -0.12857064754E-01 -0.13246377460E-01  0.10209010044E+01  0.10206412329E+01 0.  0.
     999903    2    3    3    0    0 -0.80782368062E-01 -0.85988402516E-01 -0.60521318159E-01  0.13406730639E+00  0.19784244556E-01 0.  0.
         14    1    1    2    0    0  0.13768224516E-01  0.12857064754E-01  0.13246377460E-01  0.23028995554E-01  0.00000000000E+00 0.  1.
     999901    1    3    3    0    0  0.67014143546E-01  0.73131337762E-01  0.47274940699E-01  0.88683369806E+00  0.88000000000E+00 0.  1.
        -11    1    4    4    0    0 -0.50217360007E-01 -0.43262197466E-01 -0.41445976840E-01  0.78175642580E-01  0.51100000000E-03 0. -1.
         11    1    4    4    0    0 -0.30565008055E-01 -0.42726205051E-01 -0.19075341319E-01  0.55891663805E-01  0.51100000000E-03 0.  1.
</event>
<event>
 8    1  0.1072332E+005  0.1043930E+01  0.7957747E-01            NaN
         13   -1    0    0    0    0  0.00000000000E+00  0.00000000000E+00  0.74505805969E-08  0.10566000000E+00  0.10566000000E+00 0. -1.
     999900   -1    0    0    0    0 -0.00000000000E+00 -0.00000000000E+00 -0.74505805969E-08  0.93827000000E+00  0.93827000000E+00 0. -1.
     999902    2    1    2    0    0  0.22153265942E-01 -0.18274455620E-01  0.14896933364E-02  0.10151733989E+01  0.10147660261E+01 0.  0.
     999903    2    3    3    0    0  0.16202425640E-01 -0.34784322159E-01  0.11971240385E+00  0.12709423719E+00  0.18692721241E-01 0.  0.
         14    1    1    2    0    0 -0.22153265942E-01  0.18274455620E-01 -0.14896933364E-02  0.28756601092E-01  0.00000000000E+00 0. -1.
     999901    1    3    3    0    0  0.59508403015E-02  0.16509866539E-01 -0.11822271051E+00  0.88807916172E+00  0.88000000000E+00 0. -1.
        -11    1    4    4    0    0  0.17283255801E-01 -0.16725415708E-01  0.77980972547E-01  0.81607252509E-01  0.51100000000E-03 0.  1.
         11    1    4    4    0    0 -0.10808301604E-02 -0.18058906450E-01  0.41731431302E-01  0.45486984683E-01  0.51100000000E-03 0. -1.
</event>
<event>
 7    1  0.1072332E+005  0.1043930E+01  0.7957747E-01            NaN
         13   -1    0    0    0    0  0.00000000000E+00  0.00000000000E+00  0.74505805969E-08  0.10566000000E+00  0.10566000000E+00 0.  1.
     999900   -1    0    0    0    0 -0.00000000000E+00 -0.00000000000E+00 -0.74505805969E-08  0.93827000000E+00  0.93827000000E+00 0.  1.
     999902    2    1    2    0    0 -0.15104319877E-01 -0.16700361955E-01 -0.97883592680E-02  0.10193769035E+01  0.10190811631E+01 0.  0.
         14    1    1    2    0    0  0.15104319877E-01  0.16700361955E-01  0.97883592680E-02  0.24553096455E-01  0.00000000000E+00 0. -1.
     999901    1    3    3    0    0 -0.26602520032E-01 -0.10705557883E+00  0.74779957652E-01  0.89003406289E+00  0.88000000000E+00 0. -1.
        -11    1    3    3    0    0  0.22354447763E-01  0.50993767814E-01 -0.38025496043E-01  0.67426145974E-01  0.51100000000E-03 0.  1.
         11    1    3    3    0    0 -0.10856247608E-01  0.39361449063E-01 -0.46542820877E-01  0.61916694685E-01  0.51100000000E-03 0. -1.
</event>
<event>
 8    1  0.1072332E+005  0.1043930E+01  0.7957747E-01            NaN
         13   -1    0    0    0    0  0.00000000000E+00  0.00000000000E+00  0.74505805969E-08  0.10566000000E+00  0.10566000000E+00 0.  1.
     999900   -1    0    0    0    0 -0.00000000000E+00 -0.00000000000E+00 -0.74505805969E-08  0.93827000000E+00  0.93827000000E+00 0.  1.
     999902    2    1    2    0    0  0.23171283522E-02  0.23839398004E-01 -0.17040246753E-02  0.10199177181E+01  0.10196350141E+01 0.  0.
     999903    2    3    3    0    0 -0.12460445918E+00 -0.23129111285E-01  0.16360142872E-01  0.12938897384E+00  0.20313178930E-01 0.  0.
         14    1    1    2    0    0 -0.23171283522E-02 -0.23839398004E-01  0.17040246753E-02  0.24012281880E-01  0.00000000000E+00 0.  1.
     999901    1    3    3    0    0  0.12692158754E+00  0.46968509289E-01 -0.18064167547E-01  0.89052874428E+00  0.88000000000E+00 0. -1.
        -11    1    4    4    0    0 -0.30842264744E-01 -0.17929834052E-02  0.11945260955E-01  0.33127186182E-01  0.51100000000E-03 0. -1.
         11    1    4    4    0    0 -0.93762194440E-01 -0.21336127880E-01  0.44148819168E-02  0.96261787654E-01  0.51100000000E-03 0.  1.
</event>
<event>
 8    1  0.1072332E+005  0.1043930E+01  0.7957747E-01            NaN
         13   -1    0    0    0    0  0.00000000000E+00  0.00000000000E+00  0.74505805969E-08  0.10566000000E+00  0.10566000000E+00 0.  1.
     999900   -1    0    0    0    0 -0.00000000000E+00 -0.00000000000E+00 -0.74505805969E-08  0.93827000000E+00  0.93827000000E+00 0. -1.
     999902    2    1    2    0    0  0.10682881541E-01 -0.13545678149E-01  0.15116929749E-01  0.10209924561E+01  0.10207347670E+01 0.  0.
     999903    2    3    3    0    0 -0.65440256697E-01 -0.79162700638E-01 -0.77885863316E-01  0.13040285066E+00  0.19736650886E-01 0.  0.
         14    1    1    2    0    0 -0.10682881541E-01  0.13545678149E-01 -0.15116929749E-01  0.22937543887E-01  0.00000000000E+00 0. -1.
     999901    1    3    3    0    0  0.76123138237E-01  0.65617022489E-01  0.93002793065E-01  0.89058960545E+00  0.88000000000E+00 0.  1.
        -11    1    4    4    0    0 -0.58279907976E-01 -0.57929858726E-01 -0.61239962819E-01  0.10248419572E+00  0.51100000000E-03 0.  1.
         11    1    4    4    0    0 -0.71603487208E-02 -0.21232841912E-01 -0.16645900496E-01  0.27918654942E-01  0.51100000000E-03 0. -1.
</event>
<event>
 8    1  0.1072332E+005  0.1043930E+01  0.7957747E-01            NaN
         13   -1    0    0    0    0  0.00000000000E+00  0.00000000000E+00  0.74505805969E-08  0.10566000000E+00  0.10566000000E+00 0. -1.
     999900   -1    0    0    0    0 -0.00000000000E+00 -0.00000000000E+00 -0.74505805969E-08  0.93827000000E+00  0.93827000000E+00 0.  1.
     999902    2    1    2    0    0 -0.12154727791E-01  0.19196328904E-01  0.43510484361E-02  0.10207963000E+01  0.10205341337E+01 0.  0.
     999903    2    3    3    0    0 -0.55872635050E-01 -0.49655971312E-01  0.10579357074E+00  0.13122197488E+00  0.20963307184E-01 0.  0.
         14    1    1    2    0    0  0.12154727791E-01 -0.19196328904E-01 -0.43510484361E-02  0.23133699954E-01  0.00000000000E+00 0. -1.
     999901    1    3    3    0    0  0.43717907259E-01  0.68852300216E-01 -0.10144252230E+00  0.88957432516E+00  0.88000000000E+00 0.  1.
        -11    1    4    4    0    0 -0.44494860151E-01 -0.31288571188E-01  0.86870475614E-01  0.10249638004E+00  0.51100000000E-03 0. -1.
         11    1    4    4    0    0 -0.11377774899E-01 -0.18367400124E-01  0.18923095124E-01  0.28725594842E-01  0.51100000000E-03 0.  1.
</event>
<event>
 8    1  0.1072332E+005  0.1043930E+01  0.7957747E-01            NaN
         13   -1    0    0    0    0  0.00000000000E+00  0.00000000000E+00  0.74505805969E-08  0.10566000000E+00  0.10566000000E+00 0.  1.
     999900   -1    0    0    0    0 -0.00000000000E+00 -0.00000000000E+00 -0.74505805969E-08  0.93827000000E+00  0.93827000000E+00 0.  1.
     999902    2    1    2    0    0 -0.94466506514E-02 -0.15671802485E-01  0.14741224651E-01  0.10204321638E+01  0.10201615816E+01 0.  0.
     999903    2    3    3    0    0  0.27568612290E-01 -0.98088105550E-01  0.83490980676E-01  0.13313902980E+00  0.19337853222E-01 0.  0.
         14    1    1    2    0    0  0.94466506514E-02  0.15671802485E-01 -0.14741224651E-01  0.23497836196E-01  0.00000000000E+00 0. -1.
     999901    1    3    3    0    0 -0.37015262941E-01  0.82416303065E-01 -0.68749756025E-01  0.88729313401E+00  0.88000000000E+00 0.  1.
        -11    1    4    4    0    0  0.17156765344E-01 -0.28469667086E-01  0.29074162805E-01  0.44163838204E-01  0.51100000000E-03 0. -1.
         11    1    4    4    0    0  0.10411846946E-01 -0.69618438464E-01  0.54416817871E-01  0.88975191594E-01  0.51100000000E-03 0.  1.
</event>
<event>
 8    1  0.1072332E+005  0.1043930E+01  0.7957747E-01            NaN
         13   -1    0    0    0    0  0.00000000000E+00  0.00000000000E+00  0.74505805969E-08  0.10566000000E+00  0.10566000000E+00 0.  1.
     999900   -1    0    0    0    0 -0.00000000000E+00 -0.00000000000E+00 -0.74505805969E-08  0.93827000000E+00  0.93827000000E+00 0.  1.
     999902    2    1    2    0    0 -0.86773510703E-02 -0.70641410434E-02 -0.20691681988E-01  0.10204067304E+01  0.10201355553E+01 0.  0.
     999903    2    3    3    0    0 -0.94454288190E-01  0.52743904649E-01 -0.73981569181E-01  0.13261480805E+00  0.20245560022E-01 0.  0.
         14    1    1    2    0    0  0.86773510703E-02  0.70641410434E-02  0.20691681988E-01  0.23523269623E-01  0.00000000000E+00 0.  1.
     999901    1    3    3    0    0  0.85776937119E-01 -0.59808045693E-01  0.53289887193E-01  0.88779192233E+00  0.88000000000E+00 0. -1.
        -11    1    4    4    0    0 -0.82632250430E-01  0.53088822125E-01 -0.65634682646E-01  0.11812994765E+00  0.51100000000E-03 0. -1.
         11    1    4    4    0    0 -0.11822037760E-01 -0.34491747605E-03 -0.83468865353E-02  0.14484860396E-01  0.51100000000E-03 0.  1.
</event>
<event>
 8    1  0.1072332E+005  0.1043930E+01  0.7957747E-01            NaN
         13   -1    0    0    0    0  0.00000000000E+00  0.00000000000E+00  0.74505805969E-08  0.10566000000E+00  0.10566000000E+00 0.  1.
     999900   -1    0    0    0    0 -0.00000000000E+00 -0.00000000000E+00 -0.74505805969E-08  0.93827000000E+00  0.93827000000E+00 0. -1.
     999902    2    1    2    0    0 -0.96523111208E-02  0.14922270348E-01  0.19403946180E-01  0.10176173720E+01  0.10172771311E+01 0.  0.
     999903    2    3    3    0    0 -0.11181375245E+00 -0.45303214242E-01 -0.37144953928E-01  0.12786355936E+00  0.20362852289E-01 0.  0.
         14    1    1    2    0    0  0.96523111208E-02 -0.14922270348E-01 -0.19403946180E-01  0.26312627951E-01  0.00000000000E+00 0. -1.
     999901    1    3    3    0    0  0.10216144133E+00  0.60225484590E-01  0.56548900108E-01  0.88975381269E+00  0.88000000000E+00 0. -1.
        -11    1    4    4    0    0 -0.20781253986E-01 -0.94254694556E-03 -0.96029371184E-02  0.22917819143E-01  0.51100000000E-03 0.  1.
         11    1    4    4    0    0 -0.91032498462E-01 -0.44360667296E-01 -0.27542016809E-01  0.10494574022E+00  0.51100000000E-03 0. -1.
</event>
