<event>
 8    1  0.1131376E+005  0.1043930E+01  0.7957747E-01            NaN
         13   -1    0    0    0    0  0.00000000000E+00  0.00000000000E+00  0.74505805969E-08  0.10566000000E+00  0.10566000000E+00 0.  1.
     999900   -1    0    0    0    0 -0.00000000000E+00 -0.00000000000E+00 -0.74505805969E-08  0.93827000000E+00  0.93827000000E+00 0. -1.
     999902    2    1    2    0    0 -0.19761935527E-01  0.12064581817E-01 -0.35769988494E-03  0.10207736579E+01  0.10205109723E+01 0.  0.
     999903    2    3    3    0    0 -0.69733156911E-01 -0.78380598070E-02 -0.11040649561E+00  0.13228956938E+00  0.19666914889E-01 0.  0.
         14    1    1    2    0    0  0.19761935527E-01 -0.12064581817E-01  0.35769988494E-03  0.23156342099E-01  0.00000000000E+00 0.  1.
     999901    1    3    3    0    0  0.49971221384E-01  0.19902641624E-01  0.11004879572E+00  0.88848408852E+00  0.88000000000E+00 0.  1.
        -11    1    4    4    0    0 -0.41587114713E-01 -0.56386809872E-03 -0.48484992961E-01  0.63881622715E-01  0.51100000000E-03 0. -1.
         11    1    4    4    0    0 -0.28146042198E-01 -0.72741917083E-02 -0.61921502645E-01  0.68407946667E-01  0.51100000000E-03 0.  1.
</event>
<event>
 8    1  0.1131376E+005  0.1043930E+01  0.7957747E-01            NaN
         13   -1    0    0    0    0  0.00000000000E+00  0.00000000000E+00  0.74505805969E-08  0.10566000000E+00  0.10566000000E+00 0.  1.
     999900   -1    0    0    0    0 -0.00000000000E+00 -0.00000000000E+00 -0.74505805969E-08  0.93827000000E+00  0.93827000000E+00 0.  1.
     999902    2    1    2    0    0 -0.13409044026E-01 -0.61630018516E-04  0.20423493510E-01  0.10194979443E+01  0.10192051477E+01 0.  0.
     999903    2    3    3    0    0 -0.77266664049E-01  0.16545445592E-01  0.10519756741E+00  0.13296524087E+00  0.19218167118E-01 0.  0.
         14    1    1    2    0    0  0.13409044026E-01  0.61630018516E-04 -0.20423493510E-01  0.24432055728E-01  0.00000000000E+00 0. -1.
     999901    1    3    3    0    0  0.63857620023E-01 -0.16607075610E-01 -0.84774073901E-01  0.88653270340E+00  0.88000000000E+00 0.  1.
        -11    1    4    4    0    0 -0.31514066993E-01  0.84852529969E-02  0.28696186422E-01  0.43461111043E-01  0.51100000000E-03 0.  1.
         11    1    4    4    0    0 -0.45752597056E-01  0.80601925948E-02  0.76501380988E-01  0.89504129828E-01  0.51100000000E-03 0. -1.
</event>
<event>
 8    1  0.1131376E+005  0.1043930E+01  0.7957747E-01            NaN
         13   -1    0    0    0    0  0.00000000000E+00  0.00000000000E+00  0.74505805969E-08  0.10566000000E+00  0.10566000000E+00 0. -1.
     999900   -1    0    0    0    0 -0.00000000000E+00 -0.00000000000E+00 -0.74505805969E-08  0.93827000000E+00  0.93827000000E+00 0.  1.
     999902    2    1    2    0    0  0.35359271638E-03 -0.21449213836E-01 -0.28530050509E-01  0.10082346560E+01  0.10076025823E+01 0.  0.
     999903    2    3    3    0    0  0.31948229144E-02 -0.11651814541E+00  0.26787168216E-01  0.12138282562E+00  0.20725657317E-01 0.  0.
         14    1    1    2    0    0 -0.35359271638E-03  0.21449213836E-01  0.28530050509E-01  0.35695344010E-01  0.00000000000E+00 0. -1.
     999901    1    3    3    0    0 -0.28412301980E-02  0.95068931576E-01 -0.55317218725E-01  0.88685183037E+00  0.88000000000E+00 0.  1.
        -11    1    4    4    0    0  0.95200546755E-02 -0.87290979957E-01  0.14274622243E-01  0.88962759535E-01  0.51100000000E-03 0. -1.
         11    1    4    4    0    0 -0.63252317611E-02 -0.29227165455E-01  0.12512545972E-01  0.32420066087E-01  0.51100000000E-03 0.  1.
</event>
<event>
 8    1  0.1131376E+005  0.1043930E+01  0.7957747E-01            NaN
         13   -1    0    0    0    0  0.00000000000E+00  0.00000000000E+00  0.74505805969E-08  0.10566000000E+00  0.10566000000E+00 0. -1.
     999900   -1    0    0    0    0 -0.00000000000E+00 -0.00000000000E+00 -0.74505805969E-08  0.93827000000E+00  0.93827000000E+00 0. -1.
     999902    2    1    2    0    0 -0.84175912717E-02 -0.15930766834E-01  0.15105816052E-01  0.10204176447E+01  0.10201467241E+01 0.  0.
     999903    2    3    3    0    0 -0.29957755790E-01 -0.91887613451E-01  0.89966470613E-01  0.13371727879E+00  0.21107917377E-01 0.  0.
         14    1    1    2    0    0  0.84175912717E-02  0.15930766834E-01 -0.15105816052E-01  0.23512355334E-01  0.00000000000E+00 0.  1.
     999901    1    3    3    0    0  0.21540164518E-01  0.75956846617E-01 -0.74860654561E-01  0.88670036587E+00  0.88000000000E+00 0. -1.
        -11    1    4    4    0    0 -0.29732303092E-01 -0.88362071263E-01  0.90701776093E-01  0.13007282111E+00  0.51100000000E-03 0. -1.
         11    1    4    4    0    0 -0.22545269787E-03 -0.35255421877E-02 -0.73530548027E-03  0.36444576806E-02  0.51100000000E-03 0.  1.
</event>
<event>
 8    1  0.1131376E+005  0.1043930E+01  0.7957747E-01            NaN
         13   -1    0    0    0    0  0.00000000000E+00  0.00000000000E+00  0.74505805969E-08  0.10566000000E+00  0.10566000000E+00 0. -1.
     999900   -1    0    0    0    0 -0.00000000000E+00 -0.00000000000E+00 -0.74505805969E-08  0.93827000000E+00  0.93827000000E+00 0. -1.
     999902    2    1    2    0    0 -0.75798684019E-03 -0.53622163741E-02 -0.23424442168E-01  0.10198876956E+01  0.10196042758E+01 0.  0.
     999903    2    3    3    0    0  0.93575968755E-02  0.10028614002E+00 -0.82293287779E-01  0.13155811646E+00  0.19760523644E-01 0.  0.
         14    1    1    2    0    0  0.75798684019E-03  0.53622163741E-02  0.23424442168E-01  0.24042304369E-01  0.00000000000E+00 0. -1.
     999901    1    3    3    0    0 -0.10115583716E-01 -0.10564835639E+00  0.58868845611E-01  0.88832957917E+00  0.88000000000E+00 0.  1.
        -11    1    4    4    0    0  0.64576576040E-02  0.26507851339E-01 -0.12720096425E-01  0.30106967606E-01  0.51100000000E-03 0.  1.
         11    1    4    4    0    0  0.28999392715E-02  0.73778288678E-01 -0.69573191354E-01  0.10145114886E+00  0.51100000000E-03 0. -1.
</event>
<event>
 8    1  0.1131376E+005  0.1043930E+01  0.7957747E-01            NaN
         13   -1    0    0    0    0  0.00000000000E+00  0.00000000000E+00  0.74505805969E-08  0.10566000000E+00  0.10566000000E+00 0.  1.
     999900   -1    0    0    0    0 -0.00000000000E+00 -0.00000000000E+00 -0.74505805969E-08  0.93827000000E+00  0.93827000000E+00 0.  1.
     999902    2    1    2    0    0 -0.10005392105E-01 -0.17979793414E-01 -0.54752166717E-02  0.10226377751E+01  0.10224160896E+01 0.  0.
     999903    2    3    3    0    0 -0.17376921977E-01 -0.12523969026E+00  0.42302530242E-01  0.13480798399E+00  0.19918610671E-01 0.  0.
         14    1    1    2    0    0  0.10005392105E-01  0.17979793414E-01  0.54752166717E-02  0.21292224872E-01  0.00000000000E+00 0.  1.
     999901    1    3    3    0    0  0.73715298723E-02  0.10725989684E+00 -0.47777746914E-01  0.88782979113E+00  0.88000000000E+00 0.  1.
        -11    1    4    4    0    0 -0.14767834620E-02 -0.54381136495E-01  0.26373549209E-01  0.60459193799E-01  0.51100000000E-03 0. -1.
         11    1    4    4    0    0 -0.15900138515E-01 -0.70858553761E-01  0.15928981033E-01  0.74348790196E-01  0.51100000000E-03 0.  1.
</event>
<event>
 8    1  0.1131376E+005  0.1043930E+01  0.7957747E-01            NaN
         13   -1    0    0    0    0  0.00000000000E+00  0.00000000000E+00  0.74505805969E-08  0.10566000000E+00  0.10566000000E+00 0.  1.
     999900   -1    0    0    0    0 -0.00000000000E+00 -0.00000000000E+00 -0.74505805969E-08  0.93827000000E+00  0.93827000000E+00 0.  1.
     999902    2    1    2    0    0 -0.80772796758E-02 -0.17091075774E-02  0.33782753404E-01  0.10091530260E+01  0.10085536138E+01 0.  0.
     999903    2    3    3    0    0  0.67457324350E-01  0.12320465124E-01 -0.92429943316E-01  0.11683472506E+00  0.20118998201E-01 0.  0.
         14    1    1    2    0    0  0.80772796758E-02  0.17091075774E-02 -0.33782753404E-01  0.34776974038E-01  0.00000000000E+00 0. -1.
     999901    1    3    3    0    0 -0.75534604026E-01 -0.14029572701E-01  0.12621269672E+00  0.89231830090E+00  0.88000000000E+00 0. -1.
        -11    1    4    4    0    0  0.43809042998E-01  0.37153861638E-02 -0.43720595802E-01  0.62006354199E-01  0.51100000000E-03 0.  1.
         11    1    4    4    0    0  0.23648281352E-01  0.86050789601E-02 -0.48709347514E-01  0.54828370859E-01  0.51100000000E-03 0. -1.
</event>
<event>
 8    1  0.1131376E+005  0.1043930E+01  0.7957747E-01            NaN
         13   -1    0    0    0    0  0.00000000000E+00  0.00000000000E+00  0.74505805969E-08  0.10566000000E+00  0.10566000000E+00 0. -1.
     999900   -1    0    0    0    0 -0.00000000000E+00 -0.00000000000E+00 -0.74505805969E-08  0.93827000000E+00  0.93827000000E+00 0. -1.
     999902    2    1    2    0    0  0.19010721542E-01  0.15987141203E-01 -0.12403587393E-01  0.10161659009E+01  0.10157865391E+01 0.  0.
     999903    2    3    3    0    0  0.10444599726E+00  0.74960939507E-01  0.52247061046E-02  0.12988837556E+00  0.17764677258E-01 0.  0.
         14    1    1    2    0    0 -0.19010721542E-01 -0.15987141203E-01  0.12403587393E-01  0.27764099077E-01  0.00000000000E+00 0.  1.
     999901    1    3    3    0    0 -0.85435275715E-01 -0.58973798305E-01 -0.17628293498E-01  0.88627752536E+00  0.88000000000E+00 0.  1.
        -11    1    4    4    0    0  0.55879477953E-01  0.50704768870E-01  0.15086048818E-02  0.75472025626E-01  0.51100000000E-03 0.  1.
         11    1    4    4    0    0  0.48566519304E-01  0.24256170638E-01  0.37161012228E-02  0.54416349938E-01  0.51100000000E-03 0. -1.
</event>
<event>
 8    1  0.1131376E+005  0.1043930E+01  0.7957747E-01            NaN
         13   -1    0    0    0    0  0.00000000000E+00  0.00000000000E+00  0.74505805969E-08  0.10566000000E+00  0.10566000000E+00 0.  1.
     999900   -1    0    0    0    0 -0.00000000000E+00 -0.00000000000E+00 -0.74505805969E-08  0.93827000000E+00  0.93827000000E+00 0.  1.
     999902    2    1    2    0    0 -0.20651132846E-02 -0.90143263320E-02  0.20997709992E-01  0.10209860117E+01  0.10207281761E+01 0.  0.
     999903    2    3    3    0    0  0.12476673297E+00  0.30457920224E-01  0.16824566318E-01  0.13100747796E+00  0.19633407440E-01 0.  0.
         14    1    1    2    0    0  0.20651132846E-02  0.90143263320E-02 -0.20997709992E-01  0.22943988255E-01  0.00000000000E+00 0. -1.
     999901    1    3    3    0    0 -0.12683184626E+00 -0.39472246556E-01  0.41731436744E-02  0.88997853379E+00  0.88000000000E+00 0.  1.
        -11    1    4    4    0    0  0.46383976494E-01  0.14524817569E-01  0.15465012720E-01  0.51008541836E-01  0.51100000000E-03 0. -1.
         11    1    4    4    0    0  0.78382756481E-01  0.15933102654E-01  0.13595535978E-02  0.79998936122E-01  0.51100000000E-03 0.  1.
</event>
<event>
 8    1  0.1131376E+005  0.1043930E+01  0.7957747E-01            NaN
         13   -1    0    0    0    0  0.00000000000E+00  0.00000000000E+00  0.74505805969E-08  0.10566000000E+00  0.10566000000E+00 0. -1.
     999900   -1    0    0    0    0 -0.00000000000E+00 -0.00000000000E+00 -0.74505805969E-08  0.93827000000E+00  0.93827000000E+00 0.  1.
     999902    2    1    2    0    0 -0.21873589060E-01  0.71415134436E-02 -0.71770762525E-02  0.10198267733E+01  0.10195418981E+01 0.  0.
     999903    2    3    3    0    0 -0.43336753052E-03  0.67583661248E-01 -0.11100527247E+00  0.13140500937E+00  0.19425933619E-01 0.  0.
         14    1    1    2    0    0  0.21873589060E-01 -0.71415134436E-02  0.71770762525E-02  0.24103226675E-01  0.00000000000E+00 0.  1.
     999901    1    3    3    0    0 -0.21440221529E-01 -0.60442147804E-01  0.10382819622E+00  0.88842176395E+00  0.88000000000E+00 0. -1.
        -11    1    4    4    0    0 -0.53365143707E-02  0.14670290390E-01 -0.38182126206E-01  0.41253262760E-01  0.51100000000E-03 0.  1.
         11    1    4    4    0    0  0.49031468402E-02  0.52913370858E-01 -0.72823146267E-01  0.90151746615E-01  0.51100000000E-03 0. -1.
</event>
<event>
 8    1  0.1131376E+005  0.1043930E+01  0.7957747E-01            NaN
         13   -1    0    0    0    0  0.00000000000E+00  0.00000000000E+00  0.74505805969E-08  0.10566000000E+00  0.10566000000E+00 0.  1.
     999900   -1    0    0    0    0 -0.00000000000E+00 -0.00000000000E+00 -0.74505805969E-08  0.93827000000E+00  0.93827000000E+00 0. -1.
     999902    2    1    2    0    0 -0.11074837626E-01 -0.13628834062E-01 -0.10868886178E-01  0.10232774013E+01  0.10230689665E+01 0.  0.
     999903    2    3    3    0    0 -0.47918957655E-02  0.39458344476E-01  0.12377278960E+00  0.13143318579E+00  0.19366354034E-01 0.  0.
         14    1    1    2    0    0  0.11074837626E-01  0.13628834062E-01  0.10868886178E-01  0.20652598700E-01  0.00000000000E+00 0. -1.
     999901    1    3    3    0    0 -0.62829418602E-02 -0.53087178538E-01 -0.13464167577E+00  0.89184421551E+00  0.88000000000E+00 0. -1.
        -11    1    4    4    0    0 -0.12110861381E-01  0.25402010703E-01  0.72812490412E-01  0.78063147465E-01  0.51100000000E-03 0. -1.
         11    1    4    4    0    0  0.73189656155E-02  0.14056333773E-01  0.50960299184E-01  0.53370038325E-01  0.51100000000E-03 0.  1.
</event>
<event>
 8    1  0.1131376E+005  0.1043930E+01  0.7957747E-01            NaN
         13   -1    0    0    0    0  0.00000000000E+00  0.00000000000E+00  0.74505805969E-08  0.10566000000E+00  0.10566000000E+00 0. -1.
     999900   -1    0    0    0    0 -0.00000000000E+00 -0.00000000000E+00 -0.74505805969E-08  0.93827000000E+00  0.93827000000E+00 0.  1.
     999902    2    1    2    0    0  0.15945034976E-01  0.73815455377E-02 -0.17601928910E-01  0.10190591485E+01  0.10187556080E+01 0.  0.
     999903    2    3    3    0    0  0.85972650059E-01 -0.48840275422E-01  0.80551290455E-01  0.12905981447E+00  0.19780198603E-01 0.  0.
         14    1    1    2    0    0 -0.15945034976E-01 -0.73815455377E-02  0.17601928910E-01  0.24870851539E-01  0.00000000000E+00 0. -1.
     999901    1    3    3    0    0 -0.70027615082E-01  0.56221820959E-01 -0.98153219365E-01  0.88999933399E+00  0.88000000000E+00 0.  1.
        -11    1    4    4    0    0  0.62317647147E-01 -0.26599582379E-01  0.47675948935E-01  0.82850975592E-01  0.51100000000E-03 0. -1.
         11    1    4    4    0    0  0.23655002911E-01 -0.22240693043E-01  0.32875341520E-01  0.46208838882E-01  0.51100000000E-03 0.  1.
</event>
<event>
 8    1  0.1131376E+005  0.1043930E+01  0.7957747E-01            NaN
         13   -1    0    0    0    0  0.00000000000E+00  0.00000000000E+00  0.74505805969E-08  0.10566000000E+00  0.10566000000E+00 0. -1.
     999900   -1    0    0    0    0 -0.00000000000E+00 -0.00000000000E+00 -0.74505805969E-08  0.93827000000E+00  0.93827000000E+00 0. -1.
     999902    2    1    2    0    0  0.12734377131E-01  0.49990603504E-02 -0.19489773304E-01  0.10201181074E+01  0.10198401575E+01 0.  0.
     999903    2    3    3    0    0  0.17732859304E-01 -0.12278225060E+00  0.31145567906E-01  0.12943466980E+00  0.19833103265E-01 0.  0.
         14    1    1    2    0    0 -0.12734377131E-01 -0.49990603504E-02  0.19489773304E-01  0.23811892590E-01  0.00000000000E+00 0. -1.
     999901    1    3    3    0    0 -0.49984821731E-02  0.12778131095E+00 -0.50635341209E-01  0.89068343761E+00  0.88000000000E+00 0. -1.
        -11    1    4    4    0    0  0.11554330175E-01 -0.29609868646E-01  0.31197407911E-02  0.31941208034E-01  0.51100000000E-03 0.  1.
         11    1    4    4    0    0  0.61785291289E-02 -0.93172381952E-01  0.28025827115E-01  0.97493461767E-01  0.51100000000E-03 0. -1.
</event>
<event>
 8    1  0.1131376E+005  0.1043930E+01  0.7957747E-01            NaN
         13   -1    0    0    0    0  0.00000000000E+00  0.00000000000E+00  0.74505805969E-08  0.10566000000E+00  0.10566000000E+00 0.  1.
     999900   -1    0    0    0    0 -0.00000000000E+00 -0.00000000000E+00 -0.74505805969E-08  0.93827000000E+00  0.93827000000E+00 0.  1.
     999902    2    1    2    0    0 -0.86087058372E-02 -0.88552242837E-02 -0.21249668030E-01  0.10193520993E+01  0.10190557537E+01 0.  0.
     999903    2    3    3    0    0  0.73516992257E-02  0.62888717176E-01 -0.11405542084E+00  0.13142483004E+00  0.15962728475E-01 0.  0.
         14    1    1    2    0    0  0.86087058372E-02  0.88552242837E-02  0.21249668030E-01  0.24577900738E-01  0.00000000000E+00 0.  1.
     999901    1    3    3    0    0 -0.15960405063E-01 -0.71743941460E-01  0.92805752806E-01  0.88792726922E+00  0.88000000000E+00 0. -1.
        -11    1    4    4    0    0 -0.86906179318E-03  0.37616442013E-01 -0.54745820794E-01  0.66431302813E-01  0.51100000000E-03 0.  1.
         11    1    4    4    0    0  0.82207610189E-02  0.25272275163E-01 -0.59309600043E-01  0.64993527231E-01  0.51100000000E-03 0. -1.
</event>
<event>
 8    1  0.1131376E+005  0.1043930E+01  0.7957747E-01            NaN
         13   -1    0    0    0    0  0.00000000000E+00  0.00000000000E+00  0.74505805969E-08  0.10566000000E+00  0.10566000000E+00 0.  1.
     999900   -1    0    0    0    0 -0.00000000000E+00 -0.00000000000E+00 -0.74505805969E-08  0.93827000000E+00  0.93827000000E+00 0.  1.
     999902    2    1    2    0    0 -0.13331423484E-01 -0.30564364191E-02 -0.18271632242E-01  0.10211063018E+01  0.10208511930E+01 0.  0.
     999903    2    3    3    0    0 -0.33109796892E-04 -0.11192640799E+00  0.63980497383E-01  0.13049138573E+00  0.20173641270E-01 0.  0.
         14    1    1    2    0    0  0.13331423484E-01  0.30564364191E-02  0.18271632242E-01  0.22823698221E-01  0.00000000000E+00 0.  1.
     999901    1    3    3    0    0 -0.13298313687E-01  0.10886997157E+00 -0.82252129625E-01  0.89061491605E+00  0.88000000000E+00 0. -1.
        -11    1    4    4    0    0  0.83084521798E-02 -0.47414902841E-01  0.20980239439E-01  0.52513188410E-01  0.51100000000E-03 0. -1.
         11    1    4    4    0    0 -0.83415619767E-02 -0.64511505153E-01  0.43000257944E-01  0.77978197322E-01  0.51100000000E-03 0.  1.
</event>
<event>
 7    1  0.1131376E+005  0.1043930E+01  0.7957747E-01            NaN
         13   -1    0    0    0    0  0.00000000000E+00  0.00000000000E+00  0.74505805969E-08  0.10566000000E+00  0.10566000000E+00 0. -1.
     999900   -1    0    0    0    0 -0.00000000000E+00 -0.00000000000E+00 -0.74505805969E-08  0.93827000000E+00  0.93827000000E+00 0.  1.
     999903    2    1    2    0    0 -0.64757056004E-01 -0.75027775277E-01  0.41779402388E-01  0.10942870410E+00  0.20161335554E-01 0.  0.
         14    1    1    2    0    0 -0.36415669117E-01  0.52100369131E-02 -0.27350954193E-01  0.45840158564E-01  0.00000000000E+00 0.  1.
     999901    1    1    2    0    0  0.10117272512E+00  0.69817738364E-01 -0.14428448195E-01  0.88866113734E+00  0.88000000000E+00 0.  1.
        -11    1    3    3    0    0 -0.47753043406E-01 -0.51846348118E-01  0.38954914122E-01  0.80536596792E-01  0.51100000000E-03 0.  1.
         11    1    3    3    0    0 -0.17004012598E-01 -0.23181427159E-01  0.28244882657E-02  0.28892107305E-01  0.51100000000E-03 0. -1.
</event>
<event>
 8    1  0.1131376E+005  0.1043930E+01  0.7957747E-01            NaN
         13   -1    0    0    0    0  0.00000000000E+00  0.00000000000E+00  0.74505805969E-08  0.10566000000E+00  0.10566000000E+00 0. -1.
     999900   -1    0    0    0    0 -0.00000000000E+00 -0.00000000000E+00 -0.74505805969E-08  0.93827000000E+00  0.93827000000E+00 0. -1.
     999902    2    1    2    0    0 -0.37732003571E-02 -0.99586708120E-02  0.20178874220E-01  0.10211133585E+01  0.10208584093E+01 0.  0.
     999903    2    3    3    0    0  0.10067182579E+00 -0.82724070014E-01  0.12742463202E-02  0.13175350344E+00  0.19474950531E-01 0.  0.
         14    1    1    2    0    0  0.37732003571E-02  0.99586708120E-02 -0.20178874220E-01  0.22816641516E-01  0.00000000000E+00 0.  1.
     999901    1    3    3    0    0 -0.10444502614E+00  0.72765399202E-01  0.18904627900E-01  0.88935985504E+00  0.88000000000E+00 0. -1.
        -11    1    4    4    0    0  0.52173864334E-01 -0.43827735417E-01 -0.90207235432E-02  0.68735850075E-01  0.51100000000E-03 0.  1.
         11    1    4    4    0    0  0.48497961453E-01 -0.38896334598E-01  0.10294969863E-01  0.63017653366E-01  0.51100000000E-03 0. -1.
</event>
<event>
 8    1  0.1131376E+005  0.1043930E+01  0.7957747E-01            NaN
         13   -1    0    0    0    0  0.00000000000E+00  0.00000000000E+00  0.74505805969E-08  0.10566000000E+00  0.10566000000E+00 0. -1.
     999900   -1    0    0    0    0 -0.00000000000E+00 -0.00000000000E+00 -0.74505805969E-08  0.93827000000E+00  0.93827000000E+00 0. -1.
     999902    2    1    2    0    0 -0.72730852951E-02  0.20408033824E-01 -0.97209204919E-02  0.10201838022E+01  0.10199074019E+01 0.  0.
     999903    2    3    3    0    0  0.79435492647E-01 -0.73900163211E-01 -0.66864766500E-01  0.12907335302E+00  0.20440201720E-01 0.  0.
         14    1    1    2    0    0  0.72730852951E-02 -0.20408033824E-01  0.97209204919E-02  0.23746197790E-01  0.00000000000E+00 0. -1.
     999901    1    3    3    0    0 -0.86708577943E-01  0.94308197035E-01  0.57143846008E-01  0.89111044919E+00  0.88000000000E+00 0. -1.
        -11    1    4    4    0    0  0.34849908962E-01 -0.23445314182E-01 -0.17133492840E-01  0.45365367954E-01  0.51100000000E-03 0.  1.
         11    1    4    4    0    0  0.44585583685E-01 -0.50454849029E-01 -0.49731273660E-01  0.83707985067E-01  0.51100000000E-03 0. -1.
</event>
<event>
 8    1  0.1131376E+005  0.1043930E+01  0.7957747E-01            NaN
         13   -1    0    0    0    0  0.00000000000E+00  0.00000000000E+00  0.74505805969E-08  0.10566000000E+00  0.10566000000E+00 0.  1.
     999900   -1    0    0    0    0 -0.00000000000E+00 -0.00000000000E+00 -0.74505805969E-08  0.93827000000E+00  0.93827000000E+00 0. -1.
     999902    2    1    2    0    0  0.89906746580E-02 -0.18761125882E-01  0.10733512054E-01  0.10205201654E+01  0.10202516296E+01 0.  0.
     999903    2    3    3    0    0  0.12780628593E-01 -0.72636106245E-01  0.10934631841E+00  0.13336664833E+00  0.19766060308E-01 0.  0.
         14    1    1    2    0    0 -0.89906746580E-02  0.18761125882E-01 -0.10733512054E-01  0.23409834604E-01  0.00000000000E+00 0.  1.
     999901    1    3    3    0    0 -0.37899539346E-02  0.53874980363E-01 -0.98612806355E-01  0.88715351706E+00  0.88000000000E+00 0. -1.
        -11    1    4    4    0    0  0.47509873206E-02 -0.59630401896E-01  0.76316989251E-01  0.96968555110E-01  0.51100000000E-03 0.  1.
         11    1    4    4    0    0  0.80296412720E-02 -0.13005704349E-01  0.33029329159E-01  0.36398093223E-01  0.51100000000E-03 0. -1.
</event>
<event>
 8    1  0.1131376E+005  0.1043930E+01  0.7957747E-01            NaN
         13   -1    0    0    0    0  0.00000000000E+00  0.00000000000E+00  0.74505805969E-08  0.10566000000E+00  0.10566000000E+00 0.  1.
     999900   -1    0    0    0    0 -0.00000000000E+00 -0.00000000000E+00 -0.74505805969E-08  0.93827000000E+00  0.93827000000E+00 0. -1.
     999902    2    1    2    0    0 -0.10903009190E-01 -0.10173957001E-01 -0.19483114934E-01  0.10193947849E+01  0.10190994803E+01 0.  0.
     999903    2    3    3    0    0  0.11504620695E-01 -0.44582781291E-01 -0.12253365420E+00  0.13243059022E+00  0.20084425101E-01 0.  0.
         14    1    1    2    0    0  0.10903009190E-01  0.10173957001E-01  0.19483114934E-01  0.24535215059E-01  0.00000000000E+00 0.  1.
     999901    1    3    3    0    0 -0.22407629885E-01  0.34408824290E-01  0.10305053926E+00  0.88696419472E+00  0.88000000000E+00 0.  1.
        -11    1    4    4    0    0 -0.21387861995E-02 -0.26919185462E-01 -0.79295650027E-01  0.83769195928E-01  0.51100000000E-03 0.  1.
         11    1    4    4    0    0  0.13643406895E-01 -0.17663595829E-01 -0.43238004169E-01  0.48661394296E-01  0.51100000000E-03 0. -1.
</event>
<event>
 8    1  0.1131376E+005  0.1043930E+01  0.7957747E-01            NaN
         13   -1    0    0    0    0  0.00000000000E+00  0.00000000000E+00  0.74505805969E-08  0.10566000000E+00  0.10566000000E+00 0. -1.
     999900   -1    0    0    0    0 -0.00000000000E+00 -0.00000000000E+00 -0.74505805969E-08  0.93827000000E+00  0.93827000000E+00 0.  1.
     999902    2    1    2    0    0 -0.22597412967E-01 -0.67115090569E-02  0.39623970317E-03  0.10203536468E+01  0.10200812321E+01 0.  0.
     999903    2    3    3    0    0 -0.78520753002E-01 -0.95338387396E-01  0.45030310280E-01  0.13301248137E+00  0.20240419776E-01 0.  0.
         14    1    1    2    0    0  0.22597412967E-01  0.67115090569E-02 -0.39623970317E-03  0.23576353249E-01  0.00000000000E+00 0.  1.
     999901    1    3    3    0    0  0.55923340034E-01  0.88626878339E-01 -0.44634070577E-01  0.88734116538E+00  0.88000000000E+00 0.  1.
        -11    1    4    4    0    0 -0.19124996586E-01 -0.31708170553E-01  0.56045469066E-02  0.37454581045E-01  0.51100000000E-03 0. -1.
         11    1    4    4    0    0 -0.59395756416E-01 -0.63630216843E-01  0.39425763373E-01  0.95557900323E-01  0.51100000000E-03 0.  1.
</event>
<event>
 8    1  0.1131376E+005  0.1043930E+01  0.7957747E-01            NaN
         13   -1    0    0    0    0  0.00000000000E+00  0.00000000000E+00  0.74505805969E-08  0.10566000000E+00  0.10566000000E+00 0.  1.
     999900   -1    0    0    0    0 -0.00000000000E+00 -0.00000000000E+00 -0.74505805969E-08  0.93827000000E+00  0.93827000000E+00 0.  1.
     999902    2    1    2    0    0 -0.19414081240E-01  0.12970137068E-01  0.70804630766E-05  0.10205819582E+01  0.10203148545E+01 0.  0.
     999903    2    3    3    0    0 -0.88423354691E-01  0.54190007721E-01 -0.81176637966E-01  0.13319694948E+00  0.19913166684E-01 0.  0.
         14    1    1    2    0    0  0.19414081240E-01 -0.12970137068E-01 -0.70804630766E-05  0.23348041804E-01  0.00000000000E+00 0. -1.
     999901    1    3    3    0    0  0.69009273452E-01 -0.41219870653E-01  0.81183718429E-01  0.88738500872E+00  0.88000000000E+00 0. -1.
        -11    1    4    4    0    0 -0.47206134161E-01  0.19670094170E-01 -0.47204351963E-01  0.69597727495E-01  0.51100000000E-03 0. -1.
         11    1    4    4    0    0 -0.41217220530E-01  0.34519913551E-01 -0.33972286002E-01  0.63599221984E-01  0.51100000000E-03 0.  1.
</event>
<event>
 8    1  0.1131376E+005  0.1043930E+01  0.7957747E-01            NaN
         13   -1    0    0    0    0  0.00000000000E+00  0.00000000000E+00  0.74505805969E-08  0.10566000000E+00  0.10566000000E+00 0.  1.
     999900   -1    0    0    0    0 -0.00000000000E+00 -0.00000000000E+00 -0.74505805969E-08  0.93827000000E+00  0.93827000000E+00 0. -1.
     999902    2    1    2    0    0  0.12014601519E-01  0.16556384199E-01  0.10919329601E-01  0.10207417214E+01  0.10204783023E+01 0.  0.
     999903    2    3    3    0    0 -0.61670751018E-01 -0.10963965629E+00 -0.14953814976E-01  0.12831559477E+00  0.20423993595E-01 0.  0.
         14    1    1    2    0    0 -0.12014601519E-01 -0.16556384199E-01 -0.10919329601E-01  0.23188278642E-01  0.00000000000E+00 0. -1.
     999901    1    3    3    0    0  0.73685352538E-01  0.12619604049E+00  0.25873144577E-01  0.89242612659E+00  0.88000000000E+00 0.  1.
        -11    1    4    4    0    0 -0.37652738086E-01 -0.80089157472E-01 -0.17239351170E-01  0.90163508027E-01  0.51100000000E-03 0. -1.
         11    1    4    4    0    0 -0.24018012932E-01 -0.29550498822E-01  0.22855361941E-02  0.38152086739E-01  0.51100000000E-03 0.  1.
</event>
<event>
 8    1  0.1131376E+005  0.1043930E+01  0.7957747E-01            NaN
         13   -1    0    0    0    0  0.00000000000E+00  0.00000000000E+00  0.74505805969E-08  0.10566000000E+00  0.10566000000E+00 0.  1.
     999900   -1    0    0    0    0 -0.00000000000E+00 -0.00000000000E+00 -0.74505805969E-08  0.93827000000E+00  0.93827000000E+00 0. -1.
     999902    2    1    2    0    0 -0.59577010208E-02 -0.61223988590E-02  0.21687956100E-01  0.10206202293E+01  0.10203540107E+01 0.  0.
     999903    2    3    3    0    0  0.94831005180E-01  0.85983935081E-01 -0.67482893653E-02  0.12963731136E+00  0.19342607147E-01 0.  0.
         14    1    1    2    0    0  0.59577010208E-02  0.61223988590E-02 -0.21687956100E-01  0.23309770677E-01  0.00000000000E+00 0. -1.
     999901    1    3    3    0    0 -0.10078870620E+00 -0.92106333940E-01  0.28436245465E-01  0.89098291797E+00  0.88000000000E+00 0. -1.
        -11    1    4    4    0    0  0.57772377301E-01  0.62741583937E-01 -0.94193183854E-02  0.85808732736E-01  0.51100000000E-03 0.  1.
         11    1    4    4    0    0  0.37058627879E-01  0.23242351144E-01  0.26710290201E-02  0.43828578621E-01  0.51100000000E-03 0. -1.
</event>
<event>
 8    1  0.1131376E+005  0.1043930E+01  0.7957747E-01            NaN
         13   -1    0    0    0    0  0.00000000000E+00  0.00000000000E+00  0.74505805969E-08  0.10566000000E+00  0.10566000000E+00 0.  1.
     999900   -1    0    0    0    0 -0.00000000000E+00 -0.00000000000E+00 -0.74505805969E-08  0.93827000000E+00  0.93827000000E+00 0. -1.
     999902    2    1    2    0    0  0.74523426700E-02  0.20739686020E-01 -0.10522978833E-01  0.10195085940E+01  0.10192160557E+01 0.  0.
     999903    2    3    3    0    0  0.96492550357E-01  0.58133233392E-01  0.64495928529E-01  0.13105247666E+00  0.18020592224E-01 0.  0.
         14    1    1    2    0    0 -0.74523426700E-02 -0.20739686020E-01  0.10522978833E-01  0.24421406000E-01  0.00000000000E+00 0.  1.
     999901    1    3    3    0    0 -0.89040207687E-01 -0.37393547372E-01 -0.75018907362E-01  0.88845611734E+00  0.88000000000E+00 0. -1.
        -11    1    4    4    0    0  0.65390848150E-01  0.34296971376E-01  0.33486989681E-01  0.81079497201E-01  0.51100000000E-03 0.  1.
         11    1    4    4    0    0  0.31101702207E-01  0.23836262016E-01  0.31008938848E-01  0.49972979464E-01  0.51100000000E-03 0. -1.
</event>
<event>
 8    1  0.1131376E+005  0.1043930E+01  0.7957747E-01            NaN
         13   -1    0    0    0    0  0.00000000000E+00  0.00000000000E+00  0.74505805969E-08  0.10566000000E+00  0.10566000000E+00 0.  1.
     999900   -1    0    0    0    0 -0.00000000000E+00 -0.00000000000E+00 -0.74505805969E-08  0.93827000000E+00  0.93827000000E+00 0.  1.
     999902    2    1    2    0    0  0.14530665070E-01  0.15147319827E-01 -0.15931906522E-02  0.10228795895E+01  0.10226629625E+01 0.  0.
     999903    2    3    3    0    0 -0.11022197958E+00  0.14872773907E-01 -0.67779245769E-01  0.13161986776E+00  0.18965211443E-01 0.  0.
         14    1    1    2    0    0 -0.14530665070E-01 -0.15147319827E-01  0.15931906522E-02  0.21050410490E-01  0.00000000000E+00 0. -1.
     999901    1    3    3    0    0  0.12475264465E+00  0.27454592066E-03  0.66186055117E-01  0.89125972175E+00  0.88000000000E+00 0. -1.
        -11    1    4    4    0    0 -0.55902279783E-01  0.48372992032E-02 -0.23554684669E-01  0.60856787948E-01  0.51100000000E-03 0. -1.
         11    1    4    4    0    0 -0.54319699800E-01  0.10035474703E-01 -0.44224561100E-01  0.70763079811E-01  0.51100000000E-03 0.  1.
</event>
<event>
 8    1  0.1131376E+005  0.1043930E+01  0.7957747E-01            NaN
         13   -1    0    0    0    0  0.00000000000E+00  0.00000000000E+00  0.74505805969E-08  0.10566000000E+00  0.10566000000E+00 0.  1.
     999900   -1    0    0    0    0 -0.00000000000E+00 -0.00000000000E+00 -0.74505805969E-08  0.93827000000E+00  0.93827000000E+00 0.  1.
     999902    2    1    2    0    0  0.68007469738E-02 -0.11618188985E-01  0.19297513193E-01  0.10204007312E+01  0.10201294162E+01 0.  0.
     999903    2    3    3    0    0 -0.38350914336E-01  0.62764777895E-01  0.10737105225E+00  0.13173406334E+00  0.20374263396E-01 0.  0.
         14    1    1    2    0    0 -0.68007469738E-02  0.11618188985E-01 -0.19297513193E-01  0.23529268797E-01  0.00000000000E+00 0. -1.
     999901    1    3    3    0    0  0.45151661309E-01 -0.74382966880E-01 -0.88073539058E-01  0.88866666786E+00  0.88000000000E+00 0.  1.
        -11    1    4    4    0    0 -0.24132433736E-01  0.52880879237E-01  0.73677392932E-01  0.93847648330E-01  0.51100000000E-03 0.  1.
         11    1    4    4    0    0 -0.14218480600E-01  0.98838986582E-02  0.33693659320E-01  0.37886415014E-01  0.51100000000E-03 0. -1.
</event>
<event>
 8    1  0.1131376E+005  0.1043930E+01  0.7957747E-01            NaN
         13   -1    0    0    0    0  0.00000000000E+00  0.00000000000E+00  0.74505805969E-08  0.10566000000E+00  0.10566000000E+00 0. -1.
     999900   -1    0    0    0    0 -0.00000000000E+00 -0.00000000000E+00 -0.74505805969E-08  0.93827000000E+00  0.93827000000E+00 0. -1.
     999902    2    1    2    0    0  0.21713989712E-01 -0.97823016958E-02  0.39530617057E-02  0.10197883871E+01  0.10195025929E+01 0.  0.
     999903    2    3    3    0    0 -0.10629745628E+00  0.53312209782E-01  0.41136318120E-01  0.12751575936E+00  0.20657475510E-01 0.  0.
         14    1    1    2    0    0 -0.21713989712E-01  0.97823016958E-02 -0.39530617057E-02  0.24141612882E-01  0.00000000000E+00 0. -1.
     999901    1    3    3    0    0  0.12801144599E+00 -0.63094511478E-01 -0.37183256415E-01  0.89227262775E+00  0.88000000000E+00 0. -1.
        -11    1    4    4    0    0 -0.85200636498E-01  0.48246845260E-01  0.40043440343E-01  0.10578584391E+00  0.51100000000E-03 0. -1.
         11    1    4    4    0    0 -0.21096819780E-01  0.50653645217E-02  0.10928777776E-02  0.21729915449E-01  0.51100000000E-03 0.  1.
</event>
<event>
 8    1  0.1131376E+005  0.1043930E+01  0.7957747E-01            NaN
         13   -1    0    0    0    0  0.00000000000E+00  0.00000000000E+00  0.74505805969E-08  0.10566000000E+00  0.10566000000E+00 0.  1.
     999900   -1    0    0    0    0 -0.00000000000E+00 -0.00000000000E+00 -0.74505805969E-08  0.93827000000E+00  0.93827000000E+00 0. -1.
     999902    2    1    2    0    0 -0.72910123304E-02 -0.23830451408E-01 -0.39873706795E-02  0.10186921633E+01  0.10183794849E+01 0.  0.
     999903    2    3    3    0    0 -0.71432004439E-01  0.22671663239E-02  0.10554548298E+00  0.12920208550E+00  0.21110628117E-01 0.  0.
         14    1    1    2    0    0  0.72910123304E-02  0.23830451408E-01  0.39873706795E-02  0.25237836675E-01  0.00000000000E+00 0.  1.
     999901    1    3    3    0    0  0.64140992109E-01 -0.26097617732E-01 -0.10953285366E+00  0.88949007783E+00  0.88000000000E+00 0. -1.
        -11    1    4    4    0    0 -0.25341133574E-01 -0.12132408637E-02  0.55779141518E-01  0.61279839700E-01  0.51100000000E-03 0.  1.
         11    1    4    4    0    0 -0.46090870865E-01  0.34804071876E-02  0.49766341457E-01  0.67922245799E-01  0.51100000000E-03 0. -1.
</event>
<event>
 8    1  0.1131376E+005  0.1043930E+01  0.7957747E-01            NaN
         13   -1    0    0    0    0  0.00000000000E+00  0.00000000000E+00  0.74505805969E-08  0.10566000000E+00  0.10566000000E+00 0. -1.
     999900   -1    0    0    0    0 -0.00000000000E+00 -0.00000000000E+00 -0.74505805969E-08  0.93827000000E+00  0.93827000000E+00 0.  1.
     999902    2    1    2    0    0 -0.15917366956E-01 -0.75142139774E-02 -0.17612343502E-01  0.10190297866E+01  0.10187255201E+01 0.  0.
     999903    2    3    3    0    0 -0.30041537972E-02  0.72581824479E-01  0.10248896820E+00  0.12717416405E+00  0.19802353733E-01 0.  0.
         14    1    1    2    0    0  0.15917366956E-01  0.75142139774E-02  0.17612343502E-01  0.24900213375E-01  0.00000000000E+00 0.  1.
     999901    1    3    3    0    0 -0.12913213158E-01 -0.80096038456E-01 -0.12010131170E+00  0.89185562258E+00  0.88000000000E+00 0.  1.
        -11    1    4    4    0    0 -0.60634788256E-02  0.13763019092E-01  0.31662269222E-01  0.35056338703E-01  0.51100000000E-03 0. -1.
         11    1    4    4    0    0  0.30593250285E-02  0.58818805386E-01  0.70826698980E-01  0.92117825344E-01  0.51100000000E-03 0.  1.
</event>
<event>
 8    1  0.1131376E+005  0.1043930E+01  0.7957747E-01            NaN
         13   -1    0    0    0    0  0.00000000000E+00  0.00000000000E+00  0.74505805969E-08  0.10566000000E+00  0.10566000000E+00 0. -1.
     999900   -1    0    0    0    0 -0.00000000000E+00 -0.00000000000E+00 -0.74505805969E-08  0.93827000000E+00  0.93827000000E+00 0.  1.
     999902    2    1    2    0    0 -0.66409051523E-03  0.13871930631E-01  0.19365885219E-01  0.10200991589E+01  0.10198207612E+01 0.  0.
     999903    2    3    3    0    0 -0.10627535128E+00 -0.17793876258E-01  0.73646661751E-01  0.13155942182E+00  0.16522056829E-01 0.  0.
         14    1    1    2    0    0  0.66409051523E-03 -0.13871930631E-01 -0.19365885219E-01  0.23830841067E-01  0.00000000000E+00 0.  1.
     999901    1    3    3    0    0  0.10561126076E+00  0.31665806888E-01 -0.54280776533E-01  0.88853973711E+00  0.88000000000E+00 0.  1.
        -11    1    4    4    0    0 -0.51274049483E-01 -0.28012829721E-02  0.42089787421E-01  0.66397941706E-01  0.51100000000E-03 0. -1.
         11    1    4    4    0    0 -0.55001301793E-01 -0.14992593285E-01  0.31556874330E-01  0.65161480115E-01  0.51100000000E-03 0.  1.
</event>
<event>
 8    1  0.1131376E+005  0.1043930E+01  0.7957747E-01            NaN
         13   -1    0    0    0    0  0.00000000000E+00  0.00000000000E+00  0.74505805969E-08  0.10566000000E+00  0.10566000000E+00 0. -1.
     999900   -1    0    0    0    0 -0.00000000000E+00 -0.00000000000E+00 -0.74505805969E-08  0.93827000000E+00  0.93827000000E+00 0.  1.
     999902    2    1    2    0    0 -0.19444107936E-01 -0.12498224800E-01 -0.29862224599E-02  0.10206234241E+01  0.10203572792E+01 0.  0.
     999903    2    3    3    0    0  0.24993471140E-01  0.78965121198E-01  0.96870938462E-01  0.12915738733E+00  0.20916214219E-01 0.  0.
         14    1    1    2    0    0  0.19444107936E-01  0.12498224800E-01  0.29862224599E-02  0.23306575921E-01  0.00000000000E+00 0.  1.
     999901    1    3    3    0    0 -0.44437579076E-01 -0.91463345998E-01 -0.99857160922E-01  0.89146603675E+00  0.88000000000E+00 0.  1.
        -11    1    4    4    0    0  0.13393634266E-01  0.41723661565E-01  0.35316749650E-01  0.56283099595E-01  0.51100000000E-03 0. -1.
         11    1    4    4    0    0  0.11599836874E-01  0.37241459633E-01  0.61554188812E-01  0.72874287732E-01  0.51100000000E-03 0.  1.
</event>
<event>
 8    1  0.1131376E+005  0.1043930E+01  0.7957747E-01            NaN
         13   -1    0    0    0    0  0.00000000000E+00  0.00000000000E+00  0.74505805969E-08  0.10566000000E+00  0.10566000000E+00 0. -1.
     999900   -1    0    0    0    0 -0.00000000000E+00 -0.00000000000E+00 -0.74505805969E-08  0.93827000000E+00  0.93827000000E+00 0.  1.
     999902    2    1    2    0    0 -0.19285580062E-01  0.13795112139E-01  0.12728530349E-02  0.10201842873E+01  0.10199078984E+01 0.  0.
     999903    2    3    3    0    0  0.63405878996E-01 -0.98820080064E-01 -0.48794772044E-01  0.12775679668E+00  0.12456147234E-01 0.  0.
         14    1    1    2    0    0  0.19285580062E-01 -0.13795112139E-01 -0.12728530349E-02  0.23745712710E-01  0.00000000000E+00 0. -1.
     999901    1    3    3    0    0 -0.82691459058E-01  0.11261519220E+00  0.50067625079E-01  0.89242749061E+00  0.88000000000E+00 0. -1.
        -11    1    4    4    0    0  0.24706462489E-01 -0.40800682555E-01 -0.26326412711E-01  0.54483448063E-01  0.51100000000E-03 0.  1.
         11    1    4    4    0    0  0.38699416507E-01 -0.58019397510E-01 -0.22468359333E-01  0.73273348616E-01  0.51100000000E-03 0. -1.
</event>
<event>
 8    1  0.1131376E+005  0.1043930E+01  0.7957747E-01            NaN
         13   -1    0    0    0    0  0.00000000000E+00  0.00000000000E+00  0.74505805969E-08  0.10566000000E+00  0.10566000000E+00 0.  1.
     999900   -1    0    0    0    0 -0.00000000000E+00 -0.00000000000E+00 -0.74505805969E-08  0.93827000000E+00  0.93827000000E+00 0.  1.
     999902    2    1    2    0    0  0.17887170819E-02  0.72767126830E-02  0.22776668783E-01  0.10199523709E+01  0.10196704920E+01 0.  0.
     999903    2    3    3    0    0 -0.53094009452E-01  0.11668255313E+00  0.21741764183E-01  0.13148018641E+00  0.19507512992E-01 0.  0.
         14    1    1    2    0    0 -0.17887170819E-02 -0.72767126830E-02 -0.22776668783E-01  0.23977629098E-01  0.00000000000E+00 0. -1.
     999901    1    3    3    0    0  0.54882726534E-01 -0.10940584045E+00  0.10349045999E-02  0.88847218450E+00  0.88000000000E+00 0.  1.
        -11    1    4    4    0    0 -0.42065556215E-01  0.10698818644E+00  0.18627153458E-01  0.11646121683E+00  0.51100000000E-03 0. -1.
         11    1    4    4    0    0 -0.11028453237E-01  0.96943666883E-02  0.31146107253E-02  0.15018969580E-01  0.51100000000E-03 0.  1.
</event>
<event>
 8    1  0.1131376E+005  0.1043930E+01  0.7957747E-01            NaN
         13   -1    0    0    0    0  0.00000000000E+00  0.00000000000E+00  0.74505805969E-08  0.10566000000E+00  0.10566000000E+00 0.  1.
     999900   -1    0    0    0    0 -0.00000000000E+00 -0.00000000000E+00 -0.74505805969E-08  0.93827000000E+00  0.93827000000E+00 0.  1.
     999902    2    1    2    0    0 -0.39765481627E-02 -0.21820261196E-01  0.61278822600E-02  0.10209194008E+01  0.10206600488E+01 0.  0.
     999903    2    3    3    0    0  0.92110039506E-02 -0.10889738994E+00 -0.73359620326E-01  0.13295847772E+00  0.18784003125E-01 0.  0.
         14    1    1    2    0    0  0.39765481627E-02  0.21820261196E-01 -0.61278822600E-02  0.23010599187E-01  0.00000000000E+00 0. -1.
     999901    1    3    3    0    0 -0.13187552113E-01  0.87077128740E-01  0.79487502586E-01  0.88796092310E+00  0.88000000000E+00 0.  1.
        -11    1    4    4    0    0  0.63013204096E-02 -0.49799903469E-01 -0.22826684900E-01  0.55145767644E-01  0.51100000000E-03 0. -1.
         11    1    4    4    0    0  0.29096835410E-02 -0.59097486466E-01 -0.50532935426E-01  0.77812710072E-01  0.51100000000E-03 0.  1.
</event>
<event>
 8    1  0.1131376E+005  0.1043930E+01  0.7957747E-01            NaN
         13   -1    0    0    0    0  0.00000000000E+00  0.00000000000E+00  0.74505805969E-08  0.10566000000E+00  0.10566000000E+00 0.  1.
     999900   -1    0    0    0    0 -0.00000000000E+00 -0.00000000000E+00 -0.74505805969E-08  0.93827000000E+00  0.93827000000E+00 0.  1.
     999902    2    1    2    0    0  0.70801470235E-02 -0.81705937415E-03  0.21752229465E-01  0.10210399245E+01  0.10207833129E+01 0.  0.
     999903    2    3    3    0    0 -0.66946116065E-01  0.59303845002E-01  0.95996147179E-01  0.13277950659E+00  0.20406092476E-01 0.  0.
         14    1    1    2    0    0 -0.70801470235E-02  0.81705937415E-03 -0.21752229465E-01  0.22890075460E-01  0.00000000000E+00 0. -1.
     999901    1    3    3    0    0  0.74026263089E-01 -0.60120904376E-01 -0.74243917714E-01  0.88826041794E+00  0.88000000000E+00 0.  1.
        -11    1    4    4    0    0 -0.53366780603E-01  0.56746191797E-01  0.82087807878E-01  0.11316718994E+00  0.51100000000E-03 0.  1.
         11    1    4    4    0    0 -0.13579335462E-01  0.25576532047E-02  0.13908339301E-01  0.19612316656E-01  0.51100000000E-03 0. -1.
</event>
<event>
 8    1  0.1131376E+005  0.1043930E+01  0.7957747E-01            NaN
         13   -1    0    0    0    0  0.00000000000E+00  0.00000000000E+00  0.74505805969E-08  0.10566000000E+00  0.10566000000E+00 0. -1.
     999900   -1    0    0    0    0 -0.00000000000E+00 -0.00000000000E+00 -0.74505805969E-08  0.93827000000E+00  0.93827000000E+00 0. -1.
     999902    2    1    2    0    0  0.58782352085E-02 -0.14358997051E-02  0.23272835571E-01  0.10198833717E+01  0.10195998487E+01 0.  0.
     999903    2    3    3    0    0  0.11023883558E-01 -0.43993418527E-01 -0.11755513393E+00  0.12765574542E+00  0.20489825338E-01 0.  0.
         14    1    1    2    0    0 -0.58782352085E-02  0.14358997051E-02 -0.23272835571E-01  0.24046628301E-01  0.00000000000E+00 0.  1.
     999901    1    3    3    0    0 -0.51456483497E-02  0.42557518822E-01  0.14082796950E+00  0.89222762628E+00  0.88000000000E+00 0.  1.
        -11    1    4    4    0    0  0.14021542167E-01 -0.34404749319E-01 -0.72214067166E-01  0.81212209908E-01  0.51100000000E-03 0.  1.
         11    1    4    4    0    0 -0.29976586093E-02 -0.95886692075E-02 -0.45341066765E-01  0.46443535510E-01  0.51100000000E-03 0. -1.
</event>
<event>
 8    1  0.1131376E+005  0.1043930E+01  0.7957747E-01            NaN
         13   -1    0    0    0    0  0.00000000000E+00  0.00000000000E+00  0.74505805969E-08  0.10566000000E+00  0.10566000000E+00 0. -1.
     999900   -1    0    0    0    0 -0.00000000000E+00 -0.00000000000E+00 -0.74505805969E-08  0.93827000000E+00  0.93827000000E+00 0. -1.
     999902    2    1    2    0    0 -0.56305669914E-02 -0.46799273841E-02 -0.22968592668E-01  0.10198227137E+01  0.10195377414E+01 0.  0.
     999903    2    3    3    0    0 -0.22155843285E-01 -0.25678335745E-01 -0.12738392163E+00  0.13324695333E+00  0.19437817835E-01 0.  0.
         14    1    1    2    0    0  0.56305669914E-02  0.46799273841E-02  0.22968592668E-01  0.24107286328E-01  0.00000000000E+00 0. -1.
     999901    1    3    3    0    0  0.16525276294E-01  0.20998408361E-01  0.10441532896E+00  0.88657576035E+00  0.88000000000E+00 0.  1.
        -11    1    4    4    0    0  0.42047441229E-03 -0.81244173389E-02 -0.51700776514E-01  0.52339415061E-01  0.51100000000E-03 0.  1.
         11    1    4    4    0    0 -0.22576317697E-01 -0.17553918406E-01 -0.75683145118E-01  0.80907538265E-01  0.51100000000E-03 0. -1.
</event>
<event>
 8    1  0.1131376E+005  0.1043930E+01  0.7957747E-01            NaN
         13   -1    0    0    0    0  0.00000000000E+00  0.00000000000E+00  0.74505805969E-08  0.10566000000E+00  0.10566000000E+00 0. -1.
     999900   -1    0    0    0    0 -0.00000000000E+00 -0.00000000000E+00 -0.74505805969E-08  0.93827000000E+00  0.93827000000E+00 0.  1.
     999902    2    1    2    0    0  0.12492525284E-01  0.15991644414E-01  0.11585534325E-01  0.10205629188E+01  0.10202953742E+01 0.  0.
     999903    2    3    3    0    0 -0.10560671174E+00  0.74290738234E-01 -0.13950530412E-02  0.13066702050E+00  0.20000818062E-01 0.  0.
         14    1    1    2    0    0 -0.12492525284E-01 -0.15991644414E-01 -0.11585534325E-01  0.23367081218E-01  0.00000000000E+00 0.  1.
     999901    1    3    3    0    0  0.11809923702E+00 -0.58299093820E-01  0.12980587367E-01  0.88989589828E+00  0.88000000000E+00 0. -1.
        -11    1    4    4    0    0 -0.12493456986E-01  0.28623959489E-02  0.32034755905E-02  0.13221314416E-01  0.51100000000E-03 0.  1.
         11    1    4    4    0    0 -0.93113254751E-01  0.71428342285E-01 -0.45985286318E-02  0.11744570609E+00  0.51100000000E-03 0. -1.
</event>
<event>
 8    1  0.1131376E+005  0.1043930E+01  0.7957747E-01            NaN
         13   -1    0    0    0    0  0.00000000000E+00  0.00000000000E+00  0.74505805969E-08  0.10566000000E+00  0.10566000000E+00 0. -1.
     999900   -1    0    0    0    0 -0.00000000000E+00 -0.00000000000E+00 -0.74505805969E-08  0.93827000000E+00  0.93827000000E+00 0. -1.
     999902    2    1    2    0    0 -0.12986432181E-01 -0.19009354996E-01  0.18560805995E-02  0.10208335060E+01  0.10205721920E+01 0.  0.
     999903    2    3    3    0    0  0.93511456637E-01  0.85644633248E-01 -0.16335722938E-02  0.12824937261E+00  0.19126873465E-01 0.  0.
         14    1    1    2    0    0  0.12986432181E-01  0.19009354996E-01 -0.18560805995E-02  0.23096493962E-01  0.00000000000E+00 0. -1.
     999901    1    3    3    0    0 -0.10649788882E+00 -0.10465398824E+00  0.34896528933E-02  0.89258413343E+00  0.88000000000E+00 0.  1.
        -11    1    4    4    0    0  0.41243359271E-01  0.26099765151E-01  0.28174870761E-02  0.48891837553E-01  0.51100000000E-03 0.  1.
         11    1    4    4    0    0  0.52268097366E-01  0.59544868098E-01 -0.44510593699E-02  0.79357535052E-01  0.51100000000E-03 0. -1.
</event>
<event>
 8    1  0.1131376E+005  0.1043930E+01  0.7957747E-01            NaN
         13   -1    0    0    0    0  0.00000000000E+00  0.00000000000E+00  0.74505805969E-08  0.10566000000E+00  0.10566000000E+00 0.  1.
     999900   -1    0    0    0    0 -0.00000000000E+00 -0.00000000000E+00 -0.74505805969E-08  0.93827000000E+00  0.93827000000E+00 0.  1.
     999902    2    1    2    0    0 -0.61020206129E-02 -0.84188731277E-02 -0.14965535842E-01  0.10257069557E+01  0.10255450647E+01 0.  0.
     999903    2    3    3    0    0 -0.11518459451E+00 -0.20880407554E-01 -0.68768226574E-01  0.13725379020E+00  0.20150724677E-01 0.  0.
         14    1    1    2    0    0  0.61020206129E-02  0.84188731277E-02  0.14965535842E-01  0.18223044294E-01  0.00000000000E+00 0.  1.
     999901    1    3    3    0    0  0.10908257390E+00  0.12461534426E-01  0.53802690732E-01  0.88845316551E+00  0.88000000000E+00 0. -1.
        -11    1    4    4    0    0 -0.41601839295E-01 -0.16770113326E-01 -0.30161922837E-01  0.54055087123E-01  0.51100000000E-03 0.  1.
         11    1    4    4    0    0 -0.73582755219E-01 -0.41102942271E-02 -0.38606303737E-01  0.83198703076E-01  0.51100000000E-03 0. -1.
</event>
<event>
 8    1  0.1131376E+005  0.1043930E+01  0.7957747E-01            NaN
         13   -1    0    0    0    0  0.00000000000E+00  0.00000000000E+00  0.74505805969E-08  0.10566000000E+00  0.10566000000E+00 0.  1.
     999900   -1    0    0    0    0 -0.00000000000E+00 -0.00000000000E+00 -0.74505805969E-08  0.93827000000E+00  0.93827000000E+00 0.  1.
     999902    2    1    2    0    0  0.67158144764E-02  0.11623781267E-01 -0.19620004937E-01  0.10201569260E+01  0.10198798922E+01 0.  0.
     999903    2    3    3    0    0 -0.32277035424E-01  0.51570927578E-02  0.12213277630E+00  0.12793715966E+00  0.19572918873E-01 0.  0.
         14    1    1    2    0    0 -0.67158144764E-02 -0.11623781267E-01  0.19620004937E-01  0.23773074028E-01  0.00000000000E+00 0.  1.
     999901    1    3    3    0    0  0.38992849900E-01  0.64666885089E-02 -0.14175278124E+00  0.89221976631E+00  0.88000000000E+00 0.  1.
        -11    1    4    4    0    0 -0.27650040839E-01 -0.23490230441E-02  0.74706775881E-01  0.79695709741E-01  0.51100000000E-03 0.  1.
         11    1    4    4    0    0 -0.46269945851E-02  0.75061158019E-02  0.47426000424E-01  0.48241449921E-01  0.51100000000E-03 0. -1.
</event>
<event>
 8    1  0.1131376E+005  0.1043930E+01  0.7957747E-01            NaN
         13   -1    0    0    0    0  0.00000000000E+00  0.00000000000E+00  0.74505805969E-08  0.10566000000E+00  0.10566000000E+00 0. -1.
     999900   -1    0    0    0    0 -0.00000000000E+00 -0.00000000000E+00 -0.74505805969E-08  0.93827000000E+00  0.93827000000E+00 0. -1.
     999902    2    1    2    0    0  0.22247458355E-01 -0.63787816364E-02  0.40921116216E-02  0.10204271569E+01  0.10201564580E+01 0.  0.
     999903    2    3    3    0    0  0.28648179755E-01  0.12204447353E+00  0.32629715961E-01  0.13062498976E+00  0.16811242162E-01 0.  0.
         14    1    1    2    0    0 -0.22247458355E-01  0.63787816364E-02 -0.40921116216E-02  0.23502843146E-01  0.00000000000E+00 0.  1.
     999901    1    3    3    0    0 -0.64007214007E-02 -0.12842325517E+00 -0.28537604339E-01  0.88980216709E+00  0.88000000000E+00 0. -1.
        -11    1    4    4    0    0  0.22818424389E-01  0.65620413605E-01  0.22282832672E-01  0.72962352800E-01  0.51100000000E-03 0. -1.
         11    1    4    4    0    0  0.58297553664E-02  0.56424059929E-01  0.10346883288E-01  0.57662636961E-01  0.51100000000E-03 0.  1.
</event>
<event>
 8    1  0.1131376E+005  0.1043930E+01  0.7957747E-01            NaN
         13   -1    0    0    0    0  0.00000000000E+00  0.00000000000E+00  0.74505805969E-08  0.10566000000E+00  0.10566000000E+00 0.  1.
     999900   -1    0    0    0    0 -0.00000000000E+00 -0.00000000000E+00 -0.74505805969E-08  0.93827000000E+00  0.93827000000E+00 0.  1.
     999902    2    1    2    0    0 -0.13017329164E-02  0.22480686868E-01 -0.61769404068E-02  0.10205798312E+01  0.10203126783E+01 0.  0.
     999903    2    3    3    0    0  0.82313144623E-02 -0.30281515349E-01 -0.12548729754E+00  0.13091152767E+00  0.20150472043E-01 0.  0.
         14    1    1    2    0    0  0.13017329164E-02 -0.22480686868E-01  0.61769404068E-02  0.23350168809E-01  0.00000000000E+00 0.  1.
     999901    1    3    3    0    0 -0.95330473787E-02  0.52762202217E-01  0.11931035713E+00  0.88966830352E+00  0.88000000000E+00 0. -1.
        -11    1    4    4    0    0  0.83382751455E-02 -0.21902241682E-01 -0.53163810019E-01  0.58102382394E-01  0.51100000000E-03 0. -1.
         11    1    4    4    0    0 -0.10696068327E-03 -0.83792736676E-02 -0.72323487517E-01  0.72809145274E-01  0.51100000000E-03 0.  1.
</event>
<event>
 8    1  0.1131376E+005  0.1043930E+01  0.7957747E-01            NaN
         13   -1    0    0    0    0  0.00000000000E+00  0.00000000000E+00  0.74505805969E-08  0.10566000000E+00  0.10566000000E+00 0. -1.
     999900   -1    0    0    0    0 -0.00000000000E+00 -0.00000000000E+00 -0.74505805969E-08  0.93827000000E+00  0.93827000000E+00 0. -1.
     999902    2    1    2    0    0 -0.23355589190E-01  0.34741341130E-02  0.88057595549E-02  0.10187289176E+01  0.10184171606E+01 0.  0.
     999903    2    3    3    0    0  0.80361511272E-01 -0.20528992375E-01  0.95644902179E-01  0.12806937336E+00  0.19349549274E-01 0.  0.
         14    1    1    2    0    0  0.23355589190E-01 -0.34741341130E-02 -0.88057595549E-02  0.25201082429E-01  0.00000000000E+00 0.  1.
     999901    1    3    3    0    0 -0.10371710046E+00  0.24003126488E-01 -0.86839142624E-01  0.89065954421E+00  0.88000000000E+00 0. -1.
        -11    1    4    4    0    0  0.13748814154E-01 -0.10925880831E-01  0.15655448874E-01  0.23532083695E-01  0.51100000000E-03 0.  1.
         11    1    4    4    0    0  0.66612697118E-01 -0.96031115443E-02  0.79989453305E-01  0.10453728966E+00  0.51100000000E-03 0. -1.
</event>
<event>
 8    1  0.1131376E+005  0.1043930E+01  0.7957747E-01            NaN
         13   -1    0    0    0    0  0.00000000000E+00  0.00000000000E+00  0.74505805969E-08  0.10566000000E+00  0.10566000000E+00 0. -1.
     999900   -1    0    0    0    0 -0.00000000000E+00 -0.00000000000E+00 -0.74505805969E-08  0.93827000000E+00  0.93827000000E+00 0.  1.
     999902    2    1    2    0    0 -0.19588207522E-01  0.15131851046E-01 -0.28626420762E-02  0.10190128270E+01  0.10187081408E+01 0.  0.
     999903    2    3    3    0    0  0.37906460014E-01  0.48266824612E-01  0.11169744883E+00  0.12910969875E+00  0.20649652933E-01 0.  0.
         14    1    1    2    0    0  0.19588207522E-01 -0.15131851046E-01  0.28626420762E-02  0.24917172987E-01  0.00000000000E+00 0. -1.
     999901    1    3    3    0    0 -0.57494667536E-01 -0.33134973566E-01 -0.11456009091E+00  0.88990312827E+00  0.88000000000E+00 0.  1.
        -11    1    4    4    0    0  0.91579327751E-02  0.34281405284E-02  0.30211877656E-01  0.31759070400E-01  0.51100000000E-03 0.  1.
         11    1    4    4    0    0  0.28748527239E-01  0.44838684084E-01  0.81485571175E-01  0.97350628347E-01  0.51100000000E-03 0. -1.
</event>
<event>
 8    1  0.1131376E+005  0.1043930E+01  0.7957747E-01            NaN
         13   -1    0    0    0    0  0.00000000000E+00  0.00000000000E+00  0.74505805969E-08  0.10566000000E+00  0.10566000000E+00 0. -1.
     999900   -1    0    0    0    0 -0.00000000000E+00 -0.00000000000E+00 -0.74505805969E-08  0.93827000000E+00  0.93827000000E+00 0.  1.
     999902    2    1    2    0    0 -0.19060514494E-01  0.13588786768E-01 -0.13867271368E-02  0.10204804509E+01  0.10202109926E+01 0.  0.
     999903    2    3    3    0    0 -0.19600759930E-01 -0.64268563401E-02 -0.12794352069E+00  0.13120122605E+00  0.20462721199E-01 0.  0.
         14    1    1    2    0    0  0.19060514494E-01 -0.13588786768E-01  0.13867271368E-02  0.23449549052E-01  0.00000000000E+00 0. -1.
     999901    1    3    3    0    0  0.54024543609E-03  0.20015643108E-01  0.12655679355E+00  0.88927922489E+00  0.88000000000E+00 0. -1.
        -11    1    4    4    0    0  0.39523403309E-03 -0.41801042406E-02 -0.64560858726E-01  0.64699266471E-01  0.51100000000E-03 0.  1.
         11    1    4    4    0    0 -0.19995993963E-01 -0.22467520995E-02 -0.63382661965E-01  0.66501959582E-01  0.51100000000E-03 0. -1.
</event>
<event>
 8    1  0.1131376E+005  0.1043930E+01  0.7957747E-01            NaN
         13   -1    0    0    0    0  0.00000000000E+00  0.00000000000E+00  0.74505805969E-08  0.10566000000E+00  0.10566000000E+00 0.  1.
     999900   -1    0    0    0    0 -0.00000000000E+00 -0.00000000000E+00 -0.74505805969E-08  0.93827000000E+00  0.93827000000E+00 0.  1.
     999902    2    1    2    0    0 -0.12596151752E-01 -0.53508756182E-02 -0.17701183565E-01  0.10215553088E+01  0.10213102477E+01 0.  0.
     999903    2    3    3    0    0 -0.66805253526E-02 -0.68928259026E-01  0.10854479667E+00  0.13025562523E+00  0.19718537214E-01 0.  0.
         14    1    1    2    0    0  0.12596151752E-01  0.53508756182E-02  0.17701183565E-01  0.22374691248E-01  0.00000000000E+00 0.  1.
     999901    1    3    3    0    0 -0.59156263990E-02  0.63577383408E-01 -0.12624598023E+00  0.89129968352E+00  0.88000000000E+00 0.  1.
        -11    1    4    4    0    0 -0.17478476611E-02 -0.33956493345E-01  0.35726679051E-01  0.49322967559E-01  0.51100000000E-03 0. -1.
         11    1    4    4    0    0 -0.49326776915E-02 -0.34971765681E-01  0.72818117616E-01  0.80932657675E-01  0.51100000000E-03 0.  1.
</event>
<event>
 8    1  0.1131376E+005  0.1043930E+01  0.7957747E-01            NaN
         13   -1    0    0    0    0  0.00000000000E+00  0.00000000000E+00  0.74505805969E-08  0.10566000000E+00  0.10566000000E+00 0.  1.
     999900   -1    0    0    0    0 -0.00000000000E+00 -0.00000000000E+00 -0.74505805969E-08  0.93827000000E+00  0.93827000000E+00 0. -1.
     999902    2    1    2    0    0 -0.69264328704E-03  0.74970208650E-02 -0.23853971620E-01  0.10189160631E+01  0.10186089763E+01 0.  0.
     999903    2    3    3    0    0  0.10928352597E+00  0.31264033341E-01  0.56162005060E-01  0.12815111925E+00  0.18660378478E-01 0.  0.
         14    1    1    2    0    0  0.69264328704E-03 -0.74970208650E-02  0.23853971620E-01  0.25013936887E-01  0.00000000000E+00 0.  1.
     999901    1    3    3    0    0 -0.10997616925E+00 -0.23767012476E-01 -0.80015976680E-01  0.89076494386E+00  0.88000000000E+00 0.  1.
        -11    1    4    4    0    0  0.45908146355E-01  0.21716240797E-01  0.29502177310E-01  0.58734935116E-01  0.51100000000E-03 0.  1.
         11    1    4    4    0    0  0.63375379612E-01  0.95477925440E-02  0.26659827750E-01  0.69416184136E-01  0.51100000000E-03 0. -1.
</event>
<event>
 8    1  0.1131376E+005  0.1043930E+01  0.7957747E-01            NaN
         13   -1    0    0    0    0  0.00000000000E+00  0.00000000000E+00  0.74505805969E-08  0.10566000000E+00  0.10566000000E+00 0.  1.
     999900   -1    0    0    0    0 -0.00000000000E+00 -0.00000000000E+00 -0.74505805969E-08  0.93827000000E+00  0.93827000000E+00 0. -1.
     999902    2    1    2    0    0 -0.80917602181E-02  0.22354893269E-01 -0.68874078677E-02  0.10191781471E+01  0.10188775399E+01 0.  0.
     999903    2    3    3    0    0  0.81326520409E-01  0.10082978730E+00 -0.72077422667E-02  0.13117249364E+00  0.19329319950E-01 0.  0.
         14    1    1    2    0    0  0.80917602181E-02 -0.22354893269E-01  0.68874078677E-02  0.24751852934E-01  0.00000000000E+00 0. -1.
     999901    1    3    3    0    0 -0.89418280627E-01 -0.78474894033E-01  0.32033439895E-03  0.88800565343E+00  0.88000000000E+00 0.  1.
        -11    1    4    4    0    0  0.41347170777E-01  0.65361251610E-01 -0.84463612081E-03  0.77347632637E-01  0.51100000000E-03 0. -1.
         11    1    4    4    0    0  0.39979349632E-01  0.35468535692E-01 -0.63631061459E-02  0.53824861003E-01  0.51100000000E-03 0.  1.
</event>
<event>
 8    1  0.1131376E+005  0.1043930E+01  0.7957747E-01            NaN
         13   -1    0    0    0    0  0.00000000000E+00  0.00000000000E+00  0.74505805969E-08  0.10566000000E+00  0.10566000000E+00 0.  1.
     999900   -1    0    0    0    0 -0.00000000000E+00 -0.00000000000E+00 -0.74505805969E-08  0.93827000000E+00  0.93827000000E+00 0.  1.
     999902    2    1    2    0    0 -0.17442327094E-01  0.16192372555E-01 -0.24336731821E-02  0.10200061527E+01  0.10197255519E+01 0.  0.
     999903    2    3    3    0    0  0.70481753627E-01 -0.10407071058E+00  0.45473371588E-02  0.12745778561E+00  0.20649901729E-01 0.  0.
         14    1    1    2    0    0  0.17442327094E-01 -0.16192372555E-01  0.24336731821E-02  0.23923847278E-01  0.00000000000E+00 0. -1.
     999901    1    3    3    0    0 -0.87924080721E-01  0.12026308314E+00 -0.69810103408E-02  0.89254836712E+00  0.88000000000E+00 0.  1.
        -11    1    4    4    0    0  0.18073456170E-01 -0.31744191339E-01  0.10289572282E-01  0.37953654903E-01  0.51100000000E-03 0.  1.
         11    1    4    4    0    0  0.52408297456E-01 -0.72326519241E-01 -0.57422351231E-02  0.89504130704E-01  0.51100000000E-03 0. -1.
</event>
<event>
 8    1  0.1131376E+005  0.1043930E+01  0.7957747E-01            NaN
         13   -1    0    0    0    0  0.00000000000E+00  0.00000000000E+00  0.74505805969E-08  0.10566000000E+00  0.10566000000E+00 0.  1.
     999900   -1    0    0    0    0 -0.00000000000E+00 -0.00000000000E+00 -0.74505805969E-08  0.93827000000E+00  0.93827000000E+00 0.  1.
     999902    2    1    2    0    0  0.18158237224E-01 -0.96959863239E-02 -0.12291518773E-01  0.10199546968E+01  0.10196728732E+01 0.  0.
     999903    2    3    3    0    0  0.10195895151E+00  0.10180410893E-02 -0.82948479488E-01  0.13308956827E+00  0.20873876779E-01 0.  0.
         14    1    1    2    0    0 -0.18158237224E-01  0.96959863239E-02  0.12291518773E-01  0.23975303202E-01  0.00000000000E+00 0. -1.
     999901    1    3    3    0    0 -0.83800714291E-01 -0.10714027413E-01  0.70656960715E-01  0.88686512853E+00  0.88000000000E+00 0. -1.
        -11    1    4    4    0    0  0.14768784783E-02  0.32113454233E-02 -0.28362652387E-02  0.45606393161E-02  0.51100000000E-03 0. -1.
         11    1    4    4    0    0  0.10048207304E+00 -0.21933043340E-02 -0.80112214249E-01  0.12852892896E+00  0.51100000000E-03 0.  1.
</event>
<event>
 8    1  0.1131376E+005  0.1043930E+01  0.7957747E-01            NaN
         13   -1    0    0    0    0  0.00000000000E+00  0.00000000000E+00  0.74505805969E-08  0.10566000000E+00  0.10566000000E+00 0.  1.
     999900   -1    0    0    0    0 -0.00000000000E+00 -0.00000000000E+00 -0.74505805969E-08  0.93827000000E+00  0.93827000000E+00 0.  1.
     999902    2    1    2    0    0  0.39378672096E-02 -0.64825965262E-02  0.23835753764E-01  0.10189165234E+01  0.10186094480E+01 0.  0.
     999903    2    3    3    0    0 -0.15064614831E-01  0.11644368228E+00 -0.45370914579E-01  0.12747862464E+00  0.20154554993E-01 0.  0.
         14    1    1    2    0    0 -0.39378672096E-02  0.64825965262E-02 -0.23835753764E-01  0.25013476636E-01  0.00000000000E+00 0. -1.
     999901    1    3    3    0    0  0.19002482041E-01 -0.12292627881E+00  0.69206668343E-01  0.89143789873E+00  0.88000000000E+00 0. -1.
        -11    1    4    4    0    0 -0.15195281442E-01  0.61622421131E-01 -0.31843965543E-01  0.71010693749E-01  0.51100000000E-03 0. -1.
         11    1    4    4    0    0  0.13066661073E-03  0.54821261147E-01 -0.13526949035E-01  0.56467930888E-01  0.51100000000E-03 0.  1.
</event>
<event>
 8    1  0.1131376E+005  0.1043930E+01  0.7957747E-01            NaN
         13   -1    0    0    0    0  0.00000000000E+00  0.00000000000E+00  0.74505805969E-08  0.10566000000E+00  0.10566000000E+00 0. -1.
     999900   -1    0    0    0    0 -0.00000000000E+00 -0.00000000000E+00 -0.74505805969E-08  0.93827000000E+00  0.93827000000E+00 0. -1.
     999902    2    1    2    0    0 -0.17680969163E-01 -0.15990035303E-01 -0.39670517316E-02  0.10197631757E+01  0.10194767771E+01 0.  0.
     999903    2    3    3    0    0  0.81548057287E-01  0.46091196952E-01 -0.85272697727E-01  0.12829747965E+00  0.20355004843E-01 0.  0.
         14    1    1    2    0    0  0.17680969163E-01  0.15990035303E-01  0.39670517316E-02  0.24166824346E-01  0.00000000000E+00 0. -1.
     999901    1    3    3    0    0 -0.99229026449E-01 -0.62081232255E-01  0.81305645995E-01  0.89146569601E+00  0.88000000000E+00 0.  1.
        -11    1    4    4    0    0  0.80853873444E-02  0.98424008360E-03 -0.15003912117E-01  0.17079833631E-01  0.51100000000E-03 0. -1.
         11    1    4    4    0    0  0.73462669942E-01  0.45106956869E-01 -0.70268785610E-01  0.11121764601E+00  0.51100000000E-03 0.  1.
</event>
<event>
 8    1  0.1131376E+005  0.1043930E+01  0.7957747E-01            NaN
         13   -1    0    0    0    0  0.00000000000E+00  0.00000000000E+00  0.74505805969E-08  0.10566000000E+00  0.10566000000E+00 0.  1.
     999900   -1    0    0    0    0 -0.00000000000E+00 -0.00000000000E+00 -0.74505805969E-08  0.93827000000E+00  0.93827000000E+00 0.  1.
     999902    2    1    2    0    0 -0.36604288558E-02 -0.12395898836E-01 -0.19683450358E-01  0.10203822769E+01  0.10201105311E+01 0.  0.
     999903    2    3    3    0    0  0.55988241044E-01  0.10556890628E+00 -0.47353140280E-01  0.13007936727E+00  0.19971098793E-01 0.  0.
         14    1    1    2    0    0  0.36604288558E-02  0.12395898836E-01  0.19683450358E-01  0.23547723146E-01  0.00000000000E+00 0.  1.
     999901    1    3    3    0    0 -0.59648669899E-01 -0.11796480512E+00  0.27669689922E-01  0.89030290958E+00  0.88000000000E+00 0.  1.
        -11    1    4    4    0    0  0.81499685340E-02  0.34569605390E-01 -0.14956418604E-01  0.38541343806E-01  0.51100000000E-03 0.  1.
         11    1    4    4    0    0  0.47838272509E-01  0.70999300892E-01 -0.32396721676E-01  0.91538023467E-01  0.51100000000E-03 0. -1.
</event>
<event>
 8    1  0.1131376E+005  0.1043930E+01  0.7957747E-01            NaN
         13   -1    0    0    0    0  0.00000000000E+00  0.00000000000E+00  0.74505805969E-08  0.10566000000E+00  0.10566000000E+00 0.  1.
     999900   -1    0    0    0    0 -0.00000000000E+00 -0.00000000000E+00 -0.74505805969E-08  0.93827000000E+00  0.93827000000E+00 0.  1.
     999902    2    1    2    0    0 -0.20373548221E-01  0.11036626905E-01  0.49463524144E-02  0.10202370685E+01  0.10199619213E+01 0.  0.
     999903    2    3    3    0    0 -0.35937088316E-02 -0.82462575627E-01  0.98659335864E-01  0.13017763951E+00  0.19989050803E-01 0.  0.
         14    1    1    2    0    0  0.20373548221E-01 -0.11036626905E-01 -0.49463524144E-02  0.23692931494E-01  0.00000000000E+00 0. -1.
     999901    1    3    3    0    0 -0.16779839390E-01  0.93499202533E-01 -0.93712983449E-01  0.89005942900E+00  0.88000000000E+00 0.  1.
        -11    1    4    4    0    0  0.52876830397E-02 -0.65997085630E-01  0.76633505197E-01  0.10127452860E+00  0.51100000000E-03 0. -1.
         11    1    4    4    0    0 -0.88813918713E-02 -0.16465489997E-01  0.22025830666E-01  0.28903110904E-01  0.51100000000E-03 0.  1.
</event>
<event>
 8    1  0.1131376E+005  0.1043930E+01  0.7957747E-01            NaN
         13   -1    0    0    0    0  0.00000000000E+00  0.00000000000E+00  0.74505805969E-08  0.10566000000E+00  0.10566000000E+00 0. -1.
     999900   -1    0    0    0    0 -0.00000000000E+00 -0.00000000000E+00 -0.74505805969E-08  0.93827000000E+00  0.93827000000E+00 0. -1.
     999902    2    1    2    0    0 -0.20257959998E-01  0.62780647721E-02 -0.51957589769E-02  0.10220943651E+01  0.10218610944E+01 0.  0.
     999903    2    3    3    0    0 -0.16701960588E-02 -0.27089593122E-01 -0.12833400809E+00  0.13270022639E+00  0.20077271781E-01 0.  0.
         14    1    1    2    0    0  0.20257959998E-01 -0.62780647721E-02  0.51957589769E-02  0.21835634910E-01  0.00000000000E+00 0. -1.
     999901    1    3    3    0    0 -0.18587763939E-01  0.33367657894E-01  0.12313824911E+00  0.88939413870E+00  0.88000000000E+00 0.  1.
        -11    1    4    4    0    0 -0.37266748234E-02 -0.62864859733E-02 -0.75864676976E-01  0.76217572415E-01  0.51100000000E-03 0. -1.
         11    1    4    4    0    0  0.20564787647E-02 -0.20803107149E-01 -0.52469331109E-01  0.56482653975E-01  0.51100000000E-03 0.  1.
</event>
<event>
 8    1  0.1131376E+005  0.1043930E+01  0.7957747E-01            NaN
         13   -1    0    0    0    0  0.00000000000E+00  0.00000000000E+00  0.74505805969E-08  0.10566000000E+00  0.10566000000E+00 0.  1.
     999900   -1    0    0    0    0 -0.00000000000E+00 -0.00000000000E+00 -0.74505805969E-08  0.93827000000E+00  0.93827000000E+00 0.  1.
     999902    2    1    2    0    0  0.21165949203E-01  0.83112923867E-02 -0.71477905280E-02  0.10200937693E+01  0.10198152441E+01 0.  0.
     999903    2    3    3    0    0  0.12728910678E+00 -0.32259563235E-01  0.65552186566E-02  0.13268411675E+00  0.17857990356E-01 0.  0.
         14    1    1    2    0    0 -0.21165949203E-01 -0.83112923867E-02  0.71477905280E-02  0.23836230747E-01  0.00000000000E+00 0.  1.
     999901    1    3    3    0    0 -0.10612315758E+00  0.40570855621E-01 -0.13703009185E-01  0.88740965251E+00  0.88000000000E+00 0.  1.
        -11    1    4    4    0    0  0.75053229051E-02  0.45271205063E-03  0.38972854887E-02  0.84843842023E-02  0.51100000000E-03 0.  1.
         11    1    4    4    0    0  0.11978378388E+00 -0.32712275285E-01  0.26579331679E-02  0.12419973254E+00  0.51100000000E-03 0. -1.
</event>
<event>
 8    1  0.1131376E+005  0.1043930E+01  0.7957747E-01            NaN
         13   -1    0    0    0    0  0.00000000000E+00  0.00000000000E+00  0.74505805969E-08  0.10566000000E+00  0.10566000000E+00 0.  1.
     999900   -1    0    0    0    0 -0.00000000000E+00 -0.00000000000E+00 -0.74505805969E-08  0.93827000000E+00  0.93827000000E+00 0. -1.
     999902    2    1    2    0    0 -0.17415051616E-01 -0.16231327820E-01 -0.37833286517E-03  0.10201206917E+01  0.10198428028E+01 0.  0.
     999903    2    3    3    0    0 -0.40409435842E-01 -0.36485546546E-01 -0.11841402299E+00  0.13171121448E+00  0.19022238799E-01 0.  0.
         14    1    1    2    0    0  0.17415051616E-01  0.16231327820E-01  0.37833286517E-03  0.23809308292E-01  0.00000000000E+00 0. -1.
     999901    1    3    3    0    0  0.22994384226E-01  0.20254218726E-01  0.11803569012E+00  0.88840947723E+00  0.88000000000E+00 0.  1.
        -11    1    4    4    0    0 -0.35520550837E-01 -0.23650876669E-01 -0.10006487701E+00  0.10878563431E+00  0.51100000000E-03 0. -1.
         11    1    4    4    0    0 -0.48888850051E-02 -0.12834669877E-01 -0.18349145973E-01  0.22925580175E-01  0.51100000000E-03 0.  1.
</event>
<event>
 8    1  0.1516727E+005  0.1043930E+01  0.7957747E-01            NaN
         13   -1    0    0    0    0  0.00000000000E+00  0.00000000000E+00  0.74505805969E-08  0.10566000000E+00  0.10566000000E+00 0. -1.
     999900   -1    0    0    0    0 -0.00000000000E+00 -0.00000000000E+00 -0.74505805969E-08  0.93827000000E+00  0.93827000000E+00 0. -1.
     999902    2    1    2    0    0  0.55174872419E-03 -0.34013467999E-02  0.23003471905E-01  0.10206698773E+01  0.10204048046E+01 0.  0.
     999903    2    3    3    0    0 -0.96167433494E-01 -0.62302805966E-01 -0.57472601075E-01  0.12977124089E+00  0.20190596604E-01 0.  0.
         14    1    1    2    0    0 -0.55174872419E-03  0.34013467999E-02 -0.23003471905E-01  0.23260122665E-01  0.00000000000E+00 0.  1.
     999901    1    3    3    0    0  0.96719182218E-01  0.58901459167E-01  0.80476072980E-01  0.89089863645E+00  0.88000000000E+00 0.  1.
        -11    1    4    4    0    0 -0.61265115662E-01 -0.27849999942E-01 -0.33863537336E-01  0.75339479529E-01  0.51100000000E-03 0.  1.
         11    1    4    4    0    0 -0.34902317832E-01 -0.34452806024E-01 -0.23609063739E-01  0.54431761359E-01  0.51100000000E-03 0. -1.
</event>
<event>
 8    1  0.1131376E+005  0.1043930E+01  0.7957747E-01            NaN
         13   -1    0    0    0    0  0.00000000000E+00  0.00000000000E+00  0.74505805969E-08  0.10566000000E+00  0.10566000000E+00 0. -1.
     999900   -1    0    0    0    0 -0.00000000000E+00 -0.00000000000E+00 -0.74505805969E-08  0.93827000000E+00  0.93827000000E+00 0.  1.
     999902    2    1    2    0    0 -0.18374753142E-01  0.14584158680E-01  0.21519359556E-02  0.10203724096E+01  0.10201004334E+01 0.  0.
     999903    2    3    3    0    0 -0.79968452434E-01  0.94411601563E-01 -0.45409845757E-01  0.13333896743E+00  0.20216880326E-01 0.  0.
         14    1    1    2    0    0  0.18374753142E-01 -0.14584158680E-01 -0.21519359556E-02  0.23557590407E-01  0.00000000000E+00 0.  1.
     999901    1    3    3    0    0  0.61593699292E-01 -0.79827442883E-01  0.47561781712E-01  0.88703344216E+00  0.88000000000E+00 0. -1.
        -11    1    4    4    0    0 -0.21877935640E-01  0.40135398574E-01 -0.19751905880E-01  0.49798526017E-01  0.51100000000E-03 0. -1.
         11    1    4    4    0    0 -0.58090516794E-01  0.54276202989E-01 -0.25657939876E-01  0.83540441416E-01  0.51100000000E-03 0.  1.
</event>
<event>
 8    1  0.1131376E+005  0.1043930E+01  0.7957747E-01            NaN
         13   -1    0    0    0    0  0.00000000000E+00  0.00000000000E+00  0.74505805969E-08  0.10566000000E+00  0.10566000000E+00 0. -1.
     999900   -1    0    0    0    0 -0.00000000000E+00 -0.00000000000E+00 -0.74505805969E-08  0.93827000000E+00  0.93827000000E+00 0. -1.
     999902    2    1    2    0    0  0.11695669146E-01 -0.13064514067E-01 -0.14659364055E-01  0.10210746470E+01  0.10208188222E+01 0.  0.
     999903    2    3    3    0    0  0.98733002121E-01 -0.70640661554E-01 -0.53651686402E-01  0.13405102205E+00  0.18784682189E-01 0.  0.
         14    1    1    2    0    0 -0.11695669146E-01  0.13064514067E-01  0.14659364055E-01  0.22855352964E-01  0.00000000000E+00 0. -1.
     999901    1    3    3    0    0 -0.87037332974E-01  0.57576147487E-01  0.38992322347E-01  0.88702362499E+00  0.88000000000E+00 0.  1.
        -11    1    4    4    0    0  0.38380666437E-01 -0.19064705936E-01 -0.12578587053E-01  0.44665652820E-01  0.51100000000E-03 0.  1.
         11    1    4    4    0    0  0.60352335684E-01 -0.51575955618E-01 -0.41073099349E-01  0.89385369225E-01  0.51100000000E-03 0. -1.
</event>
<event>
 8    1  0.1131376E+005  0.1043930E+01  0.7957747E-01            NaN
         13   -1    0    0    0    0  0.00000000000E+00  0.00000000000E+00  0.74505805969E-08  0.10566000000E+00  0.10566000000E+00 0.  1.
     999900   -1    0    0    0    0 -0.00000000000E+00 -0.00000000000E+00 -0.74505805969E-08  0.93827000000E+00  0.93827000000E+00 0. -1.
     999902    2    1    2    0    0  0.29339861396E-03 -0.17841734193E-01 -0.15526933037E-01  0.10202762643E+01  0.10200020374E+01 0.  0.
     999903    2    3    3    0    0 -0.11271301349E+00  0.25051137914E-02  0.60591172011E-01  0.12955834640E+00  0.20089200847E-01 0.  0.
         14    1    1    2    0    0 -0.29339861396E-03  0.17841734193E-01  0.15526933037E-01  0.23653735673E-01  0.00000000000E+00 0.  1.
     999901    1    3    3    0    0  0.11300641211E+00 -0.20346847985E-01 -0.76118105047E-01  0.89071791793E+00  0.88000000000E+00 0. -1.
        -11    1    4    4    0    0 -0.77798041283E-01  0.65514930070E-02  0.32536660659E-01  0.84583406741E-01  0.51100000000E-03 0.  1.
         11    1    4    4    0    0 -0.34914972209E-01 -0.40463792156E-02  0.28054511352E-01  0.44974939659E-01  0.51100000000E-03 0. -1.
</event>
<event>
 8    1  0.1131376E+005  0.1043930E+01  0.7957747E-01            NaN
         13   -1    0    0    0    0  0.00000000000E+00  0.00000000000E+00  0.74505805969E-08  0.10566000000E+00  0.10566000000E+00 0.  1.
     999900   -1    0    0    0    0 -0.00000000000E+00 -0.00000000000E+00 -0.74505805969E-08  0.93827000000E+00  0.93827000000E+00 0.  1.
     999902    2    1    2    0    0 -0.28028726284E-02  0.22510164562E-01  0.82815917558E-02  0.10197815349E+01  0.10194955765E+01 0.  0.
     999903    2    3    3    0    0  0.11403944456E+00 -0.22376469622E-01  0.53651718154E-01  0.12976727359E+00  0.21338629885E-01 0.  0.
         14    1    1    2    0    0  0.28028726284E-02 -0.22510164562E-01 -0.82815917558E-02  0.24148465077E-01  0.00000000000E+00 0.  1.
     999901    1    3    3    0    0 -0.11684231719E+00  0.44886634185E-01 -0.45370126398E-01  0.89001426134E+00  0.88000000000E+00 0. -1.
        -11    1    4    4    0    0  0.18092351466E-01 -0.76016105331E-02  0.18137871431E-02  0.19714680040E-01  0.51100000000E-03 0. -1.
         11    1    4    4    0    0  0.95947093091E-01 -0.14774859089E-01  0.51837931010E-01  0.11005259355E+00  0.51100000000E-03 0.  1.
</event>
<event>
 8    1  0.1131376E+005  0.1043930E+01  0.7957747E-01            NaN
         13   -1    0    0    0    0  0.00000000000E+00  0.00000000000E+00  0.74505805969E-08  0.10566000000E+00  0.10566000000E+00 0.  1.
     999900   -1    0    0    0    0 -0.00000000000E+00 -0.00000000000E+00 -0.74505805969E-08  0.93827000000E+00  0.93827000000E+00 0. -1.
     999902    2    1    2    0    0  0.54446838706E-02 -0.13376547641E-01  0.19981217437E-01  0.10192758795E+01  0.10189776704E+01 0.  0.
     999903    2    3    3    0    0 -0.66988115111E-02 -0.12304968197E+00  0.43185325967E-01  0.13208137343E+00  0.19859972836E-01 0.  0.
         14    1    1    2    0    0 -0.54446838706E-02  0.13376547641E-01 -0.19981217437E-01  0.24654120538E-01  0.00000000000E+00 0. -1.
     999901    1    3    3    0    0  0.12143495382E-01  0.10967313433E+00 -0.23204108530E-01  0.88719450603E+00  0.88000000000E+00 0.  1.
        -11    1    4    4    0    0 -0.90966420512E-02 -0.53089823356E-01  0.26900095939E-01  0.60209256125E-01  0.51100000000E-03 0. -1.
         11    1    4    4    0    0  0.23978305401E-02 -0.69959858613E-01  0.16285230028E-01  0.71872117309E-01  0.51100000000E-03 0.  1.
</event>
<event>
 8    1  0.1131376E+005  0.1043930E+01  0.7957747E-01            NaN
         13   -1    0    0    0    0  0.00000000000E+00  0.00000000000E+00  0.74505805969E-08  0.10566000000E+00  0.10566000000E+00 0. -1.
     999900   -1    0    0    0    0 -0.00000000000E+00 -0.00000000000E+00 -0.74505805969E-08  0.93827000000E+00  0.93827000000E+00 0. -1.
     999902    2    1    2    0    0  0.45632610280E-02 -0.20252035127E-01  0.12085046660E-01  0.10199088295E+01  0.10196259137E+01 0.  0.
     999903    2    3    3    0    0 -0.23083258601E-01 -0.77372827415E-01 -0.10055575455E+00  0.13046233588E+00  0.19737529259E-01 0.  0.
         14    1    1    2    0    0 -0.45632610280E-02  0.20252035127E-01 -0.12085046660E-01  0.24021170471E-01  0.00000000000E+00 0.  1.
     999901    1    3    3    0    0  0.27646519629E-01  0.57120792288E-01  0.11264080121E+00  0.88944649364E+00  0.88000000000E+00 0.  1.
        -11    1    4    4    0    0 -0.19679578027E-01 -0.73368444089E-01 -0.84816368334E-01  0.11386084418E+00  0.51100000000E-03 0.  1.
         11    1    4    4    0    0 -0.34036805740E-02 -0.40043833263E-02 -0.15739386217E-01  0.16601491703E-01  0.51100000000E-03 0. -1.
</event>
<event>
 8    1  0.1131376E+005  0.1043930E+01  0.7957747E-01            NaN
         13   -1    0    0    0    0  0.00000000000E+00  0.00000000000E+00  0.74505805969E-08  0.10566000000E+00  0.10566000000E+00 0.  1.
     999900   -1    0    0    0    0 -0.00000000000E+00 -0.00000000000E+00 -0.74505805969E-08  0.93827000000E+00  0.93827000000E+00 0. -1.
     999902    2    1    2    0    0  0.39826033144E-02  0.21040769892E-01 -0.11240688810E-01  0.10197447108E+01  0.10194578692E+01 0.  0.
     999903    2    3    3    0    0  0.75383798838E-01  0.10629877192E+00  0.12455069568E-01  0.13242935168E+00  0.20006458682E-01 0.  0.
         14    1    1    2    0    0 -0.39826033144E-02 -0.21040769892E-01  0.11240688810E-01  0.24185289160E-01  0.00000000000E+00 0.  1.
     999901    1    3    3    0    0 -0.71401195524E-01 -0.85258002032E-01 -0.23695758378E-01  0.88731535916E+00  0.88000000000E+00 0. -1.
        -11    1    4    4    0    0  0.46866549323E-01  0.58860351160E-01 -0.18284118164E-02  0.75263660520E-01  0.51100000000E-03 0.  1.
         11    1    4    4    0    0  0.28517249515E-01  0.47438420764E-01  0.14283481384E-01  0.57165691162E-01  0.51100000000E-03 0. -1.
</event>
<event>
 8    1  0.1131376E+005  0.1043930E+01  0.7957747E-01            NaN
         13   -1    0    0    0    0  0.00000000000E+00  0.00000000000E+00  0.74505805969E-08  0.10566000000E+00  0.10566000000E+00 0. -1.
     999900   -1    0    0    0    0 -0.00000000000E+00 -0.00000000000E+00 -0.74505805969E-08  0.93827000000E+00  0.93827000000E+00 0.  1.
     999902    2    1    2    0    0 -0.22906873194E-01  0.48829220733E-02 -0.42659457972E-02  0.10201231510E+01  0.10198453202E+01 0.  0.
     999903    2    3    3    0    0  0.10977507253E-01 -0.11766668991E+00 -0.49905920579E-01  0.12981445959E+00  0.19880579229E-01 0.  0.
         14    1    1    2    0    0  0.22906873194E-01 -0.48829220733E-02  0.42659457972E-02  0.23806849036E-01  0.00000000000E+00 0. -1.
     999901    1    3    3    0    0 -0.33884380447E-01  0.12254961198E+00  0.45639974782E-01  0.89030869137E+00  0.88000000000E+00 0. -1.
        -11    1    4    4    0    0  0.14052054715E-01 -0.50497092058E-01 -0.18361415100E-01  0.55541149012E-01  0.51100000000E-03 0. -1.
         11    1    4    4    0    0 -0.30745474625E-02 -0.67169597850E-01 -0.31544505479E-01  0.74273310579E-01  0.51100000000E-03 0.  1.
</event>
<event>
 8    1  0.1131376E+005  0.1043930E+01  0.7957747E-01            NaN
         13   -1    0    0    0    0  0.00000000000E+00  0.00000000000E+00  0.74505805969E-08  0.10566000000E+00  0.10566000000E+00 0. -1.
     999900   -1    0    0    0    0 -0.00000000000E+00 -0.00000000000E+00 -0.74505805969E-08  0.93827000000E+00  0.93827000000E+00 0. -1.
     999902    2    1    2    0    0 -0.20609993659E-01  0.84687194340E-02  0.85428663965E-02  0.10200663956E+01  0.10197872228E+01 0.  0.
     999903    2    3    3    0    0 -0.67344043655E-01 -0.11931470909E-01  0.11178651048E+00  0.13256457070E+00  0.19989028658E-01 0.  0.
         14    1    1    2    0    0  0.20609993659E-01 -0.84687194340E-02 -0.85428663965E-02  0.23863604375E-01  0.00000000000E+00 0.  1.
     999901    1    3    3    0    0  0.46734049995E-01  0.20400190343E-01 -0.10324364408E+00  0.88750182492E+00  0.88000000000E+00 0. -1.
        -11    1    4    4    0    0 -0.27676488851E-01  0.44715007335E-02  0.38461783666E-01  0.47597817993E-01  0.51100000000E-03 0. -1.
         11    1    4    4    0    0 -0.39667554804E-01 -0.16402971643E-01  0.73324726815E-01  0.84966752711E-01  0.51100000000E-03 0.  1.
</event>
<event>
 8    1  0.1131376E+005  0.1043930E+01  0.7957747E-01            NaN
         13   -1    0    0    0    0  0.00000000000E+00  0.00000000000E+00  0.74505805969E-08  0.10566000000E+00  0.10566000000E+00 0.  1.
     999900   -1    0    0    0    0 -0.00000000000E+00 -0.00000000000E+00 -0.74505805969E-08  0.93827000000E+00  0.93827000000E+00 0.  1.
     999902    2    1    2    0    0 -0.12980504887E-01  0.17426362556E-01 -0.74851237157E-02  0.10209474263E+01  0.10206887128E+01 0.  0.
     999903    2    3    3    0    0 -0.69158021595E-01  0.93790984801E-01 -0.64022334439E-01  0.13405175871E+00  0.17071435925E-01 0.  0.
         14    1    1    2    0    0  0.12980504887E-01 -0.17426362556E-01  0.74851237157E-02  0.22982573748E-01  0.00000000000E+00 0. -1.
     999901    1    3    3    0    0  0.56177516708E-01 -0.76364622245E-01  0.56537210723E-01  0.88689566755E+00  0.88000000000E+00 0. -1.
        -11    1    4    4    0    0 -0.27858553956E-01  0.49570818989E-01 -0.25497998213E-01  0.62319933871E-01  0.51100000000E-03 0.  1.
         11    1    4    4    0    0 -0.41299467639E-01  0.44220165812E-01 -0.38524336226E-01  0.71731824836E-01  0.51100000000E-03 0. -1.
</event>
<event>
 8    1  0.1131376E+005  0.1043930E+01  0.7957747E-01            NaN
         13   -1    0    0    0    0  0.00000000000E+00  0.00000000000E+00  0.74505805969E-08  0.10566000000E+00  0.10566000000E+00 0. -1.
     999900   -1    0    0    0    0 -0.00000000000E+00 -0.00000000000E+00 -0.74505805969E-08  0.93827000000E+00  0.93827000000E+00 0.  1.
     999902    2    1    2    0    0 -0.98020774539E-02 -0.15005495128E-01  0.16909079890E-01  0.10192893306E+01  0.10189914508E+01 0.  0.
     999903    2    3    3    0    0 -0.11999752120E+00  0.33214010500E-01  0.29357646312E-01  0.13101959489E+00  0.28314082394E-01 0.  0.
         14    1    1    2    0    0  0.98020774539E-02  0.15005495128E-01 -0.16909079890E-01  0.24640669414E-01  0.00000000000E+00 0.  1.
     999901    1    3    3    0    0  0.11019544374E+00 -0.48219505629E-01 -0.12448566423E-01  0.88826973569E+00  0.88000000000E+00 0. -1.
        -11    1    4    4    0    0 -0.10041800460E+00  0.36315132223E-01  0.18381946707E-01  0.10835461024E+00  0.51100000000E-03 0.  1.
         11    1    4    4    0    0 -0.19579516599E-01 -0.31011217227E-02  0.10975699606E-01  0.22664984647E-01  0.51100000000E-03 0. -1.
</event>
<event>
 8    1  0.1131376E+005  0.1043930E+01  0.7957747E-01            NaN
         13   -1    0    0    0    0  0.00000000000E+00  0.00000000000E+00  0.74505805969E-08  0.10566000000E+00  0.10566000000E+00 0.  1.
     999900   -1    0    0    0    0 -0.00000000000E+00 -0.00000000000E+00 -0.74505805969E-08  0.93827000000E+00  0.93827000000E+00 0. -1.
     999902    2    1    2    0    0  0.12480846642E-01 -0.15236374434E-02  0.19889322571E-01  0.10203996333E+01  0.10201282927E+01 0.  0.
     999903    2    3    3    0    0 -0.28102063847E-01 -0.29019227359E-01  0.12497033460E+00  0.13279330212E+00  0.19612113859E-01 0.  0.
         14    1    1    2    0    0 -0.12480846642E-01  0.15236374434E-02 -0.19889322571E-01  0.23530366684E-01  0.00000000000E+00 0. -1.
     999901    1    3    3    0    0  0.40582910489E-01  0.27495589915E-01 -0.10508101203E+00  0.88760633119E+00  0.88000000000E+00 0.  1.
        -11    1    4    4    0    0 -0.12201549419E-01 -0.24152471641E-02  0.52799538881E-01  0.54247245590E-01  0.51100000000E-03 0. -1.
         11    1    4    4    0    0 -0.15900514428E-01 -0.26603980195E-01  0.72170795716E-01  0.78546056531E-01  0.51100000000E-03 0.  1.
</event>
<event>
 8    1  0.1131376E+005  0.1043930E+01  0.7957747E-01            NaN
         13   -1    0    0    0    0  0.00000000000E+00  0.00000000000E+00  0.74505805969E-08  0.10566000000E+00  0.10566000000E+00 0. -1.
     999900   -1    0    0    0    0 -0.00000000000E+00 -0.00000000000E+00 -0.74505805969E-08  0.93827000000E+00  0.93827000000E+00 0. -1.
     999902    2    1    2    0    0 -0.18276302283E-02 -0.62753180545E-02 -0.23066010631E-01  0.10199558327E+01  0.10196740362E+01 0.  0.
     999903    2    3    3    0    0 -0.12230681844E+00 -0.29085335534E-01 -0.32272604450E-01  0.13140628823E+00  0.20522597504E-01 0.  0.
         14    1    1    2    0    0  0.18276302283E-02  0.62753180545E-02  0.23066010631E-01  0.23974167251E-01  0.00000000000E+00 0. -1.
     999901    1    3    3    0    0  0.12047918822E+00  0.22810017479E-01  0.92065938189E-02  0.88854954452E+00  0.88000000000E+00 0.  1.
        -11    1    4    4    0    0 -0.10753693922E+00 -0.32243087432E-01 -0.28650727086E-01  0.11586602292E+00  0.51100000000E-03 0.  1.
         11    1    4    4    0    0 -0.14769879225E-01  0.31577518984E-02 -0.36218773633E-02  0.15540265314E-01  0.51100000000E-03 0. -1.
</event>
<event>
 8    1  0.1131376E+005  0.1043930E+01  0.7957747E-01            NaN
         13   -1    0    0    0    0  0.00000000000E+00  0.00000000000E+00  0.74505805969E-08  0.10566000000E+00  0.10566000000E+00 0. -1.
     999900   -1    0    0    0    0 -0.00000000000E+00 -0.00000000000E+00 -0.74505805969E-08  0.93827000000E+00  0.93827000000E+00 0. -1.
     999902    2    1    2    0    0  0.31934316323E-02 -0.17570575446E-01  0.16572031529E-01  0.10195670085E+01  0.10192758848E+01 0.  0.
     999903    2    3    3    0    0  0.27612976969E-01  0.37700015905E-01 -0.11699123905E+00  0.12744016788E+00  0.19242626559E-01 0.  0.
         14    1    1    2    0    0 -0.31934316323E-02  0.17570575446E-01 -0.16572031529E-01  0.24362991526E-01  0.00000000000E+00 0.  1.
     999901    1    3    3    0    0 -0.24419545337E-01 -0.55270591351E-01  0.13356327058E+00  0.89212684060E+00  0.88000000000E+00 0.  1.
        -11    1    4    4    0    0  0.24701213872E-01  0.19549604611E-01 -0.63702951129E-01  0.71068024531E-01  0.51100000000E-03 0.  1.
         11    1    4    4    0    0  0.29117630971E-02  0.18150411294E-01 -0.53288287926E-01  0.56372143348E-01  0.51100000000E-03 0. -1.
</event>
<event>
 8    1  0.1131376E+005  0.1043930E+01  0.7957747E-01            NaN
         13   -1    0    0    0    0  0.00000000000E+00  0.00000000000E+00  0.74505805969E-08  0.10566000000E+00  0.10566000000E+00 0. -1.
     999900   -1    0    0    0    0 -0.00000000000E+00 -0.00000000000E+00 -0.74505805969E-08  0.93827000000E+00  0.93827000000E+00 0. -1.
     999902    2    1    2    0    0  0.18228322352E-01  0.11735759161E-01 -0.11763528480E-01  0.10192646319E+01  0.10189661474E+01 0.  0.
     999903    2    3    3    0    0 -0.67291577220E-01 -0.79557287594E-01 -0.72125898968E-01  0.12837087320E+00  0.20479682850E-01 0.  0.
         14    1    1    2    0    0 -0.18228322352E-01 -0.11735759161E-01  0.11763528480E-01  0.24665368052E-01  0.00000000000E+00 0. -1.
     999901    1    3    3    0    0  0.85519899572E-01  0.91293046755E-01  0.60362370488E-01  0.89089375875E+00  0.88000000000E+00 0.  1.
        -11    1    4    4    0    0 -0.59653490807E-01 -0.58056940632E-01 -0.53972811024E-01  0.99209237331E-01  0.51100000000E-03 0. -1.
         11    1    4    4    0    0 -0.76380864135E-02 -0.21500346962E-01 -0.18153087944E-01  0.29161635867E-01  0.51100000000E-03 0.  1.
</event>
<event>
 8    1  0.1131376E+005  0.1043930E+01  0.7957747E-01            NaN
         13   -1    0    0    0    0  0.00000000000E+00  0.00000000000E+00  0.74505805969E-08  0.10566000000E+00  0.10566000000E+00 0. -1.
     999900   -1    0    0    0    0 -0.00000000000E+00 -0.00000000000E+00 -0.74505805969E-08  0.93827000000E+00  0.93827000000E+00 0.  1.
     999902    2    1    2    0    0 -0.23317486152E-01  0.24745346227E-02  0.27116640579E-02  0.10203253055E+01  0.10200522278E+01 0.  0.
     999903    2    3    3    0    0 -0.66304978029E-01  0.67969300412E-01 -0.89578971674E-01  0.13203759856E+00  0.19833289102E-01 0.  0.
         14    1    1    2    0    0  0.23317486152E-01 -0.24745346227E-02 -0.27116640579E-02  0.23604694533E-01  0.00000000000E+00 0. -1.
     999901    1    3    3    0    0  0.42987491877E-01 -0.65494765789E-01  0.92290635732E-01  0.88828770691E+00  0.88000000000E+00 0. -1.
        -11    1    4    4    0    0 -0.36725392061E-01  0.27780165757E-01 -0.33362144792E-01  0.56866386008E-01  0.51100000000E-03 0.  1.
         11    1    4    4    0    0 -0.29579585968E-01  0.40189134655E-01 -0.56216826882E-01  0.75171212549E-01  0.51100000000E-03 0. -1.
</event>
<event>
 8    1  0.1200596E+005  0.1043930E+01  0.7957747E-01            NaN
         13   -1    0    0    0    0  0.00000000000E+00  0.00000000000E+00  0.74505805969E-08  0.10566000000E+00  0.10566000000E+00 0.  1.
     999900   -1    0    0    0    0 -0.00000000000E+00 -0.00000000000E+00 -0.74505805969E-08  0.93827000000E+00  0.93827000000E+00 0. -1.
     999902    2    1    2    0    0  0.16336292430E-01 -0.13178917539E-01  0.15478719036E-01  0.10178503324E+01  0.10175161670E+01 0.  0.
     999903    2    3    3    0    0 -0.51015439920E-01 -0.27329497192E-01  0.11410183778E+00  0.12967072542E+00  0.21113766085E-01 0.  0.
         14    1    1    2    0    0 -0.16336292430E-01  0.13178917539E-01 -0.15478719036E-01  0.26079667576E-01  0.00000000000E+00 0. -1.
     999901    1    3    3    0    0  0.67351732351E-01  0.14150579653E-01 -0.98623118743E-01  0.88817960701E+00  0.88000000000E+00 0. -1.
        -11    1    4    4    0    0 -0.39681466207E-01 -0.10055186299E-01  0.75824454863E-01  0.86170381269E-01  0.51100000000E-03 0.  1.
         11    1    4    4    0    0 -0.11333973713E-01 -0.17274310893E-01  0.38277382916E-01  0.43500344146E-01  0.51100000000E-03 0. -1.
</event>
<event>
 8    1  0.1131376E+005  0.1043930E+01  0.7957747E-01            NaN
         13   -1    0    0    0    0  0.00000000000E+00  0.00000000000E+00  0.74505805969E-08  0.10566000000E+00  0.10566000000E+00 0. -1.
     999900   -1    0    0    0    0 -0.00000000000E+00 -0.00000000000E+00 -0.74505805969E-08  0.93827000000E+00  0.93827000000E+00 0.  1.
     999902    2    1    2    0    0  0.69775830697E-02 -0.18956622786E-01  0.12779265628E-01  0.10200270746E+01  0.10197469701E+01 0.  0.
     999903    2    3    3    0    0  0.27390342522E-01  0.20927687043E-03  0.12767601062E+00  0.13211645158E+00  0.20082789378E-01 0.  0.
         14    1    1    2    0    0 -0.69775830697E-02  0.18956622786E-01 -0.12779265628E-01  0.23902925405E-01  0.00000000000E+00 0.  1.
     999901    1    3    3    0    0 -0.20412759452E-01 -0.19165899657E-01 -0.11489674499E+00  0.88791062302E+00  0.88000000000E+00 0.  1.
        -11    1    4    4    0    0  0.32653153458E-02  0.79441909986E-02  0.30405846501E-01  0.31599827173E-01  0.51100000000E-03 0.  1.
         11    1    4    4    0    0  0.24125027176E-01 -0.77349141282E-02  0.97270164119E-01  0.10051662440E+00  0.51100000000E-03 0. -1.
</event>
<event>
 8    1  0.1131376E+005  0.1043930E+01  0.7957747E-01            NaN
         13   -1    0    0    0    0  0.00000000000E+00  0.00000000000E+00  0.74505805969E-08  0.10566000000E+00  0.10566000000E+00 0.  1.
     999900   -1    0    0    0    0 -0.00000000000E+00 -0.00000000000E+00 -0.74505805969E-08  0.93827000000E+00  0.93827000000E+00 0. -1.
     999902    2    1    2    0    0 -0.65058774237E-02 -0.10396416941E-01  0.20895394454E-01  0.10197013097E+01  0.10194134252E+01 0.  0.
     999903    2    3    3    0    0  0.66627339866E-01 -0.37842872505E-01  0.10613527936E+00  0.13213857195E+00  0.18017193330E-01 0.  0.
         14    1    1    2    0    0  0.65058774237E-02  0.10396416941E-01 -0.20895394454E-01  0.24228690341E-01  0.00000000000E+00 0. -1.
     999901    1    3    3    0    0 -0.73133217290E-01  0.27446455564E-01 -0.85239884902E-01  0.88756273771E+00  0.88000000000E+00 0. -1.
        -11    1    4    4    0    0  0.39594508163E-01 -0.29332464636E-01  0.77547780916E-01  0.91880563800E-01  0.51100000000E-03 0.  1.
         11    1    4    4    0    0  0.27032831703E-01 -0.85104078693E-02  0.28587498440E-01  0.40258008148E-01  0.51100000000E-03 0. -1.
</event>
<event>
 8    1  0.1131376E+005  0.1043930E+01  0.7957747E-01            NaN
         13   -1    0    0    0    0  0.00000000000E+00  0.00000000000E+00  0.74505805969E-08  0.10566000000E+00  0.10566000000E+00 0.  1.
     999900   -1    0    0    0    0 -0.00000000000E+00 -0.00000000000E+00 -0.74505805969E-08  0.93827000000E+00  0.93827000000E+00 0.  1.
     999902    2    1    2    0    0 -0.16957304836E-01 -0.11404337366E-01  0.11053229819E-01  0.10206967698E+01  0.10204323166E+01 0.  0.
     999903    2    3    3    0    0 -0.37263304305E-01  0.15689498018E-01  0.12467904816E+00  0.13274562464E+00  0.21019553122E-01 0.  0.
         14    1    1    2    0    0  0.16957304836E-01  0.11404337366E-01 -0.11053229819E-01  0.23233230242E-01  0.00000000000E+00 0. -1.
     999901    1    3    3    0    0  0.20305999469E-01 -0.27093835384E-01 -0.11362581834E+00  0.88795114512E+00  0.88000000000E+00 0.  1.
        -11    1    4    4    0    0 -0.20604044592E-01  0.11401979651E-01  0.40725901260E-01  0.47046699649E-01  0.51100000000E-03 0. -1.
         11    1    4    4    0    0 -0.16659259713E-01  0.42875183676E-02  0.83953146902E-01  0.85698924986E-01  0.51100000000E-03 0.  1.
</event>
<event>
 8    1  0.1131376E+005  0.1043930E+01  0.7957747E-01            NaN
         13   -1    0    0    0    0  0.00000000000E+00  0.00000000000E+00  0.74505805969E-08  0.10566000000E+00  0.10566000000E+00 0.  1.
     999900   -1    0    0    0    0 -0.00000000000E+00 -0.00000000000E+00 -0.74505805969E-08  0.93827000000E+00  0.93827000000E+00 0. -1.
     999902    2    1    2    0    0 -0.33976316542E-02  0.18332174313E-01  0.13614726222E-01  0.10208437858E+01  0.10205827069E+01 0.  0.
     999903    2    3    3    0    0 -0.31932519569E-01  0.18892056994E-01  0.12438843566E+00  0.13344006257E+00  0.30938192423E-01 0.  0.
         14    1    1    2    0    0  0.33976316542E-02 -0.18332174313E-01 -0.13614726222E-01  0.23086214198E-01  0.00000000000E+00 0. -1.
     999901    1    3    3    0    0  0.28534887915E-01 -0.55988268108E-03 -0.11077370944E+00  0.88740372323E+00  0.88000000000E+00 0. -1.
        -11    1    4    4    0    0 -0.15677895822E-01 -0.33780185040E-02  0.76631509514E-01  0.78293402007E-01  0.51100000000E-03 0. -1.
         11    1    4    4    0    0 -0.16254623747E-01  0.22270075498E-01  0.47756926146E-01  0.55146660567E-01  0.51100000000E-03 0.  1.
</event>
<event>
 8    1  0.1131376E+005  0.1043930E+01  0.7957747E-01            NaN
         13   -1    0    0    0    0  0.00000000000E+00  0.00000000000E+00  0.74505805969E-08  0.10566000000E+00  0.10566000000E+00 0.  1.
     999900   -1    0    0    0    0 -0.00000000000E+00 -0.00000000000E+00 -0.74505805969E-08  0.93827000000E+00  0.93827000000E+00 0. -1.
     999902    2    1    2    0    0  0.18051511375E-01  0.27597322119E-02 -0.14753465676E-01  0.10204536729E+01  0.10201835916E+01 0.  0.
     999903    2    3    3    0    0 -0.31070839066E-01  0.93400934636E-01 -0.85031401940E-01  0.13165233333E+00  0.20319102443E-01 0.  0.
         14    1    1    2    0    0 -0.18051511375E-01 -0.27597322119E-02  0.14753465676E-01  0.23476327103E-01  0.00000000000E+00 0.  1.
     999901    1    3    3    0    0  0.49122350442E-01 -0.90641202425E-01  0.70277936265E-01  0.88880133957E+00  0.88000000000E+00 0.  1.
        -11    1    4    4    0    0 -0.20422213005E-01  0.41036943084E-01 -0.29104227996E-01  0.54299306532E-01  0.51100000000E-03 0.  1.
         11    1    4    4    0    0 -0.10648626061E-01  0.52363991553E-01 -0.55927173945E-01  0.77353026798E-01  0.51100000000E-03 0. -1.
</event>
<event>
 8    1  0.1131376E+005  0.1043930E+01  0.7957747E-01            NaN
         13   -1    0    0    0    0  0.00000000000E+00  0.00000000000E+00  0.74505805969E-08  0.10566000000E+00  0.10566000000E+00 0. -1.
     999900   -1    0    0    0    0 -0.00000000000E+00 -0.00000000000E+00 -0.74505805969E-08  0.93827000000E+00  0.93827000000E+00 0.  1.
     999902    2    1    2    0    0  0.17160979832E-01 -0.23150854797E-02  0.16011860051E-01  0.10203452907E+01  0.10200726806E+01 0.  0.
     999903    2    3    3    0    0 -0.78005195798E-01 -0.25065048622E-01  0.10003770608E+00  0.13094408507E+00  0.20633553846E-01 0.  0.
         14    1    1    2    0    0 -0.17160979832E-01  0.23150854797E-02 -0.16011860051E-01  0.23584709281E-01  0.00000000000E+00 0.  1.
     999901    1    3    3    0    0  0.95166175629E-01  0.22749963142E-01 -0.84025846025E-01  0.88940120565E+00  0.88000000000E+00 0.  1.
        -11    1    4    4    0    0 -0.38026965039E-01 -0.18072124397E-02  0.41126871774E-01  0.56044596437E-01  0.51100000000E-03 0. -1.
         11    1    4    4    0    0 -0.39978230759E-01 -0.23257836182E-01  0.58910834303E-01  0.74899488635E-01  0.51100000000E-03 0.  1.
</event>
<event>
 8    1  0.1131376E+005  0.1043930E+01  0.7957747E-01            NaN
         13   -1    0    0    0    0  0.00000000000E+00  0.00000000000E+00  0.74505805969E-08  0.10566000000E+00  0.10566000000E+00 0.  1.
     999900   -1    0    0    0    0 -0.00000000000E+00 -0.00000000000E+00 -0.74505805969E-08  0.93827000000E+00  0.93827000000E+00 0.  1.
     999902    2    1    2    0    0 -0.18125974909E-01  0.56093715550E-02  0.13572232959E-01  0.10206014440E+01  0.10203347912E+01 0.  0.
     999903    2    3    3    0    0  0.12666749338E+00 -0.95859559832E-02  0.40685190816E-02  0.12858890656E+00  0.19545066168E-01 0.  0.
         14    1    1    2    0    0  0.18125974909E-01 -0.56093715550E-02 -0.13572232959E-01  0.23328555960E-01  0.00000000000E+00 0. -1.
     999901    1    3    3    0    0 -0.14479346829E+00  0.15195327538E-01  0.95037138776E-02  0.89201253748E+00  0.88000000000E+00 0.  1.
        -11    1    4    4    0    0  0.46598735786E-01 -0.13453045775E-02 -0.76585472889E-02  0.47245809220E-01  0.51100000000E-03 0. -1.
         11    1    4    4    0    0  0.80068757597E-01 -0.82406514057E-02  0.11727066371E-01  0.81343097343E-01  0.51100000000E-03 0.  1.
</event>
<event>
 8    1  0.1131376E+005  0.1043930E+01  0.7957747E-01            NaN
         13   -1    0    0    0    0  0.00000000000E+00  0.00000000000E+00  0.74505805969E-08  0.10566000000E+00  0.10566000000E+00 0.  1.
     999900   -1    0    0    0    0 -0.00000000000E+00 -0.00000000000E+00 -0.74505805969E-08  0.93827000000E+00  0.93827000000E+00 0. -1.
     999902    2    1    2    0    0  0.16239543518E-01 -0.11560639882E-01 -0.13171807197E-01  0.10200371627E+01  0.10197572974E+01 0.  0.
     999903    2    3    3    0    0 -0.89284860751E-01  0.60372458358E-01 -0.68306978056E-01  0.12911087083E+00  0.19676219886E-01 0.  0.
         14    1    1    2    0    0 -0.16239543518E-01  0.11560639882E-01  0.13171807197E-01  0.23892837274E-01  0.00000000000E+00 0.  1.
     999901    1    3    3    0    0  0.10552440427E+00 -0.71933098240E-01  0.55135170859E-01  0.89092629189E+00  0.88000000000E+00 0. -1.
        -11    1    4    4    0    0 -0.49638875148E-01  0.44551432919E-01 -0.45143454795E-01  0.80542167422E-01  0.51100000000E-03 0. -1.
         11    1    4    4    0    0 -0.39645985603E-01  0.15821025439E-01 -0.23163523260E-01  0.48568703412E-01  0.51100000000E-03 0.  1.
</event>
<event>
 8    1  0.1131376E+005  0.1043930E+01  0.7957747E-01            NaN
         13   -1    0    0    0    0  0.00000000000E+00  0.00000000000E+00  0.74505805969E-08  0.10566000000E+00  0.10566000000E+00 0. -1.
     999900   -1    0    0    0    0 -0.00000000000E+00 -0.00000000000E+00 -0.74505805969E-08  0.93827000000E+00  0.93827000000E+00 0.  1.
     999902    2    1    2    0    0 -0.79438247541E-02  0.16505754475E-02  0.21461905961E-01  0.10209856726E+01  0.10207278293E+01 0.  0.
     999903    2    3    3    0    0  0.11471532103E+00 -0.49331528639E-01 -0.29209380113E-01  0.12957554243E+00  0.18531829745E-01 0.  0.
         14    1    1    2    0    0  0.79438247541E-02 -0.16505754475E-02 -0.21461905961E-01  0.22944327371E-01  0.00000000000E+00 0.  1.
     999901    1    3    3    0    0 -0.12265914578E+00  0.50982104086E-01  0.50671286075E-01  0.89141013019E+00  0.88000000000E+00 0.  1.
        -11    1    4    4    0    0  0.50123956022E-01 -0.31485666583E-01 -0.15163911352E-01  0.61106165777E-01  0.51100000000E-03 0. -1.
         11    1    4    4    0    0  0.64591365008E-01 -0.17845862056E-01 -0.14045468762E-01  0.68469376657E-01  0.51100000000E-03 0.  1.
</event>
<event>
 8    1  0.1131376E+005  0.1043930E+01  0.7957747E-01            NaN
         13   -1    0    0    0    0  0.00000000000E+00  0.00000000000E+00  0.74505805969E-08  0.10566000000E+00  0.10566000000E+00 0.  1.
     999900   -1    0    0    0    0 -0.00000000000E+00 -0.00000000000E+00 -0.74505805969E-08  0.93827000000E+00  0.93827000000E+00 0.  1.
     999902    2    1    2    0    0  0.14062863850E-01 -0.15033383674E-01 -0.12458345479E-01  0.10198680563E+01  0.10195841677E+01 0.  0.
     999903    2    3    3    0    0  0.25258324507E-01 -0.81758224337E-01  0.96840776251E-01  0.13052906538E+00  0.18366021870E-01 0.  0.
         14    1    1    2    0    0 -0.14062863850E-01  0.15033383674E-01  0.12458345479E-01  0.24061943737E-01  0.00000000000E+00 0.  1.
     999901    1    3    3    0    0 -0.11195460657E-01  0.66724840663E-01 -0.10929912173E+00  0.88933899089E+00  0.88000000000E+00 0.  1.
        -11    1    4    4    0    0  0.15628009180E-01 -0.47358139058E-01  0.69494169553E-01  0.85537878912E-01  0.51100000000E-03 0.  1.
         11    1    4    4    0    0  0.96303153270E-02 -0.34400085279E-01  0.27346606699E-01  0.44991186464E-01  0.51100000000E-03 0. -1.
</event>
<event>
 8    1  0.1131376E+005  0.1043930E+01  0.7957747E-01            NaN
         13   -1    0    0    0    0  0.00000000000E+00  0.00000000000E+00  0.74505805969E-08  0.10566000000E+00  0.10566000000E+00 0. -1.
     999900   -1    0    0    0    0 -0.00000000000E+00 -0.00000000000E+00 -0.74505805969E-08  0.93827000000E+00  0.93827000000E+00 0.  1.
     999902    2    1    2    0    0  0.21316191687E-01 -0.10232249007E-01 -0.29672837186E-02  0.10200996890E+01  0.10198213039E+01 0.  0.
     999903    2    3    3    0    0  0.11682310931E+00  0.58972487475E-01  0.18094047106E-02  0.13221811832E+00  0.18787328684E-01 0.  0.
         14    1    1    2    0    0 -0.21316191687E-01  0.10232249007E-01  0.29672837186E-02  0.23830310960E-01  0.00000000000E+00 0.  1.
     999901    1    3    3    0    0 -0.95506917626E-01 -0.69204736482E-01 -0.47766884293E-02  0.88788157072E+00  0.88000000000E+00 0.  1.
        -11    1    4    4    0    0  0.45852914178E-01  0.33511773676E-01  0.15376696512E-02  0.56816848403E-01  0.51100000000E-03 0. -1.
         11    1    4    4    0    0  0.70970195135E-01  0.25460713799E-01  0.27173505947E-03  0.75401269920E-01  0.51100000000E-03 0.  1.
</event>
<event>
 8    1  0.1131376E+005  0.1043930E+01  0.7957747E-01            NaN
         13   -1    0    0    0    0  0.00000000000E+00  0.00000000000E+00  0.74505805969E-08  0.10566000000E+00  0.10566000000E+00 0. -1.
     999900   -1    0    0    0    0 -0.00000000000E+00 -0.00000000000E+00 -0.74505805969E-08  0.93827000000E+00  0.93827000000E+00 0. -1.
     999902    2    1    2    0    0  0.14024074867E-02 -0.21140478889E-01 -0.10048087487E-01  0.10204811054E+01  0.10202116623E+01 0.  0.
     999903    2    3    3    0    0 -0.69691835832E-02 -0.63551430509E-01  0.11219000682E+00  0.13098072654E+00  0.21954481428E-01 0.  0.
         14    1    1    2    0    0 -0.14024074867E-02  0.21140478889E-01  0.10048087487E-01  0.23448894570E-01  0.00000000000E+00 0. -1.
     999901    1    3    3    0    0  0.83715910699E-02  0.42410951621E-01 -0.12223809430E+00  0.88950037889E+00  0.88000000000E+00 0. -1.
        -11    1    4    4    0    0 -0.11388055817E-01 -0.42449028152E-01  0.89304995791E-01  0.99535175695E-01  0.51100000000E-03 0. -1.
         11    1    4    4    0    0  0.44188722334E-02 -0.21102402357E-01  0.22885011025E-01  0.31445550841E-01  0.51100000000E-03 0.  1.
</event>
<event>
 8    1  0.1131376E+005  0.1043930E+01  0.7957747E-01            NaN
         13   -1    0    0    0    0  0.00000000000E+00  0.00000000000E+00  0.74505805969E-08  0.10566000000E+00  0.10566000000E+00 0.  1.
     999900   -1    0    0    0    0 -0.00000000000E+00 -0.00000000000E+00 -0.74505805969E-08  0.93827000000E+00  0.93827000000E+00 0.  1.
     999902    2    1    2    0    0 -0.10398095423E-02 -0.30411525186E-02  0.23467459452E-01  0.10202434750E+01  0.10199684784E+01 0.  0.
     999903    2    3    3    0    0  0.22521463588E-01  0.36655842789E-01  0.12444951163E+00  0.13326638406E+00  0.20527567861E-01 0.  0.
         14    1    1    2    0    0  0.10398095423E-02  0.30411525186E-02 -0.23467459452E-01  0.23686524981E-01  0.00000000000E+00 0. -1.
     999901    1    3    3    0    0 -0.23561273131E-01 -0.39696995307E-01 -0.10098205218E+00  0.88697709096E+00  0.88000000000E+00 0.  1.
        -11    1    4    4    0    0  0.24945812896E-01  0.23514721434E-01  0.88295499178E-01  0.94718488170E-01  0.51100000000E-03 0.  1.
         11    1    4    4    0    0 -0.24243493073E-02  0.13141121354E-01  0.36154012452E-01  0.38547895888E-01  0.51100000000E-03 0. -1.
</event>
<event>
 8    1  0.1131376E+005  0.1043930E+01  0.7957747E-01            NaN
         13   -1    0    0    0    0  0.00000000000E+00  0.00000000000E+00  0.74505805969E-08  0.10566000000E+00  0.10566000000E+00 0. -1.
     999900   -1    0    0    0    0 -0.00000000000E+00 -0.00000000000E+00 -0.74505805969E-08  0.93827000000E+00  0.93827000000E+00 0.  1.
     999902    2    1    2    0    0 -0.17966678057E-01 -0.14872998335E-01  0.32600415901E-02  0.10203793000E+01  0.10201074847E+01 0.  0.
     999903    2    3    3    0    0  0.63080993312E-01 -0.11073107018E+00 -0.23485566503E-01  0.13106899277E+00  0.19670470513E-01 0.  0.
         14    1    1    2    0    0  0.17966678057E-01  0.14872998335E-01 -0.32600415901E-02  0.23550700012E-01  0.00000000000E+00 0.  1.
     999901    1    3    3    0    0 -0.81047671368E-01  0.95858071849E-01  0.26745608093E-01  0.88931030722E+00  0.88000000000E+00 0.  1.
        -11    1    4    4    0    0  0.21291608858E-01 -0.21959338640E-01 -0.22050848628E-02  0.30670322488E-01  0.51100000000E-03 0. -1.
         11    1    4    4    0    0  0.41789384454E-01 -0.88771731545E-01 -0.21280481640E-01  0.10039867028E+00  0.51100000000E-03 0.  1.
</event>
<event>
 8    1  0.1131376E+005  0.1043930E+01  0.7957747E-01            NaN
         13   -1    0    0    0    0  0.00000000000E+00  0.00000000000E+00  0.74505805969E-08  0.10566000000E+00  0.10566000000E+00 0.  1.
     999900   -1    0    0    0    0 -0.00000000000E+00 -0.00000000000E+00 -0.74505805969E-08  0.93827000000E+00  0.93827000000E+00 0.  1.
     999902    2    1    2    0    0 -0.19856935329E-02  0.10565087914E-01 -0.19188626816E-01  0.10219352856E+01  0.10216985664E+01 0.  0.
     999903    2    3    3    0    0  0.11795185721E-01 -0.12176982220E+00  0.39611950495E-01  0.12999361210E+00  0.19031987823E-01 0.  0.
         14    1    1    2    0    0  0.19856935329E-02 -0.10565087914E-01  0.19188626816E-01  0.21994714377E-01  0.00000000000E+00 0.  1.
     999901    1    3    3    0    0 -0.13780879254E-01  0.13233491012E+00 -0.58800577311E-01  0.89194167352E+00  0.88000000000E+00 0.  1.
        -11    1    4    4    0    0  0.82577709305E-02 -0.18666743138E-01  0.36595702711E-02  0.20743472604E-01  0.51100000000E-03 0. -1.
         11    1    4    4    0    0  0.35374147908E-02 -0.10310307906E+00  0.35952380224E-01  0.10925013950E+00  0.51100000000E-03 0.  1.
</event>
<event>
 8    1  0.1131376E+005  0.1043930E+01  0.7957747E-01            NaN
         13   -1    0    0    0    0  0.00000000000E+00  0.00000000000E+00  0.74505805969E-08  0.10566000000E+00  0.10566000000E+00 0.  1.
     999900   -1    0    0    0    0 -0.00000000000E+00 -0.00000000000E+00 -0.74505805969E-08  0.93827000000E+00  0.93827000000E+00 0. -1.
     999902    2    1    2    0    0  0.38779759086E-02 -0.78621987800E-03  0.23671365744E-01  0.10199302001E+01  0.10196477935E+01 0.  0.
     999903    2    3    3    0    0  0.12018488352E+00  0.31282900076E-01 -0.32461797200E-01  0.12992646012E+00  0.20102007264E-01 0.  0.
         14    1    1    2    0    0 -0.38779759086E-02  0.78621987800E-03 -0.23671365744E-01  0.23999799895E-01  0.00000000000E+00 0. -1.
     999901    1    3    3    0    0 -0.11630690761E+00 -0.32069119954E-01  0.56133162944E-01  0.89000373999E+00  0.88000000000E+00 0. -1.
        -11    1    4    4    0    0  0.67910093050E-01  0.16212545706E-01 -0.28378493069E-01  0.75367283128E-01  0.51100000000E-03 0. -1.
         11    1    4    4    0    0  0.52274790473E-01  0.15070354371E-01 -0.40833041312E-02  0.54559176987E-01  0.51100000000E-03 0.  1.
</event>
<event>
 8    1  0.1131376E+005  0.1043930E+01  0.7957747E-01            NaN
         13   -1    0    0    0    0  0.00000000000E+00  0.00000000000E+00  0.74505805969E-08  0.10566000000E+00  0.10566000000E+00 0.  1.
     999900   -1    0    0    0    0 -0.00000000000E+00 -0.00000000000E+00 -0.74505805969E-08  0.93827000000E+00  0.93827000000E+00 0.  1.
     999902    2    1    2    0    0 -0.13938282013E-01 -0.15427116528E-01 -0.11148220010E-01  0.10203385940E+01  0.10200658272E+01 0.  0.
     999903    2    3    3    0    0 -0.35578580679E-01 -0.67552622260E-01 -0.10669990333E+00  0.13336875509E+00  0.23940828826E-01 0.  0.
         14    1    1    2    0    0  0.13938282013E-01  0.15427116528E-01  0.11148220010E-01  0.23591406046E-01  0.00000000000E+00 0.  1.
     999901    1    3    3    0    0  0.21640298666E-01  0.52125505733E-01  0.95551683323E-01  0.88696983887E+00  0.88000000000E+00 0. -1.
        -11    1    4    4    0    0  0.25738321605E-02 -0.12911107743E-01 -0.21243231932E-01  0.24997146618E-01  0.51100000000E-03 0. -1.
         11    1    4    4    0    0 -0.38152412839E-01 -0.54641514518E-01 -0.85456671401E-01  0.10837160847E+00  0.51100000000E-03 0.  1.
</event>
<event>
 8    1  0.1131376E+005  0.1043930E+01  0.7957747E-01            NaN
         13   -1    0    0    0    0  0.00000000000E+00  0.00000000000E+00  0.74505805969E-08  0.10566000000E+00  0.10566000000E+00 0. -1.
     999900   -1    0    0    0    0 -0.00000000000E+00 -0.00000000000E+00 -0.74505805969E-08  0.93827000000E+00  0.93827000000E+00 0. -1.
     999902    2    1    2    0    0  0.13330582040E-01  0.18175806740E-01 -0.84238528296E-02  0.10198670479E+01  0.10195831353E+01 0.  0.
     999903    2    3    3    0    0 -0.49908835130E-01 -0.11556963734E+00 -0.84916165986E-02  0.12751786046E+00  0.18478752279E-01 0.  0.
         14    1    1    2    0    0 -0.13330582040E-01 -0.18175806740E-01  0.84238528296E-02  0.24062952119E-01  0.00000000000E+00 0.  1.
     999901    1    3    3    0    0  0.63239417169E-01  0.13374544408E+00  0.67763768999E-04  0.89234918742E+00  0.88000000000E+00 0. -1.
        -11    1    4    4    0    0 -0.39994866625E-01 -0.73432184504E-01 -0.99061685020E-02  0.84203731347E-01  0.51100000000E-03 0.  1.
         11    1    4    4    0    0 -0.99139685047E-02 -0.42137452834E-01  0.14145519033E-02  0.43314129115E-01  0.51100000000E-03 0. -1.
</event>
<event>
 8    1  0.1131376E+005  0.1043930E+01  0.7957747E-01            NaN
         13   -1    0    0    0    0  0.00000000000E+00  0.00000000000E+00  0.74505805969E-08  0.10566000000E+00  0.10566000000E+00 0. -1.
     999900   -1    0    0    0    0 -0.00000000000E+00 -0.00000000000E+00 -0.74505805969E-08  0.93827000000E+00  0.93827000000E+00 0.  1.
     999902    2    1    2    0    0 -0.19564250414E-02 -0.18064747243E-01  0.15307065692E-01  0.10201714447E+01  0.10198947532E+01 0.  0.
     999903    2    3    3    0    0 -0.74218214584E-01 -0.76715632701E-01  0.76191431118E-01  0.13317167096E+00  0.23150120792E-01 0.  0.
         14    1    1    2    0    0  0.19564250414E-02  0.18064747243E-01 -0.15307065692E-01  0.23758555343E-01  0.00000000000E+00 0.  1.
     999901    1    3    3    0    0  0.72261789542E-01  0.58650885458E-01 -0.60884365426E-01  0.88699977370E+00  0.88000000000E+00 0. -1.
        -11    1    4    4    0    0 -0.30956567083E-01 -0.30363253543E-01  0.45052121888E-01  0.62531520203E-01  0.51100000000E-03 0. -1.
         11    1    4    4    0    0 -0.43261647500E-01 -0.46352379158E-01  0.31139309230E-01  0.70640150752E-01  0.51100000000E-03 0.  1.
</event>
<event>
 8    1  0.1131376E+005  0.1043930E+01  0.7957747E-01            NaN
         13   -1    0    0    0    0  0.00000000000E+00  0.00000000000E+00  0.74505805969E-08  0.10566000000E+00  0.10566000000E+00 0. -1.
     999900   -1    0    0    0    0 -0.00000000000E+00 -0.00000000000E+00 -0.74505805969E-08  0.93827000000E+00  0.93827000000E+00 0.  1.
     999902    2    1    2    0    0 -0.18640308100E-02 -0.24785322226E-01  0.28825014395E-02  0.10189080971E+01  0.10186008123E+01 0.  0.
     999903    2    3    3    0    0 -0.11026061838E-01  0.88330999103E-01 -0.88528544394E-01  0.12692422717E+00  0.18668605423E-01 0.  0.
         14    1    1    2    0    0  0.18640308100E-02  0.24785322226E-01 -0.28825014395E-02  0.25021902871E-01  0.00000000000E+00 0.  1.
     999901    1    3    3    0    0  0.91620310277E-02 -0.11311632133E+00  0.91411045834E-01  0.89198386996E+00  0.88000000000E+00 0.  1.
        -11    1    4    4    0    0 -0.14005677429E-01  0.42890201157E-01 -0.38998407501E-01  0.59639460629E-01  0.51100000000E-03 0.  1.
         11    1    4    4    0    0  0.29796155914E-02  0.45440797946E-01 -0.49530136893E-01  0.67284766543E-01  0.51100000000E-03 0. -1.
</event>
<event>
 8    1  0.1194581E+005  0.1043930E+01  0.7957747E-01            NaN
         13   -1    0    0    0    0  0.00000000000E+00  0.00000000000E+00  0.74505805969E-08  0.10566000000E+00  0.10566000000E+00 0.  1.
     999900   -1    0    0    0    0 -0.00000000000E+00 -0.00000000000E+00 -0.74505805969E-08  0.93827000000E+00  0.93827000000E+00 0.  1.
     999902    2    1    2    0    0  0.85175979600E-02  0.18339765137E-01  0.12122108661E-01  0.10203536988E+01  0.10200812853E+01 0.  0.
     999903    2    3    3    0    0  0.12514756218E+00 -0.11343431672E-01  0.34937351128E-01  0.13186949746E+00  0.19451480548E-01 0.  0.
         14    1    1    2    0    0 -0.85175979600E-02 -0.18339765137E-01 -0.12122108661E-01  0.23576301209E-01  0.00000000000E+00 0.  1.
     999901    1    3    3    0    0 -0.11662996422E+00  0.29683196809E-01 -0.22815242467E-01  0.88848420133E+00  0.88000000000E+00 0.  1.
        -11    1    4    4    0    0  0.52369518615E-01  0.47562776348E-02  0.15872293710E-01  0.54930678910E-01  0.51100000000E-03 0.  1.
         11    1    4    4    0    0  0.72778043563E-01 -0.16099709306E-01  0.19065057418E-01  0.76938818550E-01  0.51100000000E-03 0. -1.
</event>
<event>
 8    1  0.1131376E+005  0.1043930E+01  0.7957747E-01            NaN
         13   -1    0    0    0    0  0.00000000000E+00  0.00000000000E+00  0.74505805969E-08  0.10566000000E+00  0.10566000000E+00 0.  1.
     999900   -1    0    0    0    0 -0.00000000000E+00 -0.00000000000E+00 -0.74505805969E-08  0.93827000000E+00  0.93827000000E+00 0.  1.
     999902    2    1    2    0    0  0.89867757689E-02  0.19510558868E-01 -0.77028014088E-02  0.10211098949E+01  0.10208548674E+01 0.  0.
     999903    2    3    3    0    0  0.16385845817E-01 -0.12154630913E+00 -0.36131682691E-01  0.12939245788E+00  0.19872303749E-01 0.  0.
         14    1    1    2    0    0 -0.89867757689E-02 -0.19510558868E-01  0.77028014088E-02  0.22820105074E-01  0.00000000000E+00 0.  1.
     999901    1    3    3    0    0 -0.73990700476E-02  0.14105686799E+00  0.28428881282E-01  0.89171743705E+00  0.88000000000E+00 0. -1.
        -11    1    4    4    0    0  0.50208777186E-03 -0.75707392473E-01 -0.23123569505E-01  0.79163261396E-01  0.51100000000E-03 0.  1.
         11    1    4    4    0    0  0.15883758045E-01 -0.45838916652E-01 -0.13008113185E-01  0.50229196481E-01  0.51100000000E-03 0. -1.
</event>
<event>
 8    1  0.1131376E+005  0.1043930E+01  0.7957747E-01            NaN
         13   -1    0    0    0    0  0.00000000000E+00  0.00000000000E+00  0.74505805969E-08  0.10566000000E+00  0.10566000000E+00 0. -1.
     999900   -1    0    0    0    0 -0.00000000000E+00 -0.00000000000E+00 -0.74505805969E-08  0.93827000000E+00  0.93827000000E+00 0.  1.
     999902    2    1    2    0    0 -0.90492263763E-02 -0.42426504273E-02  0.21938641910E-01  0.10198220638E+01  0.10195370759E+01 0.  0.
     999903    2    3    3    0    0 -0.73325113439E-02  0.12782748176E+00  0.56649148634E-02  0.12981627664E+00  0.20652932089E-01 0.  0.
         14    1    1    2    0    0  0.90492263763E-02  0.42426504273E-02 -0.21938641910E-01  0.24107936235E-01  0.00000000000E+00 0.  1.
     999901    1    3    3    0    0 -0.17167150323E-02 -0.13207013219E+00  0.16273727047E-01  0.89000578713E+00  0.88000000000E+00 0. -1.
        -11    1    4    4    0    0  0.30466260280E-02  0.37196032652E-01 -0.61559445351E-02  0.37828343201E-01  0.51100000000E-03 0.  1.
         11    1    4    4    0    0 -0.10379137372E-01  0.90631449108E-01  0.11820859398E-01  0.91987933437E-01  0.51100000000E-03 0. -1.
</event>
<event>
 8    1  0.1131376E+005  0.1043930E+01  0.7957747E-01            NaN
         13   -1    0    0    0    0  0.00000000000E+00  0.00000000000E+00  0.74505805969E-08  0.10566000000E+00  0.10566000000E+00 0.  1.
     999900   -1    0    0    0    0 -0.00000000000E+00 -0.00000000000E+00 -0.74505805969E-08  0.93827000000E+00  0.93827000000E+00 0.  1.
     999902    2    1    2    0    0 -0.15943814780E-01  0.14943964706E-01 -0.47830184453E-02  0.10215602755E+01  0.10213153244E+01 0.  0.
     999903    2    3    3    0    0 -0.92388204860E-01  0.80740441587E-01 -0.51333420256E-01  0.13457670117E+00  0.20522406213E-01 0.  0.
         14    1    1    2    0    0  0.15943814780E-01 -0.14943964706E-01  0.47830184453E-02  0.22369724547E-01  0.00000000000E+00 0. -1.
     999901    1    3    3    0    0  0.76444390080E-01 -0.65796476882E-01  0.46550401811E-01  0.88698357429E+00  0.88000000000E+00 0.  1.
        -11    1    4    4    0    0 -0.24819152600E-01  0.25207976128E-01 -0.54091033094E-02  0.35790388596E-01  0.51100000000E-03 0.  1.
         11    1    4    4    0    0 -0.67569052260E-01  0.55532465460E-01 -0.45924316946E-01  0.98786312571E-01  0.51100000000E-03 0. -1.
</event>
<event>
 8    1  0.1131376E+005  0.1043930E+01  0.7957747E-01            NaN
         13   -1    0    0    0    0  0.00000000000E+00  0.00000000000E+00  0.74505805969E-08  0.10566000000E+00  0.10566000000E+00 0. -1.
     999900   -1    0    0    0    0 -0.00000000000E+00 -0.00000000000E+00 -0.74505805969E-08  0.93827000000E+00  0.93827000000E+00 0.  1.
     999902    2    1    2    0    0  0.42445274841E-03  0.23005835214E-02  0.23267849875E-01  0.10205448406E+01  0.10202768771E+01 0.  0.
     999903    2    3    3    0    0  0.66693170442E-01  0.80008687818E-01  0.79954920947E-01  0.13282668908E+00  0.20019261705E-01 0.  0.
         14    1    1    2    0    0 -0.42445274841E-03 -0.23005835214E-02 -0.23267849875E-01  0.23385159449E-01  0.00000000000E+00 0.  1.
     999901    1    3    3    0    0 -0.66268717694E-01 -0.77708104296E-01 -0.56687071073E-01  0.88771815147E+00  0.88000000000E+00 0. -1.
        -11    1    4    4    0    0  0.47035362288E-01  0.41923535876E-01  0.51510974463E-01  0.81385193845E-01  0.51100000000E-03 0. -1.
         11    1    4    4    0    0  0.19657808154E-01  0.38085151941E-01  0.28443946484E-01  0.51441495239E-01  0.51100000000E-03 0.  1.
</event>
<event>
 8    1  0.1131376E+005  0.1043930E+01  0.7957747E-01            NaN
         13   -1    0    0    0    0  0.00000000000E+00  0.00000000000E+00  0.74505805969E-08  0.10566000000E+00  0.10566000000E+00 0. -1.
     999900   -1    0    0    0    0 -0.00000000000E+00 -0.00000000000E+00 -0.74505805969E-08  0.93827000000E+00  0.93827000000E+00 0.  1.
     999902    2    1    2    0    0 -0.21257888022E-01 -0.59338866097E-02  0.36334656875E-02  0.10215623697E+01  0.10213174650E+01 0.  0.
     999903    2    3    3    0    0 -0.18839192760E-01  0.19416772464E-02  0.12996628598E+00  0.13250227268E+00  0.17519460007E-01 0.  0.
         14    1    1    2    0    0  0.21257888022E-01  0.59338866097E-02 -0.36334656875E-02  0.22367630325E-01  0.00000000000E+00 0.  1.
     999901    1    3    3    0    0 -0.24186952620E-02 -0.78755638562E-02 -0.12633282029E+00  0.88906009700E+00  0.88000000000E+00 0.  1.
        -11    1    4    4    0    0 -0.91957559916E-02  0.59601022494E-02  0.10293428828E+00  0.10351721389E+00  0.51100000000E-03 0. -1.
         11    1    4    4    0    0 -0.96434367685E-02 -0.40184250030E-02  0.27031997702E-01  0.28985058789E-01  0.51100000000E-03 0.  1.
</event>
<event>
 8    1  0.1131376E+005  0.1043930E+01  0.7957747E-01            NaN
         13   -1    0    0    0    0  0.00000000000E+00  0.00000000000E+00  0.74505805969E-08  0.10566000000E+00  0.10566000000E+00 0. -1.
     999900   -1    0    0    0    0 -0.00000000000E+00 -0.00000000000E+00 -0.74505805969E-08  0.93827000000E+00  0.93827000000E+00 0.  1.
     999902    2    1    2    0    0  0.15958055404E-02 -0.18335544964E-01  0.15879360712E-01  0.10196217113E+01  0.10193319092E+01 0.  0.
     999903    2    3    3    0    0 -0.11574050541E+00 -0.20078948931E-01  0.54153387398E-01  0.13100719955E+00  0.20766997459E-01 0.  0.
         14    1    1    2    0    0 -0.15958055404E-02  0.18335544964E-01 -0.15879360712E-01  0.24308288732E-01  0.00000000000E+00 0.  1.
     999901    1    3    3    0    0  0.11733631095E+00  0.17434039664E-02 -0.38274026686E-01  0.88861451172E+00  0.88000000000E+00 0. -1.
        -11    1    4    4    0    0 -0.82280952024E-01 -0.51360503815E-02  0.40953796104E-01  0.92054378580E-01  0.51100000000E-03 0.  1.
         11    1    4    4    0    0 -0.33459553386E-01 -0.14942898549E-01  0.13199591294E-01  0.38952820966E-01  0.51100000000E-03 0. -1.
</event>
<event>
 8    1  0.1131376E+005  0.1043930E+01  0.7957747E-01            NaN
         13   -1    0    0    0    0  0.00000000000E+00  0.00000000000E+00  0.74505805969E-08  0.10566000000E+00  0.10566000000E+00 0.  1.
     999900   -1    0    0    0    0 -0.00000000000E+00 -0.00000000000E+00 -0.74505805969E-08  0.93827000000E+00  0.93827000000E+00 0. -1.
     999902    2    1    2    0    0 -0.19765285608E-01  0.15890449008E-01 -0.73064113636E-02  0.10175376425E+01  0.10171953094E+01 0.  0.
     999903    2    3    3    0    0 -0.50041325601E-01 -0.11527455472E+00 -0.90796892556E-02  0.12729944896E+00  0.18175580177E-01 0.  0.
         14    1    1    2    0    0  0.19765285608E-01 -0.15890449008E-01  0.73064113636E-02  0.26392357452E-01  0.00000000000E+00 0. -1.
     999901    1    3    3    0    0  0.30276039993E-01  0.13116500373E+00  0.17732778920E-02  0.89023819358E+00  0.88000000000E+00 0.  1.
        -11    1    4    4    0    0 -0.26650597872E-01 -0.71635388858E-01 -0.13386102208E-01  0.77597243232E-01  0.51100000000E-03 0. -1.
         11    1    4    4    0    0 -0.23390727728E-01 -0.43639165866E-01  0.43064129520E-02  0.49702205732E-01  0.51100000000E-03 0.  1.
</event>
<event>
 8    1  0.1131376E+005  0.1043930E+01  0.7957747E-01            NaN
         13   -1    0    0    0    0  0.00000000000E+00  0.00000000000E+00  0.74505805969E-08  0.10566000000E+00  0.10566000000E+00 0. -1.
     999900   -1    0    0    0    0 -0.00000000000E+00 -0.00000000000E+00 -0.74505805969E-08  0.93827000000E+00  0.93827000000E+00 0. -1.
     999902    2    1    2    0    0  0.90654868892E-02  0.21601470150E-01  0.10956974969E-01  0.10180676361E+01  0.10177390873E+01 0.  0.
     999903    2    3    3    0    0 -0.11266335163E-01  0.75908329464E-02 -0.12522311953E+00  0.12725076432E+00  0.18093543137E-01 0.  0.
         14    1    1    2    0    0 -0.90654868892E-02 -0.21601470150E-01 -0.10956974969E-01  0.25862363883E-01  0.00000000000E+00 0.  1.
     999901    1    3    3    0    0  0.20331822053E-01  0.14010637203E-01  0.13618009449E+00  0.89081687180E+00  0.88000000000E+00 0.  1.
        -11    1    4    4    0    0 -0.80224331130E-02  0.13440380565E-01 -0.95880126012E-01  0.97150722837E-01  0.51100000000E-03 0.  1.
         11    1    4    4    0    0 -0.32439020505E-02 -0.58495476184E-02 -0.29342993514E-01  0.30100041482E-01  0.51100000000E-03 0. -1.
</event>
<event>
 8    1  0.1131376E+005  0.1043930E+01  0.7957747E-01            NaN
         13   -1    0    0    0    0  0.00000000000E+00  0.00000000000E+00  0.74505805969E-08  0.10566000000E+00  0.10566000000E+00 0.  1.
     999900   -1    0    0    0    0 -0.00000000000E+00 -0.00000000000E+00 -0.74505805969E-08  0.93827000000E+00  0.93827000000E+00 0. -1.
     999902    2    1    2    0    0 -0.15723221170E-02  0.13290399528E-01 -0.19414401853E-01  0.10203497982E+01  0.10200772936E+01 0.  0.
     999903    2    3    3    0    0 -0.39146668347E-02 -0.48369581290E-01 -0.12150519013E+00  0.13230139365E+00  0.19626678890E-01 0.  0.
         14    1    1    2    0    0  0.15723221170E-02 -0.13290399528E-01  0.19414401853E-01  0.23580201775E-01  0.00000000000E+00 0.  1.
     999901    1    3    3    0    0  0.23423447177E-02  0.61659980818E-01  0.10209078827E+00  0.88804840457E+00  0.88000000000E+00 0.  1.
        -11    1    4    4    0    0 -0.83492170054E-03 -0.57106320238E-02 -0.38401549049E-01  0.38836175181E-01  0.51100000000E-03 0. -1.
         11    1    4    4    0    0 -0.30797451342E-02 -0.42658949267E-01 -0.83103641077E-01  0.93465218471E-01  0.51100000000E-03 0.  1.
</event>
<event>
 8    1  0.1131376E+005  0.1043930E+01  0.7957747E-01            NaN
         13   -1    0    0    0    0  0.00000000000E+00  0.00000000000E+00  0.74505805969E-08  0.10566000000E+00  0.10566000000E+00 0. -1.
     999900   -1    0    0    0    0 -0.00000000000E+00 -0.00000000000E+00 -0.74505805969E-08  0.93827000000E+00  0.93827000000E+00 0.  1.
     999902    2    1    2    0    0 -0.23931988771E-01 -0.96741906788E-02 -0.10816435740E-01  0.10159420502E+01  0.10155564603E+01 0.  0.
     999903    2    3    3    0    0  0.20413326141E-01  0.97506052692E-01 -0.74494252112E-01  0.12604937363E+00  0.20369506578E-01 0.  0.
         14    1    1    2    0    0  0.23931988771E-01  0.96741906788E-02  0.10816435740E-01  0.27987949799E-01  0.00000000000E+00 0. -1.
     999901    1    3    3    0    0 -0.44345314912E-01 -0.10718024337E+00  0.63677816372E-01  0.88989267657E+00  0.88000000000E+00 0. -1.
        -11    1    4    4    0    0  0.14453689061E-01  0.93184064225E-01 -0.68890673979E-01  0.11678341079E+00  0.51100000000E-03 0.  1.
         11    1    4    4    0    0  0.59596370802E-02  0.43219884667E-02 -0.56035781324E-02  0.92659628382E-02  0.51100000000E-03 0. -1.
</event>
<event>
 8    1  0.1131376E+005  0.1043930E+01  0.7957747E-01            NaN
         13   -1    0    0    0    0  0.00000000000E+00  0.00000000000E+00  0.74505805969E-08  0.10566000000E+00  0.10566000000E+00 0.  1.
     999900   -1    0    0    0    0 -0.00000000000E+00 -0.00000000000E+00 -0.74505805969E-08  0.93827000000E+00  0.93827000000E+00 0. -1.
     999902    2    1    2    0    0 -0.13090707144E-01 -0.71805262198E-02 -0.21775508340E-01  0.10175273612E+01  0.10171847578E+01 0.  0.
     999903    2    3    3    0    0 -0.62512360619E-01  0.10309853060E+00  0.36736911281E-01  0.12734329406E+00  0.18155209969E-01 0.  0.
         14    1    1    2    0    0  0.13090707144E-01  0.71805262198E-02  0.21775508340E-01  0.26402638765E-01  0.00000000000E+00 0.  1.
     999901    1    3    3    0    0  0.49421653475E-01 -0.11027905682E+00 -0.58512419621E-01  0.89018406718E+00  0.88000000000E+00 0. -1.
        -11    1    4    4    0    0 -0.38377488975E-01  0.52394977343E-01  0.27052519197E-01  0.70357410603E-01  0.51100000000E-03 0. -1.
         11    1    4    4    0    0 -0.24134871644E-01  0.50703553257E-01  0.96843920842E-02  0.56985883455E-01  0.51100000000E-03 0.  1.
</event>
<event>
 8    1  0.1131376E+005  0.1043930E+01  0.7957747E-01            NaN
         13   -1    0    0    0    0  0.00000000000E+00  0.00000000000E+00  0.74505805969E-08  0.10566000000E+00  0.10566000000E+00 0.  1.
     999900   -1    0    0    0    0 -0.00000000000E+00 -0.00000000000E+00 -0.74505805969E-08  0.93827000000E+00  0.93827000000E+00 0. -1.
     999902    2    1    2    0    0 -0.12228765706E-01  0.11342436248E-01  0.16018951958E-01  0.10208042483E+01  0.10205422642E+01 0.  0.
     999903    2    3    3    0    0  0.22731198135E-01 -0.76847566261E-01 -0.98124684910E-01  0.12837585034E+00  0.20727984778E-01 0.  0.
         14    1    1    2    0    0  0.12228765706E-01 -0.11342436248E-01 -0.16018951958E-01  0.23125751719E-01  0.00000000000E+00 0. -1.
     999901    1    3    3    0    0 -0.34959963841E-01  0.88190002509E-01  0.11414363687E+00  0.89242839794E+00  0.88000000000E+00 0.  1.
        -11    1    4    4    0    0  0.15936776858E-01 -0.33723855246E-01 -0.58703499590E-01  0.69553154166E-01  0.51100000000E-03 0.  1.
         11    1    4    4    0    0  0.67944212776E-02 -0.43123711015E-01 -0.39421185320E-01  0.58822696174E-01  0.51100000000E-03 0. -1.
</event>
<event>
 8    1  0.1131376E+005  0.1043930E+01  0.7957747E-01            NaN
         13   -1    0    0    0    0  0.00000000000E+00  0.00000000000E+00  0.74505805969E-08  0.10566000000E+00  0.10566000000E+00 0. -1.
     999900   -1    0    0    0    0 -0.00000000000E+00 -0.00000000000E+00 -0.74505805969E-08  0.93827000000E+00  0.93827000000E+00 0.  1.
     999902    2    1    2    0    0  0.13620942577E-01 -0.39813494115E-02 -0.18374006503E-01  0.10207139423E+01  0.10204498845E+01 0.  0.
     999903    2    3    3    0    0  0.82261618236E-03 -0.12019382808E+00 -0.49688248186E-01  0.13242923621E+00  0.24926844760E-01 0.  0.
         14    1    1    2    0    0 -0.13620942577E-01  0.39813494115E-02  0.18374006503E-01  0.23216057692E-01  0.00000000000E+00 0. -1.
     999901    1    3    3    0    0  0.12798326394E-01  0.11621247867E+00  0.31314241684E-01  0.88828470610E+00  0.88000000000E+00 0.  1.
        -11    1    4    4    0    0 -0.18399188041E-02 -0.73985307709E-01 -0.17503418041E-01  0.76051573436E-01  0.51100000000E-03 0.  1.
         11    1    4    4    0    0  0.26625349865E-02 -0.46208520369E-01 -0.32184830145E-01  0.56377662773E-01  0.51100000000E-03 0. -1.
</event>
<event>
 8    1  0.1131376E+005  0.1043930E+01  0.7957747E-01            NaN
         13   -1    0    0    0    0  0.00000000000E+00  0.00000000000E+00  0.74505805969E-08  0.10566000000E+00  0.10566000000E+00 0. -1.
     999900   -1    0    0    0    0 -0.00000000000E+00 -0.00000000000E+00 -0.74505805969E-08  0.93827000000E+00  0.93827000000E+00 0. -1.
     999902    2    1    2    0    0 -0.13102080024E-01 -0.15522956361E-01 -0.90243394034E-02  0.10217024186E+01  0.10214606046E+01 0.  0.
     999903    2    3    3    0    0 -0.99840969829E-01  0.76212906951E-01 -0.35973687864E-01  0.13228386073E+00  0.20695099641E-01 0.  0.
         14    1    1    2    0    0  0.13102080024E-01  0.15522956361E-01  0.90243394034E-02  0.22227581443E-01  0.00000000000E+00 0. -1.
     999901    1    3    3    0    0  0.86738889805E-01 -0.91735863311E-01  0.26949348461E-01  0.88941855783E+00  0.88000000000E+00 0.  1.
        -11    1    4    4    0    0 -0.56661010868E-01  0.51470870349E-01 -0.13737314459E-01  0.77773360328E-01  0.51100000000E-03 0. -1.
         11    1    4    4    0    0 -0.43179958961E-01  0.24742036602E-01 -0.22236373405E-01  0.54510500404E-01  0.51100000000E-03 0.  1.
</event>
<event>
 8    1  0.1153139E+005  0.1043930E+01  0.7957747E-01            NaN
         13   -1    0    0    0    0  0.00000000000E+00  0.00000000000E+00  0.74505805969E-08  0.10566000000E+00  0.10566000000E+00 0. -1.
     999900   -1    0    0    0    0 -0.00000000000E+00 -0.00000000000E+00 -0.74505805969E-08  0.93827000000E+00  0.93827000000E+00 0.  1.
     999902    2    1    2    0    0 -0.21336670416E-01 -0.65993362140E-02 -0.12402083948E-01  0.10183836416E+01  0.10180631734E+01 0.  0.
     999903    2    3    3    0    0  0.92620092915E-01 -0.29364974107E-01  0.77952813987E-01  0.12615697431E+00  0.19953887933E-01 0.  0.
         14    1    1    2    0    0  0.21336670416E-01  0.65993362140E-02  0.12402083948E-01  0.25546358433E-01  0.00000000000E+00 0. -1.
     999901    1    3    3    0    0 -0.11395676333E+00  0.22765637893E-01 -0.90354897935E-01  0.89222666725E+00  0.88000000000E+00 0. -1.
        -11    1    4    4    0    0  0.69752029723E-01 -0.13772342978E-01  0.61106029003E-01  0.93750898572E-01  0.51100000000E-03 0.  1.
         11    1    4    4    0    0  0.22868063192E-01 -0.15592631129E-01  0.16846784985E-01  0.32406075742E-01  0.51100000000E-03 0. -1.
</event>
<event>
 8    1  0.1131376E+005  0.1043930E+01  0.7957747E-01            NaN
         13   -1    0    0    0    0  0.00000000000E+00  0.00000000000E+00  0.74505805969E-08  0.10566000000E+00  0.10566000000E+00 0.  1.
     999900   -1    0    0    0    0 -0.00000000000E+00 -0.00000000000E+00 -0.74505805969E-08  0.93827000000E+00  0.93827000000E+00 0.  1.
     999902    2    1    2    0    0 -0.68834742477E-02 -0.40095977170E-02 -0.22151921101E-01  0.10203892545E+01  0.10201176716E+01 0.  0.
     999903    2    3    3    0    0  0.34729573925E-01  0.12092877551E+00  0.23040399306E-01  0.12944392017E+00  0.19873510468E-01 0.  0.
         14    1    1    2    0    0  0.68834742477E-02  0.40095977170E-02  0.22151921101E-01  0.23540745529E-01  0.00000000000E+00 0.  1.
     999901    1    3    3    0    0 -0.41613048172E-01 -0.12493837323E+00 -0.45192320407E-01  0.89094533430E+00  0.88000000000E+00 0. -1.
        -11    1    4    4    0    0  0.47126783761E-02  0.11272523122E-01  0.83492683722E-02  0.14807110399E-01  0.51100000000E-03 0.  1.
         11    1    4    4    0    0  0.30016895548E-01  0.10965625239E+00  0.14691130934E-01  0.11463680977E+00  0.51100000000E-03 0. -1.
</event>
<event>
 8    1  0.1131376E+005  0.1043930E+01  0.7957747E-01            NaN
         13   -1    0    0    0    0  0.00000000000E+00  0.00000000000E+00  0.74505805969E-08  0.10566000000E+00  0.10566000000E+00 0. -1.
     999900   -1    0    0    0    0 -0.00000000000E+00 -0.00000000000E+00 -0.74505805969E-08  0.93827000000E+00  0.93827000000E+00 0. -1.
     999902    2    1    2    0    0 -0.23003936839E-01 -0.19499471984E-02 -0.49027275322E-02  0.10203287259E+01  0.10200557282E+01 0.  0.
     999903    2    3    3    0    0 -0.11510028146E+00  0.30058878201E-01 -0.57642919178E-01  0.13337448272E+00  0.17732330858E-01 0.  0.
         14    1    1    2    0    0  0.23003936839E-01  0.19499471984E-02  0.49027275322E-02  0.23601274148E-01  0.00000000000E+00 0. -1.
     999901    1    3    3    0    0  0.92096344624E-01 -0.32008825400E-01  0.52740191646E-01  0.88695424313E+00  0.88000000000E+00 0.  1.
        -11    1    4    4    0    0 -0.52032165242E-01  0.15326653450E-01 -0.35924444863E-01  0.65062119435E-01  0.51100000000E-03 0.  1.
         11    1    4    4    0    0 -0.63068116221E-01  0.14732224751E-01 -0.21718474315E-01  0.68312363284E-01  0.51100000000E-03 0. -1.
</event>
<event>
 8    1  0.1131376E+005  0.1043930E+01  0.7957747E-01            NaN
         13   -1    0    0    0    0  0.00000000000E+00  0.00000000000E+00  0.74505805969E-08  0.10566000000E+00  0.10566000000E+00 0. -1.
     999900   -1    0    0    0    0 -0.00000000000E+00 -0.00000000000E+00 -0.74505805969E-08  0.93827000000E+00  0.93827000000E+00 0. -1.
     999902    2    1    2    0    0 -0.25877604926E-02 -0.23804701669E-01 -0.10561751452E-01  0.10177591972E+01  0.10174226617E+01 0.  0.
     999903    2    3    3    0    0  0.84585125453E-02  0.12329498184E+00 -0.92157433151E-02  0.12548000951E+00  0.19674955677E-01 0.  0.
         14    1    1    2    0    0  0.25877604926E-02  0.23804701669E-01  0.10561751452E-01  0.26170802808E-01  0.00000000000E+00 0. -1.
     999901    1    3    3    0    0 -0.11046273038E-01 -0.14709968350E+00 -0.13460081371E-02  0.89227918768E+00  0.88000000000E+00 0. -1.
        -11    1    4    4    0    0  0.10620053455E-01  0.74950758093E-01 -0.13500218415E-01  0.76895505021E-01  0.51100000000E-03 0.  1.
         11    1    4    4    0    0 -0.21615409095E-02  0.48344223743E-01  0.42844751004E-02  0.48584504487E-01  0.51100000000E-03 0. -1.
</event>
<event>
 8    1  0.1131376E+005  0.1043930E+01  0.7957747E-01            NaN
         13   -1    0    0    0    0  0.00000000000E+00  0.00000000000E+00  0.74505805969E-08  0.10566000000E+00  0.10566000000E+00 0.  1.
     999900   -1    0    0    0    0 -0.00000000000E+00 -0.00000000000E+00 -0.74505805969E-08  0.93827000000E+00  0.93827000000E+00 0.  1.
     999902    2    1    2    0    0 -0.83062216058E-02  0.53163571672E-02 -0.20406818163E-01  0.10212651550E+01  0.10210136246E+01 0.  0.
     999903    2    3    3    0    0  0.64552792026E-01  0.89226931793E-01 -0.71383584513E-01  0.13281253888E+00  0.20372678524E-01 0.  0.
         14    1    1    2    0    0  0.83062216058E-02 -0.53163571672E-02  0.20406818163E-01  0.22664844990E-01  0.00000000000E+00 0.  1.
     999901    1    3    3    0    0 -0.72859013631E-01 -0.83910574625E-01  0.50976766351E-01  0.88845261613E+00  0.88000000000E+00 0. -1.
        -11    1    4    4    0    0  0.40447876050E-01  0.67607419593E-01 -0.43027982912E-01  0.89768938367E-01  0.51100000000E-03 0. -1.
         11    1    4    4    0    0  0.24104915976E-01  0.21619512199E-01 -0.28355601602E-01  0.43043600513E-01  0.51100000000E-03 0.  1.
</event>
<event>
 8    1  0.1131376E+005  0.1043930E+01  0.7957747E-01            NaN
         13   -1    0    0    0    0  0.00000000000E+00  0.00000000000E+00  0.74505805969E-08  0.10566000000E+00  0.10566000000E+00 0.  1.
     999900   -1    0    0    0    0 -0.00000000000E+00 -0.00000000000E+00 -0.74505805969E-08  0.93827000000E+00  0.93827000000E+00 0. -1.
     999902    2    1    2    0    0  0.64207302786E-02  0.23458709375E-01 -0.46368838612E-02  0.10191704056E+01  0.10188696080E+01 0.  0.
     999903    2    3    3    0    0 -0.10991829283E+00 -0.20807221747E-01 -0.60999640223E-01  0.12862506635E+00  0.17563599052E-01 0.  0.
         14    1    1    2    0    0 -0.64207302786E-02 -0.23458709375E-01  0.46368838612E-02  0.24759594399E-01  0.00000000000E+00 0.  1.
     999901    1    3    3    0    0  0.11633902311E+00  0.44265931122E-01  0.56362756362E-01  0.89054533925E+00  0.88000000000E+00 0. -1.
        -11    1    4    4    0    0 -0.95367781970E-01 -0.22244098912E-01 -0.57572845509E-01  0.11359888835E+00  0.51100000000E-03 0. -1.
         11    1    4    4    0    0 -0.14550510856E-01  0.14368771654E-02 -0.34267947145E-02  0.15026177997E-01  0.51100000000E-03 0.  1.
</event>
<event>
 8    1  0.1131376E+005  0.1043930E+01  0.7957747E-01            NaN
         13   -1    0    0    0    0  0.00000000000E+00  0.00000000000E+00  0.74505805969E-08  0.10566000000E+00  0.10566000000E+00 0.  1.
     999900   -1    0    0    0    0 -0.00000000000E+00 -0.00000000000E+00 -0.74505805969E-08  0.93827000000E+00  0.93827000000E+00 0. -1.
     999902    2    1    2    0    0  0.20300290773E-02  0.18820302736E-01  0.12408171372E-01  0.10212962303E+01  0.10210453969E+01 0.  0.
     999903    2    3    3    0    0 -0.11442233427E+00  0.56813946178E-01 -0.17854098435E-01  0.13229652568E+00  0.29382083259E-01 0.  0.
         14    1    1    2    0    0 -0.20300290773E-02 -0.18820302736E-01 -0.12408171372E-01  0.22633769680E-01  0.00000000000E+00 0. -1.
     999901    1    3    3    0    0  0.11645236335E+00 -0.37993643442E-01  0.30262269807E-01  0.88899970464E+00  0.88000000000E+00 0.  1.
        -11    1    4    4    0    0 -0.93741001103E-02  0.62413511386E-02 -0.10612811685E-01  0.15482929625E-01  0.51100000000E-03 0. -1.
         11    1    4    4    0    0 -0.10504823416E+00  0.50572595039E-01 -0.72412867502E-02  0.11681359606E+00  0.51100000000E-03 0.  1.
</event>
<event>
 7    1  0.1131376E+005  0.1043930E+01  0.7957747E-01            NaN
         13   -1    0    0    0    0  0.00000000000E+00  0.00000000000E+00  0.74505805969E-08  0.10566000000E+00  0.10566000000E+00 0.  1.
     999900   -1    0    0    0    0 -0.00000000000E+00 -0.00000000000E+00 -0.74505805969E-08  0.93827000000E+00  0.93827000000E+00 0. -1.
     999902    2    1    2    0    0 -0.24072618420E-02 -0.22954872974E-01 -0.46733285498E-02  0.10203808789E+01  0.10201091005E+01 0.  0.
         14    1    1    2    0    0  0.24072618420E-02  0.22954872974E-01  0.46733285498E-02  0.23549121057E-01  0.00000000000E+00 0. -1.
     999901    1    3    3    0    0  0.45503694441E-01  0.69484696466E-01 -0.68980597371E-01  0.88659857436E+00  0.88000000000E+00 0.  1.
        -11    1    3    3    0    0 -0.53535239950E-01 -0.68083091049E-01  0.30693769818E-01  0.91889595874E-01  0.51100000000E-03 0. -1.
         11    1    3    3    0    0  0.56242836669E-02 -0.24356478391E-01  0.33613499004E-01  0.41892708705E-01  0.51100000000E-03 0.  1.
</event>
<event>
 8    1  0.1131376E+005  0.1043930E+01  0.7957747E-01            NaN
         13   -1    0    0    0    0  0.00000000000E+00  0.00000000000E+00  0.74505805969E-08  0.10566000000E+00  0.10566000000E+00 0.  1.
     999900   -1    0    0    0    0 -0.00000000000E+00 -0.00000000000E+00 -0.74505805969E-08  0.93827000000E+00  0.93827000000E+00 0. -1.
     999902    2    1    2    0    0  0.71610996749E-03  0.21872256970E-01 -0.63135511017E-02  0.10211534909E+01  0.10208994479E+01 0.  0.
     999903    2    3    3    0    0 -0.84611416534E-01 -0.53848796949E-01 -0.81351524979E-01  0.13062265916E+00  0.19632211519E-01 0.  0.
         14    1    1    2    0    0 -0.71610996749E-03 -0.21872256970E-01  0.63135511017E-02  0.22776509082E-01  0.00000000000E+00 0.  1.
     999901    1    3    3    0    0  0.85327526501E-01  0.75721053919E-01  0.75037973878E-01  0.89053083176E+00  0.88000000000E+00 0. -1.
        -11    1    4    4    0    0 -0.32122727812E-01 -0.21193785886E-01 -0.43731689720E-01  0.58256055556E-01  0.51100000000E-03 0. -1.
         11    1    4    4    0    0 -0.52488688722E-01 -0.32655011063E-01 -0.37619835259E-01  0.72366603605E-01  0.51100000000E-03 0.  1.
</event>
<event>
 8    1  0.1131376E+005  0.1043930E+01  0.7957747E-01            NaN
         13   -1    0    0    0    0  0.00000000000E+00  0.00000000000E+00  0.74505805969E-08  0.10566000000E+00  0.10566000000E+00 0. -1.
     999900   -1    0    0    0    0 -0.00000000000E+00 -0.00000000000E+00 -0.74505805969E-08  0.93827000000E+00  0.93827000000E+00 0. -1.
     999902    2    1    2    0    0  0.13357031477E-01  0.95258854328E-02  0.16336895809E-01  0.10207773123E+01  0.10205147105E+01 0.  0.
     999903    2    3    3    0    0  0.10287946058E+00  0.81296077960E-01 -0.95113563561E-02  0.13295224057E+00  0.19814052368E-01 0.  0.
         14    1    1    2    0    0 -0.13357031477E-01 -0.95258854328E-02 -0.16336895809E-01  0.23152687702E-01  0.00000000000E+00 0.  1.
     999901    1    3    3    0    0 -0.89522429108E-01 -0.71770192527E-01  0.25848252165E-01  0.88782507173E+00  0.88000000000E+00 0.  1.
        -11    1    4    4    0    0  0.18293985824E-01  0.24912652499E-01 -0.79244721613E-03  0.30922471852E-01  0.51100000000E-03 0.  1.
         11    1    4    4    0    0  0.84585474760E-01  0.56383425461E-01 -0.87189091400E-02  0.10202976872E+00  0.51100000000E-03 0. -1.
</event>
<event>
 8    1  0.1131376E+005  0.1043930E+01  0.7957747E-01            NaN
         13   -1    0    0    0    0  0.00000000000E+00  0.00000000000E+00  0.74505805969E-08  0.10566000000E+00  0.10566000000E+00 0.  1.
     999900   -1    0    0    0    0 -0.00000000000E+00 -0.00000000000E+00 -0.74505805969E-08  0.93827000000E+00  0.93827000000E+00 0.  1.
     999902    2    1    2    0    0 -0.12875708546E-01  0.22236105041E-01  0.79864618932E-02  0.10170225324E+01  0.10166665233E+01 0.  0.
     999903    2    3    3    0    0 -0.76689684763E-01  0.86090055281E-01 -0.56770379363E-01  0.13003718924E+00  0.19849162353E-01 0.  0.
         14    1    1    2    0    0  0.12875708546E-01 -0.22236105041E-01 -0.79864618932E-02  0.26907467579E-01  0.00000000000E+00 0.  1.
     999901    1    3    3    0    0  0.63813976217E-01 -0.63853950240E-01  0.64756841256E-01  0.88698534318E+00  0.88000000000E+00 0.  1.
        -11    1    4    4    0    0 -0.57970871868E-02  0.14466520874E-01 -0.12411439134E-01  0.19929661021E-01  0.51100000000E-03 0.  1.
         11    1    4    4    0    0 -0.70892597576E-01  0.71623534407E-01 -0.44358940229E-01  0.11010752822E+00  0.51100000000E-03 0. -1.
</event>
<event>
 8    1  0.1131376E+005  0.1043930E+01  0.7957747E-01            NaN
         13   -1    0    0    0    0  0.00000000000E+00  0.00000000000E+00  0.74505805969E-08  0.10566000000E+00  0.10566000000E+00 0.  1.
     999900   -1    0    0    0    0 -0.00000000000E+00 -0.00000000000E+00 -0.74505805969E-08  0.93827000000E+00  0.93827000000E+00 0.  1.
     999902    2    1    2    0    0  0.82101146941E-02  0.20925481874E-01  0.70483129665E-02  0.10203724006E+01  0.10201004242E+01 0.  0.
     999903    2    3    3    0    0 -0.82251421532E-01  0.59614107283E-01 -0.79989575013E-01  0.13062204614E+00  0.18564716433E-01 0.  0.
         14    1    1    2    0    0 -0.82101146941E-02 -0.20925481874E-01 -0.70483129665E-02  0.23557599424E-01  0.00000000000E+00 0. -1.
     999901    1    3    3    0    0  0.90461536226E-01 -0.38688625410E-01  0.87037887979E-01  0.88975035443E+00  0.88000000000E+00 0. -1.
        -11    1    4    4    0    0 -0.30974454694E-02 -0.29702212567E-03 -0.31611952957E-04  0.31534918574E-02  0.51100000000E-03 0.  1.
         11    1    4    4    0    0 -0.79153976063E-01  0.59911129409E-01 -0.79957963060E-01  0.12746855428E+00  0.51100000000E-03 0. -1.
</event>
<event>
 8    1  0.1131376E+005  0.1043930E+01  0.7957747E-01            NaN
         13   -1    0    0    0    0  0.00000000000E+00  0.00000000000E+00  0.74505805969E-08  0.10566000000E+00  0.10566000000E+00 0. -1.
     999900   -1    0    0    0    0 -0.00000000000E+00 -0.00000000000E+00 -0.74505805969E-08  0.93827000000E+00  0.93827000000E+00 0.  1.
     999902    2    1    2    0    0 -0.23010819577E-01 -0.53605862301E-02  0.20419980053E-02  0.10202149529E+01  0.10199392858E+01 0.  0.
     999903    2    3    3    0    0  0.85374399209E-01  0.92405724964E-01 -0.12379140018E-01  0.12807506676E+00  0.20551729138E-01 0.  0.
         14    1    1    2    0    0  0.23010819577E-01  0.53605862301E-02 -0.20419980053E-02  0.23715047084E-01  0.00000000000E+00 0.  1.
     999901    1    3    3    0    0 -0.10838521879E+00 -0.97766311194E-01  0.14421138023E-01  0.89213988616E+00  0.88000000000E+00 0.  1.
        -11    1    4    4    0    0  0.79808005684E-01  0.76833240286E-01 -0.12829253926E-01  0.11152360944E+00  0.51100000000E-03 0. -1.
         11    1    4    4    0    0  0.55663935249E-02  0.15572484678E-01  0.45011390825E-03  0.16551457321E-01  0.51100000000E-03 0.  1.
</event>
<event>
 8    1  0.1131376E+005  0.1043930E+01  0.7957747E-01            NaN
         13   -1    0    0    0    0  0.00000000000E+00  0.00000000000E+00  0.74505805969E-08  0.10566000000E+00  0.10566000000E+00 0. -1.
     999900   -1    0    0    0    0 -0.00000000000E+00 -0.00000000000E+00 -0.74505805969E-08  0.93827000000E+00  0.93827000000E+00 0. -1.
     999902    2    1    2    0    0 -0.90605515880E-02 -0.25051092354E-01  0.21767333945E-03  0.10172898385E+01  0.10169409606E+01 0.  0.
     999903    2    3    3    0    0 -0.15110442484E-01  0.36321186412E-01  0.11982304456E+00  0.12706031607E+00  0.15466345995E-01 0.  0.
         14    1    1    2    0    0  0.90605515880E-02  0.25051092354E-01 -0.21767333945E-03  0.26640161503E-01  0.00000000000E+00 0.  1.
     999901    1    3    3    0    0  0.60498908962E-02 -0.61372278766E-01 -0.11960537122E+00  0.89022952243E+00  0.88000000000E+00 0. -1.
        -11    1    4    4    0    0 -0.15918021313E-01  0.32686335564E-01  0.91029230685E-01  0.98022252041E-01  0.51100000000E-03 0. -1.
         11    1    4    4    0    0  0.80757882878E-03  0.36348508484E-02  0.28793813871E-01  0.29038064028E-01  0.51100000000E-03 0.  1.
</event>
<event>
 8    1  0.1131376E+005  0.1043930E+01  0.7957747E-01            NaN
         13   -1    0    0    0    0  0.00000000000E+00  0.00000000000E+00  0.74505805969E-08  0.10566000000E+00  0.10566000000E+00 0. -1.
     999900   -1    0    0    0    0 -0.00000000000E+00 -0.00000000000E+00 -0.74505805969E-08  0.93827000000E+00  0.93827000000E+00 0. -1.
     999902    2    1    2    0    0  0.31442609205E-02 -0.19831298675E-01 -0.12681566330E-01  0.10201815493E+01  0.10199050959E+01 0.  0.
     999903    2    3    3    0    0 -0.40170655342E-01 -0.12860591912E-01  0.12065060517E+00  0.12905740497E+00  0.17893263400E-01 0.  0.
         14    1    1    2    0    0 -0.31442609205E-02  0.19831298675E-01  0.12681566330E-01  0.23748450654E-01  0.00000000000E+00 0. -1.
     999901    1    3    3    0    0  0.43314916263E-01 -0.69707067632E-02 -0.13333217150E+00  0.89112414437E+00  0.88000000000E+00 0. -1.
        -11    1    4    4    0    0 -0.27688103880E-01 -0.48383561065E-02  0.55227508787E-01  0.61970796623E-01  0.51100000000E-03 0. -1.
         11    1    4    4    0    0 -0.12482551462E-01 -0.80222358055E-02  0.65423096386E-01  0.67086608351E-01  0.51100000000E-03 0.  1.
</event>
<event>
 8    1  0.1131376E+005  0.1043930E+01  0.7957747E-01            NaN
         13   -1    0    0    0    0  0.00000000000E+00  0.00000000000E+00  0.74505805969E-08  0.10566000000E+00  0.10566000000E+00 0.  1.
     999900   -1    0    0    0    0 -0.00000000000E+00 -0.00000000000E+00 -0.74505805969E-08  0.93827000000E+00  0.93827000000E+00 0. -1.
     999902    2    1    2    0    0 -0.45553788709E-02 -0.24904500022E-02  0.29104341835E-01  0.10143662294E+01  0.10139353189E+01 0.  0.
     999903    2    3    3    0    0  0.96438559932E-01 -0.38026829261E-01 -0.62634825114E-01  0.12314308974E+00  0.22241035243E-01 0.  0.
         14    1    1    2    0    0  0.45553788709E-02  0.24904500022E-02 -0.29104341835E-01  0.29563770591E-01  0.00000000000E+00 0. -1.
     999901    1    3    3    0    0 -0.10099393880E+00  0.35536379258E-01  0.91739166949E-01  0.89122313967E+00  0.88000000000E+00 0.  1.
        -11    1    4    4    0    0  0.42508739515E-01 -0.51110707693E-02 -0.24051141975E-01  0.49110431997E-01  0.51100000000E-03 0.  1.
         11    1    4    4    0    0  0.53929820417E-01 -0.32915758491E-01 -0.38583683139E-01  0.74032657746E-01  0.51100000000E-03 0. -1.
</event>
<event>
 8    1  0.1131376E+005  0.1043930E+01  0.7957747E-01            NaN
         13   -1    0    0    0    0  0.00000000000E+00  0.00000000000E+00  0.74505805969E-08  0.10566000000E+00  0.10566000000E+00 0.  1.
     999900   -1    0    0    0    0 -0.00000000000E+00 -0.00000000000E+00 -0.74505805969E-08  0.93827000000E+00  0.93827000000E+00 0.  1.
     999902    2    1    2    0    0 -0.21809079207E-01 -0.18172933498E-02 -0.99379875120E-02  0.10198945660E+01  0.10196113101E+01 0.  0.
     999903    2    3    3    0    0  0.83831374443E-01 -0.49982678327E-01 -0.82521646244E-01  0.12930588583E+00  0.19601595306E-01 0.  0.
         14    1    1    2    0    0  0.21809079207E-01  0.18172933498E-02  0.99379875120E-02  0.24035433983E-01  0.00000000000E+00 0.  1.
     999901    1    3    3    0    0 -0.10564045365E+00  0.48165384977E-01  0.72583658732E-01  0.89058868018E+00  0.88000000000E+00 0. -1.
        -11    1    4    4    0    0  0.24651167524E-01 -0.20459259291E-01 -0.17269828491E-01  0.36397382436E-01  0.51100000000E-03 0.  1.
         11    1    4    4    0    0  0.59180206919E-01 -0.29523419035E-01 -0.65251817752E-01  0.92908503397E-01  0.51100000000E-03 0. -1.
</event>
<event>
 8    1  0.1131376E+005  0.1043930E+01  0.7957747E-01            NaN
         13   -1    0    0    0    0  0.00000000000E+00  0.00000000000E+00  0.74505805969E-08  0.10566000000E+00  0.10566000000E+00 0.  1.
     999900   -1    0    0    0    0 -0.00000000000E+00 -0.00000000000E+00 -0.74505805969E-08  0.93827000000E+00  0.93827000000E+00 0. -1.
     999902    2    1    2    0    0  0.77955707076E-02 -0.23719502603E-01 -0.15781012229E-02  0.10189124835E+01  0.10186053078E+01 0.  0.
     999903    2    3    3    0    0 -0.72536528308E-01 -0.10553039623E+00  0.20328661045E-01  0.13120409973E+00  0.20076076798E-01 0.  0.
         14    1    1    2    0    0 -0.77955707076E-02  0.23719502603E-01  0.15781012229E-02  0.25017516460E-01  0.00000000000E+00 0. -1.
     999901    1    3    3    0    0  0.80332099016E-01  0.81810893626E-01 -0.21906762268E-01  0.88770838381E+00  0.88000000000E+00 0. -1.
        -11    1    4    4    0    0 -0.29644920110E-01 -0.32696230334E-01 -0.53397771438E-03  0.44140809005E-01  0.51100000000E-03 0. -1.
         11    1    4    4    0    0 -0.42891608198E-01 -0.72834165894E-01  0.20862638760E-01  0.87063290728E-01  0.51100000000E-03 0.  1.
</event>
<event>
 8    1  0.1131376E+005  0.1043930E+01  0.7957747E-01            NaN
         13   -1    0    0    0    0  0.00000000000E+00  0.00000000000E+00  0.74505805969E-08  0.10566000000E+00  0.10566000000E+00 0. -1.
     999900   -1    0    0    0    0 -0.00000000000E+00 -0.00000000000E+00 -0.74505805969E-08  0.93827000000E+00  0.93827000000E+00 0. -1.
     999902    2    1    2    0    0 -0.11550333375E-01 -0.19719813749E-01  0.64831830265E-03  0.10210673324E+01  0.10208113418E+01 0.  0.
     999903    2    3    3    0    0 -0.18207739484E-01 -0.12794873558E+00 -0.28934440558E-01  0.13391855103E+00  0.19863930814E-01 0.  0.
         14    1    1    2    0    0  0.11550333375E-01  0.19719813749E-01 -0.64831830265E-03  0.22862667648E-01  0.00000000000E+00 0. -1.
     999901    1    3    3    0    0  0.66574061090E-02  0.10822892183E+00  0.29582758861E-01  0.88714878132E+00  0.88000000000E+00 0.  1.
        -11    1    4    4    0    0  0.42200010659E-02 -0.18223509808E-01 -0.54164626968E-02  0.19480860039E-01  0.51100000000E-03 0. -1.
         11    1    4    4    0    0 -0.22427740550E-01 -0.10972522577E+00 -0.23517977861E-01  0.11443769099E+00  0.51100000000E-03 0.  1.
</event>
<event>
 8    1  0.1131376E+005  0.1043930E+01  0.7957747E-01            NaN
         13   -1    0    0    0    0  0.00000000000E+00  0.00000000000E+00  0.74505805969E-08  0.10566000000E+00  0.10566000000E+00 0.  1.
     999900   -1    0    0    0    0 -0.00000000000E+00 -0.00000000000E+00 -0.74505805969E-08  0.93827000000E+00  0.93827000000E+00 0. -1.
     999902    2    1    2    0    0  0.83256739601E-02 -0.21675241420E-01 -0.17841874622E-02  0.10206423152E+01  0.10203766066E+01 0.  0.
     999903    2    3    3    0    0 -0.42406935767E-01 -0.11780740452E+00  0.39831761758E-01  0.13297848375E+00  0.20488414649E-01 0.  0.
         14    1    1    2    0    0 -0.83256739601E-02  0.21675241420E-01  0.17841874622E-02  0.23287684780E-01  0.00000000000E+00 0.  1.
     999901    1    3    3    0    0  0.50732609727E-01  0.96132163100E-01 -0.41615949220E-01  0.88766383147E+00  0.88000000000E+00 0. -1.
        -11    1    4    4    0    0 -0.33543609065E-01 -0.91904912520E-01  0.21929784683E-01  0.10026396776E+00  0.51100000000E-03 0.  1.
         11    1    4    4    0    0 -0.88633267019E-02 -0.25902491999E-01  0.17901977075E-01  0.32714515986E-01  0.51100000000E-03 0. -1.
</event>
<event>
 8    1  0.1131376E+005  0.1043930E+01  0.7957747E-01            NaN
         13   -1    0    0    0    0  0.00000000000E+00  0.00000000000E+00  0.74505805969E-08  0.10566000000E+00  0.10566000000E+00 0.  1.
     999900   -1    0    0    0    0 -0.00000000000E+00 -0.00000000000E+00 -0.74505805969E-08  0.93827000000E+00  0.93827000000E+00 0. -1.
     999902    2    1    2    0    0 -0.23132147543E-01  0.61658285709E-03  0.44923400334E-02  0.10203576106E+01  0.10200852885E+01 0.  0.
     999903    2    3    3    0    0  0.72392745621E-01 -0.83130023316E-01 -0.63279458505E-01  0.12865613814E+00  0.19919879951E-01 0.  0.
         14    1    1    2    0    0  0.23132147543E-01 -0.61658285709E-03 -0.44923400334E-02  0.23572389428E-01  0.00000000000E+00 0. -1.
     999901    1    3    3    0    0 -0.95524893165E-01  0.83746606173E-01  0.67771798539E-01  0.89170147243E+00  0.88000000000E+00 0.  1.
        -11    1    4    4    0    0  0.42909354485E-01 -0.41560178318E-01 -0.43878910757E-01  0.74122068606E-01  0.51100000000E-03 0. -1.
         11    1    4    4    0    0  0.29483391136E-01 -0.41569844998E-01 -0.19400547748E-01  0.54534069534E-01  0.51100000000E-03 0.  1.
</event>
<event>
 8    1  0.1131376E+005  0.1043930E+01  0.7957747E-01            NaN
         13   -1    0    0    0    0  0.00000000000E+00  0.00000000000E+00  0.74505805969E-08  0.10566000000E+00  0.10566000000E+00 0.  1.
     999900   -1    0    0    0    0 -0.00000000000E+00 -0.00000000000E+00 -0.74505805969E-08  0.93827000000E+00  0.93827000000E+00 0. -1.
     999902    2    1    2    0    0 -0.32789380642E-02 -0.22449570838E-01  0.47280745931E-02  0.10207548117E+01  0.10204916933E+01 0.  0.
     999903    2    3    3    0    0 -0.95599993881E-01  0.36449616642E-01  0.79054883004E-01  0.13085775801E+00  0.20153037510E-01 0.  0.
         14    1    1    2    0    0  0.32789380642E-02  0.22449570838E-01 -0.47280745931E-02  0.23175188349E-01  0.00000000000E+00 0.  1.
     999901    1    3    3    0    0  0.92321055817E-01 -0.58899187480E-01 -0.74326808411E-01  0.88989705364E+00  0.88000000000E+00 0.  1.
        -11    1    4    4    0    0 -0.79000851595E-01  0.26552046840E-01  0.54403084737E-01  0.99529405173E-01  0.51100000000E-03 0. -1.
         11    1    4    4    0    0 -0.16599142286E-01  0.98975698014E-02  0.24651798267E-01  0.31328352836E-01  0.51100000000E-03 0.  1.
</event>
<event>
 8    1  0.1131376E+005  0.1043930E+01  0.7957747E-01            NaN
         13   -1    0    0    0    0  0.00000000000E+00  0.00000000000E+00  0.74505805969E-08  0.10566000000E+00  0.10566000000E+00 0. -1.
     999900   -1    0    0    0    0 -0.00000000000E+00 -0.00000000000E+00 -0.74505805969E-08  0.93827000000E+00  0.93827000000E+00 0.  1.
     999902    2    1    2    0    0 -0.47538427915E-02 -0.21998819494E-01 -0.65473982772E-02  0.10204903860E+01  0.10202211586E+01 0.  0.
     999903    2    3    3    0    0 -0.87178848233E-01 -0.47794761873E-01 -0.85725845597E-01  0.13272434774E+00  0.19553542835E-01 0.  0.
         14    1    1    2    0    0  0.47538427915E-02  0.21998819494E-01  0.65473982772E-02  0.23439614004E-01  0.00000000000E+00 0. -1.
     999901    1    3    3    0    0  0.82425005441E-01  0.25795942378E-01  0.79178447320E-01  0.88776603826E+00  0.88000000000E+00 0. -1.
        -11    1    4    4    0    0 -0.68265312736E-01 -0.45606218037E-01 -0.66400395164E-01  0.10559049979E+00  0.51100000000E-03 0. -1.
         11    1    4    4    0    0 -0.18913535497E-01 -0.21885438358E-02 -0.19325450433E-01  0.27133847950E-01  0.51100000000E-03 0.  1.
</event>
<event>
 8    1  0.1131376E+005  0.1043930E+01  0.7957747E-01            NaN
         13   -1    0    0    0    0  0.00000000000E+00  0.00000000000E+00  0.74505805969E-08  0.10566000000E+00  0.10566000000E+00 0.  1.
     999900   -1    0    0    0    0 -0.00000000000E+00 -0.00000000000E+00 -0.74505805969E-08  0.93827000000E+00  0.93827000000E+00 0.  1.
     999902    2    1    2    0    0  0.86009792803E-02  0.92440119304E-03  0.23575426432E-01  0.10188176108E+01  0.10185080716E+01 0.  0.
     999903    2    3    3    0    0 -0.98440808788E-01 -0.20663817000E-02 -0.77126904635E-01  0.12662489129E+00  0.19759577638E-01 0.  0.
         14    1    1    2    0    0 -0.86009792803E-02 -0.92440119304E-03 -0.23575426432E-01  0.25112389245E-01  0.00000000000E+00 0. -1.
     999901    1    3    3    0    0  0.10704178807E+00  0.29907828930E-02  0.10070233107E+00  0.89219271946E+00  0.88000000000E+00 0. -1.
        -11    1    4    4    0    0 -0.40748873632E-01 -0.99883126617E-02 -0.28085182213E-01  0.50490352277E-01  0.51100000000E-03 0. -1.
         11    1    4    4    0    0 -0.57691935156E-01  0.79219309618E-02 -0.49041722422E-01  0.76134539017E-01  0.51100000000E-03 0.  1.
</event>
<event>
 8    1  0.1131376E+005  0.1043930E+01  0.7957747E-01            NaN
         13   -1    0    0    0    0  0.00000000000E+00  0.00000000000E+00  0.74505805969E-08  0.10566000000E+00  0.10566000000E+00 0. -1.
     999900   -1    0    0    0    0 -0.00000000000E+00 -0.00000000000E+00 -0.74505805969E-08  0.93827000000E+00  0.93827000000E+00 0. -1.
     999902    2    1    2    0    0  0.11931877067E-01 -0.16499869479E-01 -0.10683920323E-01  0.10209351846E+01  0.10206761923E+01 0.  0.
     999903    2    3    3    0    0 -0.81603924020E-01 -0.79341793284E-01  0.61394199284E-01  0.13082659075E+00  0.19799711209E-01 0.  0.
         14    1    1    2    0    0 -0.11931877067E-01  0.16499869479E-01  0.10683920323E-01  0.22994815429E-01  0.00000000000E+00 0. -1.
     999901    1    3    3    0    0  0.93535801086E-01  0.62841923804E-01 -0.72078119607E-01  0.89010859382E+00  0.88000000000E+00 0. -1.
        -11    1    4    4    0    0 -0.62605061626E-01 -0.50779929577E-01  0.49072664042E-01  0.94373632262E-01  0.51100000000E-03 0. -1.
         11    1    4    4    0    0 -0.18998862393E-01 -0.28561863706E-01  0.12321535243E-01  0.36452958486E-01  0.51100000000E-03 0.  1.
</event>
<event>
 8    1  0.1131376E+005  0.1043930E+01  0.7957747E-01            NaN
         13   -1    0    0    0    0  0.00000000000E+00  0.00000000000E+00  0.74505805969E-08  0.10566000000E+00  0.10566000000E+00 0. -1.
     999900   -1    0    0    0    0 -0.00000000000E+00 -0.00000000000E+00 -0.74505805969E-08  0.93827000000E+00  0.93827000000E+00 0. -1.
     999902    2    1    2    0    0  0.20857981468E-01  0.91556830024E-02  0.45861424314E-02  0.10206939370E+01  0.10204294186E+01 0.  0.
     999903    2    3    3    0    0 -0.10943620659E+00  0.63353665347E-01  0.19210999113E-01  0.12933100127E+00  0.19169642037E-01 0.  0.
         14    1    1    2    0    0 -0.20857981468E-01 -0.91556830024E-02 -0.45861424314E-02  0.23236063018E-01  0.00000000000E+00 0.  1.
     999901    1    3    3    0    0  0.13029418806E+00 -0.54197982345E-01 -0.14624856682E-01  0.89136293571E+00  0.88000000000E+00 0.  1.
        -11    1    4    4    0    0 -0.78174721716E-01  0.50108436198E-01  0.21448468432E-01  0.95301838454E-01  0.51100000000E-03 0. -1.
         11    1    4    4    0    0 -0.31261484876E-01  0.13245229149E-01 -0.22374693190E-02  0.34029162814E-01  0.51100000000E-03 0.  1.
</event>
<event>
 8    1  0.1131376E+005  0.1043930E+01  0.7957747E-01            NaN
         13   -1    0    0    0    0  0.00000000000E+00  0.00000000000E+00  0.74505805969E-08  0.10566000000E+00  0.10566000000E+00 0. -1.
     999900   -1    0    0    0    0 -0.00000000000E+00 -0.00000000000E+00 -0.74505805969E-08  0.93827000000E+00  0.93827000000E+00 0. -1.
     999902    2    1    2    0    0  0.10177687903E-03 -0.17917446749E-01 -0.11216274441E-01  0.10227911715E+01  0.10225727018E+01 0.  0.
     999903    2    3    3    0    0  0.26030936898E-01 -0.62454658542E-01 -0.11529054765E+00  0.13516099014E+00  0.19959680128E-01 0.  0.
         14    1    1    2    0    0 -0.10177687903E-03  0.17917446749E-01  0.11216274441E-01  0.21138828465E-01  0.00000000000E+00 0. -1.
     999901    1    3    3    0    0 -0.25929160019E-01  0.44537211793E-01  0.10407427320E+00  0.88763018139E+00  0.88000000000E+00 0.  1.
        -11    1    4    4    0    0 -0.27687213509E-03 -0.16281249945E-01 -0.17828025203E-01  0.24150680355E-01  0.51100000000E-03 0.  1.
         11    1    4    4    0    0  0.26307809033E-01 -0.46173408597E-01 -0.97462522443E-01  0.11101030979E+00  0.51100000000E-03 0. -1.
</event>
<event>
 8    1  0.1131376E+005  0.1043930E+01  0.7957747E-01            NaN
         13   -1    0    0    0    0  0.00000000000E+00  0.00000000000E+00  0.74505805969E-08  0.10566000000E+00  0.10566000000E+00 0.  1.
     999900   -1    0    0    0    0 -0.00000000000E+00 -0.00000000000E+00 -0.74505805969E-08  0.93827000000E+00  0.93827000000E+00 0. -1.
     999902    2    1    2    0    0  0.18436046985E-01  0.77997291470E-02 -0.12782074016E-01  0.10201791049E+01  0.10199025939E+01 0.  0.
     999903    2    3    3    0    0  0.60282381503E-01 -0.44963402694E-01  0.10410831560E+00  0.12989913375E+00  0.19482568395E-01 0.  0.
         14    1    1    2    0    0 -0.18436046985E-01 -0.77997291470E-02  0.12782074016E-01  0.23750895128E-01  0.00000000000E+00 0.  1.
     999901    1    3    3    0    0 -0.41846334517E-01  0.52763131841E-01 -0.11689038961E+00  0.89027997112E+00  0.88000000000E+00 0. -1.
        -11    1    4    4    0    0  0.23570737628E-01 -0.17135037678E-01  0.25212021445E-01  0.38536947660E-01  0.51100000000E-03 0.  1.
         11    1    4    4    0    0  0.36711643875E-01 -0.27828365016E-01  0.78896294153E-01  0.91362186092E-01  0.51100000000E-03 0. -1.
</event>
<event>
 8    1  0.1131376E+005  0.1043930E+01  0.7957747E-01            NaN
         13   -1    0    0    0    0  0.00000000000E+00  0.00000000000E+00  0.74505805969E-08  0.10566000000E+00  0.10566000000E+00 0.  1.
     999900   -1    0    0    0    0 -0.00000000000E+00 -0.00000000000E+00 -0.74505805969E-08  0.93827000000E+00  0.93827000000E+00 0. -1.
     999902    2    1    2    0    0 -0.88138570168E-02  0.19382209925E-01 -0.10618666655E-01  0.10201369292E+01  0.10198594237E+01 0.  0.
     999903    2    3    3    0    0  0.92400627825E-01 -0.72783232270E-01  0.43759785164E-01  0.12789488989E+00  0.24635525960E-01 0.  0.
         14    1    1    2    0    0  0.88138570168E-02 -0.19382209925E-01  0.10618666655E-01  0.23793070811E-01  0.00000000000E+00 0. -1.
     999901    1    3    3    0    0 -0.10121448484E+00  0.92165442195E-01 -0.54378451819E-01  0.89224203930E+00  0.88000000000E+00 0.  1.
        -11    1    4    4    0    0  0.59365513838E-01 -0.46144769366E-01  0.15126313192E-01  0.76698568728E-01  0.51100000000E-03 0.  1.
         11    1    4    4    0    0  0.33035113987E-01 -0.26638462904E-01  0.28633471972E-01  0.51196321158E-01  0.51100000000E-03 0. -1.
</event>
<event>
 8    1  0.1131376E+005  0.1043930E+01  0.7957747E-01            NaN
         13   -1    0    0    0    0  0.00000000000E+00  0.00000000000E+00  0.74505805969E-08  0.10566000000E+00  0.10566000000E+00 0. -1.
     999900   -1    0    0    0    0 -0.00000000000E+00 -0.00000000000E+00 -0.74505805969E-08  0.93827000000E+00  0.93827000000E+00 0.  1.
     999902    2    1    2    0    0 -0.75100992337E-02 -0.13913464251E-02  0.20425530652E-01  0.10221231264E+01  0.10218904764E+01 0.  0.
     999903    2    3    3    0    0 -0.52908109568E-01 -0.16201233818E-01 -0.11627796991E+00  0.13028897184E+00  0.19821752226E-01 0.  0.
         14    1    1    2    0    0  0.75100992337E-02  0.13913464251E-02 -0.20425530652E-01  0.21806873637E-01  0.00000000000E+00 0.  1.
     999901    1    3    3    0    0  0.45398010335E-01  0.14809887393E-01  0.13670350056E+00  0.89183415452E+00  0.88000000000E+00 0. -1.
        -11    1    4    4    0    0 -0.27190855111E-01  0.19181065034E-02 -0.51318811664E-01  0.58111128761E-01  0.51100000000E-03 0.  1.
         11    1    4    4    0    0 -0.25717254457E-01 -0.18119340322E-01 -0.64959158247E-01  0.72177843080E-01  0.51100000000E-03 0. -1.
</event>
<event>
 8    1  0.1131376E+005  0.1043930E+01  0.7957747E-01            NaN
         13   -1    0    0    0    0  0.00000000000E+00  0.00000000000E+00  0.74505805969E-08  0.10566000000E+00  0.10566000000E+00 0.  1.
     999900   -1    0    0    0    0 -0.00000000000E+00 -0.00000000000E+00 -0.74505805969E-08  0.93827000000E+00  0.93827000000E+00 0. -1.
     999902    2    1    2    0    0  0.16635019648E-01  0.32907201770E-02  0.16782514342E-01  0.10200719719E+01  0.10197929311E+01 0.  0.
     999903    2    3    3    0    0 -0.10873117234E-01 -0.34031776385E-01  0.12562440656E+00  0.13215518308E+00  0.20177076305E-01 0.  0.
         14    1    1    2    0    0 -0.16635019648E-01 -0.32907201770E-02 -0.16782514342E-01  0.23858028117E-01  0.00000000000E+00 0. -1.
     999901    1    3    3    0    0  0.27508136882E-01  0.37322496562E-01 -0.10884189222E+00  0.88791678881E+00  0.88000000000E+00 0. -1.
        -11    1    4    4    0    0  0.22014515572E-02 -0.21902626477E-01  0.53439040233E-01  0.57797608753E-01  0.51100000000E-03 0. -1.
         11    1    4    4    0    0 -0.13074568791E-01 -0.12129149908E-01  0.72185366326E-01  0.74357574323E-01  0.51100000000E-03 0.  1.
</event>
<event>
 8    1  0.1131376E+005  0.1043930E+01  0.7957747E-01            NaN
         13   -1    0    0    0    0  0.00000000000E+00  0.00000000000E+00  0.74505805969E-08  0.10566000000E+00  0.10566000000E+00 0.  1.
     999900   -1    0    0    0    0 -0.00000000000E+00 -0.00000000000E+00 -0.74505805969E-08  0.93827000000E+00  0.93827000000E+00 0. -1.
     999902    2    1    2    0    0  0.19425447169E-01 -0.10310474393E-01  0.95113550151E-02  0.10199692038E+01  0.10196877252E+01 0.  0.
     999903    2    3    3    0    0 -0.14534084835E-01 -0.83189195278E-01 -0.96821072382E-01  0.12992923679E+00  0.19380523286E-01 0.  0.
         14    1    1    2    0    0 -0.19425447169E-01  0.10310474393E-01 -0.95113550151E-02  0.23960796192E-01  0.00000000000E+00 0. -1.
     999901    1    3    3    0    0  0.33959532004E-01  0.72878720884E-01  0.10633242740E+00  0.89003996702E+00  0.88000000000E+00 0.  1.
        -11    1    4    4    0    0 -0.22713311766E-02 -0.60989180999E-01 -0.63840810047E-01  0.88321850596E-01  0.51100000000E-03 0.  1.
         11    1    4    4    0    0 -0.12262753658E-01 -0.22200014279E-01 -0.32980262336E-01  0.41607386195E-01  0.51100000000E-03 0. -1.
</event>
<event>
 8    1  0.1131376E+005  0.1043930E+01  0.7957747E-01            NaN
         13   -1    0    0    0    0  0.00000000000E+00  0.00000000000E+00  0.74505805969E-08  0.10566000000E+00  0.10566000000E+00 0.  1.
     999900   -1    0    0    0    0 -0.00000000000E+00 -0.00000000000E+00 -0.74505805969E-08  0.93827000000E+00  0.93827000000E+00 0. -1.
     999902    2    1    2    0    0 -0.17612342570E-01 -0.16411680108E-01 -0.11792102183E-01  0.10171234424E+01  0.10167701341E+01 0.  0.
     999903    2    3    3    0    0 -0.12625559552E+00 -0.22646724075E-01  0.91302542627E-02  0.13017362582E+00  0.20210437995E-01 0.  0.
         14    1    1    2    0    0  0.17612342570E-01  0.16411680108E-01  0.11792102183E-01  0.26806557568E-01  0.00000000000E+00 0.  1.
     999901    1    3    3    0    0  0.10864325295E+00  0.62350439669E-02 -0.20922356445E-01  0.88694981661E+00  0.88000000000E+00 0. -1.
        -11    1    4    4    0    0 -0.10816977833E+00 -0.16162996153E-01  0.11900151563E-02  0.10937833718E+00  0.51100000000E-03 0. -1.
         11    1    4    4    0    0 -0.18085817199E-01 -0.64837279219E-02  0.79402391064E-02  0.20795288640E-01  0.51100000000E-03 0.  1.
</event>
<event>
 8    1  0.1131376E+005  0.1043930E+01  0.7957747E-01            NaN
         13   -1    0    0    0    0  0.00000000000E+00  0.00000000000E+00  0.74505805969E-08  0.10566000000E+00  0.10566000000E+00 0.  1.
     999900   -1    0    0    0    0 -0.00000000000E+00 -0.00000000000E+00 -0.74505805969E-08  0.93827000000E+00  0.93827000000E+00 0. -1.
     999902    2    1    2    0    0  0.18908108171E-01 -0.76923932770E-03 -0.15759411146E-01  0.10193034427E+01  0.10190059082E+01 0.  0.
     999903    2    3    3    0    0  0.97052506308E-02  0.12483271910E+00  0.24535997925E-01  0.12942465067E+00  0.21710029011E-01 0.  0.
         14    1    1    2    0    0 -0.18908108171E-01  0.76923932770E-03  0.15759411146E-01  0.24626557279E-01  0.00000000000E+00 0.  1.
     999901    1    3    3    0    0  0.92028575400E-02 -0.12560195843E+00 -0.40295409072E-01  0.88987879205E+00  0.88000000000E+00 0. -1.
        -11    1    4    4    0    0  0.41399669451E-02  0.86881095104E-01  0.26745233653E-01  0.91000179433E-01  0.51100000000E-03 0. -1.
         11    1    4    4    0    0  0.55652836857E-02  0.37951623996E-01 -0.22092357281E-02  0.38424471238E-01  0.51100000000E-03 0.  1.
</event>
<event>
 8    1  0.1131376E+005  0.1043930E+01  0.7957747E-01            NaN
         13   -1    0    0    0    0  0.00000000000E+00  0.00000000000E+00  0.74505805969E-08  0.10566000000E+00  0.10566000000E+00 0.  1.
     999900   -1    0    0    0    0 -0.00000000000E+00 -0.00000000000E+00 -0.74505805969E-08  0.93827000000E+00  0.93827000000E+00 0.  1.
     999902    2    1    2    0    0  0.63938267772E-02 -0.20877676502E-02  0.21367155061E-01  0.10215292163E+01  0.10212835770E+01 0.  0.
     999903    2    3    3    0    0 -0.59162026741E-01  0.93162363504E-01  0.70629354815E-01  0.13259900435E+00  0.20362190695E-01 0.  0.
         14    1    1    2    0    0 -0.63938267772E-02  0.20877676502E-02 -0.21367155061E-01  0.22400783692E-01  0.00000000000E+00 0. -1.
     999901    1    3    3    0    0  0.65555853519E-01 -0.95250131154E-01 -0.49262199754E-01  0.88893021196E+00  0.88000000000E+00 0. -1.
        -11    1    4    4    0    0 -0.21890867114E-01  0.51370638063E-01  0.40721541448E-01  0.69113367571E-01  0.51100000000E-03 0. -1.
         11    1    4    4    0    0 -0.37271159627E-01  0.41791725441E-01  0.29907813367E-01  0.63485636774E-01  0.51100000000E-03 0.  1.
</event>
<event>
 8    1  0.1131376E+005  0.1043930E+01  0.7957747E-01            NaN
         13   -1    0    0    0    0  0.00000000000E+00  0.00000000000E+00  0.74505805969E-08  0.10566000000E+00  0.10566000000E+00 0.  1.
     999900   -1    0    0    0    0 -0.00000000000E+00 -0.00000000000E+00 -0.74505805969E-08  0.93827000000E+00  0.93827000000E+00 0.  1.
     999902    2    1    2    0    0 -0.11151235726E-01 -0.52256356952E-03 -0.20890033548E-01  0.10202442103E+01  0.10199692309E+01 0.  0.
     999903    2    3    3    0    0  0.87806986567E-01  0.74461666528E-01 -0.58622503056E-01  0.13072799137E+00  0.19965049258E-01 0.  0.
         14    1    1    2    0    0  0.11151235726E-01  0.52256356952E-03  0.20890033548E-01  0.23685789675E-01  0.00000000000E+00 0.  1.
     999901    1    3    3    0    0 -0.98958222293E-01 -0.74984230098E-01  0.37732469508E-01  0.88951621895E+00  0.88000000000E+00 0. -1.
        -11    1    4    4    0    0  0.74534991265E-02  0.14781078839E-01 -0.57757091641E-02  0.17540093450E-01  0.51100000000E-03 0. -1.
         11    1    4    4    0    0  0.80353487440E-01  0.59680587689E-01 -0.52846793891E-01  0.11318789792E+00  0.51100000000E-03 0.  1.
</event>
<event>
 8    1  0.1131376E+005  0.1043930E+01  0.7957747E-01            NaN
         13   -1    0    0    0    0  0.00000000000E+00  0.00000000000E+00  0.74505805969E-08  0.10566000000E+00  0.10566000000E+00 0. -1.
     999900   -1    0    0    0    0 -0.00000000000E+00 -0.00000000000E+00 -0.74505805969E-08  0.93827000000E+00  0.93827000000E+00 0. -1.
     999902    2    1    2    0    0  0.12801542793E-01 -0.14359260265E-01  0.13724174928E-01  0.10202990705E+01  0.10200253783E+01 0.  0.
     999903    2    3    3    0    0 -0.25187742020E-01  0.11627062774E+00 -0.41540310931E-01  0.12813231655E+00  0.23216629554E-01 0.  0.
         14    1    1    2    0    0 -0.12801542793E-01  0.14359260265E-01 -0.13724174928E-01  0.23630929535E-01  0.00000000000E+00 0.  1.
     999901    1    3    3    0    0  0.37989284812E-01 -0.13062988801E+00  0.55264485859E-01  0.89216675392E+00  0.88000000000E+00 0. -1.
        -11    1    4    4    0    0 -0.28697540933E-01  0.93108430013E-01 -0.29573886621E-01  0.10182143432E+00  0.51100000000E-03 0.  1.
         11    1    4    4    0    0  0.35097989133E-02  0.23162197727E-01 -0.11966424310E-01  0.26310882231E-01  0.51100000000E-03 0. -1.
</event>
<event>
 8    1  0.1131376E+005  0.1043930E+01  0.7957747E-01            NaN
         13   -1    0    0    0    0  0.00000000000E+00  0.00000000000E+00  0.74505805969E-08  0.10566000000E+00  0.10566000000E+00 0. -1.
     999900   -1    0    0    0    0 -0.00000000000E+00 -0.00000000000E+00 -0.74505805969E-08  0.93827000000E+00  0.93827000000E+00 0.  1.
     999902    2    1    2    0    0  0.44314362822E-02 -0.17499215726E-01 -0.14147329701E-01  0.10209951550E+01  0.10207375272E+01 0.  0.
     999903    2    3    3    0    0  0.11596370454E+00 -0.59123480770E-01 -0.17723158364E-01  0.13297217506E+00  0.20599083723E-01 0.  0.
         14    1    1    2    0    0 -0.44314362822E-02  0.17499215726E-01  0.14147329701E-01  0.22934845023E-01  0.00000000000E+00 0. -1.
     999901    1    3    3    0    0 -0.11153226826E+00  0.41624265043E-01  0.35758286629E-02  0.88802297991E+00  0.88000000000E+00 0. -1.
        -11    1    4    4    0    0  0.70705257666E-02  0.17757127453E-03 -0.42022463926E-02  0.82428066772E-02  0.51100000000E-03 0. -1.
         11    1    4    4    0    0  0.10889317877E+00 -0.59301052044E-01 -0.13520911971E-01  0.12472936839E+00  0.51100000000E-03 0.  1.
</event>
<event>
 8    1  0.1131376E+005  0.1043930E+01  0.7957747E-01            NaN
         13   -1    0    0    0    0  0.00000000000E+00  0.00000000000E+00  0.74505805969E-08  0.10566000000E+00  0.10566000000E+00 0.  1.
     999900   -1    0    0    0    0 -0.00000000000E+00 -0.00000000000E+00 -0.74505805969E-08  0.93827000000E+00  0.93827000000E+00 0.  1.
     999902    2    1    2    0    0  0.14309068532E-01  0.18425311230E-01 -0.50197045571E-04  0.10206009611E+01  0.10203342971E+01 0.  0.
     999903    2    3    3    0    0  0.10774853693E+00  0.74846193011E-01  0.16344146374E-01  0.13370580120E+00  0.19960218864E-01 0.  0.
         14    1    1    2    0    0 -0.14309068532E-01 -0.18425311230E-01  0.50197045571E-04  0.23329038898E-01  0.00000000000E+00 0. -1.
     999901    1    3    3    0    0 -0.93439468394E-01 -0.56420881781E-01 -0.16394343419E-01  0.88689515990E+00  0.88000000000E+00 0.  1.
        -11    1    4    4    0    0  0.14298508619E-01  0.18848270783E-01  0.98788260591E-03  0.23684207677E-01  0.51100000000E-03 0.  1.
         11    1    4    4    0    0  0.93450028306E-01  0.55997922228E-01  0.15356263768E-01  0.11002159353E+00  0.51100000000E-03 0. -1.
</event>
<event>
 8    1  0.1131376E+005  0.1043930E+01  0.7957747E-01            NaN
         13   -1    0    0    0    0  0.00000000000E+00  0.00000000000E+00  0.74505805969E-08  0.10566000000E+00  0.10566000000E+00 0. -1.
     999900   -1    0    0    0    0 -0.00000000000E+00 -0.00000000000E+00 -0.74505805969E-08  0.93827000000E+00  0.93827000000E+00 0.  1.
     999902    2    1    2    0    0  0.15549920363E-01  0.28069994780E-02 -0.17299424316E-01  0.10205003318E+01  0.10202313355E+01 0.  0.
     999903    2    3    3    0    0  0.53652139613E-01 -0.98085862022E-01  0.63792965456E-01  0.13021547612E+00  0.19675857422E-01 0.  0.
         14    1    1    2    0    0 -0.15549920363E-01 -0.28069994780E-02  0.17299424316E-01  0.23429668180E-01  0.00000000000E+00 0. -1.
     999901    1    3    3    0    0 -0.38102219250E-01  0.10089286150E+00 -0.81092389772E-01  0.89028485570E+00  0.88000000000E+00 0.  1.
        -11    1    4    4    0    0  0.13712014448E-01 -0.30768290156E-01  0.29411958902E-01  0.44721711358E-01  0.51100000000E-03 0.  1.
         11    1    4    4    0    0  0.39940125165E-01 -0.67317571866E-01  0.34381006554E-01  0.85493764759E-01  0.51100000000E-03 0. -1.
</event>
<event>
 8    1  0.1131376E+005  0.1043930E+01  0.7957747E-01            NaN
         13   -1    0    0    0    0  0.00000000000E+00  0.00000000000E+00  0.74505805969E-08  0.10566000000E+00  0.10566000000E+00 0. -1.
     999900   -1    0    0    0    0 -0.00000000000E+00 -0.00000000000E+00 -0.74505805969E-08  0.93827000000E+00  0.93827000000E+00 0. -1.
     999902    2    1    2    0    0  0.17349221814E-02  0.12339836379E-01  0.13733879989E-01  0.10253854327E+01  0.10252177255E+01 0.  0.
     999903    2    3    3    0    0 -0.49031280373E-01  0.11787458910E+00  0.45710618722E-01  0.13705142841E+00  0.19878333781E-01 0.  0.
         14    1    1    2    0    0 -0.17349221814E-02 -0.12339836379E-01 -0.13733879989E-01  0.18544567302E-01  0.00000000000E+00 0.  1.
     999901    1    3    3    0    0  0.50766202554E-01 -0.10553475272E+00 -0.31976738732E-01  0.88833400429E+00  0.88000000000E+00 0. -1.
        -11    1    4    4    0    0 -0.10878599625E-01  0.47727658773E-01  0.12197190355E-01  0.50451024918E-01  0.51100000000E-03 0. -1.
         11    1    4    4    0    0 -0.38152680747E-01  0.70146930332E-01  0.33513428366E-01  0.86600403492E-01  0.51100000000E-03 0.  1.
</event>
<event>
 8    1  0.1131376E+005  0.1043930E+01  0.7957747E-01            NaN
         13   -1    0    0    0    0  0.00000000000E+00  0.00000000000E+00  0.74505805969E-08  0.10566000000E+00  0.10566000000E+00 0. -1.
     999900   -1    0    0    0    0 -0.00000000000E+00 -0.00000000000E+00 -0.74505805969E-08  0.93827000000E+00  0.93827000000E+00 0. -1.
     999902    2    1    2    0    0  0.14625812291E-01  0.29855700744E-01  0.69712500539E-02  0.10099612558E+01  0.10093898468E+01 0.  0.
     999903    2    3    3    0    0 -0.10068057871E+00  0.59259946602E-01  0.10763172144E-01  0.12194405322E+00  0.33259375239E-01 0.  0.
         14    1    1    2    0    0 -0.14625812291E-01 -0.29855700744E-01 -0.69712500539E-02  0.33968744154E-01  0.00000000000E+00 0. -1.
     999901    1    3    3    0    0  0.11530639100E+00 -0.29404245858E-01 -0.37919220904E-02  0.88801720262E+00  0.88000000000E+00 0.  1.
        -11    1    4    4    0    0 -0.45762871585E-01  0.11496189172E-01  0.13587147787E-01  0.49104729784E-01  0.51100000000E-03 0.  1.
         11    1    4    4    0    0 -0.54917707125E-01  0.47763757430E-01 -0.28239756424E-02  0.72839323439E-01  0.51100000000E-03 0. -1.
</event>
<event>
 8    1  0.1131376E+005  0.1043930E+01  0.7957747E-01            NaN
         13   -1    0    0    0    0  0.00000000000E+00  0.00000000000E+00  0.74505805969E-08  0.10566000000E+00  0.10566000000E+00 0.  1.
     999900   -1    0    0    0    0 -0.00000000000E+00 -0.00000000000E+00 -0.74505805969E-08  0.93827000000E+00  0.93827000000E+00 0.  1.
     999902    2    1    2    0    0 -0.19997354875E-01  0.17053701516E-02  0.13430142169E-01  0.10197810620E+01  0.10194950923E+01 0.  0.
     999903    2    3    3    0    0 -0.11440958826E+00 -0.62434711964E-01  0.17919097668E-01  0.13239852289E+00  0.14853540253E-01 0.  0.
         14    1    1    2    0    0  0.19997354875E-01 -0.17053701516E-02 -0.13430142169E-01  0.24148938031E-01  0.00000000000E+00 0. -1.
     999901    1    3    3    0    0  0.94412233383E-01  0.64140082115E-01 -0.44889554990E-02  0.88738253908E+00  0.88000000000E+00 0. -1.
        -11    1    4    4    0    0 -0.56152193103E-01 -0.36814748421E-01  0.14295262716E-01  0.68651366692E-01  0.51100000000E-03 0.  1.
         11    1    4    4    0    0 -0.58257395155E-01 -0.25619963543E-01  0.36238349521E-02  0.63747156195E-01  0.51100000000E-03 0. -1.
</event>
<event>
 8    1  0.1131376E+005  0.1043930E+01  0.7957747E-01            NaN
         13   -1    0    0    0    0  0.00000000000E+00  0.00000000000E+00  0.74505805969E-08  0.10566000000E+00  0.10566000000E+00 0.  1.
     999900   -1    0    0    0    0 -0.00000000000E+00 -0.00000000000E+00 -0.74505805969E-08  0.93827000000E+00  0.93827000000E+00 0.  1.
     999902    2    1    2    0    0  0.17567478903E-01 -0.11057422099E-01 -0.11826108531E-01  0.10200398401E+01  0.10197600382E+01 0.  0.
     999903    2    3    3    0    0  0.16643420396E-01  0.73603626148E-01 -0.10519617839E+00  0.13105934708E+00  0.20391647394E-01 0.  0.
         14    1    1    2    0    0 -0.17567478903E-01  0.11057422099E-01  0.11826108531E-01  0.23890159930E-01  0.00000000000E+00 0.  1.
     999901    1    3    3    0    0  0.92405850669E-03 -0.84661048247E-01  0.93370069862E-01  0.88898049299E+00  0.88000000000E+00 0.  1.
        -11    1    4    4    0    0  0.45452099874E-02  0.43455002734E-01 -0.45428197275E-01  0.63031566894E-01  0.51100000000E-03 0.  1.
         11    1    4    4    0    0  0.12098210409E-01  0.30148623413E-01 -0.59767981119E-01  0.68027780185E-01  0.51100000000E-03 0. -1.
</event>
<event>
 8    1  0.1131376E+005  0.1043930E+01  0.7957747E-01            NaN
         13   -1    0    0    0    0  0.00000000000E+00  0.00000000000E+00  0.74505805969E-08  0.10566000000E+00  0.10566000000E+00 0. -1.
     999900   -1    0    0    0    0 -0.00000000000E+00 -0.00000000000E+00 -0.74505805969E-08  0.93827000000E+00  0.93827000000E+00 0. -1.
     999902    2    1    2    0    0 -0.27548377975E-03 -0.15349022423E-01  0.18591587507E-01  0.10198195146E+01  0.10195344657E+01 0.  0.
     999903    2    3    3    0    0 -0.46788190733E-01 -0.63862726602E-01 -0.99943616674E-01  0.12933222887E+00  0.21691386978E-01 0.  0.
         14    1    1    2    0    0  0.27548377975E-03  0.15349022423E-01 -0.18591587507E-01  0.24110485410E-01  0.00000000000E+00 0.  1.
     999901    1    3    3    0    0  0.46512706954E-01  0.48513704179E-01  0.11853520418E+00  0.89048728572E+00  0.88000000000E+00 0.  1.
        -11    1    4    4    0    0 -0.22126749282E-01 -0.36820648158E-01 -0.37861781962E-01  0.57263678007E-01  0.51100000000E-03 0. -1.
         11    1    4    4    0    0 -0.24661441452E-01 -0.27042078444E-01 -0.62081834712E-01  0.72068550862E-01  0.51100000000E-03 0.  1.
</event>
<event>
 8    1  0.1131376E+005  0.1043930E+01  0.7957747E-01            NaN
         13   -1    0    0    0    0  0.00000000000E+00  0.00000000000E+00  0.74505805969E-08  0.10566000000E+00  0.10566000000E+00 0.  1.
     999900   -1    0    0    0    0 -0.00000000000E+00 -0.00000000000E+00 -0.74505805969E-08  0.93827000000E+00  0.93827000000E+00 0.  1.
     999902    2    1    2    0    0 -0.22680994592E-01 -0.14803524928E-02 -0.18643616216E-02  0.10211244129E+01  0.10208697134E+01 0.  0.
     999903    2    3    3    0    0  0.48779509052E-01  0.82441676489E-01 -0.87343200341E-01  0.13013836227E+00  0.11449373909E-01 0.  0.
         14    1    1    2    0    0  0.22680994592E-01  0.14803524928E-02  0.18643616216E-02  0.22805587111E-01  0.00000000000E+00 0. -1.
     999901    1    3    3    0    0 -0.71460503644E-01 -0.83922028981E-01  0.85478838719E-01  0.89098605062E+00  0.88000000000E+00 0.  1.
        -11    1    4    4    0    0  0.66725375524E-02  0.18679154942E-01 -0.14571206765E-01  0.24617367331E-01  0.51100000000E-03 0.  1.
         11    1    4    4    0    0  0.42106971500E-01  0.63762521547E-01 -0.72771993576E-01  0.10552099494E+00  0.51100000000E-03 0. -1.
</event>
<event>
 8    1  0.1131376E+005  0.1043930E+01  0.7957747E-01            NaN
         13   -1    0    0    0    0  0.00000000000E+00  0.00000000000E+00  0.74505805969E-08  0.10566000000E+00  0.10566000000E+00 0.  1.
     999900   -1    0    0    0    0 -0.00000000000E+00 -0.00000000000E+00 -0.74505805969E-08  0.93827000000E+00  0.93827000000E+00 0.  1.
     999902    2    1    2    0    0 -0.94009465949E-02 -0.19759244996E-01 -0.92554761963E-02  0.10201714352E+01  0.10198947435E+01 0.  0.
     999903    2    3    3    0    0 -0.15958835240E-02 -0.13116189784E+00  0.76074413323E-02  0.13295340789E+00  0.20316131936E-01 0.  0.
         14    1    1    2    0    0  0.94009465949E-02  0.19759244996E-01  0.92554761963E-02  0.23758564757E-01  0.00000000000E+00 0. -1.
     999901    1    3    3    0    0 -0.78050630709E-02  0.11140265285E+00 -0.16862917529E-01  0.88721802735E+00  0.88000000000E+00 0.  1.
        -11    1    4    4    0    0  0.62124085954E-02 -0.97161120592E-01  0.10597516389E-01  0.97935927268E-01  0.51100000000E-03 0.  1.
         11    1    4    4    0    0 -0.78082921194E-02 -0.34000777249E-01 -0.29900750567E-02  0.35017480623E-01  0.51100000000E-03 0. -1.
</event>
<event>
 8    1  0.1131376E+005  0.1043930E+01  0.7957747E-01            NaN
         13   -1    0    0    0    0  0.00000000000E+00  0.00000000000E+00  0.74505805969E-08  0.10566000000E+00  0.10566000000E+00 0.  1.
     999900   -1    0    0    0    0 -0.00000000000E+00 -0.00000000000E+00 -0.74505805969E-08  0.93827000000E+00  0.93827000000E+00 0.  1.
     999902    2    1    2    0    0  0.22186449093E-01 -0.24876147056E-02 -0.91363479316E-02  0.10198074047E+01  0.10195220660E+01 0.  0.
     999903    2    3    3    0    0 -0.81485722364E-01 -0.48998014307E-01  0.83002955808E-01  0.12773073328E+00  0.19619408660E-01 0.  0.
         14    1    1    2    0    0 -0.22186449093E-01  0.24876147056E-02  0.91363479316E-02  0.24122595295E-01  0.00000000000E+00 0. -1.
     999901    1    3    3    0    0  0.10367217146E+00  0.46510399601E-01 -0.92139303740E-01  0.89207667142E+00  0.88000000000E+00 0.  1.
        -11    1    4    4    0    0 -0.69454672578E-01 -0.33655493476E-01  0.61390911056E-01  0.98619211442E-01  0.51100000000E-03 0.  1.
         11    1    4    4    0    0 -0.12031049786E-01 -0.15342520830E-01  0.21612044752E-01  0.29111521839E-01  0.51100000000E-03 0. -1.
</event>
<event>
 8    1  0.1131376E+005  0.1043930E+01  0.7957747E-01            NaN
         13   -1    0    0    0    0  0.00000000000E+00  0.00000000000E+00  0.74505805969E-08  0.10566000000E+00  0.10566000000E+00 0. -1.
     999900   -1    0    0    0    0 -0.00000000000E+00 -0.00000000000E+00 -0.74505805969E-08  0.93827000000E+00  0.93827000000E+00 0.  1.
     999902    2    1    2    0    0  0.15664318458E-01  0.13853359272E-01  0.11326951220E-01  0.10201479425E+01  0.10198706968E+01 0.  0.
     999903    2    3    3    0    0  0.49441905104E-01  0.12051980367E+00  0.18112880452E-01  0.13303763110E+00  0.20035213825E-01 0.  0.
         14    1    1    2    0    0 -0.15664318458E-01 -0.13853359272E-01 -0.11326951220E-01  0.23782057518E-01  0.00000000000E+00 0.  1.
     999901    1    3    3    0    0 -0.33777586645E-01 -0.10666644440E+00 -0.67859292317E-02  0.88711031138E+00  0.88000000000E+00 0. -1.
        -11    1    4    4    0    0  0.52190115219E-02  0.21330914021E-01  0.99940930508E-02  0.24132736918E-01  0.51100000000E-03 0.  1.
         11    1    4    4    0    0  0.44222893582E-01  0.99188889653E-01  0.81187874007E-02  0.10890489418E+00  0.51100000000E-03 0. -1.
</event>
<event>
 8    1  0.1131376E+005  0.1043930E+01  0.7957747E-01            NaN
         13   -1    0    0    0    0  0.00000000000E+00  0.00000000000E+00  0.74505805969E-08  0.10566000000E+00  0.10566000000E+00 0.  1.
     999900   -1    0    0    0    0 -0.00000000000E+00 -0.00000000000E+00 -0.74505805969E-08  0.93827000000E+00  0.93827000000E+00 0. -1.
     999902    2    1    2    0    0 -0.18033680994E-01  0.11214970550E-02 -0.15437132678E-01  0.10201649738E+01  0.10198881298E+01 0.  0.
     999903    2    3    3    0    0  0.64342063304E-01  0.16151413796E-02 -0.11183880964E+00  0.13107595110E+00  0.23032060778E-01 0.  0.
         14    1    1    2    0    0  0.18033680994E-01 -0.11214970550E-02  0.15437132678E-01  0.23765026218E-01  0.00000000000E+00 0.  1.
     999901    1    3    3    0    0 -0.82375744297E-01 -0.49364432457E-03  0.96401676960E-01  0.88908902268E+00  0.88000000000E+00 0. -1.
        -11    1    4    4    0    0  0.20055187838E-01  0.93506759302E-02 -0.49422424711E-01  0.54152404240E-01  0.51100000000E-03 0.  1.
         11    1    4    4    0    0  0.44286875465E-01 -0.77355345506E-02 -0.62416384926E-01  0.76923546860E-01  0.51100000000E-03 0. -1.
</event>
<event>
 8    1  0.1131376E+005  0.1043930E+01  0.7957747E-01            NaN
         13   -1    0    0    0    0  0.00000000000E+00  0.00000000000E+00  0.74505805969E-08  0.10566000000E+00  0.10566000000E+00 0. -1.
     999900   -1    0    0    0    0 -0.00000000000E+00 -0.00000000000E+00 -0.74505805969E-08  0.93827000000E+00  0.93827000000E+00 0.  1.
     999902    2    1    2    0    0 -0.16023509737E-01 -0.20396412111E-01  0.42945778496E-02  0.10176391291E+01  0.10172994580E+01 0.  0.
     999903    2    3    3    0    0  0.55274238250E-01  0.43394461235E-01  0.10377877140E+00  0.12688116586E+00  0.19760470085E-01 0.  0.
         14    1    1    2    0    0  0.16023509737E-01  0.20396412111E-01 -0.42945778496E-02  0.26290870852E-01  0.00000000000E+00 0. -1.
     999901    1    3    3    0    0 -0.71297747987E-01 -0.63790873346E-01 -0.99484193547E-01  0.89075796329E+00  0.88000000000E+00 0. -1.
        -11    1    4    4    0    0  0.34707420684E-01  0.36811227895E-01  0.80880195266E-01  0.95401984554E-01  0.51100000000E-03 0.  1.
         11    1    4    4    0    0  0.20566817566E-01  0.65832333407E-02  0.22898576131E-01  0.31479181308E-01  0.51100000000E-03 0. -1.
</event>
<event>
 8    1  0.1131376E+005  0.1043930E+01  0.7957747E-01            NaN
         13   -1    0    0    0    0  0.00000000000E+00  0.00000000000E+00  0.74505805969E-08  0.10566000000E+00  0.10566000000E+00 0. -1.
     999900   -1    0    0    0    0 -0.00000000000E+00 -0.00000000000E+00 -0.74505805969E-08  0.93827000000E+00  0.93827000000E+00 0. -1.
     999902    2    1    2    0    0 -0.16345168519E-01 -0.12226608672E-01 -0.11532321588E-01  0.10204854071E+01  0.10202160640E+01 0.  0.
     999903    2    3    3    0    0 -0.89221909805E-01  0.53535865778E-01 -0.79648762468E-01  0.13241132690E+00  0.19031448032E-01 0.  0.
         14    1    1    2    0    0  0.16345168519E-01  0.12226608672E-01  0.11532321588E-01  0.23444592868E-01  0.00000000000E+00 0. -1.
     999901    1    3    3    0    0  0.72876741286E-01 -0.65762474450E-01  0.68116440880E-01  0.88807408023E+00  0.88000000000E+00 0. -1.
        -11    1    4    4    0    0 -0.19324508667E-01  0.91376110691E-02 -0.26348132768E-01  0.33932547688E-01  0.51100000000E-03 0.  1.
         11    1    4    4    0    0 -0.69897401139E-01  0.44398254709E-01 -0.53300629700E-01  0.98478779210E-01  0.51100000000E-03 0. -1.
</event>
<event>
 8    1  0.1131376E+005  0.1043930E+01  0.7957747E-01            NaN
         13   -1    0    0    0    0  0.00000000000E+00  0.00000000000E+00  0.74505805969E-08  0.10566000000E+00  0.10566000000E+00 0. -1.
     999900   -1    0    0    0    0 -0.00000000000E+00 -0.00000000000E+00 -0.74505805969E-08  0.93827000000E+00  0.93827000000E+00 0. -1.
     999902    2    1    2    0    0 -0.13938746688E-01 -0.24006395556E-01  0.73841842957E-02  0.10152050655E+01  0.10147986022E+01 0.  0.
     999903    2    3    3    0    0 -0.43250989013E-01  0.55658781439E-01 -0.10060077496E+00  0.12454996981E+00  0.20582299555E-01 0.  0.
         14    1    1    2    0    0  0.13938746688E-01  0.24006395556E-01 -0.73841842957E-02  0.28724934544E-01  0.00000000000E+00 0.  1.
     999901    1    3    3    0    0  0.29312242325E-01 -0.79665176995E-01  0.10798495926E+00  0.89065509565E+00  0.88000000000E+00 0.  1.
        -11    1    4    4    0    0 -0.16915133811E-01  0.19198547881E-01 -0.20939064496E-01  0.33066773891E-01  0.51100000000E-03 0. -1.
         11    1    4    4    0    0 -0.26335855202E-01  0.36460233558E-01 -0.79661710465E-01  0.91483195919E-01  0.51100000000E-03 0.  1.
</event>
<event>
 8    1  0.1131376E+005  0.1043930E+01  0.7957747E-01            NaN
         13   -1    0    0    0    0  0.00000000000E+00  0.00000000000E+00  0.74505805969E-08  0.10566000000E+00  0.10566000000E+00 0. -1.
     999900   -1    0    0    0    0 -0.00000000000E+00 -0.00000000000E+00 -0.74505805969E-08  0.93827000000E+00  0.93827000000E+00 0.  1.
     999902    2    1    2    0    0  0.10587087451E-01  0.15937846140E-01 -0.13758343035E-01  0.10203632148E+01  0.10200910238E+01 0.  0.
     999903    2    3    3    0    0  0.93027950408E-01  0.17815296152E-01  0.87739615866E-01  0.13069931404E+00  0.20309755392E-01 0.  0.
         14    1    1    2    0    0 -0.10587087451E-01 -0.15937846140E-01  0.13758343035E-01  0.23566785172E-01  0.00000000000E+00 0. -1.
     999901    1    3    3    0    0 -0.82440862958E-01 -0.18774500113E-02 -0.10149795890E+00  0.88966390079E+00  0.88000000000E+00 0.  1.
        -11    1    4    4    0    0  0.45567404254E-01  0.15859870419E-01  0.34311290074E-01  0.59206837170E-01  0.51100000000E-03 0.  1.
         11    1    4    4    0    0  0.47460546155E-01  0.19554257329E-02  0.53428325793E-01  0.71492476871E-01  0.51100000000E-03 0. -1.
</event>
<event>
 8    1  0.1131376E+005  0.1043930E+01  0.7957747E-01            NaN
         13   -1    0    0    0    0  0.00000000000E+00  0.00000000000E+00  0.74505805969E-08  0.10566000000E+00  0.10566000000E+00 0.  1.
     999900   -1    0    0    0    0 -0.00000000000E+00 -0.00000000000E+00 -0.74505805969E-08  0.93827000000E+00  0.93827000000E+00 0.  1.
     999902    2    1    2    0    0 -0.20034561376E-01  0.17410981468E-01 -0.69267038576E-02  0.10164981727E+01  0.10161279594E+01 0.  0.
     999903    2    3    3    0    0 -0.87540290198E-01  0.86726959079E-01  0.35888684703E-01  0.13016026549E+00  0.21652463689E-01 0.  0.
         14    1    1    2    0    0  0.20034561376E-01 -0.17410981468E-01  0.69267038576E-02  0.27431827346E-01  0.00000000000E+00 0. -1.
     999901    1    3    3    0    0  0.67505728822E-01 -0.69315977611E-01 -0.42815388561E-01  0.88633790716E+00  0.88000000000E+00 0. -1.
        -11    1    4    4    0    0 -0.18168568632E-01  0.19458059631E-01 -0.12030981029E-02  0.26653734012E-01  0.51100000000E-03 0.  1.
         11    1    4    4    0    0 -0.69371721566E-01  0.67268899449E-01  0.37091782806E-01  0.10350653148E+00  0.51100000000E-03 0. -1.
</event>
<event>
 8    1  0.1131376E+005  0.1043930E+01  0.7957747E-01            NaN
         13   -1    0    0    0    0  0.00000000000E+00  0.00000000000E+00  0.74505805969E-08  0.10566000000E+00  0.10566000000E+00 0.  1.
     999900   -1    0    0    0    0 -0.00000000000E+00 -0.00000000000E+00 -0.74505805969E-08  0.93827000000E+00  0.93827000000E+00 0.  1.
     999902    2    1    2    0    0  0.91486131524E-02 -0.20942959299E-01  0.64696358519E-02  0.10201779295E+01  0.10199013908E+01 0.  0.
     999903    2    3    3    0    0 -0.96123657529E-01 -0.35229285609E-01  0.78954686916E-01  0.13082961034E+00  0.20042062142E-01 0.  0.
         14    1    1    2    0    0 -0.91486131524E-02  0.20942959299E-01 -0.64696358519E-02  0.23752070538E-01  0.00000000000E+00 0. -1.
     999901    1    3    3    0    0  0.10527227068E+00  0.14286326310E-01 -0.72485051064E-01  0.88934831912E+00  0.88000000000E+00 0.  1.
        -11    1    4    4    0    0 -0.70063711892E-01 -0.30752909477E-01  0.67400104318E-01  0.10196911468E+00  0.51100000000E-03 0. -1.
         11    1    4    4    0    0 -0.26059945637E-01 -0.44763761325E-02  0.11554582598E-01  0.28860495663E-01  0.51100000000E-03 0.  1.
</event>
<event>
 8    1  0.1131376E+005  0.1043930E+01  0.7957747E-01            NaN
         13   -1    0    0    0    0  0.00000000000E+00  0.00000000000E+00  0.74505805969E-08  0.10566000000E+00  0.10566000000E+00 0.  1.
     999900   -1    0    0    0    0 -0.00000000000E+00 -0.00000000000E+00 -0.74505805969E-08  0.93827000000E+00  0.93827000000E+00 0.  1.
     999902    2    1    2    0    0  0.17760513520E-01 -0.16045285020E-01 -0.50756056141E-03  0.10199895608E+01  0.10197085660E+01 0.  0.
     999903    2    3    3    0    0  0.58218083172E-01  0.11363518346E+00 -0.72382742280E-02  0.12954071815E+00  0.20642308923E-01 0.  0.
         14    1    1    2    0    0 -0.17760513520E-01  0.16045285020E-01  0.50756056141E-03  0.23940439210E-01  0.00000000000E+00 0. -1.
     999901    1    3    3    0    0 -0.40457569653E-01 -0.12968046848E+00  0.67307136666E-02  0.89044884264E+00  0.88000000000E+00 0.  1.
        -11    1    4    4    0    0  0.36757021387E-01  0.56301387360E-01  0.37380747015E-02  0.67343590366E-01  0.51100000000E-03 0. -1.
         11    1    4    4    0    0  0.21461061785E-01  0.57333796099E-01 -0.10976348930E-01  0.62197127787E-01  0.51100000000E-03 0.  1.
</event>
<event>
 8    1  0.1131376E+005  0.1043930E+01  0.7957747E-01            NaN
         13   -1    0    0    0    0  0.00000000000E+00  0.00000000000E+00  0.74505805969E-08  0.10566000000E+00  0.10566000000E+00 0. -1.
     999900   -1    0    0    0    0 -0.00000000000E+00 -0.00000000000E+00 -0.74505805969E-08  0.93827000000E+00  0.93827000000E+00 0. -1.
     999902    2    1    2    0    0  0.18242275890E-01 -0.15817847297E-01  0.11963235308E-02  0.10197553002E+01  0.10194687127E+01 0.  0.
     999903    2    3    3    0    0  0.11503539216E-01  0.46510938043E-01  0.11890490917E+00  0.12970721202E+00  0.19748029110E-01 0.  0.
         14    1    1    2    0    0 -0.18242275890E-01  0.15817847297E-01 -0.11963235308E-02  0.24174699848E-01  0.00000000000E+00 0.  1.
     999901    1    3    3    0    0  0.67387366733E-02 -0.62328785341E-01 -0.11770858564E+00  0.89004808813E+00  0.88000000000E+00 0.  1.
        -11    1    4    4    0    0 -0.56729033571E-03  0.19460877846E-01  0.68757579682E-01  0.71462671861E-01  0.51100000000E-03 0. -1.
         11    1    4    4    0    0  0.12070829552E-01  0.27050060198E-01  0.50147329486E-01  0.58244540159E-01  0.51100000000E-03 0.  1.
</event>
<event>
 8    1  0.1131376E+005  0.1043930E+01  0.7957747E-01            NaN
         13   -1    0    0    0    0  0.00000000000E+00  0.00000000000E+00  0.74505805969E-08  0.10566000000E+00  0.10566000000E+00 0. -1.
     999900   -1    0    0    0    0 -0.00000000000E+00 -0.00000000000E+00 -0.74505805969E-08  0.93827000000E+00  0.93827000000E+00 0.  1.
     999902    2    1    2    0    0 -0.85410754626E-02  0.43469676624E-02 -0.21909601714E-01  0.10200160554E+01  0.10197356896E+01 0.  0.
     999903    2    3    3    0    0  0.96564924788E-01  0.38116335663E-01 -0.77967807415E-01  0.13134842131E+00  0.19894447533E-01 0.  0.
         14    1    1    2    0    0  0.85410754626E-02 -0.43469676624E-02  0.21909601714E-01  0.23913944576E-01  0.00000000000E+00 0. -1.
     999901    1    3    3    0    0 -0.10510600025E+00 -0.33769368000E-01  0.56058205701E-01  0.88866763412E+00  0.88000000000E+00 0.  1.
        -11    1    4    4    0    0  0.95020054806E-01  0.35514224898E-01 -0.71251483940E-01  0.12396413219E+00  0.51100000000E-03 0. -1.
         11    1    4    4    0    0  0.15448699822E-02  0.26021107649E-02 -0.67163234748E-02  0.73842891136E-02  0.51100000000E-03 0.  1.
</event>
<event>
 8    1  0.1131376E+005  0.1043930E+01  0.7957747E-01            NaN
         13   -1    0    0    0    0  0.00000000000E+00  0.00000000000E+00  0.74505805969E-08  0.10566000000E+00  0.10566000000E+00 0. -1.
     999900   -1    0    0    0    0 -0.00000000000E+00 -0.00000000000E+00 -0.74505805969E-08  0.93827000000E+00  0.93827000000E+00 0.  1.
     999902    2    1    2    0    0 -0.94005369118E-02  0.92307160230E-02  0.17364796871E-01  0.10221329272E+01  0.10219004885E+01 0.  0.
     999903    2    3    3    0    0 -0.11080223342E+00  0.48321812832E-03  0.73604814720E-01  0.13448335536E+00  0.19767035406E-01 0.  0.
         14    1    1    2    0    0  0.94005369118E-02 -0.92307160230E-02 -0.17364796871E-01  0.21797072806E-01  0.00000000000E+00 0.  1.
     999901    1    3    3    0    0  0.10140169650E+00  0.87474978947E-02 -0.56240017849E-01  0.88764957184E+00  0.88000000000E+00 0.  1.
        -11    1    4    4    0    0 -0.10081643640E+00 -0.35459576238E-02  0.60964835480E-01  0.11787069165E+00  0.51100000000E-03 0.  1.
         11    1    4    4    0    0 -0.99857970129E-02  0.40291757521E-02  0.12639979240E-01  0.16612663706E-01  0.51100000000E-03 0. -1.
</event>
<event>
 8    1  0.1131376E+005  0.1043930E+01  0.7957747E-01            NaN
         13   -1    0    0    0    0  0.00000000000E+00  0.00000000000E+00  0.74505805969E-08  0.10566000000E+00  0.10566000000E+00 0. -1.
     999900   -1    0    0    0    0 -0.00000000000E+00 -0.00000000000E+00 -0.74505805969E-08  0.93827000000E+00  0.93827000000E+00 0. -1.
     999902    2    1    2    0    0  0.16617066150E-01  0.14745109162E-01 -0.92702606647E-02  0.10198575497E+01  0.10195734102E+01 0.  0.
     999903    2    3    3    0    0  0.43500542562E-01  0.48042089168E-01 -0.11399512519E+00  0.13261535759E+00  0.19789011265E-01 0.  0.
         14    1    1    2    0    0 -0.16617066150E-01 -0.14745109162E-01  0.92702606647E-02  0.24072450320E-01  0.00000000000E+00 0. -1.
     999901    1    3    3    0    0 -0.26883476412E-01 -0.33296980006E-01  0.10472486452E+00  0.88724219209E+00  0.88000000000E+00 0.  1.
        -11    1    4    4    0    0  0.13434282373E-01  0.29544434608E-01 -0.54628334463E-01  0.63544233463E-01  0.51100000000E-03 0.  1.
         11    1    4    4    0    0  0.30066260189E-01  0.18497654560E-01 -0.59366790723E-01  0.69071124124E-01  0.51100000000E-03 0. -1.
</event>
<event>
 8    1  0.1131376E+005  0.1043930E+01  0.7957747E-01            NaN
         13   -1    0    0    0    0  0.00000000000E+00  0.00000000000E+00  0.74505805969E-08  0.10566000000E+00  0.10566000000E+00 0.  1.
     999900   -1    0    0    0    0 -0.00000000000E+00 -0.00000000000E+00 -0.74505805969E-08  0.93827000000E+00  0.93827000000E+00 0.  1.
     999902    2    1    2    0    0  0.26023721786E-02 -0.17231157000E-01 -0.15634476845E-01  0.10205179950E+01  0.10202494088E+01 0.  0.
     999903    2    3    3    0    0  0.41140515457E-01 -0.12173503165E+00 -0.30346248199E-01  0.13337500509E+00  0.18868949631E-01 0.  0.
         14    1    1    2    0    0 -0.26023721786E-02  0.17231157000E-01  0.15634476845E-01  0.23412005013E-01  0.00000000000E+00 0. -1.
     999901    1    3    3    0    0 -0.38538143279E-01  0.10450387465E+00  0.14711771354E-01  0.88714298990E+00  0.88000000000E+00 0. -1.
        -11    1    4    4    0    0  0.27741513249E-01 -0.10372081456E+00 -0.23658314864E-01  0.10994351238E+00  0.51100000000E-03 0.  1.
         11    1    4    4    0    0  0.13399002208E-01 -0.18014217091E-01 -0.66879333353E-02  0.23431492715E-01  0.51100000000E-03 0. -1.
</event>
<event>
 8    1  0.1131376E+005  0.1043930E+01  0.7957747E-01            NaN
         13   -1    0    0    0    0  0.00000000000E+00  0.00000000000E+00  0.74505805969E-08  0.10566000000E+00  0.10566000000E+00 0. -1.
     999900   -1    0    0    0    0 -0.00000000000E+00 -0.00000000000E+00 -0.74505805969E-08  0.93827000000E+00  0.93827000000E+00 0. -1.
     999902    2    1    2    0    0  0.80163338564E-02 -0.21628939139E-01 -0.73111719797E-02  0.10197323585E+01  0.10194452203E+01 0.  0.
     999903    2    3    3    0    0  0.89012881595E-01 -0.84040747145E-01  0.47213262210E-01  0.13213527176E+00  0.15636420452E-01 0.  0.
         14    1    1    2    0    0 -0.80163338564E-02  0.21628939139E-01  0.73111719797E-02  0.24197641465E-01  0.00000000000E+00 0.  1.
     999901    1    3    3    0    0 -0.80996547739E-01  0.62411808006E-01 -0.54524434190E-01  0.88759708677E+00  0.88000000000E+00 0. -1.
        -11    1    4    4    0    0  0.44699154468E-01 -0.39529883423E-01  0.14924149998E-01  0.61511116619E-01  0.51100000000E-03 0. -1.
         11    1    4    4    0    0  0.44313727127E-01 -0.44510863722E-01  0.32289112212E-01  0.70624155143E-01  0.51100000000E-03 0.  1.
</event>
<event>
 8    1  0.1131376E+005  0.1043930E+01  0.7957747E-01            NaN
         13   -1    0    0    0    0  0.00000000000E+00  0.00000000000E+00  0.74505805969E-08  0.10566000000E+00  0.10566000000E+00 0. -1.
     999900   -1    0    0    0    0 -0.00000000000E+00 -0.00000000000E+00 -0.74505805969E-08  0.93827000000E+00  0.93827000000E+00 0.  1.
     999902    2    1    2    0    0 -0.85467863450E-02  0.21308255415E-01 -0.14820340454E-03  0.10209710961E+01  0.10207129213E+01 0.  0.
     999903    2    3    3    0    0 -0.35941527750E-01  0.11185618794E+00 -0.61258542741E-01  0.13379362029E+00  0.18561346265E-01 0.  0.
         14    1    1    2    0    0  0.85467863450E-02 -0.21308255415E-01  0.14820340454E-03  0.22958903936E-01  0.00000000000E+00 0. -1.
     999901    1    3    3    0    0  0.27394741405E-01 -0.90547932524E-01  0.61110339336E-01  0.88717747577E+00  0.88000000000E+00 0. -1.
        -11    1    4    4    0    0 -0.28382969624E-01  0.65221411776E-01 -0.43148983905E-01  0.83195681690E-01  0.51100000000E-03 0.  1.
         11    1    4    4    0    0 -0.75585581264E-02  0.46634776164E-01 -0.18109558835E-01  0.50597938604E-01  0.51100000000E-03 0. -1.
</event>
<event>
 8    1  0.1131376E+005  0.1043930E+01  0.7957747E-01            NaN
         13   -1    0    0    0    0  0.00000000000E+00  0.00000000000E+00  0.74505805969E-08  0.10566000000E+00  0.10566000000E+00 0. -1.
     999900   -1    0    0    0    0 -0.00000000000E+00 -0.00000000000E+00 -0.74505805969E-08  0.93827000000E+00  0.93827000000E+00 0. -1.
     999902    2    1    2    0    0 -0.19716174255E-01  0.27930133278E-02  0.11889169776E-01  0.10207377425E+01  0.10204742320E+01 0.  0.
     999903    2    3    3    0    0 -0.76996121938E-01 -0.32935948742E-01  0.10211688629E+00  0.13355197165E+00  0.19876899990E-01 0.  0.
         14    1    1    2    0    0  0.19716174255E-01 -0.27930133278E-02 -0.11889169776E-01  0.23192257515E-01  0.00000000000E+00 0. -1.
     999901    1    3    3    0    0  0.57279947683E-01  0.35728962070E-01 -0.90227716518E-01  0.88718577083E+00  0.88000000000E+00 0. -1.
        -11    1    4    4    0    0 -0.72198036424E-01 -0.34598440352E-01  0.99805862914E-01  0.12794952103E+00  0.51100000000E-03 0.  1.
         11    1    4    4    0    0 -0.47980855136E-02  0.16624916102E-02  0.23110233800E-02  0.56024506256E-02  0.51100000000E-03 0. -1.
</event>
<event>
 8    1  0.1131376E+005  0.1043930E+01  0.7957747E-01            NaN
         13   -1    0    0    0    0  0.00000000000E+00  0.00000000000E+00  0.74505805969E-08  0.10566000000E+00  0.10566000000E+00 0.  1.
     999900   -1    0    0    0    0 -0.00000000000E+00 -0.00000000000E+00 -0.74505805969E-08  0.93827000000E+00  0.93827000000E+00 0.  1.
     999902    2    1    2    0    0 -0.20040868419E-01  0.12965344997E-01 -0.58861967671E-03  0.10200535880E+01  0.10197741119E+01 0.  0.
     999903    2    3    3    0    0  0.78242589377E-02 -0.12378100062E+00 -0.27809085153E-01  0.12864067462E+00  0.19802090973E-01 0.  0.
         14    1    1    2    0    0  0.20040868419E-01 -0.12965344997E-01  0.58861967671E-03  0.23876412021E-01  0.00000000000E+00 0. -1.
     999901    1    3    3    0    0 -0.27865127357E-01  0.13674634562E+00  0.27220465476E-01  0.89141291336E+00  0.88000000000E+00 0.  1.
        -11    1    4    4    0    0  0.12109057067E-02 -0.75096953175E-01 -0.25973183516E-01  0.79472549045E-01  0.51100000000E-03 0.  1.
         11    1    4    4    0    0  0.66133532309E-02 -0.48684047447E-01 -0.18359016367E-02  0.49168125575E-01  0.51100000000E-03 0. -1.
</event>
<event>
 8    1  0.1131376E+005  0.1043930E+01  0.7957747E-01            NaN
         13   -1    0    0    0    0  0.00000000000E+00  0.00000000000E+00  0.74505805969E-08  0.10566000000E+00  0.10566000000E+00 0. -1.
     999900   -1    0    0    0    0 -0.00000000000E+00 -0.00000000000E+00 -0.74505805969E-08  0.93827000000E+00  0.93827000000E+00 0.  1.
     999902    2    1    2    0    0 -0.52189629779E-02  0.12372119414E-01 -0.20051420494E-01  0.10197977316E+01  0.10195121613E+01 0.  0.
     999903    2    3    3    0    0 -0.10783464233E+00 -0.33073411877E-01 -0.64835711682E-01  0.13154050159E+00  0.19418377650E-01 0.  0.
         14    1    1    2    0    0  0.52189629779E-02 -0.12372119414E-01  0.20051420494E-01  0.24132268380E-01  0.00000000000E+00 0. -1.
     999901    1    3    3    0    0  0.10261567935E+00  0.45445531291E-01  0.44784291188E-01  0.88825723003E+00  0.88000000000E+00 0. -1.
        -11    1    4    4    0    0 -0.85704675409E-01 -0.31461155619E-01 -0.58600625881E-01  0.10848682028E+00  0.51100000000E-03 0.  1.
         11    1    4    4    0    0 -0.22129966917E-01 -0.16122562572E-02 -0.62350858004E-02  0.23053681310E-01  0.51100000000E-03 0. -1.
</event>
<event>
 7    1  0.1131376E+005  0.1043930E+01  0.7957747E-01            NaN
         13   -1    0    0    0    0  0.00000000000E+00  0.00000000000E+00  0.74505805969E-08  0.10566000000E+00  0.10566000000E+00 0.  1.
     999900   -1    0    0    0    0 -0.00000000000E+00 -0.00000000000E+00 -0.74505805969E-08  0.93827000000E+00  0.93827000000E+00 0. -1.
     999903    2    1    2    0    0 -0.68450486177E-01  0.26282331683E-01  0.87555211607E-01  0.11584681225E+00  0.19450933474E-01 0.  0.
         14    1    1    2    0    0 -0.27899138264E-01  0.32048951892E-02 -0.29047912132E-01  0.40403149237E-01  0.00000000000E+00 0. -1.
     999901    1    1    2    0    0  0.96349624440E-01 -0.29487226872E-01 -0.58507299475E-01  0.88768003851E+00  0.88000000000E+00 0. -1.
        -11    1    3    3    0    0 -0.64133729034E-01  0.29144490431E-01  0.83508489990E-01  0.10925413284E+00  0.51100000000E-03 0. -1.
         11    1    3    3    0    0 -0.43167571425E-02 -0.28621587479E-02  0.40467216170E-02  0.65926794076E-02  0.51100000000E-03 0.  1.
</event>
<event>
 8    1  0.1131376E+005  0.1043930E+01  0.7957747E-01            NaN
         13   -1    0    0    0    0  0.00000000000E+00  0.00000000000E+00  0.74505805969E-08  0.10566000000E+00  0.10566000000E+00 0. -1.
     999900   -1    0    0    0    0 -0.00000000000E+00 -0.00000000000E+00 -0.74505805969E-08  0.93827000000E+00  0.93827000000E+00 0. -1.
     999902    2    1    2    0    0  0.14500569197E-01 -0.17707250171E-01 -0.67779243010E-03  0.10210329998E+01  0.10207762311E+01 0.  0.
     999903    2    3    3    0    0  0.84851843160E-01  0.44789462368E-01 -0.88096524578E-01  0.13170900060E+00  0.19502101639E-01 0.  0.
         14    1    1    2    0    0 -0.14500569197E-01  0.17707250171E-01  0.67779243010E-03  0.22897000202E-01  0.00000000000E+00 0.  1.
     999901    1    3    3    0    0 -0.70351273963E-01 -0.62496712539E-01  0.87418732148E-01  0.88932399920E+00  0.88000000000E+00 0.  1.
        -11    1    4    4    0    0  0.29223928263E-01  0.26102167834E-01 -0.33497327536E-01  0.51552819727E-01  0.51100000000E-03 0. -1.
         11    1    4    4    0    0  0.55627914897E-01  0.18687294533E-01 -0.54599197043E-01  0.80156180869E-01  0.51100000000E-03 0.  1.
</event>
<event>
 8    1  0.1131376E+005  0.1043930E+01  0.7957747E-01            NaN
         13   -1    0    0    0    0  0.00000000000E+00  0.00000000000E+00  0.74505805969E-08  0.10566000000E+00  0.10566000000E+00 0. -1.
     999900   -1    0    0    0    0 -0.00000000000E+00 -0.00000000000E+00 -0.74505805969E-08  0.93827000000E+00  0.93827000000E+00 0.  1.
     999902    2    1    2    0    0  0.91899553265E-02 -0.24880423127E-02  0.19174429172E-01  0.10225219555E+01  0.10222978261E+01 0.  0.
     999903    2    3    3    0    0 -0.97524335247E-01 -0.76233557024E-01  0.43469911098E-01  0.13268117698E+00  0.19801776986E-01 0.  0.
         14    1    1    2    0    0 -0.91899553265E-02  0.24880423127E-02 -0.19174429172E-01  0.21408044458E-01  0.00000000000E+00 0.  1.
     999901    1    3    3    0    0  0.10671429057E+00  0.73745514711E-01 -0.24295481926E-01  0.88984077856E+00  0.88000000000E+00 0.  1.
        -11    1    4    4    0    0 -0.46770672492E-01 -0.25828961022E-01  0.23813624594E-01  0.58497699700E-01  0.51100000000E-03 0.  1.
         11    1    4    4    0    0 -0.50753662754E-01 -0.50404596002E-01  0.19656286504E-01  0.74183477279E-01  0.51100000000E-03 0. -1.
</event>
<event>
 8    1  0.1131376E+005  0.1043930E+01  0.7957747E-01            NaN
         13   -1    0    0    0    0  0.00000000000E+00  0.00000000000E+00  0.74505805969E-08  0.10566000000E+00  0.10566000000E+00 0.  1.
     999900   -1    0    0    0    0 -0.00000000000E+00 -0.00000000000E+00 -0.74505805969E-08  0.93827000000E+00  0.93827000000E+00 0. -1.
     999902    2    1    2    0    0  0.10912343427E-02  0.48989836326E-02 -0.22214317818E-01  0.10211557437E+01  0.10209017515E+01 0.  0.
     999903    2    3    3    0    0  0.11218883908E+00  0.42669069531E-01  0.47327966232E-01  0.13064724492E+00  0.20537310125E-01 0.  0.
         14    1    1    2    0    0 -0.10912343427E-02 -0.48989836326E-02  0.22214317818E-01  0.22774256281E-01  0.00000000000E+00 0.  1.
     999901    1    3    3    0    0 -0.11109760474E+00 -0.37770085899E-01 -0.69542284050E-01  0.89050849880E+00  0.88000000000E+00 0. -1.
        -11    1    4    4    0    0  0.52787228659E-01  0.11851684001E-01  0.28376992074E-01  0.61093933604E-01  0.51100000000E-03 0.  1.
         11    1    4    4    0    0  0.59401610425E-01  0.30817385530E-01  0.18950974158E-01  0.69553311313E-01  0.51100000000E-03 0. -1.
</event>
<event>
 8    1  0.1131376E+005  0.1043930E+01  0.7957747E-01            NaN
         13   -1    0    0    0    0  0.00000000000E+00  0.00000000000E+00  0.74505805969E-08  0.10566000000E+00  0.10566000000E+00 0.  1.
     999900   -1    0    0    0    0 -0.00000000000E+00 -0.00000000000E+00 -0.74505805969E-08  0.93827000000E+00  0.93827000000E+00 0. -1.
     999902    2    1    2    0    0  0.17274412726E-01 -0.15439042456E-01 -0.36960517464E-02  0.10204687518E+01  0.10201990214E+01 0.  0.
     999903    2    3    3    0    0  0.72757234762E-01 -0.34761500688E-01  0.10282032450E+00  0.13210090047E+00  0.19407514851E-01 0.  0.
         14    1    1    2    0    0 -0.17274412726E-01  0.15439042456E-01  0.36960517464E-02  0.23461248166E-01  0.00000000000E+00 0. -1.
     999901    1    3    3    0    0 -0.55482822036E-01  0.19322458233E-01 -0.10651637625E+00  0.88836785137E+00  0.88000000000E+00 0. -1.
        -11    1    4    4    0    0  0.29528380565E-01 -0.19685659863E-01  0.32110726270E-01  0.47862410362E-01  0.51100000000E-03 0. -1.
         11    1    4    4    0    0  0.43228854197E-01 -0.15075840825E-01  0.70709598234E-01  0.84238490105E-01  0.51100000000E-03 0.  1.
</event>
<event>
 8    1  0.1131376E+005  0.1043930E+01  0.7957747E-01            NaN
         13   -1    0    0    0    0  0.00000000000E+00  0.00000000000E+00  0.74505805969E-08  0.10566000000E+00  0.10566000000E+00 0.  1.
     999900   -1    0    0    0    0 -0.00000000000E+00 -0.00000000000E+00 -0.74505805969E-08  0.93827000000E+00  0.93827000000E+00 0. -1.
     999902    2    1    2    0    0  0.19273337475E-01  0.12059703675E-01  0.55589263660E-02  0.10205248798E+01  0.10202564533E+01 0.  0.
     999903    2    3    3    0    0 -0.89803908463E-01  0.90821085134E-01 -0.14122951079E-01  0.13008196915E+00  0.20215080280E-01 0.  0.
         14    1    1    2    0    0 -0.19273337475E-01 -0.12059703675E-01 -0.55589263660E-02  0.23405120220E-01  0.00000000000E+00 0.  1.
     999901    1    3    3    0    0  0.10907724594E+00 -0.78761381459E-01  0.19681877445E-01  0.89044291063E+00  0.88000000000E+00 0. -1.
        -11    1    4    4    0    0 -0.22064978505E-01  0.32309978593E-01  0.17762906471E-02  0.39169048018E-01  0.51100000000E-03 0.  1.
         11    1    4    4    0    0 -0.67738929958E-01  0.58511106541E-01 -0.15899241726E-01  0.90912921133E-01  0.51100000000E-03 0. -1.
</event>
<event>
 8    1  0.1131376E+005  0.1043930E+01  0.7957747E-01            NaN
         13   -1    0    0    0    0  0.00000000000E+00  0.00000000000E+00  0.74505805969E-08  0.10566000000E+00  0.10566000000E+00 0. -1.
     999900   -1    0    0    0    0 -0.00000000000E+00 -0.00000000000E+00 -0.74505805969E-08  0.93827000000E+00  0.93827000000E+00 0. -1.
     999902    2    1    2    0    0  0.18773796660E-01 -0.60866756951E-02 -0.13650215894E-01  0.10199335116E+01  0.10196511838E+01 0.  0.
     999903    2    3    3    0    0  0.56051190836E-01  0.11425493425E+00  0.19948636914E-01  0.13032652527E+00  0.19776983587E-01 0.  0.
         14    1    1    2    0    0 -0.18773796660E-01  0.60866756951E-02  0.13650215894E-01  0.23996488410E-01  0.00000000000E+00 0. -1.
     999901    1    3    3    0    0 -0.37277394176E-01 -0.12034160994E+00 -0.33598852809E-01  0.88960698632E+00  0.88000000000E+00 0.  1.
        -11    1    4    4    0    0  0.37826267781E-01  0.55883850653E-01  0.13651313152E-01  0.68850931511E-01  0.51100000000E-03 0.  1.
         11    1    4    4    0    0  0.18224923055E-01  0.58371083595E-01  0.62973237622E-02  0.61475593759E-01  0.51100000000E-03 0. -1.
</event>
<event>
 8    1  0.1131376E+005  0.1043930E+01  0.7957747E-01            NaN
         13   -1    0    0    0    0  0.00000000000E+00  0.00000000000E+00  0.74505805969E-08  0.10566000000E+00  0.10566000000E+00 0. -1.
     999900   -1    0    0    0    0 -0.00000000000E+00 -0.00000000000E+00 -0.74505805969E-08  0.93827000000E+00  0.93827000000E+00 0.  1.
     999902    2    1    2    0    0 -0.10638806786E-01 -0.20187497607E-02  0.20835417428E-01  0.10204486419E+01  0.10201784435E+01 0.  0.
     999903    2    3    3    0    0  0.43201892638E-01 -0.39734739278E-01  0.11727886713E+00  0.13274224008E+00  0.20516251940E-01 0.  0.
         14    1    1    2    0    0  0.10638806786E-01  0.20187497607E-02 -0.20835417428E-01  0.23481358134E-01  0.00000000000E+00 0.  1.
     999901    1    3    3    0    0 -0.53840699424E-01  0.37715989517E-01 -0.96443449702E-01  0.88770640178E+00  0.88000000000E+00 0.  1.
        -11    1    4    4    0    0  0.93830791712E-02 -0.61596339869E-02  0.88521731234E-02  0.14304032844E-01  0.51100000000E-03 0. -1.
         11    1    4    4    0    0  0.33818813467E-01 -0.33575105291E-01  0.10842669401E+00  0.11843820724E+00  0.51100000000E-03 0.  1.
</event>
<event>
 8    1  0.1131376E+005  0.1043930E+01  0.7957747E-01            NaN
         13   -1    0    0    0    0  0.00000000000E+00  0.00000000000E+00  0.74505805969E-08  0.10566000000E+00  0.10566000000E+00 0. -1.
     999900   -1    0    0    0    0 -0.00000000000E+00 -0.00000000000E+00 -0.74505805969E-08  0.93827000000E+00  0.93827000000E+00 0.  1.
     999902    2    1    2    0    0 -0.13621321729E-01 -0.13128717002E-01  0.14824781609E-01  0.10198950720E+01  0.10196118281E+01 0.  0.
     999903    2    3    3    0    0  0.14031527298E-01 -0.45201295815E-01 -0.11811731572E+00  0.12890296672E+00  0.20596933122E-01 0.  0.
         14    1    1    2    0    0  0.13621321729E-01  0.13128717002E-01 -0.14824781609E-01  0.24034928032E-01  0.00000000000E+00 0.  1.
     999901    1    3    3    0    0 -0.27652849027E-01  0.32072578813E-01  0.13294209733E+00  0.89099210525E+00  0.88000000000E+00 0. -1.
        -11    1    4    4    0    0  0.15610152945E-01 -0.23690721288E-01 -0.82691882347E-01  0.87425028895E-01  0.51100000000E-03 0. -1.
         11    1    4    4    0    0 -0.15786256470E-02 -0.21510574527E-01 -0.35425433375E-01  0.41477937825E-01  0.51100000000E-03 0.  1.
</event>
<event>
 8    1  0.1131376E+005  0.1043930E+01  0.7957747E-01            NaN
         13   -1    0    0    0    0  0.00000000000E+00  0.00000000000E+00  0.74505805969E-08  0.10566000000E+00  0.10566000000E+00 0. -1.
     999900   -1    0    0    0    0 -0.00000000000E+00 -0.00000000000E+00 -0.74505805969E-08  0.93827000000E+00  0.93827000000E+00 0. -1.
     999902    2    1    2    0    0  0.22821440875E-01 -0.88208874134E-02  0.26822794052E-03  0.10194616906E+01  0.10191680138E+01 0.  0.
     999903    2    3    3    0    0 -0.10528635103E+00  0.15465703499E-01  0.67331486160E-01  0.12733001566E+00  0.18841447947E-01 0.  0.
         14    1    1    2    0    0 -0.22821440875E-01  0.88208874134E-02 -0.26822794052E-03  0.24468309394E-01  0.00000000000E+00 0.  1.
     999901    1    3    3    0    0  0.12810779190E+00 -0.24286590912E-01 -0.67063258220E-01  0.89213167495E+00  0.88000000000E+00 0. -1.
        -11    1    4    4    0    0 -0.28070686674E-01  0.43042462281E-02  0.86054329659E-02  0.29678352102E-01  0.51100000000E-03 0.  1.
         11    1    4    4    0    0 -0.77215664356E-01  0.11161457271E-01  0.58726053194E-01  0.97651663556E-01  0.51100000000E-03 0. -1.
</event>
<event>
 8    1  0.1183044E+005  0.1043930E+01  0.7957747E-01            NaN
         13   -1    0    0    0    0  0.00000000000E+00  0.00000000000E+00  0.74505805969E-08  0.10566000000E+00  0.10566000000E+00 0.  1.
     999900   -1    0    0    0    0 -0.00000000000E+00 -0.00000000000E+00 -0.74505805969E-08  0.93827000000E+00  0.93827000000E+00 0. -1.
     999902    2    1    2    0    0  0.11412612765E-01  0.89322381708E-02 -0.18120068604E-01  0.10207272093E+01  0.10204634567E+01 0.  0.
     999903    2    3    3    0    0 -0.53308218319E-01  0.25901110898E-01  0.11357408529E+00  0.12841556041E+00  0.88797308059E-02 0.  0.
         14    1    1    2    0    0 -0.11412612765E-01 -0.89322381708E-02  0.18120068604E-01  0.23202790675E-01  0.00000000000E+00 0.  1.
     999901    1    3    3    0    0  0.64720831084E-01 -0.16968872728E-01 -0.13169415390E+00  0.89231164891E+00  0.88000000000E+00 0. -1.
        -11    1    4    4    0    0 -0.12761457866E-01  0.37523479337E-02  0.32122232767E-01  0.34771164502E-01  0.51100000000E-03 0.  1.
         11    1    4    4    0    0 -0.40546760453E-01  0.22148762965E-01  0.81451852527E-01  0.93644395909E-01  0.51100000000E-03 0. -1.
</event>
<event>
 8    1  0.1131376E+005  0.1043930E+01  0.7957747E-01            NaN
         13   -1    0    0    0    0  0.00000000000E+00  0.00000000000E+00  0.74505805969E-08  0.10566000000E+00  0.10566000000E+00 0.  1.
     999900   -1    0    0    0    0 -0.00000000000E+00 -0.00000000000E+00 -0.74505805969E-08  0.93827000000E+00  0.93827000000E+00 0.  1.
     999902    2    1    2    0    0 -0.76093343319E-03 -0.10048201208E-02  0.23501656128E-01  0.10203945688E+01  0.10201231099E+01 0.  0.
     999903    2    3    3    0    0 -0.62738707739E-01 -0.53654327966E-01  0.10248483709E+00  0.13312259351E+00  0.20088571628E-01 0.  0.
         14    1    1    2    0    0  0.76093343319E-03  0.10048201208E-02 -0.23501656128E-01  0.23535431245E-01  0.00000000000E+00 0. -1.
     999901    1    3    3    0    0  0.61977774305E-01  0.52649507845E-01 -0.78983180965E-01  0.88727197525E+00  0.88000000000E+00 0.  1.
        -11    1    4    4    0    0 -0.79680745913E-02 -0.17504792702E-01  0.20658701875E-01  0.28230321719E-01  0.51100000000E-03 0. -1.
         11    1    4    4    0    0 -0.54770633147E-01 -0.36149535264E-01  0.81826135218E-01  0.10489227179E+00  0.51100000000E-03 0.  1.
</event>
<event>
 8    1  0.1131376E+005  0.1043930E+01  0.7957747E-01            NaN
         13   -1    0    0    0    0  0.00000000000E+00  0.00000000000E+00  0.74505805969E-08  0.10566000000E+00  0.10566000000E+00 0.  1.
     999900   -1    0    0    0    0 -0.00000000000E+00 -0.00000000000E+00 -0.74505805969E-08  0.93827000000E+00  0.93827000000E+00 0. -1.
     999902    2    1    2    0    0  0.13302444977E-01  0.18864663142E-01 -0.33360686473E-02  0.10206070518E+01  0.10203405286E+01 0.  0.
     999903    2    3    3    0    0  0.57245726039E-01  0.60673063472E-01 -0.10169667340E+00  0.13305211670E+00  0.20058878244E-01 0.  0.
         14    1    1    2    0    0 -0.13302444977E-01 -0.18864663142E-01  0.33360686473E-02  0.23322948181E-01  0.00000000000E+00 0.  1.
     999901    1    3    3    0    0 -0.43943281061E-01 -0.41808400329E-01  0.98360604754E-01  0.88755493512E+00  0.88000000000E+00 0.  1.
        -11    1    4    4    0    0  0.21961810833E-01  0.15984237444E-01 -0.45854862641E-01  0.53298654116E-01  0.51100000000E-03 0. -1.
         11    1    4    4    0    0  0.35283915206E-01  0.44688826028E-01 -0.55841810760E-01  0.79753462583E-01  0.51100000000E-03 0.  1.
</event>
<event>
 8    1  0.1131376E+005  0.1043930E+01  0.7957747E-01            NaN
         13   -1    0    0    0    0  0.00000000000E+00  0.00000000000E+00  0.74505805969E-08  0.10566000000E+00  0.10566000000E+00 0.  1.
     999900   -1    0    0    0    0 -0.00000000000E+00 -0.00000000000E+00 -0.74505805969E-08  0.93827000000E+00  0.93827000000E+00 0. -1.
     999902    2    1    2    0    0 -0.15514522343E-01 -0.17415112837E-01 -0.47760197294E-02  0.10201225028E+01  0.10198446567E+01 0.  0.
     999903    2    3    3    0    0 -0.73999844799E-01  0.93379376595E-01 -0.48403404866E-01  0.13017907731E+00  0.20199444632E-01 0.  0.
         14    1    1    2    0    0  0.15514522343E-01  0.17415112837E-01  0.47760197294E-02  0.23807497203E-01  0.00000000000E+00 0. -1.
     999901    1    3    3    0    0  0.58485322457E-01 -0.11079448943E+00  0.43627385136E-01  0.88994342549E+00  0.88000000000E+00 0. -1.
        -11    1    4    4    0    0 -0.75286417594E-01  0.91868037513E-01 -0.47873592073E-01  0.12806218384E+00  0.51100000000E-03 0. -1.
         11    1    4    4    0    0  0.12865727949E-02  0.15113390819E-02 -0.52981279252E-03  0.21168934721E-02  0.51100000000E-03 0.  1.
</event>
<event>
 8    1  0.1131376E+005  0.1043930E+01  0.7957747E-01            NaN
         13   -1    0    0    0    0  0.00000000000E+00  0.00000000000E+00  0.74505805969E-08  0.10566000000E+00  0.10566000000E+00 0. -1.
     999900   -1    0    0    0    0 -0.00000000000E+00 -0.00000000000E+00 -0.74505805969E-08  0.93827000000E+00  0.93827000000E+00 0.  1.
     999902    2    1    2    0    0  0.15531657654E-02  0.23330900944E-01 -0.18874689185E-02  0.10204714024E+01  0.10202017336E+01 0.  0.
     999903    2    3    3    0    0  0.17179185815E-01 -0.10533968181E+00 -0.68949978805E-01  0.12845252838E+00  0.18824969583E-01 0.  0.
         14    1    1    2    0    0 -0.15531657654E-02 -0.23330900944E-01  0.18874689185E-02  0.23458597607E-01  0.00000000000E+00 0. -1.
     999901    1    3    3    0    0 -0.15626020050E-01  0.12867058276E+00  0.67062509886E-01  0.89201887402E+00  0.88000000000E+00 0. -1.
        -11    1    4    4    0    0  0.14516511894E-01 -0.61734467115E-01 -0.31041860909E-01  0.70609714609E-01  0.51100000000E-03 0.  1.
         11    1    4    4    0    0  0.26626739215E-02 -0.43605214697E-01 -0.37908117896E-01  0.57842813767E-01  0.51100000000E-03 0. -1.
</event>
<event>
 8    1  0.1131376E+005  0.1043930E+01  0.7957747E-01            NaN
         13   -1    0    0    0    0  0.00000000000E+00  0.00000000000E+00  0.74505805969E-08  0.10566000000E+00  0.10566000000E+00 0.  1.
     999900   -1    0    0    0    0 -0.00000000000E+00 -0.00000000000E+00 -0.74505805969E-08  0.93827000000E+00  0.93827000000E+00 0.  1.
     999902    2    1    2    0    0  0.14274718076E-01 -0.17940962229E-01  0.41765152910E-02  0.10206257304E+01  0.10203596388E+01 0.  0.
     999903    2    3    3    0    0 -0.98485934610E-01 -0.76293515282E-01  0.35124660201E-01  0.13097536485E+00  0.20015610235E-01 0.  0.
         14    1    1    2    0    0 -0.14274718076E-01  0.17940962229E-01 -0.41765152910E-02  0.23304269605E-01  0.00000000000E+00 0. -1.
     999901    1    3    3    0    0  0.11276065269E+00  0.58352553053E-01 -0.30948144910E-01  0.88965036555E+00  0.88000000000E+00 0. -1.
        -11    1    4    4    0    0 -0.89155929774E-01 -0.60961317617E-01  0.27389217563E-01  0.11142482856E+00  0.51100000000E-03 0. -1.
         11    1    4    4    0    0 -0.93300048366E-02 -0.15332197665E-01  0.77354426372E-02  0.19550536292E-01  0.51100000000E-03 0.  1.
</event>
<event>
 8    1  0.1131376E+005  0.1043930E+01  0.7957747E-01            NaN
         13   -1    0    0    0    0  0.00000000000E+00  0.00000000000E+00  0.74505805969E-08  0.10566000000E+00  0.10566000000E+00 0.  1.
     999900   -1    0    0    0    0 -0.00000000000E+00 -0.00000000000E+00 -0.74505805969E-08  0.93827000000E+00  0.93827000000E+00 0.  1.
     999902    2    1    2    0    0  0.79581928112E-02  0.25057450218E-02  0.12757370382E-01  0.10286865722E+01  0.10285736249E+01 0.  0.
     999903    2    3    3    0    0  0.10799338132E+00  0.67432087653E-01 -0.50414233609E-01  0.13839834899E+00  0.20071153352E-01 0.  0.
         14    1    1    2    0    0 -0.79581928112E-02 -0.25057450218E-02 -0.12757370382E-01  0.15243427764E-01  0.00000000000E+00 0. -1.
     999901    1    3    3    0    0 -0.10003518851E+00 -0.64926342632E-01  0.63171603991E-01  0.89028822325E+00  0.88000000000E+00 0.  1.
        -11    1    4    4    0    0  0.67613803238E-01  0.30896325082E-01 -0.26514846627E-01  0.78927229171E-01  0.51100000000E-03 0. -1.
         11    1    4    4    0    0  0.40379578083E-01  0.36535762572E-01 -0.23899386982E-01  0.59471119814E-01  0.51100000000E-03 0.  1.
</event>
<event>
 8    1  0.1131376E+005  0.1043930E+01  0.7957747E-01            NaN
         13   -1    0    0    0    0  0.00000000000E+00  0.00000000000E+00  0.74505805969E-08  0.10566000000E+00  0.10566000000E+00 0.  1.
     999900   -1    0    0    0    0 -0.00000000000E+00 -0.00000000000E+00 -0.74505805969E-08  0.93827000000E+00  0.93827000000E+00 0.  1.
     999902    2    1    2    0    0  0.43946406897E-02  0.20711640509E-01 -0.74833179695E-02  0.10214737099E+01  0.10212268381E+01 0.  0.
     999903    2    3    3    0    0 -0.39457942966E-01  0.66847465030E-01 -0.10601943366E+00  0.13368942891E+00  0.24642042179E-01 0.  0.
         14    1    1    2    0    0 -0.43946406897E-02 -0.20711640509E-01  0.74833179695E-02  0.22456290148E-01  0.00000000000E+00 0.  1.
     999901    1    3    3    0    0  0.43852583656E-01 -0.46135824521E-01  0.98536115695E-01  0.88778428095E+00  0.88000000000E+00 0. -1.
        -11    1    4    4    0    0 -0.36706569037E-01  0.59666670753E-01 -0.78977747359E-01  0.10557096906E+00  0.51100000000E-03 0. -1.
         11    1    4    4    0    0 -0.27513739296E-02  0.71807942771E-02 -0.27041686305E-01  0.28118459847E-01  0.51100000000E-03 0.  1.
</event>
<event>
 8    1  0.1131376E+005  0.1043930E+01  0.7957747E-01            NaN
         13   -1    0    0    0    0  0.00000000000E+00  0.00000000000E+00  0.74505805969E-08  0.10566000000E+00  0.10566000000E+00 0.  1.
     999900   -1    0    0    0    0 -0.00000000000E+00 -0.00000000000E+00 -0.74505805969E-08  0.93827000000E+00  0.93827000000E+00 0.  1.
     999902    2    1    2    0    0 -0.59893446448E-02  0.56079252434E-02 -0.22283248269E-01  0.10201841745E+01  0.10199077829E+01 0.  0.
     999903    2    3    3    0    0  0.78688729046E-02 -0.12804096685E+00 -0.21832940480E-02  0.12975838607E+00  0.19392360139E-01 0.  0.
         14    1    1    2    0    0  0.59893446448E-02 -0.56079252434E-02  0.22283248269E-01  0.23745825491E-01  0.00000000000E+00 0.  1.
     999901    1    3    3    0    0 -0.13858217549E-01  0.13364889209E+00 -0.20099954221E-01  0.89042578844E+00  0.88000000000E+00 0. -1.
        -11    1    4    4    0    0  0.46910667263E-02 -0.61991719368E-02 -0.11089310171E-02  0.78693512269E-02  0.51100000000E-03 0.  1.
         11    1    4    4    0    0  0.31778061783E-02 -0.12184179491E+00 -0.10743630310E-02  0.12188903485E+00  0.51100000000E-03 0. -1.
</event>
<event>
 8    1  0.1131376E+005  0.1043930E+01  0.7957747E-01            NaN
         13   -1    0    0    0    0  0.00000000000E+00  0.00000000000E+00  0.74505805969E-08  0.10566000000E+00  0.10566000000E+00 0.  1.
     999900   -1    0    0    0    0 -0.00000000000E+00 -0.00000000000E+00 -0.74505805969E-08  0.93827000000E+00  0.93827000000E+00 0.  1.
     999902    2    1    2    0    0 -0.10881391454E-01  0.14814919340E-01  0.14227330413E-01  0.10206855717E+01  0.10204208607E+01 0.  0.
     999903    2    3    3    0    0  0.78338586687E-02 -0.10041930684E+00 -0.76899039727E-01  0.12831053689E+00  0.20117779166E-01 0.  0.
         14    1    1    2    0    0  0.10881391454E-01 -0.14814919340E-01 -0.14227330413E-01  0.23244428272E-01  0.00000000000E+00 0. -1.
     999901    1    3    3    0    0 -0.18715250122E-01  0.11523422618E+00  0.91126370139E-01  0.89237503484E+00  0.88000000000E+00 0. -1.
        -11    1    4    4    0    0 -0.49601197853E-02 -0.25069440220E-01 -0.26143859311E-01  0.36562851665E-01  0.51100000000E-03 0.  1.
         11    1    4    4    0    0  0.12793978454E-01 -0.75349866616E-01 -0.50755180416E-01  0.91747685223E-01  0.51100000000E-03 0. -1.
</event>
<event>
 8    1  0.1131376E+005  0.1043930E+01  0.7957747E-01            NaN
         13   -1    0    0    0    0  0.00000000000E+00  0.00000000000E+00  0.74505805969E-08  0.10566000000E+00  0.10566000000E+00 0.  1.
     999900   -1    0    0    0    0 -0.00000000000E+00 -0.00000000000E+00 -0.74505805969E-08  0.93827000000E+00  0.93827000000E+00 0. -1.
     999902    2    1    2    0    0  0.19703235989E-01 -0.13609252101E-01 -0.43461456327E-02  0.10195924111E+01  0.10193019016E+01 0.  0.
     999903    2    3    3    0    0 -0.89762007402E-01 -0.50709918605E-01 -0.75316490804E-01  0.12920154814E+00  0.19792736972E-01 0.  0.
         14    1    1    2    0    0 -0.19703235989E-01  0.13609252101E-01  0.43461456327E-02  0.24337588891E-01  0.00000000000E+00 0.  1.
     999901    1    3    3    0    0  0.10946524339E+00  0.37100666504E-01  0.70970345171E-01  0.89039086297E+00  0.88000000000E+00 0. -1.
        -11    1    4    4    0    0 -0.16692485010E-01 -0.14648299833E-02 -0.14129367934E-01  0.21924528317E-01  0.51100000000E-03 0.  1.
         11    1    4    4    0    0 -0.73069522391E-01 -0.49245088622E-01 -0.61187122870E-01  0.10727701982E+00  0.51100000000E-03 0. -1.
</event>
<event>
 8    1  0.1131376E+005  0.1043930E+01  0.7957747E-01            NaN
         13   -1    0    0    0    0  0.00000000000E+00  0.00000000000E+00  0.74505805969E-08  0.10566000000E+00  0.10566000000E+00 0. -1.
     999900   -1    0    0    0    0 -0.00000000000E+00 -0.00000000000E+00 -0.74505805969E-08  0.93827000000E+00  0.93827000000E+00 0.  1.
     999902    2    1    2    0    0  0.34221987115E-02 -0.85306910065E-03  0.23582792823E-01  0.10200849316E+01  0.10198061974E+01 0.  0.
     999903    2    3    3    0    0  0.60887598085E-01 -0.72682694949E-01  0.90777205950E-01  0.13274235036E+00  0.19747321699E-01 0.  0.
         14    1    1    2    0    0 -0.34221987115E-02  0.85306910065E-03 -0.23582792823E-01  0.23845068426E-01  0.00000000000E+00 0.  1.
     999901    1    3    3    0    0 -0.57465399374E-01  0.71829625848E-01 -0.67194413127E-01  0.88734258121E+00  0.88000000000E+00 0.  1.
        -11    1    4    4    0    0  0.40477090526E-01 -0.34887848159E-01  0.43898936327E-01  0.69158763279E-01  0.51100000000E-03 0. -1.
         11    1    4    4    0    0  0.20410507559E-01 -0.37794846790E-01  0.46878269623E-01  0.63583587084E-01  0.51100000000E-03 0.  1.
</event>
<event>
 7    1  0.1131376E+005  0.1043930E+01  0.7957747E-01            NaN
         13   -1    0    0    0    0  0.00000000000E+00  0.00000000000E+00  0.74505805969E-08  0.10566000000E+00  0.10566000000E+00 0.  1.
     999900   -1    0    0    0    0 -0.00000000000E+00 -0.00000000000E+00 -0.74505805969E-08  0.93827000000E+00  0.93827000000E+00 0.  1.
     999903    2    1    2    0    0  0.56531453114E-01 -0.56101651470E-01 -0.50276179963E-01  0.96362947758E-01  0.20369657340E-01 0.  0.
         14    1    1    2    0    0 -0.53583752473E-01  0.13778784395E-01 -0.29926269633E-01  0.62901947845E-01  0.00000000000E+00 0. -1.
     999901    1    1    2    0    0 -0.29477006408E-02  0.42322867075E-01  0.80202449595E-01  0.88466510440E+00  0.88000000000E+00 0. -1.
        -11    1    3    3    0    0  0.19891578129E-01 -0.18871467404E-01 -0.29127787423E-01  0.40006203064E-01  0.51100000000E-03 0. -1.
         11    1    3    3    0    0  0.36639874985E-01 -0.37230184066E-01 -0.21148392540E-01  0.56356744694E-01  0.51100000000E-03 0.  1.
</event>
<event>
 8    1  0.1131376E+005  0.1043930E+01  0.7957747E-01            NaN
         13   -1    0    0    0    0  0.00000000000E+00  0.00000000000E+00  0.74505805969E-08  0.10566000000E+00  0.10566000000E+00 0. -1.
     999900   -1    0    0    0    0 -0.00000000000E+00 -0.00000000000E+00 -0.74505805969E-08  0.93827000000E+00  0.93827000000E+00 0.  1.
     999902    2    1    2    0    0  0.69030093534E-02 -0.98896698501E-02  0.20350648228E-01  0.10202740073E+01  0.10199997274E+01 0.  0.
     999903    2    3    3    0    0  0.12410959665E+00  0.22511120564E-02  0.40004787358E-01  0.13220246294E+00  0.21652914566E-01 0.  0.
         14    1    1    2    0    0 -0.69030093534E-02  0.98896698501E-02 -0.20350648228E-01  0.23655992712E-01  0.00000000000E+00 0.  1.
     999901    1    3    3    0    0 -0.11720658730E+00 -0.12140781906E-01 -0.19654139130E-01  0.88807154435E+00  0.88000000000E+00 0. -1.
        -11    1    4    4    0    0  0.67931190345E-01 -0.94826471867E-02  0.22942683027E-01  0.72327000800E-01  0.51100000000E-03 0.  1.
         11    1    4    4    0    0  0.56178406310E-01  0.11733759243E-01  0.17062104331E-01  0.59875462142E-01  0.51100000000E-03 0. -1.
</event>
<event>
 8    1  0.1131376E+005  0.1043930E+01  0.7957747E-01            NaN
         13   -1    0    0    0    0  0.00000000000E+00  0.00000000000E+00  0.74505805969E-08  0.10566000000E+00  0.10566000000E+00 0.  1.
     999900   -1    0    0    0    0 -0.00000000000E+00 -0.00000000000E+00 -0.74505805969E-08  0.93827000000E+00  0.93827000000E+00 0. -1.
     999902    2    1    2    0    0 -0.20371537678E-01 -0.43862439305E-02  0.13881998600E-01  0.10188910590E+01  0.10185833503E+01 0.  0.
     999903    2    3    3    0    0 -0.12954164744E+00  0.14077941613E-01 -0.10044898287E-02  0.13182812627E+00  0.19960436221E-01 0.  0.
         14    1    1    2    0    0  0.20371537678E-01  0.43862439305E-02 -0.13881998600E-01  0.25038941038E-01  0.00000000000E+00 0. -1.
     999901    1    3    3    0    0  0.10917010977E+00 -0.18464185544E-01  0.14886488428E-01  0.88706293269E+00  0.88000000000E+00 0.  1.
        -11    1    4    4    0    0 -0.48318786559E-01 -0.11914603619E-02 -0.75491907191E-02  0.48922143390E-01  0.51100000000E-03 0. -1.
         11    1    4    4    0    0 -0.81222860885E-01  0.15269401975E-01  0.65447008905E-02  0.82905982883E-01  0.51100000000E-03 0.  1.
</event>
<event>
 8    1  0.1131376E+005  0.1043930E+01  0.7957747E-01            NaN
         13   -1    0    0    0    0  0.00000000000E+00  0.00000000000E+00  0.74505805969E-08  0.10566000000E+00  0.10566000000E+00 0.  1.
     999900   -1    0    0    0    0 -0.00000000000E+00 -0.00000000000E+00 -0.74505805969E-08  0.93827000000E+00  0.93827000000E+00 0. -1.
     999902    2    1    2    0    0  0.54282760528E-02 -0.16256307656E-01  0.23007998738E-01  0.10152402505E+01  0.10148347967E+01 0.  0.
     999903    2    3    3    0    0  0.82442654485E-01 -0.12971033117E-01  0.95518441193E-01  0.12889958701E+00  0.22941053714E-01 0.  0.
         14    1    1    2    0    0 -0.54282760528E-02  0.16256307656E-01 -0.23007998738E-01  0.28689749484E-01  0.00000000000E+00 0. -1.
     999901    1    3    3    0    0 -0.77014378432E-01 -0.32852745394E-02 -0.72510442455E-01  0.88634066350E+00  0.88000000000E+00 0. -1.
        -11    1    4    4    0    0  0.21559868907E-01 -0.10461086948E-01  0.16435752782E-01  0.29062989831E-01  0.51100000000E-03 0. -1.
         11    1    4    4    0    0  0.60882785578E-01 -0.25099461688E-02  0.79082688411E-01  0.99836597182E-01  0.51100000000E-03 0.  1.
</event>
<event>
 8    1  0.1131376E+005  0.1043930E+01  0.7957747E-01            NaN
         13   -1    0    0    0    0  0.00000000000E+00  0.00000000000E+00  0.74505805969E-08  0.10566000000E+00  0.10566000000E+00 0. -1.
     999900   -1    0    0    0    0 -0.00000000000E+00 -0.00000000000E+00 -0.74505805969E-08  0.93827000000E+00  0.93827000000E+00 0. -1.
     999902    2    1    2    0    0 -0.58458537809E-02 -0.13043480308E-01 -0.18249754621E-01  0.10207489748E+01  0.10204857224E+01 0.  0.
     999903    2    3    3    0    0 -0.26471086620E-01 -0.12859032107E+00 -0.89622384284E-02  0.13290736135E+00  0.18650894953E-01 0.  0.
         14    1    1    2    0    0  0.58458537809E-02  0.13043480308E-01  0.18249754621E-01  0.23181025187E-01  0.00000000000E+00 0. -1.
     999901    1    3    3    0    0  0.20625232839E-01  0.11554684077E+00 -0.92875161930E-02  0.88784161346E+00  0.88000000000E+00 0. -1.
        -11    1    4    4    0    0 -0.23502072820E-01 -0.12636884886E+00 -0.71157407500E-02  0.12873355536E+00  0.51100000000E-03 0.  1.
         11    1    4    4    0    0 -0.29690137999E-02 -0.22214722152E-02 -0.18464976784E-02  0.41738059877E-02  0.51100000000E-03 0. -1.
</event>
<event>
 8    1  0.1131376E+005  0.1043930E+01  0.7957747E-01            NaN
         13   -1    0    0    0    0  0.00000000000E+00  0.00000000000E+00  0.74505805969E-08  0.10566000000E+00  0.10566000000E+00 0.  1.
     999900   -1    0    0    0    0 -0.00000000000E+00 -0.00000000000E+00 -0.74505805969E-08  0.93827000000E+00  0.93827000000E+00 0. -1.
     999902    2    1    2    0    0  0.11323111326E-01 -0.17634709830E-02  0.20896617529E-01  0.10200974319E+01  0.10198189933E+01 0.  0.
     999903    2    3    3    0    0 -0.95909462483E-01 -0.75139421278E-01 -0.36543971825E-01  0.12870398547E+00  0.19613678253E-01 0.  0.
         14    1    1    2    0    0 -0.11323111326E-01  0.17634709830E-02 -0.20896617529E-01  0.23832568140E-01  0.00000000000E+00 0. -1.
     999901    1    3    3    0    0  0.10723257381E+00  0.73375950295E-01  0.57440589353E-01  0.89139344639E+00  0.88000000000E+00 0. -1.
        -11    1    4    4    0    0 -0.30678394664E-01 -0.21854210158E-01 -0.21772621345E-02  0.37732903310E-01  0.51100000000E-03 0. -1.
         11    1    4    4    0    0 -0.65231067818E-01 -0.53285211121E-01 -0.34366709690E-01  0.90971082157E-01  0.51100000000E-03 0.  1.
</event>
<event>
 8    1  0.1131376E+005  0.1043930E+01  0.7957747E-01            NaN
         13   -1    0    0    0    0  0.00000000000E+00  0.00000000000E+00  0.74505805969E-08  0.10566000000E+00  0.10566000000E+00 0. -1.
     999900   -1    0    0    0    0 -0.00000000000E+00 -0.00000000000E+00 -0.74505805969E-08  0.93827000000E+00  0.93827000000E+00 0.  1.
     999902    2    1    2    0    0 -0.13114836374E-01 -0.16201358367E-02  0.19812299136E-01  0.10201150683E+01  0.10198370466E+01 0.  0.
     999903    2    3    3    0    0  0.83781139474E-01  0.85629460545E-01  0.46718261196E-01  0.13010088137E+00  0.19797968553E-01 0.  0.
         14    1    1    2    0    0  0.13114836374E-01  0.16201358367E-02 -0.19812299136E-01  0.23814931667E-01  0.00000000000E+00 0.  1.
     999901    1    3    3    0    0 -0.96895975847E-01 -0.87249596382E-01 -0.26905962059E-01  0.89001418696E+00  0.88000000000E+00 0.  1.
        -11    1    4    4    0    0  0.58398574367E-01  0.65113395383E-01  0.25270966540E-01  0.91044113579E-01  0.51100000000E-03 0.  1.
         11    1    4    4    0    0  0.25382565107E-01  0.20516065162E-01  0.21447294655E-01  0.39056767790E-01  0.51100000000E-03 0. -1.
</event>
<event>
 8    1  0.1131376E+005  0.1043930E+01  0.7957747E-01            NaN
         13   -1    0    0    0    0  0.00000000000E+00  0.00000000000E+00  0.74505805969E-08  0.10566000000E+00  0.10566000000E+00 0. -1.
     999900   -1    0    0    0    0 -0.00000000000E+00 -0.00000000000E+00 -0.74505805969E-08  0.93827000000E+00  0.93827000000E+00 0.  1.
     999902    2    1    2    0    0  0.21742486380E-01  0.82904428437E-02  0.26422275512E-02  0.10205110222E+01  0.10202422741E+01 0.  0.
     999903    2    3    3    0    0 -0.11019029636E+00 -0.51675913911E-01 -0.33767690110E-01  0.12791486196E+00  0.20239899339E-01 0.  0.
         14    1    1    2    0    0 -0.21742486380E-01 -0.82904428437E-02 -0.26422275512E-02  0.23418977837E-01  0.00000000000E+00 0.  1.
     999901    1    3    3    0    0  0.13193278274E+00  0.59966356755E-01  0.36409917661E-01  0.89259616020E+00  0.88000000000E+00 0.  1.
        -11    1    4    4    0    0 -0.13343012200E-01 -0.48519560055E-02  0.24317092341E-02  0.14413597138E-01  0.51100000000E-03 0.  1.
         11    1    4    4    0    0 -0.96847284157E-01 -0.46823957906E-01 -0.36199399344E-01  0.11350126482E+00  0.51100000000E-03 0. -1.
</event>
<event>
 7    1  0.1131376E+005  0.1043930E+01  0.7957747E-01            NaN
         13   -1    0    0    0    0  0.00000000000E+00  0.00000000000E+00  0.74505805969E-08  0.10566000000E+00  0.10566000000E+00 0. -1.
     999900   -1    0    0    0    0 -0.00000000000E+00 -0.00000000000E+00 -0.74505805969E-08  0.93827000000E+00  0.93827000000E+00 0. -1.
     999903    2    1    2    0    0 -0.37034861055E-01 -0.10232623178E+00  0.12859501484E-01  0.11125472428E+00  0.19235598572E-01 0.  0.
         14    1    1    2    0    0  0.17951799148E-01 -0.25782799928E-01  0.28242673730E-01  0.42245336834E-01  0.00000000000E+00 0. -1.
     999901    1    1    2    0    0  0.19083061907E-01  0.12810903171E+00 -0.41102175214E-01  0.89042993889E+00  0.88000000000E+00 0.  1.
        -11    1    3    3    0    0 -0.34705727175E-01 -0.79630648752E-01  0.15647434537E-01  0.88264551480E-01  0.51100000000E-03 0.  1.
         11    1    3    3    0    0 -0.23291338794E-02 -0.22695583029E-01 -0.27879330537E-02  0.22990172800E-01  0.51100000000E-03 0. -1.
</event>
<event>
 8    1  0.1131376E+005  0.1043930E+01  0.7957747E-01            NaN
         13   -1    0    0    0    0  0.00000000000E+00  0.00000000000E+00  0.74505805969E-08  0.10566000000E+00  0.10566000000E+00 0. -1.
     999900   -1    0    0    0    0 -0.00000000000E+00 -0.00000000000E+00 -0.74505805969E-08  0.93827000000E+00  0.93827000000E+00 0. -1.
     999902    2    1    2    0    0 -0.99197104256E-03  0.14518758751E-01  0.17917756118E-01  0.10208470118E+01  0.10205860067E+01 0.  0.
     999903    2    3    3    0    0 -0.21927890359E-01  0.80290607521E-01 -0.98588247512E-01  0.13048871438E+00  0.19499948776E-01 0.  0.
         14    1    1    2    0    0  0.99197104256E-03 -0.14518758751E-01 -0.17917756118E-01  0.23082988250E-01  0.00000000000E+00 0.  1.
     999901    1    3    3    0    0  0.20935919317E-01 -0.65771848769E-01  0.11650600363E+00  0.89035829737E+00  0.88000000000E+00 0.  1.
        -11    1    4    4    0    0 -0.20703108530E-01  0.70932816156E-01 -0.95054915079E-01  0.12039842654E+00  0.51100000000E-03 0. -1.
         11    1    4    4    0    0 -0.12247818290E-02  0.93577913653E-02 -0.35333324326E-02  0.10090287847E-01  0.51100000000E-03 0.  1.
</event>
<event>
 7    1  0.1131376E+005  0.1043930E+01  0.7957747E-01            NaN
         13   -1    0    0    0    0  0.00000000000E+00  0.00000000000E+00  0.74505805969E-08  0.10566000000E+00  0.10566000000E+00 0.  1.
     999900   -1    0    0    0    0 -0.00000000000E+00 -0.00000000000E+00 -0.74505805969E-08  0.93827000000E+00  0.93827000000E+00 0.  1.
     999903    2    1    2    0    0  0.60761445544E-02  0.26842478946E-01 -0.10290026297E+00  0.10824374341E+00  0.19256314836E-01 0.  0.
         14    1    1    2    0    0 -0.32510861677E-01  0.11170941821E-01  0.39246381068E-01  0.52173024592E-01  0.00000000000E+00 0.  1.
     999901    1    1    2    0    0  0.26434717123E-01 -0.38013420767E-01  0.63653881899E-01  0.88351323199E+00  0.88000000000E+00 0. -1.
        -11    1    3    3    0    0  0.10427385768E-01  0.55982352961E-02 -0.33518509742E-01  0.35550277478E-01  0.51100000000E-03 0. -1.
         11    1    3    3    0    0 -0.43512412141E-02  0.21244243650E-01 -0.69381753224E-01  0.72693465936E-01  0.51100000000E-03 0.  1.
</event>
<event>
 8    1  0.1131376E+005  0.1043930E+01  0.7957747E-01            NaN
         13   -1    0    0    0    0  0.00000000000E+00  0.00000000000E+00  0.74505805969E-08  0.10566000000E+00  0.10566000000E+00 0. -1.
     999900   -1    0    0    0    0 -0.00000000000E+00 -0.00000000000E+00 -0.74505805969E-08  0.93827000000E+00  0.93827000000E+00 0. -1.
     999902    2    1    2    0    0 -0.15890286556E-01  0.11880303216E-01  0.12698665593E-01  0.10203737074E+01  0.10201017615E+01 0.  0.
     999903    2    3    3    0    0 -0.87894193270E-01 -0.78669942162E-01 -0.52142821934E-01  0.13043644672E+00  0.19504967115E-01 0.  0.
         14    1    1    2    0    0  0.15890286556E-01 -0.11880303216E-01 -0.12698665593E-01  0.23556292560E-01  0.00000000000E+00 0.  1.
     999901    1    3    3    0    0  0.72003906714E-01  0.90550245379E-01  0.64841487527E-01  0.88993726072E+00  0.88000000000E+00 0.  1.
        -11    1    4    4    0    0 -0.38591116414E-01 -0.34783691283E-01 -0.33597476895E-01  0.61872700120E-01  0.51100000000E-03 0. -1.
         11    1    4    4    0    0 -0.49303076856E-01 -0.43886250879E-01 -0.18545345039E-01  0.68563746596E-01  0.51100000000E-03 0.  1.
</event>
<event>
 8    1  0.1131376E+005  0.1043930E+01  0.7957747E-01            NaN
         13   -1    0    0    0    0  0.00000000000E+00  0.00000000000E+00  0.74505805969E-08  0.10566000000E+00  0.10566000000E+00 0. -1.
     999900   -1    0    0    0    0 -0.00000000000E+00 -0.00000000000E+00 -0.74505805969E-08  0.93827000000E+00  0.93827000000E+00 0.  1.
     999902    2    1    2    0    0 -0.17703003697E-02  0.18332716221E-01  0.14210688798E-01  0.10206670225E+01  0.10204018839E+01 0.  0.
     999903    2    3    3    0    0  0.28034711344E-01 -0.86934114715E-01  0.91007590448E-01  0.13057309006E+00  0.20578264893E-01 0.  0.
         14    1    1    2    0    0  0.17703003697E-02 -0.18332716221E-01 -0.14210688798E-01  0.23262977530E-01  0.00000000000E+00 0.  1.
     999901    1    3    3    0    0 -0.29805011714E-01  0.10526683094E+00 -0.76796901649E-01  0.89009393241E+00  0.88000000000E+00 0.  1.
        -11    1    4    4    0    0  0.88972669856E-02 -0.37261998249E-01  0.24886858781E-01  0.45686264176E-01  0.51100000000E-03 0.  1.
         11    1    4    4    0    0  0.19137444359E-01 -0.49672116465E-01  0.66120731666E-01  0.84886825879E-01  0.51100000000E-03 0. -1.
</event>
<event>
 8    1  0.1131376E+005  0.1043930E+01  0.7957747E-01            NaN
         13   -1    0    0    0    0  0.00000000000E+00  0.00000000000E+00  0.74505805969E-08  0.10566000000E+00  0.10566000000E+00 0. -1.
     999900   -1    0    0    0    0 -0.00000000000E+00 -0.00000000000E+00 -0.74505805969E-08  0.93827000000E+00  0.93827000000E+00 0. -1.
     999902    2    1    2    0    0 -0.22569376369E-01  0.25973258833E-02 -0.13786349498E-02  0.10211698707E+01  0.10209161970E+01 0.  0.
     999903    2    3    3    0    0 -0.16427634996E-01 -0.92572295887E-01  0.90105180521E-01  0.13130231517E+00  0.16788604897E-01 0.  0.
         14    1    1    2    0    0  0.22569376369E-01 -0.25973258833E-02  0.13786349498E-02  0.22760129300E-01  0.00000000000E+00 0.  1.
     999901    1    3    3    0    0 -0.61417413732E-02  0.95169621771E-01 -0.91483815471E-01  0.88986755553E+00  0.88000000000E+00 0. -1.
        -11    1    4    4    0    0 -0.12255685896E-01 -0.27853016457E-01  0.32965821255E-01  0.44866455783E-01  0.51100000000E-03 0.  1.
         11    1    4    4    0    0 -0.41719490998E-02 -0.64719279431E-01  0.57139359266E-01  0.86435859386E-01  0.51100000000E-03 0. -1.
</event>
<event>
 8    1  0.1131376E+005  0.1043930E+01  0.7957747E-01            NaN
         13   -1    0    0    0    0  0.00000000000E+00  0.00000000000E+00  0.74505805969E-08  0.10566000000E+00  0.10566000000E+00 0.  1.
     999900   -1    0    0    0    0 -0.00000000000E+00 -0.00000000000E+00 -0.74505805969E-08  0.93827000000E+00  0.93827000000E+00 0. -1.
     999902    2    1    2    0    0 -0.19938345047E-01 -0.11367152152E-01 -0.37258624929E-02  0.10206785097E+01  0.10204136359E+01 0.  0.
     999903    2    3    3    0    0  0.25164999450E-01 -0.98737854210E-01 -0.81356401503E-01  0.13180593621E+00  0.19274327563E-01 0.  0.
         14    1    1    2    0    0  0.19938345047E-01  0.11367152152E-01  0.37258624929E-02  0.23251490331E-01  0.00000000000E+00 0.  1.
     999901    1    3    3    0    0 -0.45103344497E-01  0.87370702058E-01  0.77630539010E-01  0.88887257346E+00  0.88000000000E+00 0.  1.
        -11    1    4    4    0    0  0.15686076219E-01 -0.84915176115E-01 -0.62662756822E-01  0.10669359088E+00  0.51100000000E-03 0. -1.
         11    1    4    4    0    0  0.94789232309E-02 -0.13822678095E-01 -0.18693644681E-01  0.25112345327E-01  0.51100000000E-03 0.  1.
</event>
<event>
 8    1  0.1131376E+005  0.1043930E+01  0.7957747E-01            NaN
         13   -1    0    0    0    0  0.00000000000E+00  0.00000000000E+00  0.74505805969E-08  0.10566000000E+00  0.10566000000E+00 0.  1.
     999900   -1    0    0    0    0 -0.00000000000E+00 -0.00000000000E+00 -0.74505805969E-08  0.93827000000E+00  0.93827000000E+00 0.  1.
     999902    2    1    2    0    0 -0.24626844576E-02  0.13432946246E-01  0.18845329189E-01  0.10206565110E+01  0.10203911300E+01 0.  0.
     999903    2    3    3    0    0 -0.45520296635E-01  0.20331632573E-01  0.12224310874E+00  0.13353044853E+00  0.20038222492E-01 0.  0.
         14    1    1    2    0    0  0.24626844576E-02 -0.13432946246E-01 -0.18845329189E-01  0.23273489034E-01  0.00000000000E+00 0. -1.
     999901    1    3    3    0    0  0.43057612178E-01 -0.68986863268E-02 -0.10339777955E+00  0.88712606244E+00  0.88000000000E+00 0.  1.
        -11    1    4    4    0    0 -0.42338762247E-01  0.14539776833E-01  0.88913438247E-01  0.99548161816E-01  0.51100000000E-03 0. -1.
         11    1    4    4    0    0 -0.31815343878E-02  0.57918557396E-02  0.33329670494E-01  0.33982286712E-01  0.51100000000E-03 0.  1.
</event>
<event>
 8    1  0.1131376E+005  0.1043930E+01  0.7957747E-01            NaN
         13   -1    0    0    0    0  0.00000000000E+00  0.00000000000E+00  0.74505805969E-08  0.10566000000E+00  0.10566000000E+00 0.  1.
     999900   -1    0    0    0    0 -0.00000000000E+00 -0.00000000000E+00 -0.74505805969E-08  0.93827000000E+00  0.93827000000E+00 0.  1.
     999902    2    1    2    0    0  0.18825151430E-01 -0.81037538016E-03  0.14913011630E-01  0.10198999989E+01  0.10196168726E+01 0.  0.
     999903    2    3    3    0    0  0.77431426954E-01  0.97034295750E-01 -0.36588941671E-01  0.13104639661E+00  0.20570050556E-01 0.  0.
         14    1    1    2    0    0 -0.18825151430E-01  0.81037538016E-03 -0.14913011630E-01  0.24030001050E-01  0.00000000000E+00 0. -1.
     999901    1    3    3    0    0 -0.58606275524E-01 -0.97844671130E-01  0.51501953301E-01  0.88885360234E+00  0.88000000000E+00 0. -1.
        -11    1    4    4    0    0  0.11323139721E-01  0.28109457510E-01 -0.98458561751E-02  0.31867806631E-01  0.51100000000E-03 0.  1.
         11    1    4    4    0    0  0.66108287233E-01  0.68924838240E-01 -0.26743085496E-01  0.99178589978E-01  0.51100000000E-03 0. -1.
</event>
<event>
 8    1  0.1131376E+005  0.1043930E+01  0.7957747E-01            NaN
         13   -1    0    0    0    0  0.00000000000E+00  0.00000000000E+00  0.74505805969E-08  0.10566000000E+00  0.10566000000E+00 0. -1.
     999900   -1    0    0    0    0 -0.00000000000E+00 -0.00000000000E+00 -0.74505805969E-08  0.93827000000E+00  0.93827000000E+00 0. -1.
     999902    2    1    2    0    0  0.53056615887E-02  0.22784246677E-01  0.95224057605E-02  0.10186723645E+01  0.10183591891E+01 0.  0.
     999903    2    3    3    0    0 -0.74390059603E-01 -0.87578999001E-02  0.10365271235E+00  0.12951161994E+00  0.20464436023E-01 0.  0.
         14    1    1    2    0    0 -0.53056615887E-02 -0.22784246677E-01 -0.95224057605E-02  0.25257635539E-01  0.00000000000E+00 0.  1.
     999901    1    3    3    0    0  0.79695721192E-01  0.31542146577E-01 -0.94130306592E-01  0.88916074453E+00  0.88000000000E+00 0. -1.
        -11    1    4    4    0    0 -0.58193762353E-01  0.10813785898E-02  0.71621255034E-01  0.92290566420E-01  0.51100000000E-03 0. -1.
         11    1    4    4    0    0 -0.16196297250E-01 -0.98392784899E-02  0.32031457319E-01  0.37221053515E-01  0.51100000000E-03 0.  1.
</event>
<event>
 8    1  0.1131376E+005  0.1043930E+01  0.7957747E-01            NaN
         13   -1    0    0    0    0  0.00000000000E+00  0.00000000000E+00  0.74505805969E-08  0.10566000000E+00  0.10566000000E+00 0.  1.
     999900   -1    0    0    0    0 -0.00000000000E+00 -0.00000000000E+00 -0.74505805969E-08  0.93827000000E+00  0.93827000000E+00 0.  1.
     999902    2    1    2    0    0 -0.20055846143E-01  0.40698062471E-02  0.10698124365E-01  0.10208377902E+01  0.10205765742E+01 0.  0.
     999903    2    3    3    0    0 -0.12356670276E+00  0.42173964444E-01 -0.18544753867E-01  0.13347001402E+00  0.20566074970E-01 0.  0.
         14    1    1    2    0    0  0.20055846143E-01 -0.40698062471E-02 -0.10698124365E-01  0.23092209776E-01  0.00000000000E+00 0. -1.
     999901    1    3    3    0    0  0.10351085662E+00 -0.38104158197E-01  0.29242878232E-01  0.88736777620E+00  0.88000000000E+00 0.  1.
        -11    1    4    4    0    0 -0.48828375327E-01  0.26742762437E-01 -0.43449185593E-02  0.55843755408E-01  0.51100000000E-03 0. -1.
         11    1    4    4    0    0 -0.74738327434E-01  0.15431202007E-01 -0.14199835308E-01  0.77626258617E-01  0.51100000000E-03 0.  1.
</event>
<event>
 8    1  0.1131376E+005  0.1043930E+01  0.7957747E-01            NaN
         13   -1    0    0    0    0  0.00000000000E+00  0.00000000000E+00  0.74505805969E-08  0.10566000000E+00  0.10566000000E+00 0.  1.
     999900   -1    0    0    0    0 -0.00000000000E+00 -0.00000000000E+00 -0.74505805969E-08  0.93827000000E+00  0.93827000000E+00 0. -1.
     999902    2    1    2    0    0 -0.24364138493E-02  0.18091061001E-01  0.15121230147E-01  0.10202261142E+01  0.10199507095E+01 0.  0.
     999903    2    3    3    0    0  0.10486055876E+00  0.21745215848E-01 -0.70024740412E-01  0.12962192071E+00  0.20731301482E-01 0.  0.
         14    1    1    2    0    0  0.24364138493E-02 -0.18091061001E-01 -0.15121230147E-01  0.23703885794E-01  0.00000000000E+00 0. -1.
     999901    1    3    3    0    0 -0.10729697261E+00 -0.36541548478E-02  0.85145970558E-01  0.89060419350E+00  0.88000000000E+00 0.  1.
        -11    1    4    4    0    0  0.51449813492E-01  0.10359601028E-01 -0.22046504628E-01  0.56927270523E-01  0.51100000000E-03 0. -1.
         11    1    4    4    0    0  0.53410745271E-01  0.11385614820E-01 -0.47978235783E-01  0.72694650182E-01  0.51100000000E-03 0.  1.
</event>
<event>
 8    1  0.1131376E+005  0.1043930E+01  0.7957747E-01            NaN
         13   -1    0    0    0    0  0.00000000000E+00  0.00000000000E+00  0.74505805969E-08  0.10566000000E+00  0.10566000000E+00 0. -1.
     999900   -1    0    0    0    0 -0.00000000000E+00 -0.00000000000E+00 -0.74505805969E-08  0.93827000000E+00  0.93827000000E+00 0. -1.
     999902    2    1    2    0    0  0.15911260328E-01  0.14968397666E-01 -0.52082479182E-02  0.10214723291E+01  0.10212254267E+01 0.  0.
     999903    2    3    3    0    0  0.47864801696E-01 -0.36229273311E-02  0.12106047549E+00  0.13169120062E+00  0.19564476768E-01 0.  0.
         14    1    1    2    0    0 -0.15911260328E-01 -0.14968397666E-01  0.52082479182E-02  0.22457670856E-01  0.00000000000E+00 0.  1.
     999901    1    3    3    0    0 -0.31953541367E-01  0.18591324997E-01 -0.12626872340E+00  0.88978112853E+00  0.88000000000E+00 0. -1.
        -11    1    4    4    0    0  0.23042717540E-01 -0.11449304658E-01  0.63568044869E-01  0.68579959597E-01  0.51100000000E-03 0. -1.
         11    1    4    4    0    0  0.24822084156E-01  0.78263773266E-02  0.57492430617E-01  0.63111241021E-01  0.51100000000E-03 0.  1.
</event>
<event>
 8    1  0.1131376E+005  0.1043930E+01  0.7957747E-01            NaN
         13   -1    0    0    0    0  0.00000000000E+00  0.00000000000E+00  0.74505805969E-08  0.10566000000E+00  0.10566000000E+00 0. -1.
     999900   -1    0    0    0    0 -0.00000000000E+00 -0.00000000000E+00 -0.74505805969E-08  0.93827000000E+00  0.93827000000E+00 0. -1.
     999902    2    1    2    0    0  0.61255553098E-02  0.15296371812E-01 -0.16991339223E-01  0.10202613070E+01  0.10199867291E+01 0.  0.
     999903    2    3    3    0    0 -0.10095702320E+00  0.34913202900E-01  0.69793496687E-01  0.12931624339E+00  0.20983478130E-01 0.  0.
         14    1    1    2    0    0 -0.61255553098E-02 -0.15296371812E-01  0.16991339223E-01  0.23668692973E-01  0.00000000000E+00 0. -1.
     999901    1    3    3    0    0  0.10708257851E+00 -0.19616831088E-01 -0.86784835909E-01  0.89094506364E+00  0.88000000000E+00 0. -1.
        -11    1    4    4    0    0 -0.60741732344E-01  0.10019873992E-01  0.39196707006E-01  0.72983552147E-01  0.51100000000E-03 0.  1.
         11    1    4    4    0    0 -0.40215290852E-01  0.24893328908E-01  0.30596789681E-01  0.56332691239E-01  0.51100000000E-03 0. -1.
</event>
<event>
 8    1  0.1131376E+005  0.1043930E+01  0.7957747E-01            NaN
         13   -1    0    0    0    0  0.00000000000E+00  0.00000000000E+00  0.74505805969E-08  0.10566000000E+00  0.10566000000E+00 0. -1.
     999900   -1    0    0    0    0 -0.00000000000E+00 -0.00000000000E+00 -0.74505805969E-08  0.93827000000E+00  0.93827000000E+00 0. -1.
     999902    2    1    2    0    0  0.23348517324E-01 -0.16623584560E-01  0.10527382749E-01  0.10133960417E+01  0.10129359381E+01 0.  0.
     999903    2    3    3    0    0  0.58021596836E-01  0.80118032466E-01  0.74455738419E-01  0.12511230457E+00  0.18000748464E-01 0.  0.
         14    1    1    2    0    0 -0.23348517324E-01  0.16623584560E-01 -0.10527382749E-01  0.30533958348E-01  0.00000000000E+00 0.  1.
     999901    1    3    3    0    0 -0.34673079512E-01 -0.96741617027E-01 -0.63928355670E-01  0.88828373708E+00  0.88000000000E+00 0. -1.
        -11    1    4    4    0    0  0.46088019712E-01  0.65574104856E-01  0.50845365747E-01  0.94918813349E-01  0.51100000000E-03 0. -1.
         11    1    4    4    0    0  0.11933577124E-01  0.14543927610E-01  0.23610372672E-01  0.30193491220E-01  0.51100000000E-03 0.  1.
</event>
<event>
 8    1  0.1131376E+005  0.1043930E+01  0.7957747E-01            NaN
         13   -1    0    0    0    0  0.00000000000E+00  0.00000000000E+00  0.74505805969E-08  0.10566000000E+00  0.10566000000E+00 0.  1.
     999900   -1    0    0    0    0 -0.00000000000E+00 -0.00000000000E+00 -0.74505805969E-08  0.93827000000E+00  0.93827000000E+00 0.  1.
     999902    2    1    2    0    0  0.79082262140E-02 -0.18597258400E-01  0.12168977352E-01  0.10203401278E+01  0.10200673969E+01 0.  0.
     999903    2    3    3    0    0 -0.73391699391E-01  0.14933150768E-01 -0.10236008963E+00  0.12857173103E+00  0.21065648376E-01 0.  0.
         14    1    1    2    0    0 -0.79082262140E-02  0.18597258400E-01 -0.12168977352E-01  0.23589872226E-01  0.00000000000E+00 0. -1.
     999901    1    3    3    0    0  0.81299925605E-01 -0.33530409167E-01  0.11452906698E+00  0.89176839674E+00  0.88000000000E+00 0.  1.
        -11    1    4    4    0    0 -0.48650683531E-01  0.15495621464E-01 -0.54456861423E-01  0.74651283777E-01  0.51100000000E-03 0. -1.
         11    1    4    4    0    0 -0.24741015860E-01 -0.56247069631E-03 -0.47903228203E-01  0.53920447257E-01  0.51100000000E-03 0.  1.
</event>
<event>
 8    1  0.1131376E+005  0.1043930E+01  0.7957747E-01            NaN
         13   -1    0    0    0    0  0.00000000000E+00  0.00000000000E+00  0.74505805969E-08  0.10566000000E+00  0.10566000000E+00 0.  1.
     999900   -1    0    0    0    0 -0.00000000000E+00 -0.00000000000E+00 -0.74505805969E-08  0.93827000000E+00  0.93827000000E+00 0.  1.
     999902    2    1    2    0    0 -0.15737567300E-01 -0.85342899819E-02  0.15765463039E-01  0.10200751272E+01  0.10197961611E+01 0.  0.
     999903    2    3    3    0    0 -0.81789226243E-01  0.57165627768E-01 -0.80314886907E-01  0.12995674494E+00  0.21929157974E-01 0.  0.
         14    1    1    2    0    0  0.15737567300E-01  0.85342899819E-02 -0.15765463039E-01  0.23854872770E-01  0.00000000000E+00 0. -1.
     999901    1    3    3    0    0  0.66051658943E-01 -0.65699917750E-01  0.96080349947E-01  0.89011838229E+00  0.88000000000E+00 0. -1.
        -11    1    4    4    0    0 -0.12760490465E-01  0.63609729091E-02 -0.22243775785E-01  0.26426100269E-01  0.51100000000E-03 0.  1.
         11    1    4    4    0    0 -0.69028735777E-01  0.50804654859E-01 -0.58071111122E-01  0.10353064467E+00  0.51100000000E-03 0. -1.
</event>
<event>
 8    1  0.1131376E+005  0.1043930E+01  0.7957747E-01            NaN
         13   -1    0    0    0    0  0.00000000000E+00  0.00000000000E+00  0.74505805969E-08  0.10566000000E+00  0.10566000000E+00 0.  1.
     999900   -1    0    0    0    0 -0.00000000000E+00 -0.00000000000E+00 -0.74505805969E-08  0.93827000000E+00  0.93827000000E+00 0. -1.
     999902    2    1    2    0    0  0.17087573340E-01  0.28354868043E-02 -0.16229430532E-01  0.10201935394E+01  0.10199173683E+01 0.  0.
     999903    2    3    3    0    0  0.12619781168E+00  0.28732065239E-01 -0.24536111712E-01  0.13303815397E+00  0.18593288770E-01 0.  0.
         14    1    1    2    0    0 -0.17087573340E-01 -0.28354868043E-02  0.16229430532E-01  0.23736460635E-01  0.00000000000E+00 0.  1.
     999901    1    3    3    0    0 -0.10911023834E+00 -0.25896578435E-01  0.83066811795E-02  0.88715538540E+00  0.88000000000E+00 0.  1.
        -11    1    4    4    0    0  0.69999324113E-01  0.20138343836E-01 -0.22151375124E-01  0.76134110684E-01  0.51100000000E-03 0.  1.
         11    1    4    4    0    0  0.56198487569E-01  0.85937214035E-02 -0.23847365876E-02  0.56904043285E-01  0.51100000000E-03 0. -1.
</event>
<event>
 8    1  0.1131376E+005  0.1043930E+01  0.7957747E-01            NaN
         13   -1    0    0    0    0  0.00000000000E+00  0.00000000000E+00  0.74505805969E-08  0.10566000000E+00  0.10566000000E+00 0. -1.
     999900   -1    0    0    0    0 -0.00000000000E+00 -0.00000000000E+00 -0.74505805969E-08  0.93827000000E+00  0.93827000000E+00 0. -1.
     999902    2    1    2    0    0  0.37249071289E-02  0.23248160645E-01  0.11091425687E-01  0.10179036359E+01  0.10175708527E+01 0.  0.
     999903    2    3    3    0    0  0.12120580740E+00  0.32968652179E-01 -0.22287739365E-01  0.12941592151E+00  0.21770568229E-01 0.  0.
         14    1    1    2    0    0 -0.37249071289E-02 -0.23248160645E-01 -0.11091425687E-01  0.26026364139E-01  0.00000000000E+00 0.  1.
     999901    1    3    3    0    0 -0.11748090027E+00 -0.97204915334E-02  0.33379165052E-01  0.88848771435E+00  0.88000000000E+00 0. -1.
        -11    1    4    4    0    0  0.36693966054E-01  0.30240142026E-02 -0.13918269800E-01  0.39364592744E-01  0.51100000000E-03 0.  1.
         11    1    4    4    0    0  0.84511841348E-01  0.29944637976E-01 -0.83694695647E-02  0.90051328771E-01  0.51100000000E-03 0. -1.
</event>
<event>
 7    1  0.1131376E+005  0.1043930E+01  0.7957747E-01            NaN
         13   -1    0    0    0    0  0.00000000000E+00  0.00000000000E+00  0.74505805969E-08  0.10566000000E+00  0.10566000000E+00 0. -1.
     999900   -1    0    0    0    0 -0.00000000000E+00 -0.00000000000E+00 -0.74505805969E-08  0.93827000000E+00  0.93827000000E+00 0.  1.
     999903    2    1    2    0    0  0.24887190499E-01 -0.63476492722E-01  0.85836420245E-01  0.11148430445E+00  0.20303244050E-01 0.  0.
         14    1    1    2    0    0 -0.38266595297E-01  0.13798247700E-01 -0.27323768506E-01  0.49003186433E-01  0.00000000000E+00 0.  1.
     999901    1    1    2    0    0  0.13379404798E-01  0.49678245022E-01 -0.58512651739E-01  0.88344250912E+00  0.88000000000E+00 0.  1.
        -11    1    3    3    0    0  0.46235707417E-02 -0.23012560792E-01  0.43903368779E-01  0.49786768039E-01  0.51100000000E-03 0.  1.
         11    1    3    3    0    0  0.20263619758E-01 -0.40463931931E-01  0.41933051466E-01  0.61697536411E-01  0.51100000000E-03 0. -1.
</event>
<event>
 8    1  0.1131376E+005  0.1043930E+01  0.7957747E-01            NaN
         13   -1    0    0    0    0  0.00000000000E+00  0.00000000000E+00  0.74505805969E-08  0.10566000000E+00  0.10566000000E+00 0.  1.
     999900   -1    0    0    0    0 -0.00000000000E+00 -0.00000000000E+00 -0.74505805969E-08  0.93827000000E+00  0.93827000000E+00 0. -1.
     999902    2    1    2    0    0 -0.53201894216E-02 -0.22502860284E-01 -0.29065611263E-02  0.10206248239E+01  0.10203587114E+01 0.  0.
     999903    2    3    3    0    0 -0.11991217589E+00  0.47019357206E-02 -0.49434861860E-01  0.13155997413E+00  0.21521689046E-01 0.  0.
         14    1    1    2    0    0  0.53201894216E-02  0.22502860284E-01  0.29065611263E-02  0.23305176121E-01  0.00000000000E+00 0.  1.
     999901    1    3    3    0    0  0.11459198647E+00 -0.27204796005E-01  0.46528300733E-01  0.88906484975E+00  0.88000000000E+00 0. -1.
        -11    1    4    4    0    0 -0.41575807950E-01 -0.99435751282E-03 -0.66530223653E-02  0.42119596165E-01  0.51100000000E-03 0.  1.
         11    1    4    4    0    0 -0.78336367943E-01  0.56962932334E-02 -0.42781839494E-01  0.89440377965E-01  0.51100000000E-03 0. -1.
</event>
<event>
 8    1  0.1131376E+005  0.1043930E+01  0.7957747E-01            NaN
         13   -1    0    0    0    0  0.00000000000E+00  0.00000000000E+00  0.74505805969E-08  0.10566000000E+00  0.10566000000E+00 0.  1.
     999900   -1    0    0    0    0 -0.00000000000E+00 -0.00000000000E+00 -0.74505805969E-08  0.93827000000E+00  0.93827000000E+00 0.  1.
     999902    2    1    2    0    0  0.20280870593E-01  0.38137912592E-02 -0.10822733771E-01  0.10206278481E+01  0.10203618055E+01 0.  0.
     999903    2    3    3    0    0 -0.11796687234E+00 -0.46493381873E-01  0.44935717552E-03  0.12834408713E+00  0.19854099156E-01 0.  0.
         14    1    1    2    0    0 -0.20280870593E-01 -0.38137912592E-02  0.10822733771E-01  0.23302151876E-01  0.00000000000E+00 0.  1.
     999901    1    3    3    0    0  0.13824774293E+00  0.50307173132E-01 -0.11272090946E-01  0.89228376099E+00  0.88000000000E+00 0. -1.
        -11    1    4    4    0    0 -0.66138049762E-01 -0.21079856952E-01  0.89593485062E-02  0.69993807169E-01  0.51100000000E-03 0. -1.
         11    1    4    4    0    0 -0.51828822575E-01 -0.25413524921E-01 -0.85099913307E-02  0.58350279964E-01  0.51100000000E-03 0.  1.
</event>
<event>
 8    1  0.1131376E+005  0.1043930E+01  0.7957747E-01            NaN
         13   -1    0    0    0    0  0.00000000000E+00  0.00000000000E+00  0.74505805969E-08  0.10566000000E+00  0.10566000000E+00 0. -1.
     999900   -1    0    0    0    0 -0.00000000000E+00 -0.00000000000E+00 -0.74505805969E-08  0.93827000000E+00  0.93827000000E+00 0.  1.
     999902    2    1    2    0    0 -0.22981385089E-02  0.23844176075E-01  0.26210702373E-02  0.10198323615E+01  0.10195476199E+01 0.  0.
     999903    2    3    3    0    0  0.28720263738E-01  0.12333161691E+00 -0.34949471522E-01  0.13288735880E+00  0.20051017205E-01 0.  0.
         14    1    1    2    0    0  0.22981385089E-02 -0.23844176075E-01 -0.26210702373E-02  0.24097638525E-01  0.00000000000E+00 0.  1.
     999901    1    3    3    0    0 -0.31018402247E-01 -0.99487440832E-01  0.37570541759E-01  0.88694500267E+00  0.88000000000E+00 0. -1.
        -11    1    4    4    0    0  0.34954184598E-02  0.45527357868E-01 -0.56838735479E-02  0.46016581839E-01  0.51100000000E-03 0. -1.
         11    1    4    4    0    0  0.25224845278E-01  0.77804259039E-01 -0.29265597974E-01  0.86870776961E-01  0.51100000000E-03 0.  1.
</event>
<event>
 8    1  0.1131376E+005  0.1043930E+01  0.7957747E-01            NaN
         13   -1    0    0    0    0  0.00000000000E+00  0.00000000000E+00  0.74505805969E-08  0.10566000000E+00  0.10566000000E+00 0.  1.
     999900   -1    0    0    0    0 -0.00000000000E+00 -0.00000000000E+00 -0.74505805969E-08  0.93827000000E+00  0.93827000000E+00 0.  1.
     999902    2    1    2    0    0  0.11275292002E-01 -0.14453172666E-01  0.14806986036E-01  0.10203657634E+01  0.10200936319E+01 0.  0.
     999903    2    3    3    0    0 -0.36415343551E-01 -0.77728077419E-01  0.99287059244E-01  0.13277633522E+00  0.20097357948E-01 0.  0.
         14    1    1    2    0    0 -0.11275292002E-01  0.14453172666E-01 -0.14806986036E-01  0.23564236574E-01  0.00000000000E+00 0. -1.
     999901    1    3    3    0    0  0.47690635553E-01  0.63274904753E-01 -0.84480073208E-01  0.88758942820E+00  0.88000000000E+00 0.  1.
        -11    1    4    4    0    0 -0.28285908869E-01 -0.36797131910E-01  0.53171491294E-01  0.70580380878E-01  0.51100000000E-03 0.  1.
         11    1    4    4    0    0 -0.81294346816E-02 -0.40930945508E-01  0.46115567950E-01  0.62195954344E-01  0.51100000000E-03 0. -1.
</event>
<event>
 8    1  0.1174596E+005  0.1043930E+01  0.7957747E-01            NaN
         13   -1    0    0    0    0  0.00000000000E+00  0.00000000000E+00  0.74505805969E-08  0.10566000000E+00  0.10566000000E+00 0.  1.
     999900   -1    0    0    0    0 -0.00000000000E+00 -0.00000000000E+00 -0.74505805969E-08  0.93827000000E+00  0.93827000000E+00 0. -1.
     999902    2    1    2    0    0 -0.17324980978E-01 -0.18788661278E-01 -0.80480834385E-02  0.10171355900E+01  0.10167826061E+01 0.  0.
     999903    2    3    3    0    0  0.46138883764E-01 -0.66409318059E-02  0.11585263779E+00  0.12610999097E+00  0.17578326738E-01 0.  0.
         14    1    1    2    0    0  0.17324980978E-01  0.18788661278E-01  0.80480834385E-02  0.26794409968E-01  0.00000000000E+00 0.  1.
     999901    1    3    3    0    0 -0.63463864741E-01 -0.12147729472E-01 -0.12390072122E+00  0.89102559906E+00  0.88000000000E+00 0. -1.
        -11    1    4    4    0    0  0.97010005162E-02  0.11906081701E-02  0.44991172016E-01  0.46043388659E-01  0.51100000000E-03 0. -1.
         11    1    4    4    0    0  0.36437883247E-01 -0.78315399760E-02  0.70861465770E-01  0.80066602313E-01  0.51100000000E-03 0.  1.
</event>
<event>
 8    1  0.1131376E+005  0.1043930E+01  0.7957747E-01            NaN
         13   -1    0    0    0    0  0.00000000000E+00  0.00000000000E+00  0.74505805969E-08  0.10566000000E+00  0.10566000000E+00 0.  1.
     999900   -1    0    0    0    0 -0.00000000000E+00 -0.00000000000E+00 -0.74505805969E-08  0.93827000000E+00  0.93827000000E+00 0.  1.
     999902    2    1    2    0    0 -0.91334880195E-02 -0.90138132288E-02 -0.19933866949E-01  0.10202228601E+01  0.10199473789E+01 0.  0.
     999903    2    3    3    0    0 -0.69868654401E-01 -0.10926375937E+00 -0.21179382281E-01  0.13245016199E+00  0.16561437059E-01 0.  0.
         14    1    1    2    0    0  0.91334880195E-02  0.90138132288E-02  0.19933866949E-01  0.23707139935E-01  0.00000000000E+00 0.  1.
     999901    1    3    3    0    0  0.60735166381E-01  0.10024994615E+00  0.12455153316E-02  0.88777269807E+00  0.88000000000E+00 0.  1.
        -11    1    4    4    0    0 -0.26876830270E-02 -0.13046900515E-01 -0.91037493465E-03  0.13361704855E-01  0.51100000000E-03 0.  1.
         11    1    4    4    0    0 -0.67180971374E-01 -0.96216858858E-01 -0.20269007346E-01  0.11908845714E+00  0.51100000000E-03 0. -1.
</event>
<event>
 8    1  0.1131376E+005  0.1043930E+01  0.7957747E-01            NaN
         13   -1    0    0    0    0  0.00000000000E+00  0.00000000000E+00  0.74505805969E-08  0.10566000000E+00  0.10566000000E+00 0. -1.
     999900   -1    0    0    0    0 -0.00000000000E+00 -0.00000000000E+00 -0.74505805969E-08  0.93827000000E+00  0.93827000000E+00 0.  1.
     999902    2    1    2    0    0  0.22288564591E-01 -0.58992192188E-02  0.58924440205E-02  0.10201329036E+01  0.10198553031E+01 0.  0.
     999903    2    3    3    0    0  0.55419541849E-01 -0.94819453143E-01  0.71272320551E-01  0.13262008800E+00  0.21125571044E-01 0.  0.
         14    1    1    2    0    0 -0.22288564591E-01  0.58992192188E-02 -0.58924440205E-02  0.23797096366E-01  0.00000000000E+00 0.  1.
     999901    1    3    3    0    0 -0.33130977257E-01  0.88920233924E-01 -0.65379876530E-01  0.88751281563E+00  0.88000000000E+00 0.  1.
        -11    1    4    4    0    0  0.37868185624E-01 -0.46041333807E-01  0.32638412115E-01  0.67965660209E-01  0.51100000000E-03 0. -1.
         11    1    4    4    0    0  0.17551356224E-01 -0.48778119336E-01  0.38633908436E-01  0.64654427793E-01  0.51100000000E-03 0.  1.
</event>
<event>
 8    1  0.1131376E+005  0.1043930E+01  0.7957747E-01            NaN
         13   -1    0    0    0    0  0.00000000000E+00  0.00000000000E+00  0.74505805969E-08  0.10566000000E+00  0.10566000000E+00 0.  1.
     999900   -1    0    0    0    0 -0.00000000000E+00 -0.00000000000E+00 -0.74505805969E-08  0.93827000000E+00  0.93827000000E+00 0. -1.
     999902    2    1    2    0    0  0.67665777992E-03 -0.16452452367E-01 -0.17282473599E-01  0.10200589936E+01  0.10197796455E+01 0.  0.
     999903    2    3    3    0    0 -0.78848045244E-01  0.51025238270E-02 -0.10381644520E+00  0.13198415233E+00  0.19972786092E-01 0.  0.
         14    1    1    2    0    0 -0.67665777992E-03  0.16452452367E-01  0.17282473599E-01  0.23871006437E-01  0.00000000000E+00 0.  1.
     999901    1    3    3    0    0  0.79524703024E-01 -0.21554976194E-01  0.86533971600E-01  0.88807484123E+00  0.88000000000E+00 0.  1.
        -11    1    4    4    0    0 -0.52288839151E-01  0.10733593172E-01 -0.58842689822E-01  0.79448448623E-01  0.51100000000E-03 0. -1.
         11    1    4    4    0    0 -0.26559206093E-01 -0.56310693448E-02 -0.44973755376E-01  0.52535703706E-01  0.51100000000E-03 0.  1.
</event>
<event>
 8    1  0.1131376E+005  0.1043930E+01  0.7957747E-01            NaN
         13   -1    0    0    0    0  0.00000000000E+00  0.00000000000E+00  0.74505805969E-08  0.10566000000E+00  0.10566000000E+00 0. -1.
     999900   -1    0    0    0    0 -0.00000000000E+00 -0.00000000000E+00 -0.74505805969E-08  0.93827000000E+00  0.93827000000E+00 0. -1.
     999902    2    1    2    0    0  0.10626992943E-01  0.20396702299E-01  0.67042109717E-02  0.10199736879E+01  0.10196923159E+01 0.  0.
     999903    2    3    3    0    0 -0.11434430534E-01  0.10495475019E+00  0.78000437225E-01  0.13277589614E+00  0.19978102990E-01 0.  0.
         14    1    1    2    0    0 -0.10626992943E-01 -0.20396702299E-01 -0.67042109717E-02  0.23956312079E-01  0.00000000000E+00 0. -1.
     999901    1    3    3    0    0  0.22061423477E-01 -0.84558047888E-01 -0.71296226253E-01  0.88719779178E+00  0.88000000000E+00 0. -1.
        -11    1    4    4    0    0 -0.76617807914E-04  0.23047655738E-01  0.27491099062E-01  0.35877875549E-01  0.51100000000E-03 0. -1.
         11    1    4    4    0    0 -0.11357812727E-01  0.81907094450E-01  0.50509338163E-01  0.96898020588E-01  0.51100000000E-03 0.  1.
</event>
<event>
 8    1  0.1131376E+005  0.1043930E+01  0.7957747E-01            NaN
         13   -1    0    0    0    0  0.00000000000E+00  0.00000000000E+00  0.74505805969E-08  0.10566000000E+00  0.10566000000E+00 0. -1.
     999900   -1    0    0    0    0 -0.00000000000E+00 -0.00000000000E+00 -0.74505805969E-08  0.93827000000E+00  0.93827000000E+00 0.  1.
     999902    2    1    2    0    0 -0.20698558907E-01  0.25492529884E-02 -0.11052725230E-01  0.10203272085E+01  0.10200541753E+01 0.  0.
     999903    2    3    3    0    0  0.22472907124E-01  0.29823199441E-01 -0.12427753202E+00  0.13160481061E+00  0.21919544537E-01 0.  0.
         14    1    1    2    0    0  0.20698558907E-01 -0.25492529884E-02  0.11052725230E-01  0.23602791501E-01  0.00000000000E+00 0.  1.
     999901    1    3    3    0    0 -0.43171466031E-01 -0.27273946453E-01  0.11322480679E+00  0.88872239789E+00  0.88000000000E+00 0. -1.
        -11    1    4    4    0    0  0.17193358965E-01  0.26693392399E-01 -0.68666731742E-01  0.75654014827E-01  0.51100000000E-03 0. -1.
         11    1    4    4    0    0  0.52795481586E-02  0.31298070420E-02 -0.55610800274E-01  0.55950795785E-01  0.51100000000E-03 0.  1.
</event>
<event>
 8    1  0.1131376E+005  0.1043930E+01  0.7957747E-01            NaN
         13   -1    0    0    0    0  0.00000000000E+00  0.00000000000E+00  0.74505805969E-08  0.10566000000E+00  0.10566000000E+00 0. -1.
     999900   -1    0    0    0    0 -0.00000000000E+00 -0.00000000000E+00 -0.74505805969E-08  0.93827000000E+00  0.93827000000E+00 0.  1.
     999902    2    1    2    0    0  0.10613344404E-01 -0.15184913798E-01 -0.64692444809E-02  0.10243066514E+01  0.10241186651E+01 0.  0.
     999903    2    3    3    0    0 -0.12487822013E+00 -0.18635092657E-02 -0.41717820678E-01  0.13314006427E+00  0.19694101205E-01 0.  0.
         14    1    1    2    0    0 -0.10613344404E-01  0.15184913798E-01  0.64692444809E-02  0.19623348609E-01  0.00000000000E+00 0.  1.
     999901    1    3    3    0    0  0.13549156453E+00 -0.13321404532E-01  0.35248576198E-01  0.89116658712E+00  0.88000000000E+00 0.  1.
        -11    1    4    4    0    0 -0.98360041540E-01 -0.83185269501E-02 -0.37104516251E-01  0.10545568695E+00  0.51100000000E-03 0. -1.
         11    1    4    4    0    0 -0.26518178589E-01  0.64550176844E-02 -0.46133044271E-02  0.27684377322E-01  0.51100000000E-03 0.  1.
</event>
<event>
 8    1  0.1131376E+005  0.1043930E+01  0.7957747E-01            NaN
         13   -1    0    0    0    0  0.00000000000E+00  0.00000000000E+00  0.74505805969E-08  0.10566000000E+00  0.10566000000E+00 0. -1.
     999900   -1    0    0    0    0 -0.00000000000E+00 -0.00000000000E+00 -0.74505805969E-08  0.93827000000E+00  0.93827000000E+00 0. -1.
     999902    2    1    2    0    0  0.12559095740E-01  0.10783278612E-01  0.16137738541E-01  0.10208121154E+01  0.10205503115E+01 0.  0.
     999903    2    3    3    0    0 -0.62227518199E-02 -0.11410549850E+00  0.60317022302E-01  0.13069876668E+00  0.19627455351E-01 0.  0.
         14    1    1    2    0    0 -0.12559095740E-01 -0.10783278612E-01 -0.16137738541E-01  0.23117884606E-01  0.00000000000E+00 0.  1.
     999901    1    3    3    0    0  0.18781847559E-01  0.12488877711E+00 -0.44179283761E-01  0.89011334871E+00  0.88000000000E+00 0. -1.
        -11    1    4    4    0    0 -0.45433291288E-02 -0.43325961206E-01  0.12718760408E-01  0.45385115856E-01  0.51100000000E-03 0.  1.
         11    1    4    4    0    0 -0.16794226911E-02 -0.70779537296E-01  0.47598261895E-01  0.85313650824E-01  0.51100000000E-03 0. -1.
</event>
<event>
 8    1  0.1131376E+005  0.1043930E+01  0.7957747E-01            NaN
         13   -1    0    0    0    0  0.00000000000E+00  0.00000000000E+00  0.74505805969E-08  0.10566000000E+00  0.10566000000E+00 0. -1.
     999900   -1    0    0    0    0 -0.00000000000E+00 -0.00000000000E+00 -0.74505805969E-08  0.93827000000E+00  0.93827000000E+00 0.  1.
     999902    2    1    2    0    0 -0.18756333792E-01 -0.17800906952E-01  0.24446299560E-01  0.10083449764E+01  0.10077168736E+01 0.  0.
     999903    2    3    3    0    0 -0.76384244408E-01  0.82260344791E-01 -0.33850760829E-01  0.11888908794E+00  0.19683091828E-01 0.  0.
         14    1    1    2    0    0  0.18756333792E-01  0.17800906952E-01 -0.24446299560E-01  0.35585023645E-01  0.00000000000E+00 0.  1.
     999901    1    3    3    0    0  0.57627910616E-01 -0.10006125174E+00  0.58297060389E-01  0.88945588841E+00  0.88000000000E+00 0. -1.
        -11    1    4    4    0    0 -0.21990444394E-01  0.25794005480E-01 -0.19727962946E-01  0.39221983713E-01  0.51100000000E-03 0. -1.
         11    1    4    4    0    0 -0.54393800014E-01  0.56466339312E-01 -0.14122797883E-01  0.79667104229E-01  0.51100000000E-03 0.  1.
</event>
<event>
 8    1  0.1131376E+005  0.1043930E+01  0.7957747E-01            NaN
         13   -1    0    0    0    0  0.00000000000E+00  0.00000000000E+00  0.74505805969E-08  0.10566000000E+00  0.10566000000E+00 0. -1.
     999900   -1    0    0    0    0 -0.00000000000E+00 -0.00000000000E+00 -0.74505805969E-08  0.93827000000E+00  0.93827000000E+00 0. -1.
     999902    2    1    2    0    0 -0.83308000828E-02  0.22624353348E-01  0.26997596477E-02  0.10196699032E+01  0.10193812629E+01 0.  0.
     999903    2    3    3    0    0  0.95121698662E-02 -0.50489257425E-02 -0.12705885745E+00  0.12954548456E+00  0.22849645219E-01 0.  0.
         14    1    1    2    0    0  0.83308000828E-02 -0.22624353348E-01 -0.26997596477E-02  0.24260096796E-01  0.00000000000E+00 0. -1.
     999901    1    3    3    0    0 -0.17842969949E-01  0.27673279090E-01  0.12975861710E+00  0.89012441864E+00  0.88000000000E+00 0.  1.
        -11    1    4    4    0    0 -0.55394090969E-02  0.23516537510E-02 -0.64265576628E-01  0.64548747384E-01  0.51100000000E-03 0. -1.
         11    1    4    4    0    0  0.15051578963E-01 -0.74005794935E-02 -0.62793280823E-01  0.64996737177E-01  0.51100000000E-03 0.  1.
</event>
<event>
 8    1  0.1131376E+005  0.1043930E+01  0.7957747E-01            NaN
         13   -1    0    0    0    0  0.00000000000E+00  0.00000000000E+00  0.74505805969E-08  0.10566000000E+00  0.10566000000E+00 0. -1.
     999900   -1    0    0    0    0 -0.00000000000E+00 -0.00000000000E+00 -0.74505805969E-08  0.93827000000E+00  0.93827000000E+00 0.  1.
     999902    2    1    2    0    0  0.56089505325E-02  0.96117487826E-02  0.20603615041E-01  0.10205130191E+01  0.10202443174E+01 0.  0.
     999903    2    3    3    0    0 -0.35035453931E-01 -0.12301910342E+00  0.35675398674E-02  0.12948376122E+00  0.19802379676E-01 0.  0.
         14    1    1    2    0    0 -0.56089505325E-02 -0.96117487826E-02 -0.20603615041E-01  0.23416980879E-01  0.00000000000E+00 0. -1.
     999901    1    3    3    0    0  0.40644404464E-01  0.13263085221E+00  0.17036075173E-01  0.89102925790E+00  0.88000000000E+00 0.  1.
        -11    1    4    4    0    0 -0.10912344918E-01 -0.50898333925E-01  0.10543834002E-01  0.53114529315E-01  0.51100000000E-03 0. -1.
         11    1    4    4    0    0 -0.24123109013E-01 -0.72120769499E-01 -0.69762941341E-02  0.76369231909E-01  0.51100000000E-03 0.  1.
</event>
<event>
 8    1  0.1131376E+005  0.1043930E+01  0.7957747E-01            NaN
         13   -1    0    0    0    0  0.00000000000E+00  0.00000000000E+00  0.74505805969E-08  0.10566000000E+00  0.10566000000E+00 0.  1.
     999900   -1    0    0    0    0 -0.00000000000E+00 -0.00000000000E+00 -0.74505805969E-08  0.93827000000E+00  0.93827000000E+00 0. -1.
     999902    2    1    2    0    0  0.47626589986E-02 -0.23657617537E-01  0.23441236593E-02  0.10196841611E+01  0.10193958641E+01 0.  0.
     999903    2    3    3    0    0  0.11517359203E+00 -0.60487586823E-01 -0.83626801703E-02  0.13195579250E+00  0.20461971874E-01 0.  0.
         14    1    1    2    0    0 -0.47626589986E-02  0.23657617537E-01 -0.23441236593E-02  0.24245838900E-01  0.00000000000E+00 0.  1.
     999901    1    3    3    0    0 -0.11041093303E+00  0.36829969286E-01  0.10706803830E-01  0.88772836860E+00  0.88000000000E+00 0. -1.
        -11    1    4    4    0    0  0.38640318784E-01 -0.11388736120E-01  0.25802937596E-02  0.40369500653E-01  0.51100000000E-03 0.  1.
         11    1    4    4    0    0  0.76533273249E-01 -0.49098850703E-01 -0.10942973930E-01  0.91586291845E-01  0.51100000000E-03 0. -1.
</event>
<event>
 8    1  0.1131376E+005  0.1043930E+01  0.7957747E-01            NaN
         13   -1    0    0    0    0  0.00000000000E+00  0.00000000000E+00  0.74505805969E-08  0.10566000000E+00  0.10566000000E+00 0.  1.
     999900   -1    0    0    0    0 -0.00000000000E+00 -0.00000000000E+00 -0.74505805969E-08  0.93827000000E+00  0.93827000000E+00 0. -1.
     999902    2    1    2    0    0  0.23163014909E-01  0.74092125877E-02 -0.20843011339E-03  0.10196099438E+01  0.10193198577E+01 0.  0.
     999903    2    3    3    0    0 -0.45444776336E-01  0.71456843126E-01 -0.95701762437E-01  0.12948180441E+00  0.20866293742E-01 0.  0.
         14    1    1    2    0    0 -0.23163014909E-01 -0.74092125877E-02  0.20843011339E-03  0.24320056208E-01  0.00000000000E+00 0. -1.
     999901    1    3    3    0    0  0.68607791245E-01 -0.64047630538E-01  0.95493332324E-01  0.89012813938E+00  0.88000000000E+00 0.  1.
        -11    1    4    4    0    0 -0.37788763239E-01  0.40799212985E-01 -0.61008160325E-01  0.82551942162E-01  0.51100000000E-03 0.  1.
         11    1    4    4    0    0 -0.76560130969E-02  0.30657630140E-01 -0.34693602112E-01  0.46929862251E-01  0.51100000000E-03 0. -1.
</event>
<event>
 8    1  0.1131376E+005  0.1043930E+01  0.7957747E-01            NaN
         13   -1    0    0    0    0  0.00000000000E+00  0.00000000000E+00  0.74505805969E-08  0.10566000000E+00  0.10566000000E+00 0.  1.
     999900   -1    0    0    0    0 -0.00000000000E+00 -0.00000000000E+00 -0.74505805969E-08  0.93827000000E+00  0.93827000000E+00 0. -1.
     999902    2    1    2    0    0  0.80573880545E-02  0.19929074256E-01  0.22245439898E-01  0.10129954061E+01  0.10125229596E+01 0.  0.
     999903    2    3    3    0    0 -0.82061602139E-01 -0.84576732268E-01  0.25546670736E-01  0.12223517231E+00  0.20036835513E-01 0.  0.
         14    1    1    2    0    0 -0.80573880545E-02 -0.19929074256E-01 -0.22245439898E-01  0.30934593891E-01  0.00000000000E+00 0. -1.
     999901    1    3    3    0    0  0.90118990193E-01  0.10450580652E+00 -0.33012308374E-02  0.89076023380E+00  0.88000000000E+00 0.  1.
        -11    1    4    4    0    0 -0.37112144289E-01 -0.27171688056E-01  0.38267619313E-02  0.46157524992E-01  0.51100000000E-03 0.  1.
         11    1    4    4    0    0 -0.44949457850E-01 -0.57405044213E-01  0.21719908804E-01  0.76077647319E-01  0.51100000000E-03 0. -1.
</event>
<event>
 8    1  0.1131376E+005  0.1043930E+01  0.7957747E-01            NaN
         13   -1    0    0    0    0  0.00000000000E+00  0.00000000000E+00  0.74505805969E-08  0.10566000000E+00  0.10566000000E+00 0. -1.
     999900   -1    0    0    0    0 -0.00000000000E+00 -0.00000000000E+00 -0.74505805969E-08  0.93827000000E+00  0.93827000000E+00 0.  1.
     999902    2    1    2    0    0  0.12525171519E-01  0.16428375516E-01  0.12466134957E-01  0.10198016771E+01  0.10195162013E+01 0.  0.
     999903    2    3    3    0    0 -0.64498270677E-01  0.37244395115E-02 -0.10883070971E+00  0.12805792181E+00  0.19514343232E-01 0.  0.
         14    1    1    2    0    0 -0.12525171519E-01 -0.16428375516E-01 -0.12466134957E-01  0.24128322869E-01  0.00000000000E+00 0.  1.
     999901    1    3    3    0    0  0.77023442197E-01  0.12703936005E-01  0.12129684466E+00  0.89174375533E+00  0.88000000000E+00 0. -1.
        -11    1    4    4    0    0 -0.31065481091E-01  0.10964889760E-01 -0.59716491380E-01  0.68202737383E-01  0.51100000000E-03 0.  1.
         11    1    4    4    0    0 -0.33432789586E-01 -0.72404502487E-02 -0.49114218327E-01  0.59855184422E-01  0.51100000000E-03 0. -1.
</event>
<event>
 8    1  0.1131376E+005  0.1043930E+01  0.7957747E-01            NaN
         13   -1    0    0    0    0  0.00000000000E+00  0.00000000000E+00  0.74505805969E-08  0.10566000000E+00  0.10566000000E+00 0.  1.
     999900   -1    0    0    0    0 -0.00000000000E+00 -0.00000000000E+00 -0.74505805969E-08  0.93827000000E+00  0.93827000000E+00 0.  1.
     999902    2    1    2    0    0 -0.71610989166E-02  0.18980607494E-01  0.11541796005E-01  0.10205899517E+01  0.10203230330E+01 0.  0.
     999903    2    3    3    0    0  0.92072868723E-01  0.66906936855E-01 -0.61307087298E-01  0.13072969686E+00  0.19435620262E-01 0.  0.
         14    1    1    2    0    0  0.71610989166E-02 -0.18980607494E-01 -0.11541796005E-01  0.23340048277E-01  0.00000000000E+00 0. -1.
     999901    1    3    3    0    0 -0.99233967640E-01 -0.47926329360E-01  0.72848883303E-01  0.88986025486E+00  0.88000000000E+00 0. -1.
        -11    1    4    4    0    0  0.48225547539E-01  0.46133149034E-01 -0.39286476069E-01  0.77444555639E-01  0.51100000000E-03 0.  1.
         11    1    4    4    0    0  0.43847321184E-01  0.20773787821E-01 -0.22020611229E-01  0.53285141225E-01  0.51100000000E-03 0. -1.
</event>
<event>
 8    1  0.1131376E+005  0.1043930E+01  0.7957747E-01            NaN
         13   -1    0    0    0    0  0.00000000000E+00  0.00000000000E+00  0.74505805969E-08  0.10566000000E+00  0.10566000000E+00 0. -1.
     999900   -1    0    0    0    0 -0.00000000000E+00 -0.00000000000E+00 -0.74505805969E-08  0.93827000000E+00  0.93827000000E+00 0.  1.
     999902    2    1    2    0    0 -0.19267657404E-01  0.83610317090E-02  0.12395571567E-01  0.10195414849E+01  0.10192497436E+01 0.  0.
     999903    2    3    3    0    0  0.11981965669E+00 -0.11831063801E-01  0.38713300365E-01  0.12800033360E+00  0.19713994390E-01 0.  0.
         14    1    1    2    0    0  0.19267657404E-01 -0.83610317090E-02 -0.12395571567E-01  0.24388515074E-01  0.00000000000E+00 0.  1.
     999901    1    3    3    0    0 -0.13908731410E+00  0.20192095510E-01 -0.26317728798E-01  0.89154115133E+00  0.88000000000E+00 0. -1.
        -11    1    4    4    0    0  0.61034072876E-01 -0.54396367610E-02  0.29999964639E-01  0.68227609509E-01  0.51100000000E-03 0. -1.
         11    1    4    4    0    0  0.58785583818E-01 -0.63914270399E-02  0.87133357255E-02  0.59772724088E-01  0.51100000000E-03 0.  1.
</event>
<event>
 8    1  0.1131376E+005  0.1043930E+01  0.7957747E-01            NaN
         13   -1    0    0    0    0  0.00000000000E+00  0.00000000000E+00  0.74505805969E-08  0.10566000000E+00  0.10566000000E+00 0.  1.
     999900   -1    0    0    0    0 -0.00000000000E+00 -0.00000000000E+00 -0.74505805969E-08  0.93827000000E+00  0.93827000000E+00 0.  1.
     999902    2    1    2    0    0  0.79831675028E-02  0.21742741289E-01  0.12028296476E-02  0.10207367992E+01  0.10204732671E+01 0.  0.
     999903    2    3    3    0    0  0.46149458906E-01 -0.36158955750E-01  0.11502209486E+00  0.13070079017E+00  0.20380667433E-01 0.  0.
         14    1    1    2    0    0 -0.79831675028E-02 -0.21742741289E-01 -0.12028296476E-02  0.23193200756E-01  0.00000000000E+00 0. -1.
     999901    1    3    3    0    0 -0.38166291403E-01  0.57901697039E-01 -0.11381926522E+00  0.89003600908E+00  0.88000000000E+00 0.  1.
        -11    1    4    4    0    0  0.16105233510E-01 -0.13581697172E-01  0.63646991045E-01  0.67045071666E-01  0.51100000000E-03 0.  1.
         11    1    4    4    0    0  0.30044225396E-01 -0.22577258578E-01  0.51375103819E-01  0.63655718501E-01  0.51100000000E-03 0. -1.
</event>
<event>
 7    1  0.1131376E+005  0.1043930E+01  0.7957747E-01            NaN
         13   -1    0    0    0    0  0.00000000000E+00  0.00000000000E+00  0.74505805969E-08  0.10566000000E+00  0.10566000000E+00 0. -1.
     999900   -1    0    0    0    0 -0.00000000000E+00 -0.00000000000E+00 -0.74505805969E-08  0.93827000000E+00  0.93827000000E+00 0.  1.
     999903    2    1    2    0    0 -0.98703593240E-01  0.35360633456E-01 -0.19237374169E-01  0.10821416343E+00  0.18640141748E-01 0.  0.
         14    1    1    2    0    0  0.39959144075E-01 -0.96393022488E-02  0.33868611783E-01  0.53260982034E-01  0.00000000000E+00 0. -1.
     999901    1    1    2    0    0  0.58744449164E-01 -0.25721331208E-01 -0.14631237614E-01  0.88245485454E+00  0.88000000000E+00 0. -1.
        -11    1    3    3    0    0 -0.91634367789E-01  0.31536030592E-01 -0.22560385214E-01  0.99501812484E-01  0.51100000000E-03 0. -1.
         11    1    3    3    0    0 -0.70692254502E-02  0.38246028639E-02  0.33230110454E-02  0.87123509422E-02  0.51100000000E-03 0.  1.
</event>
<event>
 8    1  0.1131376E+005  0.1043930E+01  0.7957747E-01            NaN
         13   -1    0    0    0    0  0.00000000000E+00  0.00000000000E+00  0.74505805969E-08  0.10566000000E+00  0.10566000000E+00 0. -1.
     999900   -1    0    0    0    0 -0.00000000000E+00 -0.00000000000E+00 -0.74505805969E-08  0.93827000000E+00  0.93827000000E+00 0. -1.
     999902    2    1    2    0    0 -0.33269397401E-02 -0.23151051318E-01 -0.56270808162E-02  0.10198737380E+01  0.10195899851E+01 0.  0.
     999903    2    3    3    0    0 -0.13783334272E-01 -0.12315413920E+00  0.43841278056E-01  0.13276772833E+00  0.18662521780E-01 0.  0.
         14    1    1    2    0    0  0.33269397401E-02  0.23151051318E-01  0.56270808162E-02  0.24056262047E-01  0.00000000000E+00 0.  1.
     999901    1    3    3    0    0  0.10456394532E-01  0.10000308788E+00 -0.49468358872E-01  0.88710600962E+00  0.88000000000E+00 0. -1.
        -11    1    4    4    0    0 -0.12484793199E-01 -0.91285805560E-01  0.40662653775E-01  0.10071087772E+00  0.51100000000E-03 0.  1.
         11    1    4    4    0    0 -0.12985410735E-02 -0.31868333642E-01  0.31786242815E-02  0.32056850615E-01  0.51100000000E-03 0. -1.
</event>
<event>
 8    1  0.1131376E+005  0.1043930E+01  0.7957747E-01            NaN
         13   -1    0    0    0    0  0.00000000000E+00  0.00000000000E+00  0.74505805969E-08  0.10566000000E+00  0.10566000000E+00 0.  1.
     999900   -1    0    0    0    0 -0.00000000000E+00 -0.00000000000E+00 -0.74505805969E-08  0.93827000000E+00  0.93827000000E+00 0.  1.
     999902    2    1    2    0    0  0.55315917746E-02  0.95048434073E-02 -0.20624593282E-01  0.10205566305E+01  0.10202889402E+01 0.  0.
     999903    2    3    3    0    0  0.53038768932E-01  0.95743354147E-01 -0.73784409626E-01  0.13347152817E+00  0.19763826970E-01 0.  0.
         14    1    1    2    0    0 -0.55315917746E-02 -0.95048434073E-02  0.20624593282E-01  0.23373369544E-01  0.00000000000E+00 0.  1.
     999901    1    3    3    0    0 -0.47507177157E-01 -0.86238510739E-01  0.53159816343E-01  0.88708510228E+00  0.88000000000E+00 0. -1.
        -11    1    4    4    0    0  0.86018514211E-02  0.10487070801E-01 -0.25413640565E-02  0.13809060581E-01  0.51100000000E-03 0.  1.
         11    1    4    4    0    0  0.44436917511E-01  0.85256283346E-01 -0.71243045569E-01  0.11966246759E+00  0.51100000000E-03 0. -1.
</event>
<event>
 8    1  0.1131376E+005  0.1043930E+01  0.7957747E-01            NaN
         13   -1    0    0    0    0  0.00000000000E+00  0.00000000000E+00  0.74505805969E-08  0.10566000000E+00  0.10566000000E+00 0. -1.
     999900   -1    0    0    0    0 -0.00000000000E+00 -0.00000000000E+00 -0.74505805969E-08  0.93827000000E+00  0.93827000000E+00 0. -1.
     999902    2    1    2    0    0  0.13292864733E-01  0.47990677866E-02 -0.20035374925E-01  0.10194116894E+01  0.10191167965E+01 0.  0.
     999903    2    3    3    0    0  0.99277119319E-01  0.51052799563E-01 -0.68700977878E-01  0.13267551636E+00  0.20509351907E-01 0.  0.
         14    1    1    2    0    0 -0.13292864733E-01 -0.47990677866E-02  0.20035374925E-01  0.24518310562E-01  0.00000000000E+00 0. -1.
     999901    1    3    3    0    0 -0.85984254586E-01 -0.46253731777E-01  0.48665602953E-01  0.88673617308E+00  0.88000000000E+00 0.  1.
        -11    1    4    4    0    0  0.63467004700E-01  0.41879404729E-01 -0.40328301332E-01  0.86073098210E-01  0.51100000000E-03 0.  1.
         11    1    4    4    0    0  0.35810114619E-01  0.91733948342E-02 -0.28372676545E-01  0.46602418147E-01  0.51100000000E-03 0. -1.
</event>
<event>
 8    1  0.1131376E+005  0.1043930E+01  0.7957747E-01            NaN
         13   -1    0    0    0    0  0.00000000000E+00  0.00000000000E+00  0.74505805969E-08  0.10566000000E+00  0.10566000000E+00 0.  1.
     999900   -1    0    0    0    0 -0.00000000000E+00 -0.00000000000E+00 -0.74505805969E-08  0.93827000000E+00  0.93827000000E+00 0.  1.
     999902    2    1    2    0    0  0.14513973203E-01 -0.20787344529E-02 -0.13958295079E-01  0.10236862218E+01  0.10234860381E+01 0.  0.
     999903    2    3    3    0    0 -0.52333001731E-01 -0.12084712246E+00 -0.39754151552E-02  0.13313913940E+00  0.19169153264E-01 0.  0.
         14    1    1    2    0    0 -0.14513973203E-01  0.20787344529E-02  0.13958295079E-01  0.20243778219E-01  0.00000000000E+00 0.  1.
     999901    1    3    3    0    0  0.66846974934E-01  0.11876838801E+00 -0.99828799237E-02  0.89054708238E+00  0.88000000000E+00 0.  1.
        -11    1    4    4    0    0 -0.28906099105E-01 -0.44280530861E-01  0.12417488851E-02  0.52897363263E-01  0.51100000000E-03 0. -1.
         11    1    4    4    0    0 -0.23426902626E-01 -0.76566591600E-01 -0.52171640403E-02  0.80241776136E-01  0.51100000000E-03 0.  1.
</event>
<event>
 8    1  0.1131376E+005  0.1043930E+01  0.7957747E-01            NaN
         13   -1    0    0    0    0  0.00000000000E+00  0.00000000000E+00  0.74505805969E-08  0.10566000000E+00  0.10566000000E+00 0. -1.
     999900   -1    0    0    0    0 -0.00000000000E+00 -0.00000000000E+00 -0.74505805969E-08  0.93827000000E+00  0.93827000000E+00 0.  1.
     999902    2    1    2    0    0 -0.91612463440E-02  0.14789175506E-01 -0.16102539024E-01  0.10202247282E+01  0.10199492910E+01 0.  0.
     999903    2    3    3    0    0  0.61378188454E-01 -0.21753627940E-01  0.10822619615E+00  0.12794180071E+00  0.20388538180E-01 0.  0.
         14    1    1    2    0    0  0.91612463440E-02 -0.14789175506E-01  0.16102539024E-01  0.23705271771E-01  0.00000000000E+00 0. -1.
     999901    1    3    3    0    0 -0.70539434798E-01  0.36542803446E-01 -0.12432873518E+00  0.89228292752E+00  0.88000000000E+00 0.  1.
        -11    1    4    4    0    0  0.40938329552E-01 -0.11583673124E-01  0.86612663297E-01  0.96499444942E-01  0.51100000000E-03 0.  1.
         11    1    4    4    0    0  0.20439858902E-01 -0.10169954815E-01  0.21613532857E-01  0.31442355771E-01  0.51100000000E-03 0. -1.
</event>
<event>
 8    1  0.1131376E+005  0.1043930E+01  0.7957747E-01            NaN
         13   -1    0    0    0    0  0.00000000000E+00  0.00000000000E+00  0.74505805969E-08  0.10566000000E+00  0.10566000000E+00 0. -1.
     999900   -1    0    0    0    0 -0.00000000000E+00 -0.00000000000E+00 -0.74505805969E-08  0.93827000000E+00  0.93827000000E+00 0. -1.
     999902    2    1    2    0    0  0.57837271074E-02  0.38630394834E-02 -0.18593008455E-01  0.10240786893E+01  0.10238862668E+01 0.  0.
     999903    2    3    3    0    0 -0.23483202093E-01  0.10055213314E+00 -0.85480710443E-01  0.13577733353E+00  0.21594911036E-01 0.  0.
         14    1    1    2    0    0 -0.57837271074E-02 -0.38630394834E-02  0.18593008455E-01  0.19851310705E-01  0.00000000000E+00 0. -1.
     999901    1    3    3    0    0  0.29266929200E-01 -0.96689093659E-01  0.66887701988E-01  0.88830135577E+00  0.88000000000E+00 0.  1.
        -11    1    4    4    0    0 -0.25164074794E-01  0.86763636978E-01 -0.66158385571E-01  0.11197478495E+00  0.51100000000E-03 0.  1.
         11    1    4    4    0    0  0.16808727018E-02  0.13788496164E-01 -0.19322324872E-01  0.23802548581E-01  0.51100000000E-03 0. -1.
</event>
<event>
 8    1  0.1131376E+005  0.1043930E+01  0.7957747E-01            NaN
         13   -1    0    0    0    0  0.00000000000E+00  0.00000000000E+00  0.74505805969E-08  0.10566000000E+00  0.10566000000E+00 0. -1.
     999900   -1    0    0    0    0 -0.00000000000E+00 -0.00000000000E+00 -0.74505805969E-08  0.93827000000E+00  0.93827000000E+00 0.  1.
     999902    2    1    2    0    0  0.60112473590E-02  0.97647965094E-02  0.20711945394E-01  0.10202557307E+01  0.10199810219E+01 0.  0.
     999903    2    3    3    0    0 -0.99156337489E-01 -0.80735195332E-01  0.18740989980E-02  0.12918596131E+00  0.18312545543E-01 0.  0.
         14    1    1    2    0    0 -0.60112473590E-02 -0.97647965094E-02 -0.20711945394E-01  0.23674269317E-01  0.00000000000E+00 0.  1.
     999901    1    3    3    0    0  0.10516758485E+00  0.90499991841E-01  0.18837846396E-01  0.89106976937E+00  0.88000000000E+00 0. -1.
        -11    1    4    4    0    0 -0.59841049060E-01 -0.59890754148E-01  0.17933853497E-02  0.84683711167E-01  0.51100000000E-03 0.  1.
         11    1    4    4    0    0 -0.39315288429E-01 -0.20844441184E-01  0.80713648330E-04  0.44502250148E-01  0.51100000000E-03 0. -1.
</event>
<event>
 8    1  0.1131376E+005  0.1043930E+01  0.7957747E-01            NaN
         13   -1    0    0    0    0  0.00000000000E+00  0.00000000000E+00  0.74505805969E-08  0.10566000000E+00  0.10566000000E+00 0.  1.
     999900   -1    0    0    0    0 -0.00000000000E+00 -0.00000000000E+00 -0.74505805969E-08  0.93827000000E+00  0.93827000000E+00 0. -1.
     999902    2    1    2    0    0 -0.15212221066E-01  0.53843911877E-02  0.17557041084E-01  0.10200835531E+01  0.10198047864E+01 0.  0.
     999903    2    3    3    0    0  0.58824351818E-01  0.54247144223E-01  0.10252414794E+00  0.13155195996E+00  0.19790407626E-01 0.  0.
         14    1    1    2    0    0  0.15212221066E-01 -0.53843911877E-02 -0.17557041084E-01  0.23846446902E-01  0.00000000000E+00 0. -1.
     999901    1    3    3    0    0 -0.74036572884E-01 -0.48862753035E-01 -0.84967106860E-01  0.88853159314E+00  0.88000000000E+00 0. -1.
        -11    1    4    4    0    0  0.43002235897E-01  0.44239860562E-01  0.65032381482E-01  0.89642787311E-01  0.51100000000E-03 0. -1.
         11    1    4    4    0    0  0.15822115921E-01  0.10007283660E-01  0.37491766463E-01  0.41909172647E-01  0.51100000000E-03 0.  1.
</event>
<event>
 8    1  0.1131376E+005  0.1043930E+01  0.7957747E-01            NaN
         13   -1    0    0    0    0  0.00000000000E+00  0.00000000000E+00  0.74505805969E-08  0.10566000000E+00  0.10566000000E+00 0.  1.
     999900   -1    0    0    0    0 -0.00000000000E+00 -0.00000000000E+00 -0.74505805969E-08  0.93827000000E+00  0.93827000000E+00 0.  1.
     999902    2    1    2    0    0  0.80622937731E-02  0.17105318491E-01  0.13355665601E-01  0.10207790539E+01  0.10205164921E+01 0.  0.
     999903    2    3    3    0    0 -0.25869435800E-01  0.45672223638E-01  0.12086234980E+00  0.13312759219E+00  0.18975470531E-01 0.  0.
         14    1    1    2    0    0 -0.80622937731E-02 -0.17105318491E-01 -0.13355665601E-01  0.23150946098E-01  0.00000000000E+00 0. -1.
     999901    1    3    3    0    0  0.33931729573E-01 -0.28566905147E-01 -0.10750668420E+00  0.88765146172E+00  0.88000000000E+00 0.  1.
        -11    1    4    4    0    0 -0.26601411030E-01  0.30102365776E-01  0.89389176922E-01  0.98002416123E-01  0.51100000000E-03 0.  1.
         11    1    4    4    0    0  0.73197523024E-03  0.15569857862E-01  0.31473172875E-01  0.35125176063E-01  0.51100000000E-03 0. -1.
</event>
<event>
 8    1  0.1131376E+005  0.1043930E+01  0.7957747E-01            NaN
         13   -1    0    0    0    0  0.00000000000E+00  0.00000000000E+00  0.74505805969E-08  0.10566000000E+00  0.10566000000E+00 0.  1.
     999900   -1    0    0    0    0 -0.00000000000E+00 -0.00000000000E+00 -0.74505805969E-08  0.93827000000E+00  0.93827000000E+00 0. -1.
     999902    2    1    2    0    0 -0.18392043487E-01 -0.13384655162E-01  0.59740142818E-02  0.10204118133E+01  0.10201407568E+01 0.  0.
     999903    2    3    3    0    0  0.56545991698E-01  0.10546549718E+00 -0.42160934172E-01  0.12796683403E+00  0.16659710924E-01 0.  0.
         14    1    1    2    0    0  0.18392043487E-01  0.13384655162E-01 -0.59740142818E-02  0.23518186667E-01  0.00000000000E+00 0.  1.
     999901    1    3    3    0    0 -0.74938035185E-01 -0.11885015234E+00  0.48134948454E-01  0.89244497931E+00  0.88000000000E+00 0.  1.
        -11    1    4    4    0    0  0.45001082158E-01  0.77114880864E-01 -0.38129287194E-01  0.97087104751E-01  0.51100000000E-03 0. -1.
         11    1    4    4    0    0  0.11544909539E-01  0.28350616315E-01 -0.40316469783E-02  0.30879729274E-01  0.51100000000E-03 0.  1.
</event>
<event>
 8    1  0.1131376E+005  0.1043930E+01  0.7957747E-01            NaN
         13   -1    0    0    0    0  0.00000000000E+00  0.00000000000E+00  0.74505805969E-08  0.10566000000E+00  0.10566000000E+00 0. -1.
     999900   -1    0    0    0    0 -0.00000000000E+00 -0.00000000000E+00 -0.74505805969E-08  0.93827000000E+00  0.93827000000E+00 0.  1.
     999902    2    1    2    0    0  0.42081734787E-02  0.86919407879E-02 -0.21511440870E-01  0.10203503340E+01  0.10200778419E+01 0.  0.
     999903    2    3    3    0    0  0.12700944645E+00  0.20386328319E-01 -0.20692172822E-01  0.13174604497E+00  0.19541046030E-01 0.  0.
         14    1    1    2    0    0 -0.42081734787E-02 -0.86919407879E-02  0.21511440870E-01  0.23579665964E-01  0.00000000000E+00 0. -1.
     999901    1    3    3    0    0 -0.12280127297E+00 -0.11694387531E-01 -0.81926804803E-03  0.88860428906E+00  0.88000000000E+00 0.  1.
        -11    1    4    4    0    0  0.56702967757E-01  0.20222957477E-02 -0.15871454963E-01  0.58919270499E-01  0.51100000000E-03 0. -1.
         11    1    4    4    0    0  0.70306478693E-01  0.18364032571E-01 -0.48207178591E-02  0.72826774473E-01  0.51100000000E-03 0.  1.
</event>
<event>
 8    1  0.1131376E+005  0.1043930E+01  0.7957747E-01            NaN
         13   -1    0    0    0    0  0.00000000000E+00  0.00000000000E+00  0.74505805969E-08  0.10566000000E+00  0.10566000000E+00 0.  1.
     999900   -1    0    0    0    0 -0.00000000000E+00 -0.00000000000E+00 -0.74505805969E-08  0.93827000000E+00  0.93827000000E+00 0.  1.
     999902    2    1    2    0    0  0.10260328170E-01  0.12523280896E-01  0.16876034460E-01  0.10205439478E+01  0.10202759636E+01 0.  0.
     999903    2    3    3    0    0 -0.76781738321E-01  0.10223534020E+00  0.21231718227E-01  0.13170000935E+00  0.23379616769E-01 0.  0.
         14    1    1    2    0    0 -0.10260328170E-01 -0.12523280896E-01 -0.16876034460E-01  0.23386052204E-01  0.00000000000E+00 0. -1.
     999901    1    3    3    0    0  0.87042066491E-01 -0.89712059301E-01 -0.43556837661E-02  0.88884393844E+00  0.88000000000E+00 0. -1.
        -11    1    4    4    0    0 -0.50062490457E-01  0.53653301757E-01  0.20710479908E-01  0.76250343207E-01  0.51100000000E-03 0.  1.
         11    1    4    4    0    0 -0.26719247864E-01  0.48582038441E-01  0.52123831807E-03  0.55449666148E-01  0.51100000000E-03 0. -1.
</event>
<event>
 8    1  0.1131376E+005  0.1043930E+01  0.7957747E-01            NaN
         13   -1    0    0    0    0  0.00000000000E+00  0.00000000000E+00  0.74505805969E-08  0.10566000000E+00  0.10566000000E+00 0. -1.
     999900   -1    0    0    0    0 -0.00000000000E+00 -0.00000000000E+00 -0.74505805969E-08  0.93827000000E+00  0.93827000000E+00 0. -1.
     999902    2    1    2    0    0  0.48611406556E-02 -0.19624425218E-01 -0.10083107008E-01  0.10213375721E+01  0.10210876643E+01 0.  0.
     999903    2    3    3    0    0  0.60403254229E-01  0.32214812579E-01 -0.11139433662E+00  0.13227278352E+00  0.20026076981E-01 0.  0.
         14    1    1    2    0    0 -0.48611406556E-02  0.19624425218E-01  0.10083107008E-01  0.22592427947E-01  0.00000000000E+00 0. -1.
     999901    1    3    3    0    0 -0.55542113574E-01 -0.51839237797E-01  0.10131122961E+00  0.88906478853E+00  0.88000000000E+00 0.  1.
        -11    1    4    4    0    0  0.33013093588E-01  0.26099398844E-01 -0.78160404675E-01  0.88771352070E-01  0.51100000000E-03 0.  1.
         11    1    4    4    0    0  0.27390160641E-01  0.61154137351E-02 -0.33233931945E-01  0.43501431455E-01  0.51100000000E-03 0. -1.
</event>
<event>
 8    1  0.1131376E+005  0.1043930E+01  0.7957747E-01            NaN
         13   -1    0    0    0    0  0.00000000000E+00  0.00000000000E+00  0.74505805969E-08  0.10566000000E+00  0.10566000000E+00 0.  1.
     999900   -1    0    0    0    0 -0.00000000000E+00 -0.00000000000E+00 -0.74505805969E-08  0.93827000000E+00  0.93827000000E+00 0.  1.
     999902    2    1    2    0    0  0.22193487783E-01 -0.83474212546E-02 -0.32679961702E-02  0.10199944586E+01  0.10197135801E+01 0.  0.
     999903    2    3    3    0    0 -0.77061313345E-01 -0.58441801640E-01  0.80364285644E-01  0.12906498833E+00  0.29076839789E-01 0.  0.
         14    1    1    2    0    0 -0.22193487783E-01  0.83474212546E-02  0.32679961702E-02  0.23935541367E-01  0.00000000000E+00 0.  1.
     999901    1    3    3    0    0  0.99254801128E-01  0.50094380385E-01 -0.83632281814E-01  0.89092947030E+00  0.88000000000E+00 0.  1.
        -11    1    4    4    0    0 -0.13701581341E-01 -0.26705136801E-01  0.26662961064E-01  0.40150619877E-01  0.51100000000E-03 0. -1.
         11    1    4    4    0    0 -0.63359732004E-01 -0.31736664839E-01  0.53701324580E-01  0.88914368453E-01  0.51100000000E-03 0.  1.
</event>
<event>
 8    1  0.1131376E+005  0.1043930E+01  0.7957747E-01            NaN
         13   -1    0    0    0    0  0.00000000000E+00  0.00000000000E+00  0.74505805969E-08  0.10566000000E+00  0.10566000000E+00 0. -1.
     999900   -1    0    0    0    0 -0.00000000000E+00 -0.00000000000E+00 -0.74505805969E-08  0.93827000000E+00  0.93827000000E+00 0. -1.
     999902    2    1    2    0    0 -0.15770083148E-01 -0.70180954442E-02 -0.14960240079E-01  0.10210879780E+01  0.10208324548E+01 0.  0.
     999903    2    3    3    0    0 -0.65269923320E-01 -0.24924115852E-01 -0.11291076054E+00  0.13409014023E+00  0.18706988522E-01 0.  0.
         14    1    1    2    0    0  0.15770083148E-01  0.70180954442E-02  0.14960240079E-01  0.22842022007E-01  0.00000000000E+00 0. -1.
     999901    1    3    3    0    0  0.49499840172E-01  0.17906020408E-01  0.97950520459E-01  0.88699783777E+00  0.88000000000E+00 0.  1.
        -11    1    4    4    0    0 -0.22705838456E-01  0.18532901129E-03 -0.40229595018E-01  0.46198169695E-01  0.51100000000E-03 0.  1.
         11    1    4    4    0    0 -0.42564084864E-01 -0.25109444863E-01 -0.72681165519E-01  0.87891970531E-01  0.51100000000E-03 0. -1.
</event>
<event>
 8    1  0.1131376E+005  0.1043930E+01  0.7957747E-01            NaN
         13   -1    0    0    0    0  0.00000000000E+00  0.00000000000E+00  0.74505805969E-08  0.10566000000E+00  0.10566000000E+00 0.  1.
     999900   -1    0    0    0    0 -0.00000000000E+00 -0.00000000000E+00 -0.74505805969E-08  0.93827000000E+00  0.93827000000E+00 0. -1.
     999902    2    1    2    0    0  0.15889676086E-01 -0.16413293647E-01  0.39559692652E-02  0.10207453562E+01  0.10204820207E+01 0.  0.
     999903    2    3    3    0    0 -0.10973548228E+00 -0.91450361563E-02 -0.64267728429E-01  0.12917988980E+00  0.20774870753E-01 0.  0.
         14    1    1    2    0    0 -0.15889676086E-01  0.16413293647E-01 -0.39559692652E-02  0.23184643782E-01  0.00000000000E+00 0. -1.
     999901    1    3    3    0    0  0.12562515836E+00 -0.72682574911E-02  0.68223697694E-01  0.89156546642E+00  0.88000000000E+00 0.  1.
        -11    1    4    4    0    0 -0.15810700386E-01  0.60000983134E-02 -0.95709733338E-02  0.19438211801E-01  0.51100000000E-03 0.  1.
         11    1    4    4    0    0 -0.93924781890E-01 -0.15145134470E-01 -0.54696755095E-01  0.10974167800E+00  0.51100000000E-03 0. -1.
</event>
<event>
 8    1  0.1131376E+005  0.1043930E+01  0.7957747E-01            NaN
         13   -1    0    0    0    0  0.00000000000E+00  0.00000000000E+00  0.74505805969E-08  0.10566000000E+00  0.10566000000E+00 0. -1.
     999900   -1    0    0    0    0 -0.00000000000E+00 -0.00000000000E+00 -0.74505805969E-08  0.93827000000E+00  0.93827000000E+00 0. -1.
     999902    2    1    2    0    0  0.22809940028E-01  0.88557138288E-03  0.49919215281E-02  0.10205634238E+01  0.10202958910E+01 0.  0.
     999903    2    3    3    0    0 -0.79252353351E-01 -0.94944339261E-03 -0.99006832677E-01  0.12857922001E+00  0.21176070165E-01 0.  0.
         14    1    1    2    0    0 -0.22809940028E-01 -0.88557138288E-03 -0.49919215281E-02  0.23366576157E-01  0.00000000000E+00 0. -1.
     999901    1    3    3    0    0  0.10206229338E+00  0.18350147755E-02  0.10399875420E+00  0.89198420383E+00  0.88000000000E+00 0.  1.
        -11    1    4    4    0    0 -0.98490022463E-02  0.34073128500E-02 -0.48002809651E-02  0.11485488429E-01  0.51100000000E-03 0. -1.
         11    1    4    4    0    0 -0.69403351105E-01 -0.43567562426E-02 -0.94206551712E-01  0.11709373158E+00  0.51100000000E-03 0.  1.
</event>
<event>
 8    1  0.1131376E+005  0.1043930E+01  0.7957747E-01            NaN
         13   -1    0    0    0    0  0.00000000000E+00  0.00000000000E+00  0.74505805969E-08  0.10566000000E+00  0.10566000000E+00 0. -1.
     999900   -1    0    0    0    0 -0.00000000000E+00 -0.00000000000E+00 -0.74505805969E-08  0.93827000000E+00  0.93827000000E+00 0.  1.
     999902    2    1    2    0    0 -0.19129294128E-01 -0.46697040577E-02  0.15250531076E-01  0.10190238817E+01  0.10187194691E+01 0.  0.
     999903    2    3    3    0    0 -0.24586485611E-01 -0.10022826856E+00 -0.75843380226E-01  0.12915910499E+00  0.16722888012E-01 0.  0.
         14    1    1    2    0    0  0.19129294128E-01  0.46697040577E-02 -0.15250531076E-01  0.24906118283E-01  0.00000000000E+00 0.  1.
     999901    1    3    3    0    0  0.54571914836E-02  0.95558564504E-01  0.91093911302E-01  0.88986477673E+00  0.88000000000E+00 0. -1.
        -11    1    4    4    0    0 -0.17852577302E-01 -0.54283632613E-01 -0.50462179744E-01  0.76237261175E-01  0.51100000000E-03 0. -1.
         11    1    4    4    0    0 -0.67339083095E-02 -0.45944635949E-01 -0.25381200482E-01  0.52921843812E-01  0.51100000000E-03 0.  1.
</event>
<event>
 8    1  0.1131376E+005  0.1043930E+01  0.7957747E-01            NaN
         13   -1    0    0    0    0  0.00000000000E+00  0.00000000000E+00  0.74505805969E-08  0.10566000000E+00  0.10566000000E+00 0. -1.
     999900   -1    0    0    0    0 -0.00000000000E+00 -0.00000000000E+00 -0.74505805969E-08  0.93827000000E+00  0.93827000000E+00 0.  1.
     999902    2    1    2    0    0 -0.15241346488E-01  0.16267324095E-01  0.81322949420E-02  0.10202011421E+01  0.10199251500E+01 0.  0.
     999903    2    3    3    0    0  0.84089203383E-02 -0.52464984925E-01 -0.11549845445E+00  0.12859134650E+00  0.19301731249E-01 0.  0.
         14    1    1    2    0    0  0.15241346488E-01 -0.16267324095E-01 -0.81322949420E-02  0.23728857895E-01  0.00000000000E+00 0.  1.
     999901    1    3    3    0    0 -0.23650266826E-01  0.68732309020E-01  0.12363074939E+00  0.89160979561E+00  0.88000000000E+00 0. -1.
        -11    1    4    4    0    0  0.14215608287E-01 -0.33005695376E-01 -0.67517738582E-01  0.76487682606E-01  0.51100000000E-03 0.  1.
         11    1    4    4    0    0 -0.58066879484E-02 -0.19459289549E-01 -0.47980715871E-01  0.52103663894E-01  0.51100000000E-03 0. -1.
</event>
<event>
 8    1  0.1131376E+005  0.1043930E+01  0.7957747E-01            NaN
         13   -1    0    0    0    0  0.00000000000E+00  0.00000000000E+00  0.74505805969E-08  0.10566000000E+00  0.10566000000E+00 0. -1.
     999900   -1    0    0    0    0 -0.00000000000E+00 -0.00000000000E+00 -0.74505805969E-08  0.93827000000E+00  0.93827000000E+00 0.  1.
     999902    2    1    2    0    0  0.15407947511E-01 -0.49608494373E-02  0.16749760438E-01  0.10206368820E+01  0.10203710479E+01 0.  0.
     999903    2    3    3    0    0  0.63733745409E-01 -0.45764805917E-01 -0.10196714633E+00  0.13041553332E+00  0.21319114343E-01 0.  0.
         14    1    1    2    0    0 -0.15407947511E-01  0.49608494373E-02 -0.16749760438E-01  0.23293118047E-01  0.00000000000E+00 0.  1.
     999901    1    3    3    0    0 -0.48325797898E-01  0.40803956480E-01  0.11871690677E+00  0.89022134863E+00  0.88000000000E+00 0. -1.
        -11    1    4    4    0    0  0.21419763557E-01 -0.10183241168E-01 -0.45931550796E-01  0.51695968422E-01  0.51100000000E-03 0.  1.
         11    1    4    4    0    0  0.42313981852E-01 -0.35581564750E-01 -0.56035595534E-01  0.78719564900E-01  0.51100000000E-03 0. -1.
</event>
<event>
 8    1  0.1131376E+005  0.1043930E+01  0.7957747E-01            NaN
         13   -1    0    0    0    0  0.00000000000E+00  0.00000000000E+00  0.74505805969E-08  0.10566000000E+00  0.10566000000E+00 0. -1.
     999900   -1    0    0    0    0 -0.00000000000E+00 -0.00000000000E+00 -0.74505805969E-08  0.93827000000E+00  0.93827000000E+00 0.  1.
     999902    2    1    2    0    0 -0.75331836058E-02 -0.20018304695E-01  0.47624110647E-02  0.10220174023E+01  0.10217824664E+01 0.  0.
     999903    2    3    3    0    0  0.24988751836E-01 -0.97472624211E-01  0.86543409083E-01  0.13424210443E+00  0.20145241570E-01 0.  0.
         14    1    1    2    0    0  0.75331836058E-02  0.20018304695E-01 -0.47624110647E-02  0.21912597683E-01  0.00000000000E+00 0. -1.
     999901    1    3    3    0    0 -0.32521935442E-01  0.77454319516E-01 -0.81780998018E-01  0.88777529788E+00  0.88000000000E+00 0.  1.
        -11    1    4    4    0    0  0.21861333281E-01 -0.65183891305E-01  0.47949222453E-01  0.83822709532E-01  0.51100000000E-03 0. -1.
         11    1    4    4    0    0  0.31274185548E-02 -0.32288732906E-01  0.38594186630E-01  0.50419394900E-01  0.51100000000E-03 0.  1.
</event>
<event>
 8    1  0.1131376E+005  0.1043930E+01  0.7957747E-01            NaN
         13   -1    0    0    0    0  0.00000000000E+00  0.00000000000E+00  0.74505805969E-08  0.10566000000E+00  0.10566000000E+00 0.  1.
     999900   -1    0    0    0    0 -0.00000000000E+00 -0.00000000000E+00 -0.74505805969E-08  0.93827000000E+00  0.93827000000E+00 0.  1.
     999902    2    1    2    0    0 -0.63974926212E-02 -0.27808039123E-02  0.21695037242E-01  0.10211410680E+01  0.10208867446E+01 0.  0.
     999903    2    3    3    0    0  0.11724589915E+00 -0.45223863061E-01  0.32840000589E-01  0.13141453031E+00  0.19987858309E-01 0.  0.
         14    1    1    2    0    0  0.63974926212E-02  0.27808039123E-02 -0.21695037242E-01  0.22788932033E-01  0.00000000000E+00 0. -1.
     999901    1    3    3    0    0 -0.12364339178E+00  0.42443059149E-01 -0.11144963346E-01  0.88972653766E+00  0.88000000000E+00 0.  1.
        -11    1    4    4    0    0  0.77108901951E-01 -0.31290356260E-01  0.11962875390E-01  0.84072829521E-01  0.51100000000E-03 0. -1.
         11    1    4    4    0    0  0.40136997203E-01 -0.13933506801E-01  0.20877125199E-01  0.47341700791E-01  0.51100000000E-03 0.  1.
</event>
<event>
 8    1  0.1131376E+005  0.1043930E+01  0.7957747E-01            NaN
         13   -1    0    0    0    0  0.00000000000E+00  0.00000000000E+00  0.74505805969E-08  0.10566000000E+00  0.10566000000E+00 0.  1.
     999900   -1    0    0    0    0 -0.00000000000E+00 -0.00000000000E+00 -0.74505805969E-08  0.93827000000E+00  0.93827000000E+00 0. -1.
     999902    2    1    2    0    0  0.15575232173E-01 -0.20691858811E-01  0.51668320468E-02  0.10175209669E+01  0.10171781953E+01 0.  0.
     999903    2    3    3    0    0 -0.85513376081E-02 -0.60725323106E-01  0.11256765424E+00  0.12975990314E+00  0.20136172465E-01 0.  0.
         14    1    1    2    0    0 -0.15575232173E-01  0.20691858811E-01 -0.51668320468E-02  0.26409033146E-01  0.00000000000E+00 0. -1.
     999901    1    3    3    0    0  0.24126569781E-01  0.40033464295E-01 -0.10740082219E+00  0.88776106371E+00  0.88000000000E+00 0. -1.
        -11    1    4    4    0    0 -0.63629293454E-02 -0.34450413721E-01  0.83276175134E-01  0.90346556887E-01  0.51100000000E-03 0. -1.
         11    1    4    4    0    0 -0.21884082627E-02 -0.26274909385E-01  0.29291479106E-01  0.39413346256E-01  0.51100000000E-03 0.  1.
</event>
<event>
 8    1  0.1131376E+005  0.1043930E+01  0.7957747E-01            NaN
         13   -1    0    0    0    0  0.00000000000E+00  0.00000000000E+00  0.74505805969E-08  0.10566000000E+00  0.10566000000E+00 0. -1.
     999900   -1    0    0    0    0 -0.00000000000E+00 -0.00000000000E+00 -0.74505805969E-08  0.93827000000E+00  0.93827000000E+00 0. -1.
     999902    2    1    2    0    0  0.12262405174E-01 -0.13955878870E-01  0.15287180341E-02  0.10252894497E+01  0.10251199860E+01 0.  0.
     999903    2    3    3    0    0 -0.96449205479E-01  0.86726780980E-01 -0.15788748718E-01  0.13273406940E+00  0.23346623268E-01 0.  0.
         14    1    1    2    0    0 -0.12262405174E-01  0.13955878870E-01 -0.15287180341E-02  0.18640550274E-01  0.00000000000E+00 0. -1.
     999901    1    3    3    0    0  0.10871161065E+00 -0.10068265985E+00  0.17317466752E-01  0.89255538032E+00  0.88000000000E+00 0. -1.
        -11    1    4    4    0    0 -0.76284041500E-02  0.15325760312E-01  0.25156001072E-02  0.17310714714E-01  0.51100000000E-03 0. -1.
         11    1    4    4    0    0 -0.88820801329E-01  0.71401020668E-01 -0.18304348826E-01  0.11542335469E+00  0.51100000000E-03 0.  1.
</event>
<event>
 8    1  0.1131376E+005  0.1043930E+01  0.7957747E-01            NaN
         13   -1    0    0    0    0  0.00000000000E+00  0.00000000000E+00  0.74505805969E-08  0.10566000000E+00  0.10566000000E+00 0.  1.
     999900   -1    0    0    0    0 -0.00000000000E+00 -0.00000000000E+00 -0.74505805969E-08  0.93827000000E+00  0.93827000000E+00 0. -1.
     999902    2    1    2    0    0 -0.44622112147E-02  0.74834322740E-02 -0.21175130285E-01  0.10210324187E+01  0.10207756368E+01 0.  0.
     999903    2    3    3    0    0  0.11442671001E+00  0.60887101877E-01 -0.58670828520E-02  0.13130163702E+00  0.20124266069E-01 0.  0.
         14    1    1    2    0    0  0.44622112147E-02 -0.74834322740E-02  0.21175130285E-01  0.22897581316E-01  0.00000000000E+00 0.  1.
     999901    1    3    3    0    0 -0.11888892123E+00 -0.53403669603E-01 -0.15308047433E-01  0.88973078166E+00  0.88000000000E+00 0. -1.
        -11    1    4    4    0    0  0.31446612225E-01  0.23557444283E-01  0.52074471677E-02  0.39638633031E-01  0.51100000000E-03 0.  1.
         11    1    4    4    0    0  0.82980097787E-01  0.37329657594E-01 -0.11074530020E-01  0.91663003993E-01  0.51100000000E-03 0. -1.
</event>
<event>
 8    1  0.1131376E+005  0.1043930E+01  0.7957747E-01            NaN
         13   -1    0    0    0    0  0.00000000000E+00  0.00000000000E+00  0.74505805969E-08  0.10566000000E+00  0.10566000000E+00 0. -1.
     999900   -1    0    0    0    0 -0.00000000000E+00 -0.00000000000E+00 -0.74505805969E-08  0.93827000000E+00  0.93827000000E+00 0. -1.
     999902    2    1    2    0    0  0.11654521087E-02 -0.23056569042E-01 -0.84528231831E-02  0.10193451698E+01  0.10190486551E+01 0.  0.
     999903    2    3    3    0    0 -0.74388727024E-02  0.10466038736E+00  0.68575429046E-01  0.12675399410E+00  0.18837516876E-01 0.  0.
         14    1    1    2    0    0 -0.11654521087E-02  0.23056569042E-01  0.84528231831E-02  0.24584830168E-01  0.00000000000E+00 0. -1.
     999901    1    3    3    0    0  0.86043248111E-02 -0.12771695640E+00 -0.77028252229E-01  0.89259117573E+00  0.88000000000E+00 0. -1.
        -11    1    4    4    0    0 -0.10430529845E-01  0.29338234476E-01  0.17872709908E-01  0.35905749337E-01  0.51100000000E-03 0.  1.
         11    1    4    4    0    0  0.29916571421E-02  0.75322152881E-01  0.50702719138E-01  0.90848244761E-01  0.51100000000E-03 0. -1.
</event>
<event>
 8    1  0.1131376E+005  0.1043930E+01  0.7957747E-01            NaN
         13   -1    0    0    0    0  0.00000000000E+00  0.00000000000E+00  0.74505805969E-08  0.10566000000E+00  0.10566000000E+00 0.  1.
     999900   -1    0    0    0    0 -0.00000000000E+00 -0.00000000000E+00 -0.74505805969E-08  0.93827000000E+00  0.93827000000E+00 0.  1.
     999902    2    1    2    0    0 -0.12097407846E-01 -0.13120566725E-01 -0.96736865152E-02  0.10236303261E+01  0.10234290243E+01 0.  0.
     999903    2    3    3    0    0  0.37663296060E-01  0.10521159213E+00  0.65611476053E-01  0.13113579777E+00  0.20093000771E-01 0.  0.
         14    1    1    2    0    0  0.12097407846E-01  0.13120566725E-01  0.96736865152E-02  0.20299673854E-01  0.00000000000E+00 0.  1.
     999901    1    3    3    0    0 -0.49760703907E-01 -0.11833215885E+00 -0.75285162568E-01  0.89249452837E+00  0.88000000000E+00 0.  1.
        -11    1    4    4    0    0  0.19537589073E-01  0.80152744483E-01  0.45129510500E-01  0.94037831079E-01  0.51100000000E-03 0.  1.
         11    1    4    4    0    0  0.18125706987E-01  0.25058847643E-01  0.20481965553E-01  0.37097966695E-01  0.51100000000E-03 0. -1.
</event>
<event>
 8    1  0.1131376E+005  0.1043930E+01  0.7957747E-01            NaN
         13   -1    0    0    0    0  0.00000000000E+00  0.00000000000E+00  0.74505805969E-08  0.10566000000E+00  0.10566000000E+00 0. -1.
     999900   -1    0    0    0    0 -0.00000000000E+00 -0.00000000000E+00 -0.74505805969E-08  0.93827000000E+00  0.93827000000E+00 0. -1.
     999902    2    1    2    0    0  0.10692707320E-01 -0.93994072979E-02 -0.17332158327E-01  0.10215004088E+01  0.10212541303E+01 0.  0.
     999903    2    3    3    0    0 -0.16671132536E-01 -0.65068105889E-02  0.12674674764E+00  0.12935923279E+00  0.18676397581E-01 0.  0.
         14    1    1    2    0    0 -0.10692707320E-01  0.93994072979E-02  0.17332158327E-01  0.22429591161E-01  0.00000000000E+00 0. -1.
     999901    1    3    3    0    0  0.27363839856E-01 -0.28925967090E-02 -0.14407890597E+00  0.89214117604E+00  0.88000000000E+00 0. -1.
        -11    1    4    4    0    0 -0.16822963558E-02 -0.59108625712E-02  0.80542277052E-01  0.80778016385E-01  0.51100000000E-03 0. -1.
         11    1    4    4    0    0 -0.14988836181E-01 -0.59594801765E-03  0.46204470593E-01  0.48581216410E-01  0.51100000000E-03 0.  1.
</event>
<event>
 8    1  0.1131376E+005  0.1043930E+01  0.7957747E-01            NaN
         13   -1    0    0    0    0  0.00000000000E+00  0.00000000000E+00  0.74505805969E-08  0.10566000000E+00  0.10566000000E+00 0.  1.
     999900   -1    0    0    0    0 -0.00000000000E+00 -0.00000000000E+00 -0.74505805969E-08  0.93827000000E+00  0.93827000000E+00 0.  1.
     999902    2    1    2    0    0  0.22822437209E-01 -0.67510168017E-02  0.72183457016E-02  0.10190594475E+01  0.10187559144E+01 0.  0.
     999903    2    3    3    0    0 -0.75974653021E-01  0.22123726864E-01  0.99253979700E-01  0.12829282609E+00  0.18603482133E-01 0.  0.
         14    1    1    2    0    0 -0.22822437209E-01  0.67510168017E-02 -0.72183457016E-02  0.24870552521E-01  0.00000000000E+00 0. -1.
     999901    1    3    3    0    0  0.98797090230E-01 -0.28874743666E-01 -0.92035633998E-01  0.89076662139E+00  0.88000000000E+00 0.  1.
        -11    1    4    4    0    0 -0.67690788624E-01  0.13274122450E-01  0.81268218042E-01  0.10659751205E+00  0.51100000000E-03 0.  1.
         11    1    4    4    0    0 -0.82838643965E-02  0.88496044146E-02  0.17985761657E-01  0.21695314034E-01  0.51100000000E-03 0. -1.
</event>
<event>
 8    1  0.1131376E+005  0.1043930E+01  0.7957747E-01            NaN
         13   -1    0    0    0    0  0.00000000000E+00  0.00000000000E+00  0.74505805969E-08  0.10566000000E+00  0.10566000000E+00 0.  1.
     999900   -1    0    0    0    0 -0.00000000000E+00 -0.00000000000E+00 -0.74505805969E-08  0.93827000000E+00  0.93827000000E+00 0. -1.
     999902    2    1    2    0    0 -0.39177111912E-02  0.12299895152E-01 -0.20428411733E-01  0.10197648208E+01  0.10194784617E+01 0.  0.
     999903    2    3    3    0    0 -0.12528062658E+00  0.45770981540E-02 -0.33121583257E-01  0.13131126799E+00  0.20722562610E-01 0.  0.
         14    1    1    2    0    0  0.39177111912E-02 -0.12299895152E-01  0.20428411733E-01  0.24165179239E-01  0.00000000000E+00 0.  1.
     999901    1    3    3    0    0  0.12136291539E+00  0.77227969984E-02  0.12693171525E-01  0.88845355277E+00  0.88000000000E+00 0.  1.
        -11    1    4    4    0    0 -0.89915816238E-01 -0.25334684504E-02 -0.15946985211E-01  0.91355568688E-01  0.51100000000E-03 0.  1.
         11    1    4    4    0    0 -0.35364810340E-01  0.71105666044E-02 -0.17174598046E-01  0.39955699304E-01  0.51100000000E-03 0. -1.
</event>
<event>
 8    1  0.1131376E+005  0.1043930E+01  0.7957747E-01            NaN
         13   -1    0    0    0    0  0.00000000000E+00  0.00000000000E+00  0.74505805969E-08  0.10566000000E+00  0.10566000000E+00 0.  1.
     999900   -1    0    0    0    0 -0.00000000000E+00 -0.00000000000E+00 -0.74505805969E-08  0.93827000000E+00  0.93827000000E+00 0.  1.
     999902    2    1    2    0    0 -0.95968604944E-02  0.26419626537E-01 -0.86116991156E-03  0.10158081578E+01  0.10154188177E+01 0.  0.
     999903    2    3    3    0    0  0.68057173013E-01  0.11053304397E-01  0.10359141996E+00  0.12610224212E+00  0.20411732959E-01 0.  0.
         14    1    1    2    0    0  0.95968604944E-02 -0.26419626537E-01  0.86116991156E-03  0.28121842246E-01  0.00000000000E+00 0.  1.
     999901    1    3    3    0    0 -0.77654033507E-01  0.15366322140E-01 -0.10445258987E+00  0.88970591563E+00  0.88000000000E+00 0.  1.
        -11    1    4    4    0    0  0.27643146985E-01  0.87131235984E-02  0.27739597957E-01  0.40122419093E-01  0.51100000000E-03 0. -1.
         11    1    4    4    0    0  0.40414026028E-01  0.23401807984E-02  0.75851822004E-01  0.85979823030E-01  0.51100000000E-03 0.  1.
</event>
<event>
 8    1  0.1131376E+005  0.1043930E+01  0.7957747E-01            NaN
         13   -1    0    0    0    0  0.00000000000E+00  0.00000000000E+00  0.74505805969E-08  0.10566000000E+00  0.10566000000E+00 0.  1.
     999900   -1    0    0    0    0 -0.00000000000E+00 -0.00000000000E+00 -0.74505805969E-08  0.93827000000E+00  0.93827000000E+00 0. -1.
     999902    2    1    2    0    0  0.23132959342E-01 -0.58517160972E-03 -0.45702836168E-02  0.10203426363E+01  0.10200699641E+01 0.  0.
     999903    2    3    3    0    0  0.75192727129E-02 -0.70628439383E-01  0.10731867727E+00  0.13036005999E+00  0.20773320344E-01 0.  0.
         14    1    1    2    0    0 -0.23132959342E-01  0.58517160972E-03  0.45702836168E-02  0.23587363695E-01  0.00000000000E+00 0.  1.
     999901    1    3    3    0    0  0.15613686629E-01  0.70043267773E-01 -0.11188896089E+00  0.88998257631E+00  0.88000000000E+00 0. -1.
        -11    1    4    4    0    0  0.55954336524E-02 -0.31526726183E-01  0.30926667126E-01  0.44519245300E-01  0.51100000000E-03 0. -1.
         11    1    4    4    0    0  0.19238390606E-02 -0.39101713199E-01  0.76392010147E-01  0.85840814693E-01  0.51100000000E-03 0.  1.
</event>
<event>
 8    1  0.1131376E+005  0.1043930E+01  0.7957747E-01            NaN
         13   -1    0    0    0    0  0.00000000000E+00  0.00000000000E+00  0.74505805969E-08  0.10566000000E+00  0.10566000000E+00 0.  1.
     999900   -1    0    0    0    0 -0.00000000000E+00 -0.00000000000E+00 -0.74505805969E-08  0.93827000000E+00  0.93827000000E+00 0. -1.
     999902    2    1    2    0    0 -0.96428617996E-02  0.52831006170E-02  0.15815091598E-01  0.10246683007E+01  0.10244872442E+01 0.  0.
     999903    2    3    3    0    0 -0.13276413440E+00  0.25048750995E-02  0.19402678044E-01  0.13608547564E+00  0.22587673215E-01 0.  0.
         14    1    1    2    0    0  0.96428617996E-02 -0.52831006170E-02 -0.15815091598E-01  0.19261699251E-01  0.00000000000E+00 0.  1.
     999901    1    3    3    0    0  0.12312127260E+00  0.27782255174E-02 -0.35875864467E-02  0.88858282511E+00  0.88000000000E+00 0.  1.
        -11    1    4    4    0    0 -0.45108546606E-01 -0.98063980024E-02  0.75409146209E-02  0.46776841845E-01  0.51100000000E-03 0.  1.
         11    1    4    4    0    0 -0.87655587797E-01  0.12311273102E-01  0.11861763423E-01  0.89308633793E-01  0.51100000000E-03 0. -1.
</event>
<event>
 8    1  0.1131376E+005  0.1043930E+01  0.7957747E-01            NaN
         13   -1    0    0    0    0  0.00000000000E+00  0.00000000000E+00  0.74505805969E-08  0.10566000000E+00  0.10566000000E+00 0. -1.
     999900   -1    0    0    0    0 -0.00000000000E+00 -0.00000000000E+00 -0.74505805969E-08  0.93827000000E+00  0.93827000000E+00 0. -1.
     999902    2    1    2    0    0  0.48638519546E-02  0.79369833831E-02  0.21799053359E-01  0.10202265933E+01  0.10199511999E+01 0.  0.
     999903    2    3    3    0    0  0.64736924875E-01  0.10099225737E+00  0.53235529644E-01  0.13274007459E+00  0.19889703230E-01 0.  0.
         14    1    1    2    0    0 -0.48638519546E-02 -0.79369833831E-02 -0.21799053359E-01  0.23703406683E-01  0.00000000000E+00 0.  1.
     999901    1    3    3    0    0 -0.59873072920E-01 -0.93055273989E-01 -0.31436476285E-01  0.88748651873E+00  0.88000000000E+00 0. -1.
        -11    1    4    4    0    0  0.28974163647E-01  0.32284869797E-01  0.12115528391E-01  0.45042892070E-01  0.51100000000E-03 0. -1.
         11    1    4    4    0    0  0.35762761228E-01  0.68707387576E-01  0.41120001253E-01  0.87697182521E-01  0.51100000000E-03 0.  1.
</event>
<event>
 8    1  0.1131376E+005  0.1043930E+01  0.7957747E-01            NaN
         13   -1    0    0    0    0  0.00000000000E+00  0.00000000000E+00  0.74505805969E-08  0.10566000000E+00  0.10566000000E+00 0. -1.
     999900   -1    0    0    0    0 -0.00000000000E+00 -0.00000000000E+00 -0.74505805969E-08  0.93827000000E+00  0.93827000000E+00 0. -1.
     999902    2    1    2    0    0  0.82587612071E-02 -0.15312915445E-01  0.13957112787E-01  0.10216254374E+01  0.10213819270E+01 0.  0.
     999903    2    3    3    0    0 -0.54897750907E-01  0.78623714783E-01 -0.83808189594E-01  0.12900519906E+00  0.20568839541E-01 0.  0.
         14    1    1    2    0    0 -0.82587612071E-02  0.15312915445E-01 -0.13957112787E-01  0.22304562615E-01  0.00000000000E+00 0.  1.
     999901    1    3    3    0    0  0.63156512114E-01 -0.93936630228E-01  0.97765302381E-01  0.89262023833E+00  0.88000000000E+00 0.  1.
        -11    1    4    4    0    0 -0.32737164333E-01  0.62744175757E-01 -0.58971124445E-01  0.92121702976E-01  0.51100000000E-03 0. -1.
         11    1    4    4    0    0 -0.22160586574E-01  0.15879539027E-01 -0.24837065149E-01  0.36883496082E-01  0.51100000000E-03 0.  1.
</event>
<event>
 8    1  0.1131376E+005  0.1043930E+01  0.7957747E-01            NaN
         13   -1    0    0    0    0  0.00000000000E+00  0.00000000000E+00  0.74505805969E-08  0.10566000000E+00  0.10566000000E+00 0.  1.
     999900   -1    0    0    0    0 -0.00000000000E+00 -0.00000000000E+00 -0.74505805969E-08  0.93827000000E+00  0.93827000000E+00 0.  1.
     999902    2    1    2    0    0 -0.17323726881E-01 -0.16007303919E-01 -0.18717098428E-02  0.10202688802E+01  0.10199944801E+01 0.  0.
     999903    2    3    3    0    0 -0.94001946172E-01 -0.63885147968E-01 -0.66554228934E-01  0.13327639685E+00  0.20382702318E-01 0.  0.
         14    1    1    2    0    0  0.17323726881E-01  0.16007303919E-01  0.18717098428E-02  0.23661119786E-01  0.00000000000E+00 0. -1.
     999901    1    3    3    0    0  0.76678219291E-01  0.47877844049E-01  0.64682519091E-01  0.88699248336E+00  0.88000000000E+00 0. -1.
        -11    1    4    4    0    0 -0.51095735743E-01 -0.44897105282E-01 -0.45575380063E-01  0.81877351342E-01  0.51100000000E-03 0.  1.
         11    1    4    4    0    0 -0.42906210429E-01 -0.18988042686E-01 -0.20978848871E-01  0.51399045510E-01  0.51100000000E-03 0. -1.
</event>
<event>
 8    1  0.1131376E+005  0.1043930E+01  0.7957747E-01            NaN
         13   -1    0    0    0    0  0.00000000000E+00  0.00000000000E+00  0.74505805969E-08  0.10566000000E+00  0.10566000000E+00 0.  1.
     999900   -1    0    0    0    0 -0.00000000000E+00 -0.00000000000E+00 -0.74505805969E-08  0.93827000000E+00  0.93827000000E+00 0. -1.
     999902    2    1    2    0    0 -0.10404321222E-01  0.31386900570E-02 -0.21759827371E-01  0.10196073488E+01  0.10193172000E+01 0.  0.
     999903    2    3    3    0    0  0.46810107848E-01 -0.47814667043E-01  0.10630273991E+00  0.12704376189E+00  0.19037235652E-01 0.  0.
         14    1    1    2    0    0  0.10404321222E-01 -0.31386900570E-02  0.21759827371E-01  0.24322651225E-01  0.00000000000E+00 0.  1.
     999901    1    3    3    0    0 -0.57214429070E-01  0.50953357100E-01 -0.12806256728E+00  0.89256358688E+00  0.88000000000E+00 0. -1.
        -11    1    4    4    0    0  0.26456693949E-01 -0.29580496610E-01  0.79011499543E-01  0.88419684547E-01  0.51100000000E-03 0. -1.
         11    1    4    4    0    0  0.20353413899E-01 -0.18234170433E-01  0.27291240369E-01  0.38624077343E-01  0.51100000000E-03 0.  1.
</event>
<event>
 8    1  0.1131376E+005  0.1043930E+01  0.7957747E-01            NaN
         13   -1    0    0    0    0  0.00000000000E+00  0.00000000000E+00  0.74505805969E-08  0.10566000000E+00  0.10566000000E+00 0.  1.
     999900   -1    0    0    0    0 -0.00000000000E+00 -0.00000000000E+00 -0.74505805969E-08  0.93827000000E+00  0.93827000000E+00 0. -1.
     999902    2    1    2    0    0  0.15118749804E-02  0.89898322266E-02 -0.15920289438E-01  0.10255844702E+01  0.10254203757E+01 0.  0.
     999903    2    3    3    0    0 -0.39416290975E-01  0.77594436470E-01  0.10021789845E+00  0.13436632336E+00  0.20883991944E-01 0.  0.
         14    1    1    2    0    0 -0.15118749804E-02 -0.89898322266E-02  0.15920289438E-01  0.18345529842E-01  0.00000000000E+00 0.  1.
     999901    1    3    3    0    0  0.40928165956E-01 -0.68604604244E-01 -0.11613818788E+00  0.89121814680E+00  0.88000000000E+00 0. -1.
        -11    1    4    4    0    0 -0.29089260134E-01  0.34267155261E-01  0.49530341444E-01  0.66887508769E-01  0.51100000000E-03 0.  1.
         11    1    4    4    0    0 -0.10327030841E-01  0.43327281210E-01  0.50687557002E-01  0.67478814593E-01  0.51100000000E-03 0. -1.
</event>
<event>
 8    1  0.1131376E+005  0.1043930E+01  0.7957747E-01            NaN
         13   -1    0    0    0    0  0.00000000000E+00  0.00000000000E+00  0.74505805969E-08  0.10566000000E+00  0.10566000000E+00 0.  1.
     999900   -1    0    0    0    0 -0.00000000000E+00 -0.00000000000E+00 -0.74505805969E-08  0.93827000000E+00  0.93827000000E+00 0. -1.
     999902    2    1    2    0    0 -0.25391864757E-02 -0.13089963638E-01 -0.19314957799E-01  0.10204595460E+01  0.10201896014E+01 0.  0.
     999903    2    3    3    0    0  0.11619823365E-01 -0.12438779878E+00 -0.40849218162E-01  0.13307495630E+00  0.20807224498E-01 0.  0.
         14    1    1    2    0    0  0.25391864757E-02  0.13089963638E-01  0.19314957799E-01  0.23470453996E-01  0.00000000000E+00 0.  1.
     999901    1    3    3    0    0 -0.14159009841E-01  0.11129783514E+00  0.21534260363E-01  0.88738458970E+00  0.88000000000E+00 0.  1.
        -11    1    4    4    0    0 -0.55344765888E-02 -0.49075098735E-01 -0.17029709372E-01  0.52242395324E-01  0.51100000000E-03 0. -1.
         11    1    4    4    0    0  0.17154299954E-01 -0.75312700043E-01 -0.23819508789E-01  0.80832560980E-01  0.51100000000E-03 0.  1.
</event>
<event>
 8    1  0.1131376E+005  0.1043930E+01  0.7957747E-01            NaN
         13   -1    0    0    0    0  0.00000000000E+00  0.00000000000E+00  0.74505805969E-08  0.10566000000E+00  0.10566000000E+00 0.  1.
     999900   -1    0    0    0    0 -0.00000000000E+00 -0.00000000000E+00 -0.74505805969E-08  0.93827000000E+00  0.93827000000E+00 0. -1.
     999902    2    1    2    0    0 -0.11361648930E-01 -0.22632737070E-01  0.94969677566E-03  0.10185877472E+01  0.10182724434E+01 0.  0.
     999903    2    3    3    0    0 -0.86800157960E-01  0.25543555924E-01 -0.90016912476E-01  0.12938200730E+00  0.21211284963E-01 0.  0.
         14    1    1    2    0    0  0.11361648930E-01  0.22632737070E-01 -0.94969677566E-03  0.25342252813E-01  0.00000000000E+00 0. -1.
     999901    1    3    3    0    0  0.75438509030E-01 -0.48176292994E-01  0.90966609252E-01  0.88920573989E+00  0.88000000000E+00 0. -1.
        -11    1    4    4    0    0 -0.22477894108E-01  0.12682245277E-02 -0.33582385747E-01  0.40433919800E-01  0.51100000000E-03 0.  1.
         11    1    4    4    0    0 -0.64322263852E-01  0.24275331396E-01 -0.56434526730E-01  0.88948087499E-01  0.51100000000E-03 0. -1.
</event>
<event>
 8    1  0.1131376E+005  0.1043930E+01  0.7957747E-01            NaN
         13   -1    0    0    0    0  0.00000000000E+00  0.00000000000E+00  0.74505805969E-08  0.10566000000E+00  0.10566000000E+00 0.  1.
     999900   -1    0    0    0    0 -0.00000000000E+00 -0.00000000000E+00 -0.74505805969E-08  0.93827000000E+00  0.93827000000E+00 0. -1.
     999902    2    1    2    0    0 -0.15652404144E-01 -0.17599345085E-01  0.31664794219E-02  0.10201652931E+01  0.10198884566E+01 0.  0.
     999903    2    3    3    0    0  0.11068454108E+00 -0.17898695926E-01  0.61558521763E-01  0.12922716731E+00  0.18405928927E-01 0.  0.
         14    1    1    2    0    0  0.15652404144E-01  0.17599345085E-01 -0.31664794219E-02  0.23764706917E-01  0.00000000000E+00 0.  1.
     999901    1    3    3    0    0 -0.12633694523E+00  0.29935084066E-03 -0.58392042342E-01  0.89093812577E+00  0.88000000000E+00 0. -1.
        -11    1    4    4    0    0  0.84096473101E-01 -0.11165222650E-01  0.54729546921E-01  0.10095773082E+00  0.51100000000E-03 0.  1.
         11    1    4    4    0    0  0.26588067982E-01 -0.67334732757E-02  0.68289748429E-02  0.28269436496E-01  0.51100000000E-03 0. -1.
</event>
<event>
 8    1  0.1131376E+005  0.1043930E+01  0.7957747E-01            NaN
         13   -1    0    0    0    0  0.00000000000E+00  0.00000000000E+00  0.74505805969E-08  0.10566000000E+00  0.10566000000E+00 0.  1.
     999900   -1    0    0    0    0 -0.00000000000E+00 -0.00000000000E+00 -0.74505805969E-08  0.93827000000E+00  0.93827000000E+00 0. -1.
     999902    2    1    2    0    0  0.84607745657E-02  0.25731593809E-02 -0.22582762804E-01  0.10196774325E+01  0.10193889735E+01 0.  0.
     999903    2    3    3    0    0  0.91937065976E-01  0.38803180231E-01  0.78427873401E-01  0.12923706150E+00  0.24355201571E-01 0.  0.
         14    1    1    2    0    0 -0.84607745657E-02 -0.25731593809E-02  0.22582762804E-01  0.24252567520E-01  0.00000000000E+00 0.  1.
     999901    1    3    3    0    0 -0.83476291411E-01 -0.36230020850E-01 -0.10101063620E+00  0.89044037098E+00  0.88000000000E+00 0. -1.
        -11    1    4    4    0    0  0.24317043322E-01  0.11331668702E-01  0.84753844766E-02  0.28139271037E-01  0.51100000000E-03 0. -1.
         11    1    4    4    0    0  0.67620022655E-01  0.27471511529E-01  0.69952488925E-01  0.10109779047E+00  0.51100000000E-03 0.  1.
</event>
<event>
 8    1  0.1131376E+005  0.1043930E+01  0.7957747E-01            NaN
         13   -1    0    0    0    0  0.00000000000E+00  0.00000000000E+00  0.74505805969E-08  0.10566000000E+00  0.10566000000E+00 0. -1.
     999900   -1    0    0    0    0 -0.00000000000E+00 -0.00000000000E+00 -0.74505805969E-08  0.93827000000E+00  0.93827000000E+00 0.  1.
     999902    2    1    2    0    0  0.12824559104E-01  0.14481499931E-01 -0.14809098984E-01  0.10195682971E+01  0.10192772046E+01 0.  0.
     999903    2    3    3    0    0  0.27500913547E-01 -0.12383763011E+00  0.48493330588E-03  0.12851191023E+00  0.20567377910E-01 0.  0.
         14    1    1    2    0    0 -0.12824559104E-01 -0.14481499931E-01  0.14809098984E-01  0.24361702920E-01  0.00000000000E+00 0. -1.
     999901    1    3    3    0    0 -0.14676354443E-01  0.13831913004E+00 -0.15294032290E-01  0.89105638685E+00  0.88000000000E+00 0. -1.
        -11    1    4    4    0    0  0.19282541632E-01 -0.52941510822E-01  0.72891667685E-02  0.56815605718E-01  0.51100000000E-03 0. -1.
         11    1    4    4    0    0  0.82183719149E-02 -0.70896119289E-01 -0.68042334626E-02  0.71696304515E-01  0.51100000000E-03 0.  1.
</event>
<event>
 8    1  0.1131376E+005  0.1043930E+01  0.7957747E-01            NaN
         13   -1    0    0    0    0  0.00000000000E+00  0.00000000000E+00  0.74505805969E-08  0.10566000000E+00  0.10566000000E+00 0.  1.
     999900   -1    0    0    0    0 -0.00000000000E+00 -0.00000000000E+00 -0.74505805969E-08  0.93827000000E+00  0.93827000000E+00 0.  1.
     999902    2    1    2    0    0  0.56568846826E-03  0.23943840304E-01 -0.15973364852E-01  0.10151415322E+01  0.10147332431E+01 0.  0.
     999903    2    3    3    0    0  0.53031011977E-01  0.70536625517E-01 -0.92104654911E-01  0.12907185600E+00  0.19712249609E-01 0.  0.
         14    1    1    2    0    0 -0.56568846826E-03 -0.23943840304E-01  0.15973364852E-01  0.28788467771E-01  0.00000000000E+00 0.  1.
     999901    1    3    3    0    0 -0.52465323509E-01 -0.46592785213E-01  0.76131290059E-01  0.88606967623E+00  0.88000000000E+00 0. -1.
        -11    1    4    4    0    0  0.31588644340E-01  0.41739071277E-01 -0.40411442365E-01  0.66131220444E-01  0.51100000000E-03 0.  1.
         11    1    4    4    0    0  0.21442367637E-01  0.28797554240E-01 -0.51693212545E-01  0.62940635557E-01  0.51100000000E-03 0. -1.
</event>
<event>
 8    1  0.1131376E+005  0.1043930E+01  0.7957747E-01            NaN
         13   -1    0    0    0    0  0.00000000000E+00  0.00000000000E+00  0.74505805969E-08  0.10566000000E+00  0.10566000000E+00 0. -1.
     999900   -1    0    0    0    0 -0.00000000000E+00 -0.00000000000E+00 -0.74505805969E-08  0.93827000000E+00  0.93827000000E+00 0. -1.
     999902    2    1    2    0    0 -0.12242664340E-01 -0.19683612617E-01 -0.31596135384E-02  0.10205353298E+01  0.10202671458E+01 0.  0.
     999903    2    3    3    0    0 -0.83899581651E-01  0.85447630661E-01  0.46518568124E-01  0.12999885450E+00  0.19881841088E-01 0.  0.
         14    1    1    2    0    0  0.12242664340E-01  0.19683612617E-01  0.31596135384E-02  0.23394670194E-01  0.00000000000E+00 0. -1.
     999901    1    3    3    0    0  0.71656917312E-01 -0.10513124328E+00 -0.49678181662E-01  0.89053647530E+00  0.88000000000E+00 0.  1.
        -11    1    4    4    0    0 -0.66305903841E-01  0.54687703373E-01  0.32742768132E-01  0.91975908641E-01  0.51100000000E-03 0.  1.
         11    1    4    4    0    0 -0.17593677811E-01  0.30759927287E-01  0.13775799992E-01  0.38022945862E-01  0.51100000000E-03 0. -1.
</event>
<event>
 8    1  0.1131376E+005  0.1043930E+01  0.7957747E-01            NaN
         13   -1    0    0    0    0  0.00000000000E+00  0.00000000000E+00  0.74505805969E-08  0.10566000000E+00  0.10566000000E+00 0. -1.
     999900   -1    0    0    0    0 -0.00000000000E+00 -0.00000000000E+00 -0.74505805969E-08  0.93827000000E+00  0.93827000000E+00 0.  1.
     999902    2    1    2    0    0  0.47339971224E-02 -0.19336923543E-01 -0.13392228663E-01  0.10199366857E+01  0.10196544335E+01 0.  0.
     999903    2    3    3    0    0  0.32947983443E-01 -0.57250807429E-01 -0.11375748320E+00  0.13297181837E+00  0.19429743500E-01 0.  0.
         14    1    1    2    0    0 -0.47339971224E-02  0.19336923543E-01  0.13392228663E-01  0.23993314265E-01  0.00000000000E+00 0. -1.
     999901    1    3    3    0    0 -0.28213986320E-01  0.37913883886E-01  0.10036525454E+00  0.88696486736E+00  0.88000000000E+00 0. -1.
        -11    1    4    4    0    0  0.27038734494E-01 -0.40849964145E-01 -0.66488935225E-01  0.82588451747E-01  0.51100000000E-03 0.  1.
         11    1    4    4    0    0  0.59092489486E-02 -0.16400843284E-01 -0.47268547979E-01  0.50383366626E-01  0.51100000000E-03 0. -1.
</event>
<event>
 8    1  0.1131376E+005  0.1043930E+01  0.7957747E-01            NaN
         13   -1    0    0    0    0  0.00000000000E+00  0.00000000000E+00  0.74505805969E-08  0.10566000000E+00  0.10566000000E+00 0. -1.
     999900   -1    0    0    0    0 -0.00000000000E+00 -0.00000000000E+00 -0.74505805969E-08  0.93827000000E+00  0.93827000000E+00 0. -1.
     999902    2    1    2    0    0 -0.66962723677E-03 -0.11003310106E-02 -0.20571009977E-01  0.10233187026E+01  0.10231111091E+01 0.  0.
     999903    2    3    3    0    0 -0.89281514315E-01 -0.11060629754E-01  0.93716715745E-01  0.13145943213E+00  0.20130403773E-01 0.  0.
         14    1    1    2    0    0  0.66962723677E-03  0.11003310106E-02  0.20571009977E-01  0.20611297398E-01  0.00000000000E+00 0. -1.
     999901    1    3    3    0    0  0.88611887078E-01  0.99602987430E-02 -0.11428772572E+00  0.89185927048E+00  0.88000000000E+00 0. -1.
        -11    1    4    4    0    0 -0.96950456806E-02 -0.49068400802E-02  0.20177638260E-01  0.22923114908E-01  0.51100000000E-03 0. -1.
         11    1    4    4    0    0 -0.79586468634E-01 -0.61537896734E-02  0.73539077485E-01  0.10853631722E+00  0.51100000000E-03 0.  1.
</event>
<event>
 8    1  0.1131376E+005  0.1043930E+01  0.7957747E-01            NaN
         13   -1    0    0    0    0  0.00000000000E+00  0.00000000000E+00  0.74505805969E-08  0.10566000000E+00  0.10566000000E+00 0.  1.
     999900   -1    0    0    0    0 -0.00000000000E+00 -0.00000000000E+00 -0.74505805969E-08  0.93827000000E+00  0.93827000000E+00 0.  1.
     999902    2    1    2    0    0  0.12892589124E-01 -0.21886748115E-01 -0.12926273420E-01  0.10154284712E+01  0.10150283952E+01 0.  0.
     999903    2    3    3    0    0  0.62560794131E-01  0.36807853382E-01  0.99669918896E-01  0.12492867373E+00  0.20109941681E-01 0.  0.
         14    1    1    2    0    0 -0.12892589124E-01  0.21886748115E-01  0.12926273420E-01  0.28501528764E-01  0.00000000000E+00 0. -1.
     999901    1    3    3    0    0 -0.49668205007E-01 -0.58694601497E-01 -0.11259619232E+00  0.89049979751E+00  0.88000000000E+00 0. -1.
        -11    1    4    4    0    0  0.38332217773E-01  0.25299064560E-01  0.46423114938E-01  0.65305193580E-01  0.51100000000E-03 0.  1.
         11    1    4    4    0    0  0.24228576358E-01  0.11508788822E-01  0.53246803958E-01  0.59623480150E-01  0.51100000000E-03 0. -1.
</event>
<event>
 8    1  0.1131376E+005  0.1043930E+01  0.7957747E-01            NaN
         13   -1    0    0    0    0  0.00000000000E+00  0.00000000000E+00  0.74505805969E-08  0.10566000000E+00  0.10566000000E+00 0.  1.
     999900   -1    0    0    0    0 -0.00000000000E+00 -0.00000000000E+00 -0.74505805969E-08  0.93827000000E+00  0.93827000000E+00 0.  1.
     999902    2    1    2    0    0  0.10676577600E-01 -0.19150693607E-01  0.57146514877E-02  0.10212717649E+01  0.10210203829E+01 0.  0.
     999903    2    3    3    0    0 -0.96477440205E-01 -0.84063977988E-01 -0.24747417289E-01  0.13187665832E+00  0.20108940408E-01 0.  0.
         14    1    1    2    0    0 -0.10676577600E-01  0.19150693607E-01 -0.57146514877E-02  0.22658235070E-01  0.00000000000E+00 0.  1.
     999901    1    3    3    0    0  0.10715401781E+00  0.64913284382E-01  0.30462068777E-01  0.88939510661E+00  0.88000000000E+00 0. -1.
        -11    1    4    4    0    0 -0.65146706383E-01 -0.47589083958E-01 -0.85265401280E-02  0.81128153387E-01  0.51100000000E-03 0.  1.
         11    1    4    4    0    0 -0.31330733822E-01 -0.36474894031E-01 -0.16220877161E-01  0.50748504936E-01  0.51100000000E-03 0. -1.
</event>
<event>
 8    1  0.1131376E+005  0.1043930E+01  0.7957747E-01            NaN
         13   -1    0    0    0    0  0.00000000000E+00  0.00000000000E+00  0.74505805969E-08  0.10566000000E+00  0.10566000000E+00 0. -1.
     999900   -1    0    0    0    0 -0.00000000000E+00 -0.00000000000E+00 -0.74505805969E-08  0.93827000000E+00  0.93827000000E+00 0.  1.
     999902    2    1    2    0    0  0.45851932746E-02 -0.98111794884E-02 -0.21002295300E-01  0.10202999418E+01  0.10200262701E+01 0.  0.
     999903    2    3    3    0    0  0.11235192327E+00 -0.65591596461E-01 -0.11379770998E-01  0.13192067825E+00  0.18664243195E-01 0.  0.
         14    1    1    2    0    0 -0.45851932746E-02  0.98111794884E-02  0.21002295300E-01  0.23630058151E-01  0.00000000000E+00 0. -1.
     999901    1    3    3    0    0 -0.10776673000E+00  0.55780416973E-01 -0.96225243024E-02  0.88837926360E+00  0.88000000000E+00 0.  1.
        -11    1    4    4    0    0  0.14931291455E-01 -0.43852221987E-02 -0.61738561194E-02  0.16749664433E-01  0.51100000000E-03 0.  1.
         11    1    4    4    0    0  0.97420631817E-01 -0.61206374262E-01 -0.52059148784E-02  0.11517101382E+00  0.51100000000E-03 0. -1.
</event>
<event>
 8    1  0.1131376E+005  0.1043930E+01  0.7957747E-01            NaN
         13   -1    0    0    0    0  0.00000000000E+00  0.00000000000E+00  0.74505805969E-08  0.10566000000E+00  0.10566000000E+00 0. -1.
     999900   -1    0    0    0    0 -0.00000000000E+00 -0.00000000000E+00 -0.74505805969E-08  0.93827000000E+00  0.93827000000E+00 0. -1.
     999902    2    1    2    0    0  0.12093306044E-01  0.10490736934E-01 -0.17344545557E-01  0.10203262530E+01  0.10200531975E+01 0.  0.
     999903    2    3    3    0    0 -0.83379947575E-01 -0.39656396002E-01  0.86115133090E-01  0.12772680071E+00  0.19325477251E-01 0.  0.
         14    1    1    2    0    0 -0.12093306044E-01 -0.10490736934E-01  0.17344545557E-01  0.23603747014E-01  0.00000000000E+00 0. -1.
     999901    1    3    3    0    0  0.95473253619E-01  0.50147132936E-01 -0.10345967865E+00  0.89259945228E+00  0.88000000000E+00 0. -1.
        -11    1    4    4    0    0 -0.47836698055E-01 -0.31196287865E-01  0.59843749208E-01  0.82722992558E-01  0.51100000000E-03 0.  1.
         11    1    4    4    0    0 -0.35543249520E-01 -0.84601081364E-02  0.26271383881E-01  0.45003808152E-01  0.51100000000E-03 0. -1.
</event>
<event>
 8    1  0.1131376E+005  0.1043930E+01  0.7957747E-01            NaN
         13   -1    0    0    0    0  0.00000000000E+00  0.00000000000E+00  0.74505805969E-08  0.10566000000E+00  0.10566000000E+00 0. -1.
     999900   -1    0    0    0    0 -0.00000000000E+00 -0.00000000000E+00 -0.74505805969E-08  0.93827000000E+00  0.93827000000E+00 0. -1.
     999902    2    1    2    0    0 -0.46902990682E-03 -0.23710437563E-01 -0.18646115425E-02  0.10201417337E+01  0.10198643416E+01 0.  0.
     999903    2    3    3    0    0  0.32200023522E-01 -0.12527733232E+00  0.25120685472E-01  0.13328700633E+00  0.20077990703E-01 0.  0.
         14    1    1    2    0    0  0.46902990682E-03  0.23710437563E-01  0.18646115425E-02  0.23788266324E-01  0.00000000000E+00 0. -1.
     999901    1    3    3    0    0 -0.32669053429E-01  0.10156689475E+00 -0.26985297014E-01  0.88685472735E+00  0.88000000000E+00 0.  1.
        -11    1    4    4    0    0  0.23146886724E-01 -0.82727388642E-01  0.71065204869E-02  0.86199553079E-01  0.51100000000E-03 0. -1.
         11    1    4    4    0    0  0.90531367983E-02 -0.42549943674E-01  0.18014164985E-01  0.47087453251E-01  0.51100000000E-03 0.  1.
</event>
<event>
 8    1  0.1131376E+005  0.1043930E+01  0.7957747E-01            NaN
         13   -1    0    0    0    0  0.00000000000E+00  0.00000000000E+00  0.74505805969E-08  0.10566000000E+00  0.10566000000E+00 0.  1.
     999900   -1    0    0    0    0 -0.00000000000E+00 -0.00000000000E+00 -0.74505805969E-08  0.93827000000E+00  0.93827000000E+00 0. -1.
     999902    2    1    2    0    0  0.14086836502E-01  0.30950964154E-02  0.18292713295E-01  0.10206353237E+01  0.10203694537E+01 0.  0.
     999903    2    3    3    0    0  0.85230425517E-01 -0.25526002472E-01  0.97805922159E-01  0.13372894310E+00  0.20040698008E-01 0.  0.
         14    1    1    2    0    0 -0.14086836502E-01 -0.30950964154E-02 -0.18292713295E-01  0.23294676305E-01  0.00000000000E+00 0. -1.
     999901    1    3    3    0    0 -0.71143589015E-01  0.28621098888E-01 -0.79513208864E-01  0.88690638060E+00  0.88000000000E+00 0. -1.
        -11    1    4    4    0    0  0.57949600945E-01 -0.25387841347E-01  0.75355679676E-01  0.98394300233E-01  0.51100000000E-03 0.  1.
         11    1    4    4    0    0  0.27280824572E-01 -0.13816112490E-03  0.22450242483E-01  0.35334642865E-01  0.51100000000E-03 0. -1.
</event>
<event>
 8    1  0.1131376E+005  0.1043930E+01  0.7957747E-01            NaN
         13   -1    0    0    0    0  0.00000000000E+00  0.00000000000E+00  0.74505805969E-08  0.10566000000E+00  0.10566000000E+00 0. -1.
     999900   -1    0    0    0    0 -0.00000000000E+00 -0.00000000000E+00 -0.74505805969E-08  0.93827000000E+00  0.93827000000E+00 0. -1.
     999902    2    1    2    0    0 -0.22791518870E-01  0.41248538942E-02 -0.11325522059E-01  0.10181475408E+01  0.10178210450E+01 0.  0.
     999903    2    3    3    0    0  0.29509752774E-02  0.69503619566E-01 -0.10803485221E+00  0.13006547616E+00  0.20150369974E-01 0.  0.
         14    1    1    2    0    0  0.22791518870E-01 -0.41248538942E-02  0.11325522059E-01  0.25782459191E-01  0.00000000000E+00 0. -1.
     999901    1    3    3    0    0 -0.25742494147E-01 -0.65378765672E-01  0.96709330149E-01  0.88808206464E+00  0.88000000000E+00 0.  1.
        -11    1    4    4    0    0 -0.24533832848E-02  0.65240256718E-01 -0.94325129561E-01  0.11471617747E+00  0.51100000000E-03 0.  1.
         11    1    4    4    0    0  0.54043585622E-02  0.42633628481E-02 -0.13709722648E-01  0.15349298692E-01  0.51100000000E-03 0. -1.
</event>
<event>
 8    1  0.1131376E+005  0.1043930E+01  0.7957747E-01            NaN
         13   -1    0    0    0    0  0.00000000000E+00  0.00000000000E+00  0.74505805969E-08  0.10566000000E+00  0.10566000000E+00 0.  1.
     999900   -1    0    0    0    0 -0.00000000000E+00 -0.00000000000E+00 -0.74505805969E-08  0.93827000000E+00  0.93827000000E+00 0. -1.
     999902    2    1    2    0    0  0.15341949255E-01 -0.17604858704E-01 -0.62626027815E-02  0.10197530140E+01  0.10194663717E+01 0.  0.
     999903    2    3    3    0    0  0.85276995726E-01  0.52633261015E-01  0.80455698901E-01  0.12995282970E+00  0.19292285933E-01 0.  0.
         14    1    1    2    0    0 -0.15341949255E-01  0.17604858704E-01  0.62626027815E-02  0.24176985969E-01  0.00000000000E+00 0.  1.
     999901    1    3    3    0    0 -0.69935046471E-01 -0.70238119720E-01 -0.86718301683E-01  0.88980018433E+00  0.88000000000E+00 0.  1.
        -11    1    4    4    0    0  0.67889876010E-01  0.34464732416E-01  0.67034274521E-01  0.10144312755E+00  0.51100000000E-03 0.  1.
         11    1    4    4    0    0  0.17387119716E-01  0.18168528599E-01  0.13421424381E-01  0.28509702154E-01  0.51100000000E-03 0. -1.
</event>
<event>
 8    1  0.1131376E+005  0.1043930E+01  0.7957747E-01            NaN
         13   -1    0    0    0    0  0.00000000000E+00  0.00000000000E+00  0.74505805969E-08  0.10566000000E+00  0.10566000000E+00 0. -1.
     999900   -1    0    0    0    0 -0.00000000000E+00 -0.00000000000E+00 -0.74505805969E-08  0.93827000000E+00  0.93827000000E+00 0. -1.
     999902    2    1    2    0    0  0.87661168821E-02  0.17434842752E-01  0.13446100028E-01  0.10202315580E+01  0.10199562813E+01 0.  0.
     999903    2    3    3    0    0  0.34878838183E-01 -0.12267152076E+00  0.85887949055E-02  0.12875230378E+00  0.15445160094E-01 0.  0.
         14    1    1    2    0    0 -0.87661168821E-02 -0.17434842752E-01 -0.13446100028E-01  0.23698441993E-01  0.00000000000E+00 0.  1.
     999901    1    3    3    0    0 -0.26112721301E-01  0.14010636351E+00  0.48573051220E-02  0.89147925423E+00  0.88000000000E+00 0. -1.
        -11    1    4    4    0    0  0.27024521198E-01 -0.74067097191E-01  0.10114750374E-01  0.79491061940E-01  0.51100000000E-03 0. -1.
         11    1    4    4    0    0  0.78543169847E-02 -0.48604423572E-01 -0.15259554684E-02  0.49261241836E-01  0.51100000000E-03 0.  1.
</event>
<event>
 8    1  0.1131376E+005  0.1043930E+01  0.7957747E-01            NaN
         13   -1    0    0    0    0  0.00000000000E+00  0.00000000000E+00  0.74505805969E-08  0.10566000000E+00  0.10566000000E+00 0. -1.
     999900   -1    0    0    0    0 -0.00000000000E+00 -0.00000000000E+00 -0.74505805969E-08  0.93827000000E+00  0.93827000000E+00 0. -1.
     999902    2    1    2    0    0  0.10274261717E-01 -0.20148427488E-01 -0.76854275371E-02  0.10200430709E+01  0.10197633457E+01 0.  0.
     999903    2    3    3    0    0  0.84484136353E-01  0.61285308597E-01  0.73587248901E-01  0.12945685567E+00  0.21225831779E-01 0.  0.
         14    1    1    2    0    0 -0.10274261717E-01  0.20148427488E-01  0.76854275371E-02  0.23886929073E-01  0.00000000000E+00 0. -1.
     999901    1    3    3    0    0 -0.74209874636E-01 -0.81433736086E-01 -0.81272676438E-01  0.89058621525E+00  0.88000000000E+00 0. -1.
        -11    1    4    4    0    0  0.25527402501E-01  0.31192220277E-01  0.27322350040E-01  0.48696763927E-01  0.51100000000E-03 0. -1.
         11    1    4    4    0    0  0.58956733852E-01  0.30093088320E-01  0.46264898861E-01  0.80760091746E-01  0.51100000000E-03 0.  1.
</event>
<event>
 8    1  0.1131376E+005  0.1043930E+01  0.7957747E-01            NaN
         13   -1    0    0    0    0  0.00000000000E+00  0.00000000000E+00  0.74505805969E-08  0.10566000000E+00  0.10566000000E+00 0. -1.
     999900   -1    0    0    0    0 -0.00000000000E+00 -0.00000000000E+00 -0.74505805969E-08  0.93827000000E+00  0.93827000000E+00 0. -1.
     999902    2    1    2    0    0 -0.86199782530E-02  0.10706878270E-01  0.19534654463E-01  0.10200439373E+01  0.10197642325E+01 0.  0.
     999903    2    3    3    0    0 -0.57358297762E-01 -0.10211710281E+00 -0.49784808220E-01  0.12880330625E+00  0.19846600763E-01 0.  0.
         14    1    1    2    0    0  0.86199782530E-02 -0.10706878270E-01 -0.19534654463E-01  0.23886062722E-01  0.00000000000E+00 0.  1.
     999901    1    3    3    0    0  0.48738319509E-01  0.11282398108E+00  0.69319462683E-01  0.89124063103E+00  0.88000000000E+00 0.  1.
        -11    1    4    4    0    0 -0.77014758984E-02 -0.31326665133E-01 -0.11751685939E-01  0.34337092520E-01  0.51100000000E-03 0.  1.
         11    1    4    4    0    0 -0.49656821864E-01 -0.70790437678E-01 -0.38033122281E-01  0.94466213726E-01  0.51100000000E-03 0. -1.
</event>
<event>
 8    1  0.1131376E+005  0.1043930E+01  0.7957747E-01            NaN
         13   -1    0    0    0    0  0.00000000000E+00  0.00000000000E+00  0.74505805969E-08  0.10566000000E+00  0.10566000000E+00 0.  1.
     999900   -1    0    0    0    0 -0.00000000000E+00 -0.00000000000E+00 -0.74505805969E-08  0.93827000000E+00  0.93827000000E+00 0. -1.
     999902    2    1    2    0    0  0.12665782907E-01  0.15786278677E-01 -0.12204464077E-01  0.10202957538E+01  0.10200219839E+01 0.  0.
     999903    2    3    3    0    0  0.22736831578E-01  0.12065595602E+00  0.44734208639E-01  0.13218478791E+00  0.19920981347E-01 0.  0.
         14    1    1    2    0    0 -0.12665782907E-01 -0.15786278677E-01  0.12204464077E-01  0.23634246223E-01  0.00000000000E+00 0.  1.
     999901    1    3    3    0    0 -0.10071048672E-01 -0.10486967735E+00 -0.56938672717E-01  0.88811096587E+00  0.88000000000E+00 0. -1.
        -11    1    4    4    0    0  0.11890851926E-01  0.61387738203E-01  0.33335136021E-01  0.70861408226E-01  0.51100000000E-03 0.  1.
         11    1    4    4    0    0  0.10845979652E-01  0.59268217819E-01  0.11399072618E-01  0.61323379682E-01  0.51100000000E-03 0. -1.
</event>
<event>
 8    1  0.1131376E+005  0.1043930E+01  0.7957747E-01            NaN
         13   -1    0    0    0    0  0.00000000000E+00  0.00000000000E+00  0.74505805969E-08  0.10566000000E+00  0.10566000000E+00 0.  1.
     999900   -1    0    0    0    0 -0.00000000000E+00 -0.00000000000E+00 -0.74505805969E-08  0.93827000000E+00  0.93827000000E+00 0.  1.
     999902    2    1    2    0    0 -0.37400420268E-02  0.16816983316E-01 -0.15240601622E-01  0.10209283744E+01  0.10206692270E+01 0.  0.
     999903    2    3    3    0    0  0.90344646038E-01  0.94156691633E-01  0.71850754347E-02  0.13225730477E+00  0.20315799505E-01 0.  0.
         14    1    1    2    0    0  0.37400420268E-02 -0.16816983316E-01  0.15240601622E-01  0.23001625595E-01  0.00000000000E+00 0.  1.
     999901    1    3    3    0    0 -0.94084688065E-01 -0.77339708317E-01 -0.22425677056E-01  0.88867106963E+00  0.88000000000E+00 0. -1.
        -11    1    4    4    0    0  0.73994298978E-01  0.65175654733E-01  0.83353038551E-02  0.98958378435E-01  0.51100000000E-03 0. -1.
         11    1    4    4    0    0  0.16350347060E-01  0.28981036900E-01 -0.11502284204E-02  0.33298926337E-01  0.51100000000E-03 0.  1.
</event>
<event>
 8    1  0.1131376E+005  0.1043930E+01  0.7957747E-01            NaN
         13   -1    0    0    0    0  0.00000000000E+00  0.00000000000E+00  0.74505805969E-08  0.10566000000E+00  0.10566000000E+00 0. -1.
     999900   -1    0    0    0    0 -0.00000000000E+00 -0.00000000000E+00 -0.74505805969E-08  0.93827000000E+00  0.93827000000E+00 0. -1.
     999902    2    1    2    0    0  0.56170170193E-02  0.59273658862E-02  0.63495456440E-02  0.10335858579E+01  0.10335340944E+01 0.  0.
     999903    2    3    3    0    0 -0.24657953560E-01 -0.47470293627E-01  0.13088005993E+00  0.14270105450E+00  0.19301746522E-01 0.  0.
         14    1    1    2    0    0 -0.56170170193E-02 -0.59273658862E-02 -0.63495456440E-02  0.10344142131E-01  0.00000000000E+00 0. -1.
     999901    1    3    3    0    0  0.30274970579E-01  0.53397659513E-01 -0.12453051428E+00  0.89088480337E+00  0.88000000000E+00 0. -1.
        -11    1    4    4    0    0 -0.17675941065E-01 -0.27755971930E-01  0.10098984892E+00  0.10621696463E+00  0.51100000000E-03 0. -1.
         11    1    4    4    0    0 -0.69820124942E-02 -0.19714321697E-01  0.29890211008E-01  0.36484089868E-01  0.51100000000E-03 0.  1.
</event>
<event>
 8    1  0.1131376E+005  0.1043930E+01  0.7957747E-01            NaN
         13   -1    0    0    0    0  0.00000000000E+00  0.00000000000E+00  0.74505805969E-08  0.10566000000E+00  0.10566000000E+00 0.  1.
     999900   -1    0    0    0    0 -0.00000000000E+00 -0.00000000000E+00 -0.74505805969E-08  0.93827000000E+00  0.93827000000E+00 0. -1.
     999902    2    1    2    0    0  0.23139311037E-01  0.70552752180E-02  0.41014912534E-02  0.10193937645E+01  0.10190984350E+01 0.  0.
     999903    2    3    3    0    0 -0.70511154886E-01 -0.93467714685E-01 -0.45682419872E-01  0.12734347492E+00  0.20529015280E-01 0.  0.
         14    1    1    2    0    0 -0.23139311037E-01 -0.70552752180E-02 -0.41014912534E-02  0.24536235534E-01  0.00000000000E+00 0. -1.
     999901    1    3    3    0    0  0.93650465923E-01  0.10052298990E+00  0.49783911126E-01  0.89205028954E+00  0.88000000000E+00 0. -1.
        -11    1    4    4    0    0 -0.24076317163E-01 -0.24669665585E-01 -0.22483834429E-01  0.41158782536E-01  0.51100000000E-03 0.  1.
         11    1    4    4    0    0 -0.46434837722E-01 -0.68798049101E-01 -0.23198585443E-01  0.86184692388E-01  0.51100000000E-03 0. -1.
</event>
<event>
 8    1  0.1131376E+005  0.1043930E+01  0.7957747E-01            NaN
         13   -1    0    0    0    0  0.00000000000E+00  0.00000000000E+00  0.74505805969E-08  0.10566000000E+00  0.10566000000E+00 0. -1.
     999900   -1    0    0    0    0 -0.00000000000E+00 -0.00000000000E+00 -0.74505805969E-08  0.93827000000E+00  0.93827000000E+00 0.  1.
     999902    2    1    2    0    0  0.22480890008E-01 -0.67554218753E-02  0.15580724298E-02  0.10204044027E+01  0.10201331733E+01 0.  0.
     999903    2    3    3    0    0 -0.27965820946E-01 -0.11255730177E+00  0.57282384924E-01  0.13088537114E+00  0.19961849434E-01 0.  0.
         14    1    1    2    0    0 -0.22480890008E-01  0.67554218753E-02 -0.15580724298E-02  0.23525597334E-01  0.00000000000E+00 0.  1.
     999901    1    3    3    0    0  0.50446710954E-01  0.10580187990E+00 -0.55724312495E-01  0.88951903152E+00  0.88000000000E+00 0.  1.
        -11    1    4    4    0    0 -0.11336608453E-01 -0.82571534037E-01  0.38928007674E-01  0.91990368121E-01  0.51100000000E-03 0.  1.
         11    1    4    4    0    0 -0.16629212492E-01 -0.29985767737E-01  0.18354377250E-01  0.38895003023E-01  0.51100000000E-03 0. -1.
</event>
<event>
 8    1  0.1131376E+005  0.1043930E+01  0.7957747E-01            NaN
         13   -1    0    0    0    0  0.00000000000E+00  0.00000000000E+00  0.74505805969E-08  0.10566000000E+00  0.10566000000E+00 0.  1.
     999900   -1    0    0    0    0 -0.00000000000E+00 -0.00000000000E+00 -0.74505805969E-08  0.93827000000E+00  0.93827000000E+00 0.  1.
     999902    2    1    2    0    0  0.20038128398E-01  0.75956757479E-02 -0.80443610875E-02  0.10210404254E+01  0.10207838252E+01 0.  0.
     999903    2    3    3    0    0  0.12981799041E+00  0.11356194887E-01 -0.25266828948E-01  0.13404416104E+00  0.18648074051E-01 0.  0.
         14    1    1    2    0    0 -0.20038128398E-01 -0.75956757479E-02  0.80443610875E-02  0.22889574594E-01  0.00000000000E+00 0.  1.
     999901    1    3    3    0    0 -0.10977986201E+00 -0.37605191388E-02  0.17222467861E-01  0.88699626437E+00  0.88000000000E+00 0.  1.
        -11    1    4    4    0    0  0.72162353871E-01 -0.76052658349E-03 -0.77786665125E-02  0.72586172861E-01  0.51100000000E-03 0. -1.
         11    1    4    4    0    0  0.57655636541E-01  0.12116721470E-01 -0.17488162436E-01  0.61457988175E-01  0.51100000000E-03 0.  1.
</event>
<event>
 8    1  0.1131376E+005  0.1043930E+01  0.7957747E-01            NaN
         13   -1    0    0    0    0  0.00000000000E+00  0.00000000000E+00  0.74505805969E-08  0.10566000000E+00  0.10566000000E+00 0.  1.
     999900   -1    0    0    0    0 -0.00000000000E+00 -0.00000000000E+00 -0.74505805969E-08  0.93827000000E+00  0.93827000000E+00 0. -1.
     999902    2    1    2    0    0  0.22115739611E-01 -0.90789095021E-02 -0.17916133342E-02  0.10199562140E+01  0.10196744265E+01 0.  0.
     999903    2    3    3    0    0 -0.33797822946E-01  0.98720317894E-01  0.71579851097E-01  0.12859188238E+00  0.22895482758E-01 0.  0.
         14    1    1    2    0    0 -0.22115739611E-01  0.90789095021E-02  0.17916133342E-02  0.23973785989E-01  0.00000000000E+00 0. -1.
     999901    1    3    3    0    0  0.55913562558E-01 -0.10779922740E+00 -0.73371464431E-01  0.89136433163E+00  0.88000000000E+00 0. -1.
        -11    1    4    4    0    0 -0.17050186670E-01  0.68549558397E-01  0.58382251499E-01  0.91643326178E-01  0.51100000000E-03 0. -1.
         11    1    4    4    0    0 -0.16747636276E-01  0.30170759497E-01  0.13197599598E-01  0.36948556205E-01  0.51100000000E-03 0.  1.
</event>
<event>
 8    1  0.1131376E+005  0.1043930E+01  0.7957747E-01            NaN
         13   -1    0    0    0    0  0.00000000000E+00  0.00000000000E+00  0.74505805969E-08  0.10566000000E+00  0.10566000000E+00 0. -1.
     999900   -1    0    0    0    0 -0.00000000000E+00 -0.00000000000E+00 -0.74505805969E-08  0.93827000000E+00  0.93827000000E+00 0. -1.
     999902    2    1    2    0    0 -0.21293850355E-01  0.10365053873E-01 -0.77605202896E-03  0.10202347545E+01  0.10199595529E+01 0.  0.
     999903    2    3    3    0    0  0.82319865186E-01  0.83126134206E-01 -0.52292395243E-01  0.12968216731E+00  0.19911190938E-01 0.  0.
         14    1    1    2    0    0  0.21293850355E-01 -0.10365053873E-01  0.77605202896E-03  0.23695245546E-01  0.00000000000E+00 0.  1.
     999901    1    3    3    0    0 -0.10361371554E+00 -0.72761080332E-01  0.51516343214E-01  0.89055258715E+00  0.88000000000E+00 0. -1.
        -11    1    4    4    0    0  0.30185093645E-02  0.91389099129E-02 -0.94672627682E-03  0.96844455093E-02  0.51100000000E-03 0.  1.
         11    1    4    4    0    0  0.79301355821E-01  0.73987224293E-01 -0.51345668967E-01  0.11999772180E+00  0.51100000000E-03 0. -1.
</event>
<event>
 8    1  0.1131376E+005  0.1043930E+01  0.7957747E-01            NaN
         13   -1    0    0    0    0  0.00000000000E+00  0.00000000000E+00  0.74505805969E-08  0.10566000000E+00  0.10566000000E+00 0.  1.
     999900   -1    0    0    0    0 -0.00000000000E+00 -0.00000000000E+00 -0.74505805969E-08  0.93827000000E+00  0.93827000000E+00 0. -1.
     999902    2    1    2    0    0 -0.23909070411E-01 -0.21595999616E-01  0.85136335340E-02  0.10106056425E+01  0.10100560637E+01 0.  0.
     999903    2    3    3    0    0 -0.21448018513E-01  0.11507100070E+00 -0.15216995008E-01  0.11973692687E+00  0.20100298960E-01 0.  0.
         14    1    1    2    0    0  0.23909070411E-01  0.21595999616E-01 -0.85136335340E-02  0.33324357507E-01  0.00000000000E+00 0.  1.
     999901    1    3    3    0    0 -0.24610518979E-02 -0.13666700031E+00  0.23730628542E-01  0.89086871563E+00  0.88000000000E+00 0. -1.
        -11    1    4    4    0    0  0.96847664123E-03  0.24781053290E-01  0.28433829467E-02  0.24967669029E-01  0.51100000000E-03 0.  1.
         11    1    4    4    0    0 -0.22416495154E-01  0.90289947409E-01 -0.18060377955E-01  0.94769257837E-01  0.51100000000E-03 0. -1.
</event>
<event>
 8    1  0.1131376E+005  0.1043930E+01  0.7957747E-01            NaN
         13   -1    0    0    0    0  0.00000000000E+00  0.00000000000E+00  0.74505805969E-08  0.10566000000E+00  0.10566000000E+00 0. -1.
     999900   -1    0    0    0    0 -0.00000000000E+00 -0.00000000000E+00 -0.74505805969E-08  0.93827000000E+00  0.93827000000E+00 0.  1.
     999902    2    1    2    0    0 -0.20749289398E-01  0.41169937593E-02  0.10635924420E-01  0.10202528900E+01  0.10199781145E+01 0.  0.
     999903    2    3    3    0    0  0.62515262341E-01  0.68790969236E-01 -0.86538302983E-01  0.12864841542E+00  0.20522705301E-01 0.  0.
         14    1    1    2    0    0  0.20749289398E-01 -0.41169937593E-02 -0.10635924420E-01  0.23677109967E-01  0.00000000000E+00 0. -1.
     999901    1    3    3    0    0 -0.83264551738E-01 -0.64673975477E-01  0.97174227402E-01  0.89160447461E+00  0.88000000000E+00 0. -1.
        -11    1    4    4    0    0  0.30665530231E-01  0.47072313547E-01 -0.57426887838E-01  0.80338571152E-01  0.51100000000E-03 0. -1.
         11    1    4    4    0    0  0.31849732110E-01  0.21718655689E-01 -0.29111415144E-01  0.48309844267E-01  0.51100000000E-03 0.  1.
</event>
<event>
 8    1  0.1131376E+005  0.1043930E+01  0.7957747E-01            NaN
         13   -1    0    0    0    0  0.00000000000E+00  0.00000000000E+00  0.74505805969E-08  0.10566000000E+00  0.10566000000E+00 0. -1.
     999900   -1    0    0    0    0 -0.00000000000E+00 -0.00000000000E+00 -0.74505805969E-08  0.93827000000E+00  0.93827000000E+00 0.  1.
     999902    2    1    2    0    0  0.18923869916E-01  0.78644779214E-02  0.11775033739E-01  0.10202949776E+01  0.10200211895E+01 0.  0.
     999903    2    3    3    0    0  0.12240323067E+00  0.46386872088E-01  0.16620232510E-01  0.13338154949E+00  0.19496482663E-01 0.  0.
         14    1    1    2    0    0 -0.18923869916E-01 -0.78644779214E-02 -0.11775033739E-01  0.23635022427E-01  0.00000000000E+00 0.  1.
     999901    1    3    3    0    0 -0.10347936075E+00 -0.38522394166E-01 -0.48451987711E-02  0.88691342808E+00  0.88000000000E+00 0.  1.
        -11    1    4    4    0    0  0.89613366705E-01  0.42423831970E-01  0.96151166705E-02  0.99614499953E-01  0.51100000000E-03 0. -1.
         11    1    4    4    0    0  0.32789863965E-01  0.39630401177E-02  0.70051158392E-02  0.33767049542E-01  0.51100000000E-03 0.  1.
</event>
<event>
 8    1  0.1131376E+005  0.1043930E+01  0.7957747E-01            NaN
         13   -1    0    0    0    0  0.00000000000E+00  0.00000000000E+00  0.74505805969E-08  0.10566000000E+00  0.10566000000E+00 0.  1.
     999900   -1    0    0    0    0 -0.00000000000E+00 -0.00000000000E+00 -0.74505805969E-08  0.93827000000E+00  0.93827000000E+00 0. -1.
     999902    2    1    2    0    0  0.40605080587E-02  0.19026703939E-01  0.94332721022E-02  0.10223084873E+01  0.10220798175E+01 0.  0.
     999903    2    3    3    0    0 -0.17041838012E-01 -0.11423801188E+00 -0.55929874122E-01  0.12962873825E+00  0.18295118452E-01 0.  0.
         14    1    1    2    0    0 -0.40605080587E-02 -0.19026703939E-01 -0.94332721022E-02  0.21621512691E-01  0.00000000000E+00 0.  1.
     999901    1    3    3    0    0  0.21102346071E-01  0.13326471582E+00  0.65363146224E-01  0.89267974906E+00  0.88000000000E+00 0.  1.
        -11    1    4    4    0    0 -0.67476709810E-02 -0.49380025586E-01 -0.34233257257E-01  0.60465651522E-01  0.51100000000E-03 0.  1.
         11    1    4    4    0    0 -0.10294167031E-01 -0.64857986299E-01 -0.21696616865E-01  0.69163086730E-01  0.51100000000E-03 0. -1.
</event>
<event>
 8    1  0.1131376E+005  0.1043930E+01  0.7957747E-01            NaN
         13   -1    0    0    0    0  0.00000000000E+00  0.00000000000E+00  0.74505805969E-08  0.10566000000E+00  0.10566000000E+00 0.  1.
     999900   -1    0    0    0    0 -0.00000000000E+00 -0.00000000000E+00 -0.74505805969E-08  0.93827000000E+00  0.93827000000E+00 0.  1.
     999902    2    1    2    0    0 -0.12154870156E-01  0.20247260701E-01  0.41253431787E-02  0.10199568715E+01  0.10196750996E+01 0.  0.
     999903    2    3    3    0    0  0.12633221919E+00 -0.57308434406E-02 -0.12468369387E-01  0.12859337262E+00  0.19700839437E-01 0.  0.
         14    1    1    2    0    0  0.12154870156E-01 -0.20247260701E-01 -0.41253431787E-02  0.23973128514E-01  0.00000000000E+00 0. -1.
     999901    1    3    3    0    0 -0.13848708935E+00  0.25978104141E-01  0.16593712565E-01  0.89136349886E+00  0.88000000000E+00 0. -1.
        -11    1    4    4    0    0  0.26049225746E-01 -0.26185051455E-03 -0.10637566492E-01  0.28143377010E-01  0.51100000000E-03 0. -1.
         11    1    4    4    0    0  0.10028299345E+00 -0.54689929261E-02 -0.18308028949E-02  0.10044999561E+00  0.51100000000E-03 0.  1.
</event>
<event>
 8    1  0.1131376E+005  0.1043930E+01  0.7957747E-01            NaN
         13   -1    0    0    0    0  0.00000000000E+00  0.00000000000E+00  0.74505805969E-08  0.10566000000E+00  0.10566000000E+00 0.  1.
     999900   -1    0    0    0    0 -0.00000000000E+00 -0.00000000000E+00 -0.74505805969E-08  0.93827000000E+00  0.93827000000E+00 0. -1.
     999902    2    1    2    0    0  0.54145280512E-02  0.58932602051E-03 -0.20937131106E-01  0.10222960480E+01  0.10220671122E+01 0.  0.
     999903    2    3    3    0    0 -0.98591171376E-01  0.83856587229E-01 -0.19832478372E-01  0.13226692347E+00  0.18683296004E-01 0.  0.
         14    1    1    2    0    0 -0.54145280512E-02 -0.58932602051E-03  0.20937131106E-01  0.21633951977E-01  0.00000000000E+00 0.  1.
     999901    1    3    3    0    0  0.10400569943E+00 -0.83267261209E-01 -0.11046527344E-02  0.89002912456E+00  0.88000000000E+00 0.  1.
        -11    1    4    4    0    0 -0.18179080265E-01  0.13608228943E-01  0.34697264835E-02  0.22977444965E-01  0.51100000000E-03 0.  1.
         11    1    4    4    0    0 -0.80412091112E-01  0.70248358286E-01 -0.23302204855E-01  0.10928947850E+00  0.51100000000E-03 0. -1.
</event>
<event>
 8    1  0.1131376E+005  0.1043930E+01  0.7957747E-01            NaN
         13   -1    0    0    0    0  0.00000000000E+00  0.00000000000E+00  0.74505805969E-08  0.10566000000E+00  0.10566000000E+00 0.  1.
     999900   -1    0    0    0    0 -0.00000000000E+00 -0.00000000000E+00 -0.74505805969E-08  0.93827000000E+00  0.93827000000E+00 0. -1.
     999902    2    1    2    0    0 -0.27827307141E-03 -0.75072901664E-02 -0.22166196856E-01  0.10205253610E+01  0.10202569458E+01 0.  0.
     999903    2    3    3    0    0  0.25529732257E-01  0.25113831786E-01 -0.12682331162E+00  0.13334820714E+00  0.20374498826E-01 0.  0.
         14    1    1    2    0    0  0.27827307141E-03  0.75072901664E-02  0.22166196856E-01  0.23404638955E-01  0.00000000000E+00 0.  1.
     999901    1    3    3    0    0 -0.25808005328E-01 -0.32621121953E-01  0.10465711476E+00  0.88717715390E+00  0.88000000000E+00 0.  1.
        -11    1    4    4    0    0  0.67526356990E-02  0.19304324001E-01 -0.49425700368E-01  0.53492204963E-01  0.51100000000E-03 0.  1.
         11    1    4    4    0    0  0.18777096558E-01  0.58095077853E-02 -0.77397611250E-01  0.79856002179E-01  0.51100000000E-03 0. -1.
</event>
<event>
 8    1  0.1131376E+005  0.1043930E+01  0.7957747E-01            NaN
         13   -1    0    0    0    0  0.00000000000E+00  0.00000000000E+00  0.74505805969E-08  0.10566000000E+00  0.10566000000E+00 0. -1.
     999900   -1    0    0    0    0 -0.00000000000E+00 -0.00000000000E+00 -0.74505805969E-08  0.93827000000E+00  0.93827000000E+00 0. -1.
     999902    2    1    2    0    0 -0.95952626470E-02  0.17790777517E-01 -0.11578692653E-01  0.10206352162E+01  0.10203693437E+01 0.  0.
     999903    2    3    3    0    0  0.56409095033E-01  0.11740128514E+00 -0.14744901120E-01  0.13255365836E+00  0.19698032389E-01 0.  0.
         14    1    1    2    0    0  0.95952626470E-02 -0.17790777517E-01  0.11578692653E-01  0.23294783826E-01  0.00000000000E+00 0. -1.
     999901    1    3    3    0    0 -0.66004357680E-01 -0.99610507621E-01  0.31662084672E-02  0.88808155782E+00  0.88000000000E+00 0.  1.
        -11    1    4    4    0    0  0.21262243491E-01  0.66620423072E-01 -0.94253870878E-02  0.70565308837E-01  0.51100000000E-03 0. -1.
         11    1    4    4    0    0  0.35146851542E-01  0.50780862066E-01 -0.53195140326E-02  0.61988349519E-01  0.51100000000E-03 0.  1.
</event>
<event>
 8    1  0.1131376E+005  0.1043930E+01  0.7957747E-01            NaN
         13   -1    0    0    0    0  0.00000000000E+00  0.00000000000E+00  0.74505805969E-08  0.10566000000E+00  0.10566000000E+00 0. -1.
     999900   -1    0    0    0    0 -0.00000000000E+00 -0.00000000000E+00 -0.74505805969E-08  0.93827000000E+00  0.93827000000E+00 0.  1.
     999902    2    1    2    0    0  0.23077405567E-01  0.48126459844E-03 -0.10648173699E-01  0.10185098925E+01  0.10181926238E+01 0.  0.
     999903    2    3    3    0    0 -0.10760765085E-01 -0.71735191689E-01 -0.10565583469E+00  0.12981045285E+00  0.20636532493E-01 0.  0.
         14    1    1    2    0    0 -0.23077405567E-01 -0.48126459844E-03  0.10648173699E-01  0.25420107522E-01  0.00000000000E+00 0. -1.
     999901    1    3    3    0    0  0.33838170651E-01  0.72216456288E-01  0.95007660988E-01  0.88869943963E+00  0.88000000000E+00 0. -1.
        -11    1    4    4    0    0 -0.59494875872E-02 -0.15730934332E-01 -0.12320400194E-01  0.20854545774E-01  0.51100000000E-03 0.  1.
         11    1    4    4    0    0 -0.48112774976E-02 -0.56004257357E-01 -0.93335434494E-01  0.10895590707E+00  0.51100000000E-03 0. -1.
</event>
<event>
 8    1  0.1131376E+005  0.1043930E+01  0.7957747E-01            NaN
         13   -1    0    0    0    0  0.00000000000E+00  0.00000000000E+00  0.74505805969E-08  0.10566000000E+00  0.10566000000E+00 0. -1.
     999900   -1    0    0    0    0 -0.00000000000E+00 -0.00000000000E+00 -0.74505805969E-08  0.93827000000E+00  0.93827000000E+00 0. -1.
     999902    2    1    2    0    0  0.11240867777E-01  0.20471050172E-01  0.22077792047E-02  0.10204716264E+01  0.10202019628E+01 0.  0.
     999903    2    3    3    0    0 -0.32619556769E-01  0.11076579381E+00 -0.61531955584E-01  0.13247408621E+00  0.20738982531E-01 0.  0.
         14    1    1    2    0    0 -0.11240867777E-01 -0.20471050172E-01 -0.22077792047E-02  0.23458373612E-01  0.00000000000E+00 0.  1.
     999901    1    3    3    0    0  0.43860424546E-01 -0.90294743641E-01  0.63739734788E-01  0.88799754018E+00  0.88000000000E+00 0.  1.
        -11    1    4    4    0    0 -0.16224137354E-02  0.14517025698E-01 -0.10635144424E-02  0.14654980226E-01  0.51100000000E-03 0. -1.
         11    1    4    4    0    0 -0.30997143034E-01  0.96248768115E-01 -0.60468441141E-01  0.11781910598E+00  0.51100000000E-03 0.  1.
</event>
<event>
 8    1  0.1131376E+005  0.1043930E+01  0.7957747E-01            NaN
         13   -1    0    0    0    0  0.00000000000E+00  0.00000000000E+00  0.74505805969E-08  0.10566000000E+00  0.10566000000E+00 0. -1.
     999900   -1    0    0    0    0 -0.00000000000E+00 -0.00000000000E+00 -0.74505805969E-08  0.93827000000E+00  0.93827000000E+00 0.  1.
     999902    2    1    2    0    0  0.11247520724E-01 -0.76694239208E-02 -0.18627995653E-01  0.10208577438E+01  0.10205969841E+01 0.  0.
     999903    2    3    3    0    0  0.60107334710E-01 -0.11380958515E+00 -0.26833257248E-01  0.13309632223E+00  0.20714582735E-01 0.  0.
         14    1    1    2    0    0 -0.11247520724E-01  0.76694239208E-02  0.18627995653E-01  0.23072256235E-01  0.00000000000E+00 0. -1.
     999901    1    3    3    0    0 -0.48859813986E-01  0.10614016123E+00  0.82052615948E-02  0.88776142154E+00  0.88000000000E+00 0.  1.
        -11    1    4    4    0    0  0.32517391674E-01 -0.76045901641E-01 -0.24526838499E-01  0.86268110246E-01  0.51100000000E-03 0. -1.
         11    1    4    4    0    0  0.27589943036E-01 -0.37763683512E-01 -0.23064187488E-02  0.46828211984E-01  0.51100000000E-03 0.  1.
</event>
<event>
 8    1  0.1131376E+005  0.1043930E+01  0.7957747E-01            NaN
         13   -1    0    0    0    0  0.00000000000E+00  0.00000000000E+00  0.74505805969E-08  0.10566000000E+00  0.10566000000E+00 0.  1.
     999900   -1    0    0    0    0 -0.00000000000E+00 -0.00000000000E+00 -0.74505805969E-08  0.93827000000E+00  0.93827000000E+00 0. -1.
     999902    2    1    2    0    0 -0.14432564227E-01 -0.17934691284E-01  0.51507807372E-02  0.10203401165E+01  0.10200673854E+01 0.  0.
     999903    2    3    3    0    0  0.37731900159E-01  0.10959483653E+00  0.51769360757E-01  0.12839942126E+00  0.19277452735E-01 0.  0.
         14    1    1    2    0    0  0.14432564227E-01  0.17934691284E-01 -0.51507807372E-02  0.23589883506E-01  0.00000000000E+00 0. -1.
     999901    1    3    3    0    0 -0.52164464386E-01 -0.12752952781E+00 -0.46618580020E-01  0.89194069523E+00  0.88000000000E+00 0.  1.
        -11    1    4    4    0    0  0.15358073502E-01  0.26345322654E-01  0.20264327796E-01  0.36617626213E-01  0.51100000000E-03 0. -1.
         11    1    4    4    0    0  0.22373826658E-01  0.83249513874E-01  0.31505032961E-01  0.91781795049E-01  0.51100000000E-03 0.  1.
</event>
<event>
 8    1  0.1131376E+005  0.1043930E+01  0.7957747E-01            NaN
         13   -1    0    0    0    0  0.00000000000E+00  0.00000000000E+00  0.74505805969E-08  0.10566000000E+00  0.10566000000E+00 0.  1.
     999900   -1    0    0    0    0 -0.00000000000E+00 -0.00000000000E+00 -0.74505805969E-08  0.93827000000E+00  0.93827000000E+00 0. -1.
     999902    2    1    2    0    0 -0.66331069071E-02  0.23552771971E-01  0.21459594738E-02  0.10193670947E+01  0.10190711150E+01 0.  0.
     999903    2    3    3    0    0 -0.11444319830E+00  0.21368780738E-01  0.56764753818E-01  0.13110418412E+00  0.20302694159E-01 0.  0.
         14    1    1    2    0    0  0.66331069071E-02 -0.23552771971E-01 -0.21459594738E-02  0.24562905301E-01  0.00000000000E+00 0.  1.
     999901    1    3    3    0    0  0.10781009139E+00  0.21839912331E-02 -0.54618794344E-01  0.88826291058E+00  0.88000000000E+00 0. -1.
        -11    1    4    4    0    0 -0.53190835597E-01  0.83711407310E-02  0.37392958540E-01  0.65557878688E-01  0.51100000000E-03 0. -1.
         11    1    4    4    0    0 -0.61252362699E-01  0.12997640007E-01  0.19371795278E-01  0.65546305428E-01  0.51100000000E-03 0.  1.
</event>
<event>
 8    1  0.1131376E+005  0.1043930E+01  0.7957747E-01            NaN
         13   -1    0    0    0    0  0.00000000000E+00  0.00000000000E+00  0.74505805969E-08  0.10566000000E+00  0.10566000000E+00 0. -1.
     999900   -1    0    0    0    0 -0.00000000000E+00 -0.00000000000E+00 -0.74505805969E-08  0.93827000000E+00  0.93827000000E+00 0.  1.
     999902    2    1    2    0    0  0.15325929404E-01 -0.13552170131E-01  0.34207809710E-02  0.10231875997E+01  0.10229773297E+01 0.  0.
     999903    2    3    3    0    0  0.87055499770E-01 -0.34673603267E-01  0.95415588482E-01  0.13523811308E+00  0.20107060932E-01 0.  0.
         14    1    1    2    0    0 -0.15325929404E-01  0.13552170131E-01 -0.34207809710E-02  0.20742400291E-01  0.00000000000E+00 0. -1.
     999901    1    3    3    0    0 -0.71729570366E-01  0.21121433136E-01 -0.91994807511E-01  0.88794948663E+00  0.88000000000E+00 0. -1.
        -11    1    4    4    0    0  0.63882880123E-01 -0.25359705497E-01  0.81605617302E-01  0.10669524325E+00  0.51100000000E-03 0.  1.
         11    1    4    4    0    0  0.23172619648E-01 -0.93138977693E-02  0.13809971180E-01  0.28542869827E-01  0.51100000000E-03 0. -1.
</event>
<event>
 8    1  0.1131376E+005  0.1043930E+01  0.7957747E-01            NaN
         13   -1    0    0    0    0  0.00000000000E+00  0.00000000000E+00  0.74505805969E-08  0.10566000000E+00  0.10566000000E+00 0. -1.
     999900   -1    0    0    0    0 -0.00000000000E+00 -0.00000000000E+00 -0.74505805969E-08  0.93827000000E+00  0.93827000000E+00 0.  1.
     999902    2    1    2    0    0 -0.19990486422E-01  0.13748560879E-01 -0.25134853908E-02  0.10195381964E+01  0.10192463754E+01 0.  0.
     999903    2    3    3    0    0 -0.12562499997E+00  0.37022457458E-01 -0.15478028794E-01  0.13282042614E+00  0.15792189566E-01 0.  0.
         14    1    1    2    0    0  0.19990486422E-01 -0.13748560879E-01  0.25134853908E-02  0.24391803592E-01  0.00000000000E+00 0. -1.
     999901    1    3    3    0    0  0.10563451355E+00 -0.23273896579E-01  0.12964543404E-01  0.88671777026E+00  0.88000000000E+00 0. -1.
        -11    1    4    4    0    0 -0.67382312112E-01  0.14475373889E-01 -0.21363529509E-02  0.68954605065E-01  0.51100000000E-03 0.  1.
         11    1    4    4    0    0 -0.58242687862E-01  0.22547083569E-01 -0.13341675844E-01  0.63865821080E-01  0.51100000000E-03 0. -1.
</event>
<event>
 8    1  0.1131376E+005  0.1043930E+01  0.7957747E-01            NaN
         13   -1    0    0    0    0  0.00000000000E+00  0.00000000000E+00  0.74505805969E-08  0.10566000000E+00  0.10566000000E+00 0.  1.
     999900   -1    0    0    0    0 -0.00000000000E+00 -0.00000000000E+00 -0.74505805969E-08  0.93827000000E+00  0.93827000000E+00 0. -1.
     999902    2    1    2    0    0  0.21167069543E-01 -0.73440626663E-02  0.10254177419E-01  0.10192900275E+01  0.10189921648E+01 0.  0.
     999903    2    3    3    0    0 -0.71331889840E-02  0.96771118687E-01  0.81900954041E-01  0.12981032779E+00  0.26970782928E-01 0.  0.
         14    1    1    2    0    0 -0.21167069543E-01  0.73440626663E-02 -0.10254177419E-01  0.24639972484E-01  0.00000000000E+00 0.  1.
     999901    1    3    3    0    0  0.28300258527E-01 -0.10411518135E+00 -0.71646776622E-01  0.88947969972E+00  0.88000000000E+00 0. -1.
        -11    1    4    4    0    0 -0.38034850182E-02  0.82609844609E-01  0.80120933780E-01  0.11514546485E+00  0.51100000000E-03 0.  1.
         11    1    4    4    0    0 -0.33297039658E-02  0.14161274078E-01  0.17800202611E-02  0.14664862943E-01  0.51100000000E-03 0. -1.
</event>
<event>
 8    1  0.1131376E+005  0.1043930E+01  0.7957747E-01            NaN
         13   -1    0    0    0    0  0.00000000000E+00  0.00000000000E+00  0.74505805969E-08  0.10566000000E+00  0.10566000000E+00 0. -1.
     999900   -1    0    0    0    0 -0.00000000000E+00 -0.00000000000E+00 -0.74505805969E-08  0.93827000000E+00  0.93827000000E+00 0.  1.
     999902    2    1    2    0    0 -0.17911564739E-01 -0.75553156488E-02  0.13699969801E-01  0.10201477352E+01  0.10198704847E+01 0.  0.
     999903    2    3    3    0    0 -0.70775939846E-01 -0.85345317535E-01  0.71124849997E-01  0.13327483371E+00  0.20257841134E-01 0.  0.
         14    1    1    2    0    0  0.17911564739E-01  0.75553156488E-02 -0.13699969801E-01  0.23782264789E-01  0.00000000000E+00 0.  1.
     999901    1    3    3    0    0  0.52864375107E-01  0.77790001887E-01 -0.57424880196E-01  0.88687290150E+00  0.88000000000E+00 0. -1.
        -11    1    4    4    0    0 -0.28272485020E-01 -0.49831877460E-01  0.37541398708E-01  0.68499395314E-01  0.51100000000E-03 0.  1.
         11    1    4    4    0    0 -0.42503454826E-01 -0.35513440075E-01  0.33583451289E-01  0.64775438397E-01  0.51100000000E-03 0. -1.
</event>
<event>
 8    1  0.1131376E+005  0.1043930E+01  0.7957747E-01            NaN
         13   -1    0    0    0    0  0.00000000000E+00  0.00000000000E+00  0.74505805969E-08  0.10566000000E+00  0.10566000000E+00 0. -1.
     999900   -1    0    0    0    0 -0.00000000000E+00 -0.00000000000E+00 -0.74505805969E-08  0.93827000000E+00  0.93827000000E+00 0. -1.
     999902    2    1    2    0    0  0.14397456078E-01  0.14271061497E-01  0.12808368933E-01  0.10199507537E+01  0.10196688363E+01 0.  0.
     999903    2    3    3    0    0 -0.12249674092E+00 -0.15390428722E-01  0.30237388261E-01  0.12870241801E+00  0.20191481426E-01 0.  0.
         14    1    1    2    0    0 -0.14397456078E-01 -0.14271061497E-01 -0.12808368933E-01  0.23979246287E-01  0.00000000000E+00 0.  1.
     999901    1    3    3    0    0  0.13689419700E+00  0.29661490218E-01 -0.17429019328E-01  0.89124833570E+00  0.88000000000E+00 0.  1.
        -11    1    4    4    0    0 -0.58146072633E-01  0.13632001574E-02  0.19483016361E-01  0.61340631924E-01  0.51100000000E-03 0. -1.
         11    1    4    4    0    0 -0.64350668284E-01 -0.16753628879E-01  0.10754371900E-01  0.67361786089E-01  0.51100000000E-03 0.  1.
</event>
<event>
 8    1  0.1131376E+005  0.1043930E+01  0.7957747E-01            NaN
         13   -1    0    0    0    0  0.00000000000E+00  0.00000000000E+00  0.74505805969E-08  0.10566000000E+00  0.10566000000E+00 0. -1.
     999900   -1    0    0    0    0 -0.00000000000E+00 -0.00000000000E+00 -0.74505805969E-08  0.93827000000E+00  0.93827000000E+00 0.  1.
     999902    2    1    2    0    0  0.15794659527E-01 -0.10638832918E-01  0.11130939760E-01  0.10218720342E+01  0.10216339366E+01 0.  0.
     999903    2    3    3    0    0 -0.67090076434E-01 -0.86527119051E-03  0.11204852922E+00  0.13218121047E+00  0.20375780975E-01 0.  0.
         14    1    1    2    0    0 -0.15794659527E-01  0.10638832918E-01 -0.11130939760E-01  0.22057965803E-01  0.00000000000E+00 0.  1.
     999901    1    3    3    0    0  0.82884735961E-01 -0.97735617278E-02 -0.10091758946E+00  0.88969082373E+00  0.88000000000E+00 0.  1.
        -11    1    4    4    0    0 -0.30514846888E-01 -0.99256807602E-02  0.45056443348E-01  0.55317440535E-01  0.51100000000E-03 0.  1.
         11    1    4    4    0    0 -0.36575229547E-01  0.90604095697E-02  0.66992085872E-01  0.76863769934E-01  0.51100000000E-03 0. -1.
</event>
<event>
 8    1  0.1213981E+005  0.1043930E+01  0.7957747E-01            NaN
         13   -1    0    0    0    0  0.00000000000E+00  0.00000000000E+00  0.74505805969E-08  0.10566000000E+00  0.10566000000E+00 0. -1.
     999900   -1    0    0    0    0 -0.00000000000E+00 -0.00000000000E+00 -0.74505805969E-08  0.93827000000E+00  0.93827000000E+00 0. -1.
     999902    2    1    2    0    0 -0.14875429793E-02  0.10390777222E-01 -0.23687604411E-01  0.10180208580E+01  0.10176911043E+01 0.  0.
     999903    2    3    3    0    0  0.11470214551E+00 -0.41780597265E-01  0.29779101233E-01  0.12724558634E+00  0.20061003964E-01 0.  0.
         14    1    1    2    0    0  0.14875429793E-02 -0.10390777222E-01  0.23687604411E-01  0.25909141979E-01  0.00000000000E+00 0. -1.
     999901    1    3    3    0    0 -0.11618968849E+00  0.52171374486E-01 -0.53466705643E-01  0.89077527168E+00  0.88000000000E+00 0.  1.
        -11    1    4    4    0    0  0.76606718176E-01 -0.27166168994E-01  0.29405949194E-01  0.86438191655E-01  0.51100000000E-03 0.  1.
         11    1    4    4    0    0  0.38095427334E-01 -0.14614428271E-01  0.37315203826E-03  0.40807394684E-01  0.51100000000E-03 0. -1.
</event>
<event>
 8    1  0.1131376E+005  0.1043930E+01  0.7957747E-01            NaN
         13   -1    0    0    0    0  0.00000000000E+00  0.00000000000E+00  0.74505805969E-08  0.10566000000E+00  0.10566000000E+00 0. -1.
     999900   -1    0    0    0    0 -0.00000000000E+00 -0.00000000000E+00 -0.74505805969E-08  0.93827000000E+00  0.93827000000E+00 0. -1.
     999902    2    1    2    0    0 -0.84050786896E-02  0.40592373654E-02  0.24526856730E-01  0.10176871065E+01  0.10173486902E+01 0.  0.
     999903    2    3    3    0    0 -0.12114172966E+00 -0.22038300748E-01  0.36858762835E-01  0.13002573537E+00  0.19675316919E-01 0.  0.
         14    1    1    2    0    0  0.84050786896E-02 -0.40592373654E-02 -0.24526856730E-01  0.26242893454E-01  0.00000000000E+00 0.  1.
     999901    1    3    3    0    0  0.11273665097E+00  0.26097538113E-01 -0.12331906105E-01  0.88766137117E+00  0.88000000000E+00 0.  1.
        -11    1    4    4    0    0 -0.34968348065E-01  0.23472790882E-02  0.12506451828E-01  0.37215152074E-01  0.51100000000E-03 0.  1.
         11    1    4    4    0    0 -0.86173381597E-01 -0.24385579836E-01  0.24352311007E-01  0.92810583298E-01  0.51100000000E-03 0. -1.
</event>
<event>
 8    1  0.1131376E+005  0.1043930E+01  0.7957747E-01            NaN
         13   -1    0    0    0    0  0.00000000000E+00  0.00000000000E+00  0.74505805969E-08  0.10566000000E+00  0.10566000000E+00 0. -1.
     999900   -1    0    0    0    0 -0.00000000000E+00 -0.00000000000E+00 -0.74505805969E-08  0.93827000000E+00  0.93827000000E+00 0. -1.
     999902    2    1    2    0    0  0.70226544359E-02 -0.10116613868E-01 -0.19524414409E-01  0.10208461028E+01  0.10205850770E+01 0.  0.
     999903    2    3    3    0    0  0.91705053819E-01 -0.85169913373E-01  0.36929992295E-01  0.13180661743E+00  0.18585721048E-01 0.  0.
         14    1    1    2    0    0 -0.70226544359E-02  0.10116613868E-01  0.19524414409E-01  0.23083897190E-01  0.00000000000E+00 0. -1.
     999901    1    3    3    0    0 -0.84682399383E-01  0.75053299505E-01 -0.56454406704E-01  0.88903948538E+00  0.88000000000E+00 0.  1.
        -11    1    4    4    0    0  0.12771170983E-01 -0.18196101223E-01  0.11073457776E-02  0.22264057215E-01  0.51100000000E-03 0. -1.
         11    1    4    4    0    0  0.78933882836E-01 -0.66973812150E-01  0.35822646517E-01  0.10954256021E+00  0.51100000000E-03 0.  1.
</event>
<event>
 8    1  0.1131376E+005  0.1043930E+01  0.7957747E-01            NaN
         13   -1    0    0    0    0  0.00000000000E+00  0.00000000000E+00  0.74505805969E-08  0.10566000000E+00  0.10566000000E+00 0.  1.
     999900   -1    0    0    0    0 -0.00000000000E+00 -0.00000000000E+00 -0.74505805969E-08  0.93827000000E+00  0.93827000000E+00 0.  1.
     999902    2    1    2    0    0 -0.18733391014E-01  0.78181945323E-02 -0.12574708412E-01  0.10200514030E+01  0.10197718751E+01 0.  0.
     999903    2    3    3    0    0 -0.87517138666E-01  0.59265859684E-01 -0.78911987854E-01  0.13338421578E+00  0.19813013597E-01 0.  0.
         14    1    1    2    0    0  0.18733391014E-01 -0.78181945323E-02  0.12574708412E-01  0.23878597033E-01  0.00000000000E+00 0.  1.
     999901    1    3    3    0    0  0.68783747652E-01 -0.51447665152E-01  0.66337279442E-01  0.88666718719E+00  0.88000000000E+00 0. -1.
        -11    1    4    4    0    0 -0.54357085275E-01  0.34875573277E-01 -0.36095992700E-01  0.73987702634E-01  0.51100000000E-03 0.  1.
         11    1    4    4    0    0 -0.33160053391E-01  0.24390286407E-01 -0.42815995154E-01  0.59396513146E-01  0.51100000000E-03 0. -1.
</event>
<event>
 8    1  0.1131376E+005  0.1043930E+01  0.7957747E-01            NaN
         13   -1    0    0    0    0  0.00000000000E+00  0.00000000000E+00  0.74505805969E-08  0.10566000000E+00  0.10566000000E+00 0. -1.
     999900   -1    0    0    0    0 -0.00000000000E+00 -0.00000000000E+00 -0.74505805969E-08  0.93827000000E+00  0.93827000000E+00 0.  1.
     999902    2    1    2    0    0 -0.75827426310E-02  0.21776396641E-01 -0.12980617381E-02  0.10208346671E+01  0.10205733796E+01 0.  0.
     999903    2    3    3    0    0  0.67048520020E-01 -0.17306935455E-01  0.10807671910E+00  0.13007085168E+00  0.21043174511E-01 0.  0.
         14    1    1    2    0    0  0.75827426310E-02 -0.21776396641E-01  0.12980617381E-02  0.23095332878E-01  0.00000000000E+00 0.  1.
     999901    1    3    3    0    0 -0.74631262651E-01  0.39083332096E-01 -0.10937478084E+00  0.89076381544E+00  0.88000000000E+00 0.  1.
        -11    1    4    4    0    0  0.46463002054E-01 -0.17637562530E-02  0.72299412503E-01  0.85961547015E-01  0.51100000000E-03 0.  1.
         11    1    4    4    0    0  0.20585517965E-01 -0.15543179202E-01  0.35777306601E-01  0.44109304667E-01  0.51100000000E-03 0. -1.
</event>
<event>
 8    1  0.1131376E+005  0.1043930E+01  0.7957747E-01            NaN
         13   -1    0    0    0    0  0.00000000000E+00  0.00000000000E+00  0.74505805969E-08  0.10566000000E+00  0.10566000000E+00 0.  1.
     999900   -1    0    0    0    0 -0.00000000000E+00 -0.00000000000E+00 -0.74505805969E-08  0.93827000000E+00  0.93827000000E+00 0.  1.
     999902    2    1    2    0    0  0.18530838407E-01  0.82076355859E-02 -0.10209140060E-01  0.10212367456E+01  0.10209845772E+01 0.  0.
     999903    2    3    3    0    0 -0.85234281339E-01 -0.47245660495E-01  0.81508421757E-01  0.12868177292E+00  0.20453379054E-01 0.  0.
         14    1    1    2    0    0 -0.18530838407E-01 -0.82076355859E-02  0.10209140060E-01  0.22693254388E-01  0.00000000000E+00 0.  1.
     999901    1    3    3    0    0  0.10376511975E+00  0.55453296081E-01 -0.91717561817E-01  0.89255497269E+00  0.88000000000E+00 0.  1.
        -11    1    4    4    0    0 -0.50349078231E-01 -0.37864957024E-01  0.57570394494E-01  0.85342815119E-01  0.51100000000E-03 0. -1.
         11    1    4    4    0    0 -0.34885203108E-01 -0.93807034717E-02  0.23938027263E-01  0.43338957806E-01  0.51100000000E-03 0.  1.
</event>
<event>
 8    1  0.1131376E+005  0.1043930E+01  0.7957747E-01            NaN
         13   -1    0    0    0    0  0.00000000000E+00  0.00000000000E+00  0.74505805969E-08  0.10566000000E+00  0.10566000000E+00 0. -1.
     999900   -1    0    0    0    0 -0.00000000000E+00 -0.00000000000E+00 -0.74505805969E-08  0.93827000000E+00  0.93827000000E+00 0.  1.
     999902    2    1    2    0    0 -0.10616998860E-01  0.21042763479E-01 -0.29279645306E-02  0.10201793887E+01  0.10199028844E+01 0.  0.
     999903    2    3    3    0    0 -0.67269348522E-01  0.10671759770E+00 -0.38866831471E-01  0.13347691997E+00  0.19790064831E-01 0.  0.
         14    1    1    2    0    0  0.10616998860E-01 -0.21042763479E-01  0.29279645306E-02  0.23750611275E-01  0.00000000000E+00 0. -1.
     999901    1    3    3    0    0  0.56652349662E-01 -0.85674834222E-01  0.35938866940E-01  0.88670246876E+00  0.88000000000E+00 0. -1.
        -11    1    4    4    0    0 -0.14643884617E-01  0.40695445233E-01 -0.13900962595E-01  0.45431932619E-01  0.51100000000E-03 0.  1.
         11    1    4    4    0    0 -0.52625463905E-01  0.66022152468E-01 -0.24965868876E-01  0.88044987350E-01  0.51100000000E-03 0. -1.
</event>
<event>
 8    1  0.1131376E+005  0.1043930E+01  0.7957747E-01            NaN
         13   -1    0    0    0    0  0.00000000000E+00  0.00000000000E+00  0.74505805969E-08  0.10566000000E+00  0.10566000000E+00 0. -1.
     999900   -1    0    0    0    0 -0.00000000000E+00 -0.00000000000E+00 -0.74505805969E-08  0.93827000000E+00  0.93827000000E+00 0.  1.
     999902    2    1    2    0    0 -0.22381430056E-01 -0.51451318723E-02  0.95953547601E-02  0.10190408131E+01  0.10187368193E+01 0.  0.
     999903    2    3    3    0    0  0.82335363395E-01  0.16838739731E-01 -0.92570950532E-01  0.12669174942E+00  0.20463706134E-01 0.  0.
         14    1    1    2    0    0  0.22381430056E-01  0.51451318723E-02 -0.95953547601E-02  0.24889186936E-01  0.00000000000E+00 0. -1.
     999901    1    3    3    0    0 -0.10471679345E+00 -0.21983871603E-01  0.10216630529E+00  0.89234906364E+00  0.88000000000E+00 0. -1.
        -11    1    4    4    0    0  0.37395771929E-01  0.14800965746E-01 -0.54634235377E-01  0.67843003629E-01  0.51100000000E-03 0.  1.
         11    1    4    4    0    0  0.44939591466E-01  0.20377739856E-02 -0.37936715155E-01  0.58848745796E-01  0.51100000000E-03 0. -1.
</event>
<event>
 8    1  0.1131376E+005  0.1043930E+01  0.7957747E-01            NaN
         13   -1    0    0    0    0  0.00000000000E+00  0.00000000000E+00  0.74505805969E-08  0.10566000000E+00  0.10566000000E+00 0.  1.
     999900   -1    0    0    0    0 -0.00000000000E+00 -0.00000000000E+00 -0.74505805969E-08  0.93827000000E+00  0.93827000000E+00 0.  1.
     999902    2    1    2    0    0  0.14286303335E-01  0.14872656171E-01  0.10217859277E-01  0.10209148091E+01  0.10206553524E+01 0.  0.
     999903    2    3    3    0    0  0.11665725583E+00  0.48071743585E-01  0.40147305317E-01  0.13385350170E+00  0.19625134992E-01 0.  0.
         14    1    1    2    0    0 -0.14286303335E-01 -0.14872656171E-01 -0.10217859277E-01  0.23015190913E-01  0.00000000000E+00 0.  1.
     999901    1    3    3    0    0 -0.10237095250E+00 -0.33199087413E-01 -0.29929446040E-01  0.88706130739E+00  0.88000000000E+00 0. -1.
        -11    1    4    4    0    0  0.41690181353E-01  0.13387324352E-01  0.23100337139E-01  0.49509376602E-01  0.51100000000E-03 0. -1.
         11    1    4    4    0    0  0.74967074481E-01  0.34684419232E-01  0.17046968178E-01  0.84344125100E-01  0.51100000000E-03 0.  1.
</event>
<event>
 8    1  0.1131376E+005  0.1043930E+01  0.7957747E-01            NaN
         13   -1    0    0    0    0  0.00000000000E+00  0.00000000000E+00  0.74505805969E-08  0.10566000000E+00  0.10566000000E+00 0. -1.
     999900   -1    0    0    0    0 -0.00000000000E+00 -0.00000000000E+00 -0.74505805969E-08  0.93827000000E+00  0.93827000000E+00 0. -1.
     999902    2    1    2    0    0 -0.21535359779E-01 -0.47779728288E-02 -0.96578872316E-02  0.10198493951E+01  0.10195650608E+01 0.  0.
     999903    2    3    3    0    0  0.75519775743E-01 -0.45957051923E-03 -0.10331032726E+00  0.12956341442E+00  0.20253565224E-01 0.  0.
         14    1    1    2    0    0  0.21535359779E-01  0.47779728288E-02  0.96578872316E-02  0.24080604871E-01  0.00000000000E+00 0. -1.
     999901    1    3    3    0    0 -0.97055135522E-01 -0.43184023096E-02  0.93652440025E-01  0.89028598071E+00  0.88000000000E+00 0.  1.
        -11    1    4    4    0    0  0.48195917514E-01  0.87799100430E-02 -0.70817652864E-01  0.86112335722E-01  0.51100000000E-03 0.  1.
         11    1    4    4    0    0  0.27323858229E-01 -0.92394805622E-02 -0.32492674393E-01  0.43451078695E-01  0.51100000000E-03 0. -1.
</event>
<event>
 8    1  0.1131376E+005  0.1043930E+01  0.7957747E-01            NaN
         13   -1    0    0    0    0  0.00000000000E+00  0.00000000000E+00  0.74505805969E-08  0.10566000000E+00  0.10566000000E+00 0.  1.
     999900   -1    0    0    0    0 -0.00000000000E+00 -0.00000000000E+00 -0.74505805969E-08  0.93827000000E+00  0.93827000000E+00 0.  1.
     999902    2    1    2    0    0  0.52128882629E-02  0.21130452137E-01 -0.97376622169E-02  0.10200869239E+01  0.10198082369E+01 0.  0.
     999903    2    3    3    0    0 -0.93546237952E-02 -0.12573464368E+00 -0.20185245481E-02  0.12776346583E+00  0.20560134959E-01 0.  0.
         14    1    1    2    0    0 -0.52128882629E-02 -0.21130452137E-01  0.97376622169E-02  0.23843076081E-01  0.00000000000E+00 0.  1.
     999901    1    3    3    0    0  0.14567512058E-01  0.14686509582E+00 -0.77191376688E-02  0.89232345809E+00  0.88000000000E+00 0.  1.
        -11    1    4    4    0    0 -0.14294803073E-01 -0.11489156720E+00 -0.86917693969E-03  0.11578182154E+00  0.51100000000E-03 0. -1.
         11    1    4    4    0    0  0.49401792782E-02 -0.10843076481E-01 -0.11493476085E-02  0.11981644286E-01  0.51100000000E-03 0.  1.
</event>
<event>
 8    1  0.1131376E+005  0.1043930E+01  0.7957747E-01            NaN
         13   -1    0    0    0    0  0.00000000000E+00  0.00000000000E+00  0.74505805969E-08  0.10566000000E+00  0.10566000000E+00 0.  1.
     999900   -1    0    0    0    0 -0.00000000000E+00 -0.00000000000E+00 -0.74505805969E-08  0.93827000000E+00  0.93827000000E+00 0.  1.
     999902    2    1    2    0    0  0.33481360083E-02  0.22099715055E-02  0.25159844531E-01  0.10184523281E+01  0.10181336026E+01 0.  0.
     999903    2    3    3    0    0  0.62586704988E-01 -0.51359808733E-01  0.10172299279E+00  0.13152457169E+00  0.19905278265E-01 0.  0.
         14    1    1    2    0    0 -0.33481360083E-02 -0.22099715055E-02 -0.25159844531E-01  0.25477671903E-01  0.00000000000E+00 0. -1.
     999901    1    3    3    0    0 -0.59238568980E-01  0.53569780238E-01 -0.76563148257E-01  0.88692775640E+00  0.88000000000E+00 0.  1.
        -11    1    4    4    0    0  0.10815212593E-01 -0.95921409320E-02  0.32218204359E-01  0.35316452317E-01  0.51100000000E-03 0.  1.
         11    1    4    4    0    0  0.51771492395E-01 -0.41767667801E-01  0.69504788429E-01  0.96208119376E-01  0.51100000000E-03 0. -1.
</event>
<event>
 8    1  0.1131376E+005  0.1043930E+01  0.7957747E-01            NaN
         13   -1    0    0    0    0  0.00000000000E+00  0.00000000000E+00  0.74505805969E-08  0.10566000000E+00  0.10566000000E+00 0.  1.
     999900   -1    0    0    0    0 -0.00000000000E+00 -0.00000000000E+00 -0.74505805969E-08  0.93827000000E+00  0.93827000000E+00 0. -1.
     999902    2    1    2    0    0 -0.56307247986E-02 -0.14663910670E-01 -0.17508648439E-01  0.10204079230E+01  0.10201367757E+01 0.  0.
     999903    2    3    3    0    0  0.31137576322E-01  0.10526437586E+00  0.62605224174E-01  0.12790978041E+00  0.19782829567E-01 0.  0.
         14    1    1    2    0    0  0.56307247986E-02  0.14663910670E-01  0.17508648439E-01  0.23522077036E-01  0.00000000000E+00 0. -1.
     999901    1    3    3    0    0 -0.36768301121E-01 -0.11992828653E+00 -0.80113872613E-01  0.89249814255E+00  0.88000000000E+00 0. -1.
        -11    1    4    4    0    0  0.51794469022E-02  0.38024347065E-01  0.13457846905E-01  0.40670043082E-01  0.51100000000E-03 0.  1.
         11    1    4    4    0    0  0.25958129420E-01  0.67240028797E-01  0.49147377269E-01  0.87239737328E-01  0.51100000000E-03 0. -1.
</event>
<event>
 8    1  0.1131376E+005  0.1043930E+01  0.7957747E-01            NaN
         13   -1    0    0    0    0  0.00000000000E+00  0.00000000000E+00  0.74505805969E-08  0.10566000000E+00  0.10566000000E+00 0.  1.
     999900   -1    0    0    0    0 -0.00000000000E+00 -0.00000000000E+00 -0.74505805969E-08  0.93827000000E+00  0.93827000000E+00 0.  1.
     999902    2    1    2    0    0 -0.11275091429E-01  0.12719670468E-01 -0.16641242016E-01  0.10201424268E+01  0.10198650510E+01 0.  0.
     999903    2    3    3    0    0 -0.70366884755E-02  0.10797146932E+00  0.71024708921E-01  0.13066157359E+00  0.17904869879E-01 0.  0.
         14    1    1    2    0    0  0.11275091429E-01 -0.12719670468E-01  0.16641242016E-01  0.23787573214E-01  0.00000000000E+00 0.  1.
     999901    1    3    3    0    0 -0.42384029537E-02 -0.95251798848E-01 -0.87665950937E-01  0.88948085319E+00  0.88000000000E+00 0.  1.
        -11    1    4    4    0    0 -0.98226713135E-02  0.28885848755E-01  0.18623582494E-01  0.35748791252E-01  0.51100000000E-03 0. -1.
         11    1    4    4    0    0  0.27859828379E-02  0.79085620562E-01  0.52401126427E-01  0.94912782342E-01  0.51100000000E-03 0.  1.
</event>
<event>
 8    1  0.1131376E+005  0.1043930E+01  0.7957747E-01            NaN
         13   -1    0    0    0    0  0.00000000000E+00  0.00000000000E+00  0.74505805969E-08  0.10566000000E+00  0.10566000000E+00 0. -1.
     999900   -1    0    0    0    0 -0.00000000000E+00 -0.00000000000E+00 -0.74505805969E-08  0.93827000000E+00  0.93827000000E+00 0.  1.
     999902    2    1    2    0    0  0.16882121789E-01  0.63249390738E-02 -0.19264856119E-01  0.10175454293E+01  0.10172033008E+01 0.  0.
     999903    2    3    3    0    0  0.80468011104E-01 -0.40156376199E-01 -0.93118727757E-01  0.13094626825E+00  0.19702597545E-01 0.  0.
         14    1    1    2    0    0 -0.16882121789E-01 -0.63249390738E-02  0.19264856119E-01  0.26384570712E-01  0.00000000000E+00 0. -1.
     999901    1    3    3    0    0 -0.63585889315E-01  0.46481315273E-01  0.73853871638E-01  0.88659916103E+00  0.88000000000E+00 0. -1.
        -11    1    4    4    0    0  0.59218317764E-01 -0.19699856039E-01 -0.59656647108E-01  0.86336957046E-01  0.51100000000E-03 0. -1.
         11    1    4    4    0    0  0.21249693341E-01 -0.20456520160E-01 -0.33462080649E-01  0.44609311208E-01  0.51100000000E-03 0.  1.
</event>
<event>
 8    1  0.1131376E+005  0.1043930E+01  0.7957747E-01            NaN
         13   -1    0    0    0    0  0.00000000000E+00  0.00000000000E+00  0.74505805969E-08  0.10566000000E+00  0.10566000000E+00 0.  1.
     999900   -1    0    0    0    0 -0.00000000000E+00 -0.00000000000E+00 -0.74505805969E-08  0.93827000000E+00  0.93827000000E+00 0. -1.
     999902    2    1    2    0    0  0.14845725266E-01  0.12793088587E-01  0.13038447651E-01  0.10203915253E+01  0.10201199954E+01 0.  0.
     999903    2    3    3    0    0 -0.66400574396E-01  0.10313149435E+00 -0.40184432694E-01  0.13045070493E+00  0.18906516820E-01 0.  0.
         14    1    1    2    0    0 -0.14845725266E-01 -0.12793088587E-01 -0.13038447651E-01  0.23538474705E-01  0.00000000000E+00 0. -1.
     999901    1    3    3    0    0  0.81246299662E-01 -0.90338405763E-01  0.53222880344E-01  0.88994082037E+00  0.88000000000E+00 0.  1.
        -11    1    4    4    0    0 -0.44185419220E-01  0.74308148630E-01 -0.19635999646E-01  0.88655997132E-01  0.51100000000E-03 0. -1.
         11    1    4    4    0    0 -0.22215155175E-01  0.28823345721E-01 -0.20548433047E-01  0.41794707795E-01  0.51100000000E-03 0.  1.
</event>
<event>
 8    1  0.1131376E+005  0.1043930E+01  0.7957747E-01            NaN
         13   -1    0    0    0    0  0.00000000000E+00  0.00000000000E+00  0.74505805969E-08  0.10566000000E+00  0.10566000000E+00 0.  1.
     999900   -1    0    0    0    0 -0.00000000000E+00 -0.00000000000E+00 -0.74505805969E-08  0.93827000000E+00  0.93827000000E+00 0. -1.
     999902    2    1    2    0    0 -0.31066320382E-02  0.23012951818E-01 -0.66637509062E-02  0.10197710950E+01  0.10194848864E+01 0.  0.
     999903    2    3    3    0    0 -0.14133840908E-01 -0.23946132937E-01  0.12422249774E+00  0.12878402156E+00  0.19516980365E-01 0.  0.
         14    1    1    2    0    0  0.31066320382E-02 -0.23012951818E-01  0.66637509062E-02  0.24158904986E-01  0.00000000000E+00 0.  1.
     999901    1    3    3    0    0  0.11027208870E-01  0.46959084755E-01 -0.13088624865E+00  0.89098707345E+00  0.88000000000E+00 0. -1.
        -11    1    4    4    0    0 -0.45625893180E-02 -0.17684919372E-01  0.10358096628E+00  0.10518008980E+00  0.51100000000E-03 0. -1.
         11    1    4    4    0    0 -0.95712515901E-02 -0.62612135651E-02  0.20641531461E-01  0.23603931757E-01  0.51100000000E-03 0.  1.
</event>
<event>
 8    1  0.1131376E+005  0.1043930E+01  0.7957747E-01            NaN
         13   -1    0    0    0    0  0.00000000000E+00  0.00000000000E+00  0.74505805969E-08  0.10566000000E+00  0.10566000000E+00 0. -1.
     999900   -1    0    0    0    0 -0.00000000000E+00 -0.00000000000E+00 -0.74505805969E-08  0.93827000000E+00  0.93827000000E+00 0. -1.
     999902    2    1    2    0    0 -0.93992307348E-02  0.19799454942E-01 -0.72587652581E-02  0.10208420458E+01  0.10205809272E+01 0.  0.
     999903    2    3    3    0    0 -0.84075210247E-01  0.26647398127E-01  0.95687624720E-01  0.13167313306E+00  0.20074053892E-01 0.  0.
         14    1    1    2    0    0  0.93992307348E-02 -0.19799454942E-01  0.72587652581E-02  0.23087954164E-01  0.00000000000E+00 0. -1.
     999901    1    3    3    0    0  0.74675979512E-01 -0.68479431851E-02 -0.10294638998E+00  0.88916891278E+00  0.88000000000E+00 0. -1.
        -11    1    4    4    0    0 -0.45904021889E-01  0.19081292249E-01  0.40389944675E-01  0.64053756262E-01  0.51100000000E-03 0. -1.
         11    1    4    4    0    0 -0.38171188358E-01  0.75661058787E-02  0.55297680045E-01  0.67619376795E-01  0.51100000000E-03 0.  1.
</event>
<event>
 8    1  0.1131376E+005  0.1043930E+01  0.7957747E-01            NaN
         13   -1    0    0    0    0  0.00000000000E+00  0.00000000000E+00  0.74505805969E-08  0.10566000000E+00  0.10566000000E+00 0.  1.
     999900   -1    0    0    0    0 -0.00000000000E+00 -0.00000000000E+00 -0.74505805969E-08  0.93827000000E+00  0.93827000000E+00 0. -1.
     999902    2    1    2    0    0  0.10549254861E-01 -0.19698751134E-01  0.17476248452E-01  0.10155619399E+01  0.10151656549E+01 0.  0.
     999903    2    3    3    0    0  0.74594213363E-01  0.94829045495E-01  0.29951025195E-01  0.12574510876E+00  0.18918877611E-01 0.  0.
         14    1    1    2    0    0 -0.10549254861E-01  0.19698751134E-01 -0.17476248452E-01  0.28368060108E-01  0.00000000000E+00 0. -1.
     999901    1    3    3    0    0 -0.64044958502E-01 -0.11452779663E+00 -0.12474776743E-01  0.88981683113E+00  0.88000000000E+00 0.  1.
        -11    1    4    4    0    0  0.60611401491E-01  0.68827802728E-01  0.29051996403E-01  0.96204407566E-01  0.51100000000E-03 0. -1.
         11    1    4    4    0    0  0.13982811872E-01  0.26001242767E-01  0.89902879206E-03  0.29540701194E-01  0.51100000000E-03 0.  1.
</event>
<event>
 8    1  0.1131376E+005  0.1043930E+01  0.7957747E-01            NaN
         13   -1    0    0    0    0  0.00000000000E+00  0.00000000000E+00  0.74505805969E-08  0.10566000000E+00  0.10566000000E+00 0.  1.
     999900   -1    0    0    0    0 -0.00000000000E+00 -0.00000000000E+00 -0.74505805969E-08  0.93827000000E+00  0.93827000000E+00 0.  1.
     999902    2    1    2    0    0  0.92228974609E-02 -0.21780323740E-01 -0.10344090308E-01  0.10181144128E+01  0.10177870666E+01 0.  0.
     999903    2    3    3    0    0 -0.11726866998E+00  0.12717149731E-01 -0.44734810578E-01  0.12773645148E+00  0.20043225884E-01 0.  0.
         14    1    1    2    0    0 -0.92228974609E-02  0.21780323740E-01  0.10344090308E-01  0.25815587231E-01  0.00000000000E+00 0.  1.
     999901    1    3    3    0    0  0.12649156744E+00 -0.34497473471E-01  0.34390720270E-01  0.89037796129E+00  0.88000000000E+00 0.  1.
        -11    1    4    4    0    0 -0.71100937196E-01  0.12254337681E-01 -0.36416036823E-01  0.80820176448E-01  0.51100000000E-03 0. -1.
         11    1    4    4    0    0 -0.46167732781E-01  0.46281205005E-03 -0.83187737550E-02  0.46916275032E-01  0.51100000000E-03 0.  1.
</event>
<event>
 8    1  0.1131376E+005  0.1043930E+01  0.7957747E-01            NaN
         13   -1    0    0    0    0  0.00000000000E+00  0.00000000000E+00  0.74505805969E-08  0.10566000000E+00  0.10566000000E+00 0. -1.
     999900   -1    0    0    0    0 -0.00000000000E+00 -0.00000000000E+00 -0.74505805969E-08  0.93827000000E+00  0.93827000000E+00 0.  1.
     999902    2    1    2    0    0  0.12369552165E-01  0.54334598332E-02  0.19329749147E-01  0.10203467960E+01  0.10200742212E+01 0.  0.
     999903    2    3    3    0    0 -0.10947552416E+00  0.37638756807E-01  0.56914091000E-01  0.13057379886E+00  0.20217239938E-01 0.  0.
         14    1    1    2    0    0 -0.12369552165E-01 -0.54334598332E-02 -0.19329749147E-01  0.23583203951E-01  0.00000000000E+00 0.  1.
     999901    1    3    3    0    0  0.12184507632E+00 -0.32205296974E-01 -0.37584341852E-01  0.88977299719E+00  0.88000000000E+00 0. -1.
        -11    1    4    4    0    0 -0.66457523896E-01  0.21303087773E-01  0.23265871866E-01  0.73566201110E-01  0.51100000000E-03 0.  1.
         11    1    4    4    0    0 -0.43018000260E-01  0.16335669034E-01  0.33648219134E-01  0.57007597748E-01  0.51100000000E-03 0. -1.
</event>
<event>
 8    1  0.1131376E+005  0.1043930E+01  0.7957747E-01            NaN
         13   -1    0    0    0    0  0.00000000000E+00  0.00000000000E+00  0.74505805969E-08  0.10566000000E+00  0.10566000000E+00 0. -1.
     999900   -1    0    0    0    0 -0.00000000000E+00 -0.00000000000E+00 -0.74505805969E-08  0.93827000000E+00  0.93827000000E+00 0. -1.
     999902    2    1    2    0    0  0.90848726738E-02 -0.20312720763E-01 -0.77295881189E-02  0.10203739377E+01  0.10201019972E+01 0.  0.
     999903    2    3    3    0    0 -0.57707477075E-01  0.11207186697E+00  0.70488373508E-02  0.12784645979E+00  0.20119018248E-01 0.  0.
         14    1    1    2    0    0 -0.90848726738E-02  0.20312720763E-01  0.77295881189E-02  0.23556062252E-01  0.00000000000E+00 0.  1.
     999901    1    3    3    0    0  0.66792349749E-01 -0.13238458774E+00 -0.14778425470E-01  0.89252747796E+00  0.88000000000E+00 0.  1.
        -11    1    4    4    0    0 -0.15164471595E-01  0.34686553474E-01 -0.67738796684E-02  0.38461211076E-01  0.51100000000E-03 0.  1.
         11    1    4    4    0    0 -0.42543005480E-01  0.77385313499E-01  0.13822717019E-01  0.89385248712E-01  0.51100000000E-03 0. -1.
</event>
<event>
 8    1  0.1131376E+005  0.1043930E+01  0.7957747E-01            NaN
         13   -1    0    0    0    0  0.00000000000E+00  0.00000000000E+00  0.74505805969E-08  0.10566000000E+00  0.10566000000E+00 0. -1.
     999900   -1    0    0    0    0 -0.00000000000E+00 -0.00000000000E+00 -0.74505805969E-08  0.93827000000E+00  0.93827000000E+00 0. -1.
     999902    2    1    2    0    0 -0.86490449657E-02 -0.67466267268E-02  0.21735814292E-01  0.10195831609E+01  0.10192924278E+01 0.  0.
     999903    2    3    3    0    0 -0.64215062210E-01  0.62736045532E-01 -0.89387474603E-01  0.12814398219E+00  0.19271064613E-01 0.  0.
         14    1    1    2    0    0  0.86490449657E-02  0.67466267268E-02 -0.21735814292E-01  0.24346839096E-01  0.00000000000E+00 0.  1.
     999901    1    3    3    0    0  0.55566017244E-01 -0.69482672259E-01  0.11112328890E+00  0.89143917872E+00  0.88000000000E+00 0.  1.
        -11    1    4    4    0    0 -0.20001607850E-01  0.32682498127E-01 -0.35571178486E-01  0.52285560724E-01  0.51100000000E-03 0.  1.
         11    1    4    4    0    0 -0.44213454361E-01  0.30053547405E-01 -0.53816296117E-01  0.75858421463E-01  0.51100000000E-03 0. -1.
</event>
<event>
 8    1  0.1131376E+005  0.1043930E+01  0.7957747E-01            NaN
         13   -1    0    0    0    0  0.00000000000E+00  0.00000000000E+00  0.74505805969E-08  0.10566000000E+00  0.10566000000E+00 0. -1.
     999900   -1    0    0    0    0 -0.00000000000E+00 -0.00000000000E+00 -0.74505805969E-08  0.93827000000E+00  0.93827000000E+00 0. -1.
     999902    2    1    2    0    0 -0.20002583814E-01 -0.11020933686E-01 -0.64379044213E-02  0.10202021482E+01  0.10199261798E+01 0.  0.
     999903    2    3    3    0    0  0.89540824953E-01  0.69049555738E-01 -0.57305148930E-01  0.12835097324E+00  0.20116951985E-01 0.  0.
         14    1    1    2    0    0  0.20002583814E-01  0.11020933686E-01  0.64379044213E-02  0.23727851817E-01  0.00000000000E+00 0. -1.
     999901    1    3    3    0    0 -0.10954340877E+00 -0.80070489424E-01  0.50867244508E-01  0.89185117494E+00  0.88000000000E+00 0.  1.
        -11    1    4    4    0    0  0.83772284833E-01  0.67964020465E-01 -0.49817731020E-01  0.11882327730E+00  0.51100000000E-03 0.  1.
         11    1    4    4    0    0  0.57685401197E-02  0.10855352730E-02 -0.74874179091E-02  0.95276959380E-02  0.51100000000E-03 0. -1.
</event>
<event>
 8    1  0.1131376E+005  0.1043930E+01  0.7957747E-01            NaN
         13   -1    0    0    0    0  0.00000000000E+00  0.00000000000E+00  0.74505805969E-08  0.10566000000E+00  0.10566000000E+00 0.  1.
     999900   -1    0    0    0    0 -0.00000000000E+00 -0.00000000000E+00 -0.74505805969E-08  0.93827000000E+00  0.93827000000E+00 0.  1.
     999902    2    1    2    0    0  0.78363434630E-02  0.20203699513E-01  0.91540103729E-02  0.10204056794E+01  0.10201344798E+01 0.  0.
     999903    2    3    3    0    0 -0.55110897632E-01  0.11743369626E+00  0.15523877967E-01  0.13279281187E+00  0.23770907472E-01 0.  0.
         14    1    1    2    0    0 -0.78363434630E-02 -0.20203699513E-01 -0.91540103729E-02  0.23524320581E-01  0.00000000000E+00 0. -1.
     999901    1    3    3    0    0  0.62947241095E-01 -0.97229996745E-01 -0.63698675943E-02  0.88761286755E+00  0.88000000000E+00 0. -1.
        -11    1    4    4    0    0 -0.19570577443E-01  0.30651709921E-01  0.14086419257E-01  0.39002860805E-01  0.51100000000E-03 0. -1.
         11    1    4    4    0    0 -0.35540320189E-01  0.86781986337E-01  0.14374587100E-02  0.93789951063E-01  0.51100000000E-03 0.  1.
</event>
<event>
 8    1  0.1131376E+005  0.1043930E+01  0.7957747E-01            NaN
         13   -1    0    0    0    0  0.00000000000E+00  0.00000000000E+00  0.74505805969E-08  0.10566000000E+00  0.10566000000E+00 0. -1.
     999900   -1    0    0    0    0 -0.00000000000E+00 -0.00000000000E+00 -0.74505805969E-08  0.93827000000E+00  0.93827000000E+00 0.  1.
     999902    2    1    2    0    0  0.11696578916E-01 -0.12593747680E-01 -0.15830186020E-01  0.10205632024E+01  0.10202956645E+01 0.  0.
     999903    2    3    3    0    0  0.78067597969E-01  0.10157578606E+00 -0.16599857882E-01  0.13070906439E+00  0.19927721021E-01 0.  0.
         14    1    1    2    0    0 -0.11696578916E-01  0.12593747680E-01  0.15830186020E-01  0.23366797564E-01  0.00000000000E+00 0. -1.
     999901    1    3    3    0    0 -0.66371019053E-01 -0.11416953374E+00  0.76967186200E-03  0.88985413805E+00  0.88000000000E+00 0.  1.
        -11    1    4    4    0    0  0.63584658202E-01  0.69464874206E-01 -0.84702941703E-02  0.94553606549E-01  0.51100000000E-03 0. -1.
         11    1    4    4    0    0  0.14482939767E-01  0.32110911855E-01 -0.81295637116E-02  0.36155457839E-01  0.51100000000E-03 0.  1.
</event>
<event>
 8    1  0.1131376E+005  0.1043930E+01  0.7957747E-01            NaN
         13   -1    0    0    0    0  0.00000000000E+00  0.00000000000E+00  0.74505805969E-08  0.10566000000E+00  0.10566000000E+00 0. -1.
     999900   -1    0    0    0    0 -0.00000000000E+00 -0.00000000000E+00 -0.74505805969E-08  0.93827000000E+00  0.93827000000E+00 0.  1.
     999902    2    1    2    0    0 -0.25494315833E-01 -0.41671156336E-02  0.42332417434E-02  0.10177528090E+01  0.10174161071E+01 0.  0.
     999903    2    3    3    0    0  0.12130815581E+00  0.47350533802E-02 -0.23269587223E-01  0.12512375958E+00  0.19400827940E-01 0.  0.
         14    1    1    2    0    0  0.25494315833E-01  0.41671156336E-02 -0.42332417434E-02  0.26177190990E-01  0.00000000000E+00 0. -1.
     999901    1    3    3    0    0 -0.14680247164E+00 -0.89021690138E-02  0.27502828966E-01  0.89262904943E+00  0.88000000000E+00 0. -1.
        -11    1    4    4    0    0  0.47530779646E-01  0.51619347258E-02 -0.18233530583E-01  0.51171704510E-01  0.51100000000E-03 0.  1.
         11    1    4    4    0    0  0.73777376161E-01 -0.42688134558E-03 -0.50360566392E-02  0.73952055066E-01  0.51100000000E-03 0. -1.
</event>
<event>
 8    1  0.2330676E+005  0.1043930E+01  0.7957747E-01            NaN
         13   -1    0    0    0    0  0.00000000000E+00  0.00000000000E+00  0.74505805969E-08  0.10566000000E+00  0.10566000000E+00 0. -1.
     999900   -1    0    0    0    0 -0.00000000000E+00 -0.00000000000E+00 -0.74505805969E-08  0.93827000000E+00  0.93827000000E+00 0. -1.
     999902    2    1    2    0    0 -0.21087379635E-01 -0.14812277489E-01  0.38975036432E-02  0.10178671590E+01  0.10175334303E+01 0.  0.
     999903    2    3    3    0    0  0.39956126150E-01 -0.16030795298E-01 -0.11825931638E+00  0.12733356447E+00  0.19367300140E-01 0.  0.
         14    1    1    2    0    0  0.21087379635E-01  0.14812277489E-01 -0.38975036432E-02  0.26062840960E-01  0.00000000000E+00 0.  1.
     999901    1    3    3    0    0 -0.61043505785E-01  0.12185178089E-02  0.12215682002E+00  0.89053359457E+00  0.88000000000E+00 0.  1.
        -11    1    4    4    0    0  0.28167026747E-01 -0.14964109805E-01 -0.60743552687E-01  0.68610103425E-01  0.51100000000E-03 0. -1.
         11    1    4    4    0    0  0.11789099404E-01 -0.10666854932E-02 -0.57515763692E-01  0.58723461042E-01  0.51100000000E-03 0.  1.
</event>
<event>
 8    1  0.1131376E+005  0.1043930E+01  0.7957747E-01            NaN
         13   -1    0    0    0    0  0.00000000000E+00  0.00000000000E+00  0.74505805969E-08  0.10566000000E+00  0.10566000000E+00 0.  1.
     999900   -1    0    0    0    0 -0.00000000000E+00 -0.00000000000E+00 -0.74505805969E-08  0.93827000000E+00  0.93827000000E+00 0.  1.
     999902    2    1    2    0    0  0.10850092136E-01  0.12548981758E-02  0.20459510809E-01  0.10207375260E+01  0.10204740105E+01 0.  0.
     999903    2    3    3    0    0 -0.10559766977E+00 -0.67864723637E-01 -0.21772101228E-01  0.12937838824E+00  0.22544497720E-01 0.  0.
         14    1    1    2    0    0 -0.10850092136E-01 -0.12548981758E-02 -0.20459510809E-01  0.23192474023E-01  0.00000000000E+00 0. -1.
     999901    1    3    3    0    0  0.11644776190E+00  0.69119621813E-01  0.42231612037E-01  0.89135913774E+00  0.88000000000E+00 0. -1.
        -11    1    4    4    0    0 -0.77826756517E-01 -0.49101115601E-01 -0.56844375979E-02  0.92198142796E-01  0.51100000000E-03 0.  1.
         11    1    4    4    0    0 -0.27770913249E-01 -0.18763608036E-01 -0.16087663631E-01  0.37180245444E-01  0.51100000000E-03 0. -1.
</event>
<event>
 8    1  0.1131376E+005  0.1043930E+01  0.7957747E-01            NaN
         13   -1    0    0    0    0  0.00000000000E+00  0.00000000000E+00  0.74505805969E-08  0.10566000000E+00  0.10566000000E+00 0.  1.
     999900   -1    0    0    0    0 -0.00000000000E+00 -0.00000000000E+00 -0.74505805969E-08  0.93827000000E+00  0.93827000000E+00 0. -1.
     999902    2    1    2    0    0  0.81900828542E-02  0.14411879740E-01 -0.17440549574E-01  0.10198685681E+01  0.10195846918E+01 0.  0.
     999903    2    3    3    0    0  0.30423433411E-01 -0.65447813472E-01  0.10344839814E+00  0.12774412043E+00  0.20198703886E-01 0.  0.
         14    1    1    2    0    0 -0.81900828542E-02 -0.14411879740E-01  0.17440549574E-01  0.24061431883E-01  0.00000000000E+00 0.  1.
     999901    1    3    3    0    0 -0.22233350557E-01  0.79859693212E-01 -0.12088894771E+00  0.89212444768E+00  0.88000000000E+00 0. -1.
        -11    1    4    4    0    0  0.18727011085E-02 -0.23740049603E-01  0.40836334149E-01  0.47275408748E-01  0.51100000000E-03 0. -1.
         11    1    4    4    0    0  0.28550732303E-01 -0.41707763869E-01  0.62612063991E-01  0.80468711685E-01  0.51100000000E-03 0.  1.
</event>
<event>
 8    1  0.1131376E+005  0.1043930E+01  0.7957747E-01            NaN
         13   -1    0    0    0    0  0.00000000000E+00  0.00000000000E+00  0.74505805969E-08  0.10566000000E+00  0.10566000000E+00 0.  1.
     999900   -1    0    0    0    0 -0.00000000000E+00 -0.00000000000E+00 -0.74505805969E-08  0.93827000000E+00  0.93827000000E+00 0. -1.
     999902    2    1    2    0    0  0.58262775007E-02  0.19223532167E-02  0.22780923469E-01  0.10203373862E+01  0.10200645912E+01 0.  0.
     999903    2    3    3    0    0  0.18846157352E-01 -0.12320470400E+00 -0.30041087170E-01  0.12982266846E+00  0.20417678410E-01 0.  0.
         14    1    1    2    0    0 -0.58262775007E-02 -0.19223532167E-02 -0.22780923469E-01  0.23592613792E-01  0.00000000000E+00 0. -1.
     999901    1    3    3    0    0 -0.13019879851E-01  0.12512705722E+00  0.52822010639E-01  0.89051471775E+00  0.88000000000E+00 0.  1.
        -11    1    4    4    0    0  0.17768351948E-01 -0.50115005852E-01 -0.13939608945E-01  0.54970919231E-01  0.51100000000E-03 0.  1.
         11    1    4    4    0    0  0.10778054036E-02 -0.73089698153E-01 -0.16101478225E-01  0.74851749228E-01  0.51100000000E-03 0. -1.
</event>
<event>
 8    1  0.1131376E+005  0.1043930E+01  0.7957747E-01            NaN
         13   -1    0    0    0    0  0.00000000000E+00  0.00000000000E+00  0.74505805969E-08  0.10566000000E+00  0.10566000000E+00 0.  1.
     999900   -1    0    0    0    0 -0.00000000000E+00 -0.00000000000E+00 -0.74505805969E-08  0.93827000000E+00  0.93827000000E+00 0. -1.
     999902    2    1    2    0    0 -0.11405519456E-01  0.49108740011E-02  0.20275650682E-01  0.10201538656E+01  0.10198767597E+01 0.  0.
     999903    2    3    3    0    0  0.11777505513E+00  0.40532613953E-01  0.31096243706E-01  0.12994399457E+00  0.20114893676E-01 0.  0.
         14    1    1    2    0    0  0.11405519456E-01 -0.49108740011E-02 -0.20275650682E-01  0.23776134423E-01  0.00000000000E+00 0. -1.
     999901    1    3    3    0    0 -0.12918057458E+00 -0.35621739952E-01 -0.10820593024E-01  0.89020987101E+00  0.88000000000E+00 0. -1.
        -11    1    4    4    0    0  0.13607728441E-02 -0.95392887312E-03  0.25781531981E-02  0.31096105771E-02  0.51100000000E-03 0. -1.
         11    1    4    4    0    0  0.11641428228E+00  0.41486542826E-01  0.28518090508E-01  0.12683438399E+00  0.51100000000E-03 0.  1.
</event>
<event>
 8    1  0.1131376E+005  0.1043930E+01  0.7957747E-01            NaN
         13   -1    0    0    0    0  0.00000000000E+00  0.00000000000E+00  0.74505805969E-08  0.10566000000E+00  0.10566000000E+00 0.  1.
     999900   -1    0    0    0    0 -0.00000000000E+00 -0.00000000000E+00 -0.74505805969E-08  0.93827000000E+00  0.93827000000E+00 0.  1.
     999902    2    1    2    0    0 -0.80207861503E-02  0.22077511520E-01 -0.32971051030E-02  0.10202103789E+01  0.10199346041E+01 0.  0.
     999903    2    3    3    0    0  0.11575934384E+00  0.56582944651E-01 -0.11712111690E-01  0.13083815204E+00  0.19483150591E-01 0.  0.
         14    1    1    2    0    0  0.80207861503E-02 -0.22077511520E-01  0.32971051030E-02  0.23719621149E-01  0.00000000000E+00 0. -1.
     999901    1    3    3    0    0 -0.12378012999E+00 -0.34505433131E-01  0.84150065873E-02  0.88937222682E+00  0.88000000000E+00 0.  1.
        -11    1    4    4    0    0  0.61578002998E-01  0.19271697636E-01 -0.58388604889E-02  0.64788904882E-01  0.51100000000E-03 0. -1.
         11    1    4    4    0    0  0.54181340839E-01  0.37311247014E-01 -0.58732512014E-02  0.66049247153E-01  0.51100000000E-03 0.  1.
</event>
<event>
 8    1  0.1131376E+005  0.1043930E+01  0.7957747E-01            NaN
         13   -1    0    0    0    0  0.00000000000E+00  0.00000000000E+00  0.74505805969E-08  0.10566000000E+00  0.10566000000E+00 0.  1.
     999900   -1    0    0    0    0 -0.00000000000E+00 -0.00000000000E+00 -0.74505805969E-08  0.93827000000E+00  0.93827000000E+00 0. -1.
     999902    2    1    2    0    0  0.99478973723E-02 -0.12909646569E-01  0.17154192125E-01  0.10202680909E+01  0.10199936722E+01 0.  0.
     999903    2    3    3    0    0  0.80226335640E-01 -0.72807495229E-01 -0.70410789354E-01  0.13111431499E+00  0.22273034068E-01 0.  0.
         14    1    1    2    0    0 -0.99478973723E-02  0.12909646569E-01 -0.17154192125E-01  0.23661909140E-01  0.00000000000E+00 0. -1.
     999901    1    3    3    0    0 -0.70278438268E-01  0.59897848660E-01  0.87564981479E-01  0.88915377587E+00  0.88000000000E+00 0.  1.
        -11    1    4    4    0    0  0.31332764106E-01 -0.38114035710E-01 -0.21862898349E-01  0.53969151094E-01  0.51100000000E-03 0. -1.
         11    1    4    4    0    0  0.48893571535E-01 -0.34693459519E-01 -0.48547891005E-01  0.77145163898E-01  0.51100000000E-03 0.  1.
</event>
<event>
 8    1  0.1131376E+005  0.1043930E+01  0.7957747E-01            NaN
         13   -1    0    0    0    0  0.00000000000E+00  0.00000000000E+00  0.74505805969E-08  0.10566000000E+00  0.10566000000E+00 0.  1.
     999900   -1    0    0    0    0 -0.00000000000E+00 -0.00000000000E+00 -0.74505805969E-08  0.93827000000E+00  0.93827000000E+00 0. -1.
     999902    2    1    2    0    0  0.24716883143E-01  0.51353466386E-03  0.29525630040E-02  0.10190320953E+01  0.10187278859E+01 0.  0.
     999903    2    3    3    0    0  0.22093165835E-01  0.54382389944E-02 -0.12616898428E+00  0.12959209700E+00  0.18916040575E-01 0.  0.
         14    1    1    2    0    0 -0.24716883143E-01 -0.51353466386E-03 -0.29525630040E-02  0.24897904700E-01  0.00000000000E+00 0.  1.
     999901    1    3    3    0    0  0.26237173074E-02 -0.49247043305E-02  0.12912154728E+00  0.88943999830E+00  0.88000000000E+00 0.  1.
        -11    1    4    4    0    0  0.57506778767E-02  0.78197696878E-02 -0.79348726947E-01  0.79941858142E-01  0.51100000000E-03 0. -1.
         11    1    4    4    0    0  0.16342487959E-01 -0.23815306934E-02 -0.46820257330E-01  0.49650238857E-01  0.51100000000E-03 0.  1.
</event>
<event>
 8    1  0.1131376E+005  0.1043930E+01  0.7957747E-01            NaN
         13   -1    0    0    0    0  0.00000000000E+00  0.00000000000E+00  0.74505805969E-08  0.10566000000E+00  0.10566000000E+00 0.  1.
     999900   -1    0    0    0    0 -0.00000000000E+00 -0.00000000000E+00 -0.74505805969E-08  0.93827000000E+00  0.93827000000E+00 0. -1.
     999902    2    1    2    0    0  0.11945669217E-02 -0.14751257589E-02 -0.23480351707E-01  0.10203730498E+01  0.10201010886E+01 0.  0.
     999903    2    3    3    0    0 -0.10413851160E+00  0.74687998998E-01  0.11173555001E-01  0.13015017195E+00  0.19776049530E-01 0.  0.
         14    1    1    2    0    0 -0.11945669217E-02  0.14751257589E-02  0.23480351707E-01  0.23556950193E-01  0.00000000000E+00 0.  1.
     999901    1    3    3    0    0  0.10533307852E+00 -0.76163124757E-01 -0.34653906708E-01  0.89022287785E+00  0.88000000000E+00 0. -1.
        -11    1    4    4    0    0 -0.45833740254E-01  0.44022138332E-01  0.94231393975E-02  0.64247467546E-01  0.51100000000E-03 0. -1.
         11    1    4    4    0    0 -0.58304771348E-01  0.30665860665E-01  0.17504156033E-02  0.65902704406E-01  0.51100000000E-03 0.  1.
</event>
<event>
 8    1  0.1131376E+005  0.1043930E+01  0.7957747E-01            NaN
         13   -1    0    0    0    0  0.00000000000E+00  0.00000000000E+00  0.74505805969E-08  0.10566000000E+00  0.10566000000E+00 0.  1.
     999900   -1    0    0    0    0 -0.00000000000E+00 -0.00000000000E+00 -0.74505805969E-08  0.93827000000E+00  0.93827000000E+00 0.  1.
     999902    2    1    2    0    0  0.53505944808E-02 -0.14522164048E-01 -0.17392492236E-01  0.10206486578E+01  0.10203830956E+01 0.  0.
     999903    2    3    3    0    0 -0.92468464670E-02 -0.69518466098E-01  0.10813581567E+00  0.12992140737E+00  0.16367533809E-01 0.  0.
         14    1    1    2    0    0 -0.53505944808E-02  0.14522164048E-01  0.17392492236E-01  0.23281342232E-01  0.00000000000E+00 0.  1.
     999901    1    3    3    0    0  0.14597440948E-01  0.54996302049E-01 -0.12552830791E+00  0.89072725040E+00  0.88000000000E+00 0.  1.
        -11    1    4    4    0    0  0.86883083848E-03 -0.45157572640E-01  0.75188639256E-01  0.87712905709E-01  0.51100000000E-03 0. -1.
         11    1    4    4    0    0 -0.10115677305E-01 -0.24360893458E-01  0.32947176416E-01  0.42208501658E-01  0.51100000000E-03 0.  1.
</event>
<event>
 8    1  0.1131376E+005  0.1043930E+01  0.7957747E-01            NaN
         13   -1    0    0    0    0  0.00000000000E+00  0.00000000000E+00  0.74505805969E-08  0.10566000000E+00  0.10566000000E+00 0.  1.
     999900   -1    0    0    0    0 -0.00000000000E+00 -0.00000000000E+00 -0.74505805969E-08  0.93827000000E+00  0.93827000000E+00 0. -1.
     999902    2    1    2    0    0 -0.16684627814E-01 -0.45081457347E-02  0.17113560740E-01  0.10196077027E+01  0.10193175625E+01 0.  0.
     999903    2    3    3    0    0 -0.27519206763E-01 -0.39520343962E-01 -0.11759421254E+00  0.12860297418E+00  0.19777811203E-01 0.  0.
         14    1    1    2    0    0  0.16684627814E-01  0.45081457347E-02 -0.17113560740E-01  0.24322297270E-01  0.00000000000E+00 0. -1.
     999901    1    3    3    0    0  0.10834578949E-01  0.35012198227E-01  0.13470777328E+00  0.89100472856E+00  0.88000000000E+00 0.  1.
        -11    1    4    4    0    0 -0.16610327983E-01 -0.10057840473E-01 -0.32127589973E-01  0.37543392350E-01  0.51100000000E-03 0.  1.
         11    1    4    4    0    0 -0.10908878780E-01 -0.29462503489E-01 -0.85466622567E-01  0.91059581825E-01  0.51100000000E-03 0. -1.
</event>
<event>
 8    1  0.1131376E+005  0.1043930E+01  0.7957747E-01            NaN
         13   -1    0    0    0    0  0.00000000000E+00  0.00000000000E+00  0.74505805969E-08  0.10566000000E+00  0.10566000000E+00 0.  1.
     999900   -1    0    0    0    0 -0.00000000000E+00 -0.00000000000E+00 -0.74505805969E-08  0.93827000000E+00  0.93827000000E+00 0. -1.
     999902    2    1    2    0    0 -0.57687454415E-02 -0.12654151382E-01  0.19127186200E-01  0.10202814224E+01  0.10200073165E+01 0.  0.
     999903    2    3    3    0    0 -0.15478204619E-02 -0.25383865289E-01  0.12940943446E+00  0.13329662201E+00  0.19350745361E-01 0.  0.
         14    1    1    2    0    0  0.57687454415E-02  0.12654151382E-01 -0.19127186200E-01  0.23648577613E-01  0.00000000000E+00 0. -1.
     999901    1    3    3    0    0 -0.42209249796E-02  0.12729713907E-01 -0.11028224826E+00  0.88698480038E+00  0.88000000000E+00 0. -1.
        -11    1    4    4    0    0 -0.41432326940E-02 -0.26508511982E-01  0.93568250084E-01  0.97340362283E-01  0.51100000000E-03 0. -1.
         11    1    4    4    0    0  0.25954122321E-02  0.11246466935E-02  0.35841184377E-01  0.35956259724E-01  0.51100000000E-03 0.  1.
</event>
<event>
 8    1  0.1131376E+005  0.1043930E+01  0.7957747E-01            NaN
         13   -1    0    0    0    0  0.00000000000E+00  0.00000000000E+00  0.74505805969E-08  0.10566000000E+00  0.10566000000E+00 0. -1.
     999900   -1    0    0    0    0 -0.00000000000E+00 -0.00000000000E+00 -0.74505805969E-08  0.93827000000E+00  0.93827000000E+00 0. -1.
     999902    2    1    2    0    0  0.21191594906E-01 -0.10765757570E-02  0.12439271206E-01  0.10193336958E+01  0.10190369009E+01 0.  0.
     999903    2    3    3    0    0  0.84870923892E-01 -0.64769846335E-02  0.10138951820E+00  0.13254377270E+00  0.65568458683E-02 0.  0.
         14    1    1    2    0    0 -0.21191594906E-01  0.10765757570E-02 -0.12439271206E-01  0.24596304157E-01  0.00000000000E+00 0.  1.
     999901    1    3    3    0    0 -0.63679328986E-01  0.54004088765E-02 -0.88950246992E-01  0.88678992315E+00  0.88000000000E+00 0. -1.
        -11    1    4    4    0    0  0.73264546270E-01 -0.66965448184E-02  0.84459749038E-01  0.11201003429E+00  0.51100000000E-03 0.  1.
         11    1    4    4    0    0  0.11606377622E-01  0.21956018490E-03  0.16929769160E-01  0.20533738408E-01  0.51100000000E-03 0. -1.
</event>
<event>
 8    1  0.1131376E+005  0.1043930E+01  0.7957747E-01            NaN
         13   -1    0    0    0    0  0.00000000000E+00  0.00000000000E+00  0.74505805969E-08  0.10566000000E+00  0.10566000000E+00 0. -1.
     999900   -1    0    0    0    0 -0.00000000000E+00 -0.00000000000E+00 -0.74505805969E-08  0.93827000000E+00  0.93827000000E+00 0.  1.
     999902    2    1    2    0    0  0.23720739896E-01  0.16285824980E-02  0.36400467813E-02  0.10198763990E+01  0.10195927096E+01 0.  0.
     999903    2    3    3    0    0 -0.11278831595E+00  0.42523710149E-01 -0.35696558229E-01  0.12754546131E+00  0.21543683340E-01 0.  0.
         14    1    1    2    0    0 -0.23720739896E-01 -0.16285824980E-02 -0.36400467813E-02  0.24053601035E-01  0.00000000000E+00 0.  1.
     999901    1    3    3    0    0  0.13650905585E+00 -0.40895127651E-01  0.39336605010E-01  0.89233093765E+00  0.88000000000E+00 0. -1.
        -11    1    4    4    0    0 -0.90593780414E-01  0.35039668386E-01 -0.37327893058E-01  0.10406077134E+00  0.51100000000E-03 0.  1.
         11    1    4    4    0    0 -0.22194535540E-01  0.74840417627E-02  0.16313348294E-02  0.23484689976E-01  0.51100000000E-03 0. -1.
</event>
<event>
 8    1  0.1131376E+005  0.1043930E+01  0.7957747E-01            NaN
         13   -1    0    0    0    0  0.00000000000E+00  0.00000000000E+00  0.74505805969E-08  0.10566000000E+00  0.10566000000E+00 0. -1.
     999900   -1    0    0    0    0 -0.00000000000E+00 -0.00000000000E+00 -0.74505805969E-08  0.93827000000E+00  0.93827000000E+00 0.  1.
     999902    2    1    2    0    0  0.72320783346E-02  0.12754902663E-01 -0.18954745360E-01  0.10199660089E+01  0.10196844543E+01 0.  0.
     999903    2    3    3    0    0  0.51342004319E-01 -0.11453219731E+00  0.22036591687E-01  0.12877131572E+00  0.18515257299E-01 0.  0.
         14    1    1    2    0    0 -0.72320783346E-02 -0.12754902663E-01  0.18954745360E-01  0.23963991125E-01  0.00000000000E+00 0. -1.
     999901    1    3    3    0    0 -0.44109925984E-01  0.12728709997E+00 -0.40991337047E-01  0.89119469315E+00  0.88000000000E+00 0.  1.
        -11    1    4    4    0    0  0.49895528935E-01 -0.10083692725E+00  0.15679149032E-01  0.11359465894E+00  0.51100000000E-03 0.  1.
         11    1    4    4    0    0  0.14464753837E-02 -0.13695270060E-01  0.63574426544E-02  0.15176656784E-01  0.51100000000E-03 0. -1.
</event>
<event>
 8    1  0.1131376E+005  0.1043930E+01  0.7957747E-01            NaN
         13   -1    0    0    0    0  0.00000000000E+00  0.00000000000E+00  0.74505805969E-08  0.10566000000E+00  0.10566000000E+00 0.  1.
     999900   -1    0    0    0    0 -0.00000000000E+00 -0.00000000000E+00 -0.74505805969E-08  0.93827000000E+00  0.93827000000E+00 0. -1.
     999902    2    1    2    0    0 -0.15893519639E-01  0.71733108242E-02  0.10671766630E-01  0.10234862489E+01  0.10232820505E+01 0.  0.
     999903    2    3    3    0    0 -0.90135883017E-01 -0.94058133740E-01  0.26764078237E-01  0.13443130328E+00  0.19597180640E-01 0.  0.
         14    1    1    2    0    0  0.15893519639E-01 -0.71733108242E-02 -0.10671766630E-01  0.20443751067E-01  0.00000000000E+00 0. -1.
     999901    1    3    3    0    0  0.74242363378E-01  0.10123144456E+00 -0.16092311608E-01  0.88905494565E+00  0.88000000000E+00 0. -1.
        -11    1    4    4    0    0 -0.23936300817E-01 -0.32678224227E-01  0.89554717113E-03  0.40520068623E-01  0.51100000000E-03 0. -1.
         11    1    4    4    0    0 -0.66199582200E-01 -0.61379909513E-01  0.25868531066E-01  0.93911234662E-01  0.51100000000E-03 0.  1.
</event>
<event>
 8    1  0.1131376E+005  0.1043930E+01  0.7957747E-01            NaN
         13   -1    0    0    0    0  0.00000000000E+00  0.00000000000E+00  0.74505805969E-08  0.10566000000E+00  0.10566000000E+00 0. -1.
     999900   -1    0    0    0    0 -0.00000000000E+00 -0.00000000000E+00 -0.74505805969E-08  0.93827000000E+00  0.93827000000E+00 0.  1.
     999902    2    1    2    0    0  0.77853894382E-02 -0.18010406161E-01  0.13543957784E-01  0.10200883178E+01  0.10198096637E+01 0.  0.
     999903    2    3    3    0    0  0.24166328433E-01  0.74745881781E-01 -0.98990198569E-01  0.12793586418E+00  0.19939098710E-01 0.  0.
         14    1    1    2    0    0 -0.77853894382E-02  0.18010406161E-01 -0.13543957784E-01  0.23841682223E-01  0.00000000000E+00 0. -1.
     999901    1    3    3    0    0 -0.16380938995E-01 -0.92756287942E-01  0.11253415635E+00  0.89215245360E+00  0.88000000000E+00 0. -1.
        -11    1    4    4    0    0  0.23751442632E-01  0.41733324004E-01 -0.57901450407E-01  0.75223935285E-01  0.51100000000E-03 0. -1.
         11    1    4    4    0    0  0.41488580057E-03  0.33012557776E-01 -0.41088748161E-01  0.52711928893E-01  0.51100000000E-03 0.  1.
</event>
<event>
 8    1  0.1131376E+005  0.1043930E+01  0.7957747E-01            NaN
         13   -1    0    0    0    0  0.00000000000E+00  0.00000000000E+00  0.74505805969E-08  0.10566000000E+00  0.10566000000E+00 0.  1.
     999900   -1    0    0    0    0 -0.00000000000E+00 -0.00000000000E+00 -0.74505805969E-08  0.93827000000E+00  0.93827000000E+00 0. -1.
     999902    2    1    2    0    0 -0.16293693309E-03  0.74275448934E-02  0.22787993306E-01  0.10199615288E+01  0.10196798677E+01 0.  0.
     999903    2    3    3    0    0  0.12485941761E+00  0.26392804332E-01  0.21254820631E-01  0.13092124806E+00  0.20053715536E-01 0.  0.
         14    1    1    2    0    0  0.16293693309E-03 -0.74275448934E-02 -0.22787993306E-01  0.23968471176E-01  0.00000000000E+00 0. -1.
     999901    1    3    3    0    0 -0.12502235455E+00 -0.18965259439E-01  0.15331726749E-02  0.88904028076E+00  0.88000000000E+00 0.  1.
        -11    1    4    4    0    0  0.94095273199E-01  0.10973814704E-01  0.14254190581E-01  0.95800773054E-01  0.51100000000E-03 0.  1.
         11    1    4    4    0    0  0.30764144413E-01  0.15418989629E-01  0.70006300499E-02  0.35120475007E-01  0.51100000000E-03 0. -1.
</event>
<event>
 8    1  0.1131376E+005  0.1043930E+01  0.7957747E-01            NaN
         13   -1    0    0    0    0  0.00000000000E+00  0.00000000000E+00  0.74505805969E-08  0.10566000000E+00  0.10566000000E+00 0.  1.
     999900   -1    0    0    0    0 -0.00000000000E+00 -0.00000000000E+00 -0.74505805969E-08  0.93827000000E+00  0.93827000000E+00 0. -1.
     999902    2    1    2    0    0 -0.86141660849E-03  0.22769800172E-01 -0.68826129448E-02  0.10201271388E+01  0.10198494022E+01 0.  0.
     999903    2    3    3    0    0 -0.73806859358E-01 -0.40489676163E-01  0.95536742617E-01  0.12894111821E+00  0.20289810553E-01 0.  0.
         14    1    1    2    0    0  0.86141660849E-03 -0.22769800172E-01  0.68826129448E-02  0.23802861160E-01  0.00000000000E+00 0.  1.
     999901    1    3    3    0    0  0.72945442750E-01  0.63259476336E-01 -0.10241935556E+00  0.89118602063E+00  0.88000000000E+00 0. -1.
        -11    1    4    4    0    0 -0.38861835746E-01 -0.32636628882E-01  0.54537518006E-01  0.74498280608E-01  0.51100000000E-03 0. -1.
         11    1    4    4    0    0 -0.34945023612E-01 -0.78530472813E-02  0.40999224612E-01  0.54442837606E-01  0.51100000000E-03 0.  1.
</event>
<event>
 8    1  0.1131376E+005  0.1043930E+01  0.7957747E-01            NaN
         13   -1    0    0    0    0  0.00000000000E+00  0.00000000000E+00  0.74505805969E-08  0.10566000000E+00  0.10566000000E+00 0. -1.
     999900   -1    0    0    0    0 -0.00000000000E+00 -0.00000000000E+00 -0.74505805969E-08  0.93827000000E+00  0.93827000000E+00 0. -1.
     999902    2    1    2    0    0 -0.75797798939E-02  0.22883172141E-02  0.21892280042E-01  0.10206499359E+01  0.10203844032E+01 0.  0.
     999903    2    3    3    0    0 -0.11707816819E+00 -0.81922378628E-02 -0.53314589284E-01  0.13061858125E+00  0.21079803347E-01 0.  0.
         14    1    1    2    0    0  0.75797798939E-02 -0.22883172141E-02 -0.21892280042E-01  0.23280064097E-01  0.00000000000E+00 0.  1.
     999901    1    3    3    0    0  0.10949838830E+00  0.10480555077E-01  0.75206869326E-01  0.89003135465E+00  0.88000000000E+00 0. -1.
        -11    1    4    4    0    0 -0.40907485500E-01 -0.10752699261E-01 -0.12218716594E-01  0.44029547665E-01  0.51100000000E-03 0. -1.
         11    1    4    4    0    0 -0.76170682689E-01  0.25604613980E-02 -0.41095872690E-01  0.86589033584E-01  0.51100000000E-03 0.  1.
</event>
<event>
 8    1  0.1131376E+005  0.1043930E+01  0.7957747E-01            NaN
         13   -1    0    0    0    0  0.00000000000E+00  0.00000000000E+00  0.74505805969E-08  0.10566000000E+00  0.10566000000E+00 0. -1.
     999900   -1    0    0    0    0 -0.00000000000E+00 -0.00000000000E+00 -0.74505805969E-08  0.93827000000E+00  0.93827000000E+00 0.  1.
     999902    2    1    2    0    0 -0.16438548220E-01  0.88602723220E-02 -0.14948960721E-01  0.10200092617E+01  0.10197287347E+01 0.  0.
     999903    2    3    3    0    0 -0.80381474500E-01 -0.31529693225E-01  0.95565138691E-01  0.12987814031E+00  0.16743135879E-01 0.  0.
         14    1    1    2    0    0  0.16438548220E-01 -0.88602723220E-02  0.14948960721E-01  0.23920738280E-01  0.00000000000E+00 0. -1.
     999901    1    3    3    0    0  0.63942926280E-01  0.40389965547E-01 -0.11051409941E+00  0.89013112141E+00  0.88000000000E+00 0. -1.
        -11    1    4    4    0    0 -0.43474768650E-01 -0.16934732841E-01  0.39200267968E-01  0.60940649942E-01  0.51100000000E-03 0.  1.
         11    1    4    4    0    0 -0.36906705850E-01 -0.14594960384E-01  0.56364870723E-01  0.68937490366E-01  0.51100000000E-03 0. -1.
</event>
<event>
 8    1  0.1131376E+005  0.1043930E+01  0.7957747E-01            NaN
         13   -1    0    0    0    0  0.00000000000E+00  0.00000000000E+00  0.74505805969E-08  0.10566000000E+00  0.10566000000E+00 0.  1.
     999900   -1    0    0    0    0 -0.00000000000E+00 -0.00000000000E+00 -0.74505805969E-08  0.93827000000E+00  0.93827000000E+00 0. -1.
     999902    2    1    2    0    0  0.40552060272E-02 -0.21803832748E-01 -0.72912055969E-02  0.10205844759E+01  0.10203174304E+01 0.  0.
     999903    2    3    3    0    0 -0.72976346815E-01 -0.99579817643E-01 -0.45382920794E-01  0.13298437292E+00  0.19584347476E-01 0.  0.
         14    1    1    2    0    0 -0.40552060272E-02  0.21803832748E-01  0.72912055969E-02  0.23345524142E-01  0.00000000000E+00 0.  1.
     999901    1    3    3    0    0  0.77031552842E-01  0.77775984896E-01  0.38091715197E-01  0.88760010293E+00  0.88000000000E+00 0. -1.
        -11    1    4    4    0    0 -0.34244785276E-01 -0.30947411175E-01 -0.18234069344E-01  0.49630534784E-01  0.51100000000E-03 0.  1.
         11    1    4    4    0    0 -0.38731561539E-01 -0.68632406468E-01 -0.27148851449E-01  0.83353838141E-01  0.51100000000E-03 0. -1.
</event>
<event>
 8    1  0.1131376E+005  0.1043930E+01  0.7957747E-01            NaN
         13   -1    0    0    0    0  0.00000000000E+00  0.00000000000E+00  0.74505805969E-08  0.10566000000E+00  0.10566000000E+00 0.  1.
     999900   -1    0    0    0    0 -0.00000000000E+00 -0.00000000000E+00 -0.74505805969E-08  0.93827000000E+00  0.93827000000E+00 0.  1.
     999902    2    1    2    0    0  0.73208017631E-02 -0.51053914373E-02  0.17205872148E-01  0.10245469869E+01  0.10243636206E+01 0.  0.
     999903    2    3    3    0    0 -0.11414859880E+00 -0.69718748587E-03  0.68723016475E-01  0.13469966085E+00  0.19767573460E-01 0.  0.
         14    1    1    2    0    0 -0.73208017631E-02  0.51053914373E-02 -0.17205872148E-01  0.19383013093E-01  0.00000000000E+00 0. -1.
     999901    1    3    3    0    0  0.12146940056E+00 -0.44082039514E-02 -0.51517144326E-01  0.88984732606E+00  0.88000000000E+00 0.  1.
        -11    1    4    4    0    0 -0.91448299417E-01 -0.59857215420E-02  0.47742920508E-01  0.10333570491E+00  0.51100000000E-03 0. -1.
         11    1    4    4    0    0 -0.22700299384E-01  0.52885340561E-02  0.20980095967E-01  0.31363955942E-01  0.51100000000E-03 0.  1.
</event>
<event>
 8    1  0.1131376E+005  0.1043930E+01  0.7957747E-01            NaN
         13   -1    0    0    0    0  0.00000000000E+00  0.00000000000E+00  0.74505805969E-08  0.10566000000E+00  0.10566000000E+00 0.  1.
     999900   -1    0    0    0    0 -0.00000000000E+00 -0.00000000000E+00 -0.74505805969E-08  0.93827000000E+00  0.93827000000E+00 0.  1.
     999902    2    1    2    0    0  0.18436328447E-02  0.76054553508E-02 -0.22373599208E-01  0.10202272602E+01  0.10199518825E+01 0.  0.
     999903    2    3    3    0    0 -0.47766850971E-01  0.11899691272E+00 -0.22847186403E-01  0.13181886245E+00  0.20304710840E-01 0.  0.
         14    1    1    2    0    0 -0.18436328447E-02 -0.76054553508E-02  0.22373599208E-01  0.23702739814E-01  0.00000000000E+00 0.  1.
     999901    1    3    3    0    0  0.49610483815E-01 -0.11139145737E+00  0.47358719441E-03  0.88840839773E+00  0.88000000000E+00 0. -1.
        -11    1    4    4    0    0 -0.10528123008E-01  0.50423675069E-01 -0.13303030707E-01  0.53203572517E-01  0.51100000000E-03 0.  1.
         11    1    4    4    0    0 -0.37238727963E-01  0.68573237654E-01 -0.95441556957E-02  0.78615289935E-01  0.51100000000E-03 0. -1.
</event>
<event>
 8    1  0.1131376E+005  0.1043930E+01  0.7957747E-01            NaN
         13   -1    0    0    0    0  0.00000000000E+00  0.00000000000E+00  0.74505805969E-08  0.10566000000E+00  0.10566000000E+00 0. -1.
     999900   -1    0    0    0    0 -0.00000000000E+00 -0.00000000000E+00 -0.74505805969E-08  0.93827000000E+00  0.93827000000E+00 0.  1.
     999902    2    1    2    0    0  0.10640123458E-01  0.20449469206E-01 -0.42539007567E-02  0.10204888249E+01  0.10202195612E+01 0.  0.
     999903    2    3    3    0    0  0.66830652910E-01 -0.53944297778E-01 -0.97054046888E-01  0.13071150710E+00  0.17020183303E-01 0.  0.
         14    1    1    2    0    0 -0.10640123458E-01 -0.20449469206E-01  0.42539007567E-02  0.23441175091E-01  0.00000000000E+00 0. -1.
     999901    1    3    3    0    0 -0.56190529452E-01  0.74393766983E-01  0.92800146131E-01  0.88977731781E+00  0.88000000000E+00 0. -1.
        -11    1    4    4    0    0  0.22152632069E-01 -0.28546632660E-01 -0.41565395134E-01  0.55078058585E-01  0.51100000000E-03 0.  1.
         11    1    4    4    0    0  0.44678020841E-01 -0.25397665117E-01 -0.55488651754E-01  0.75633448515E-01  0.51100000000E-03 0. -1.
</event>
<event>
 8    1  0.1131376E+005  0.1043930E+01  0.7957747E-01            NaN
         13   -1    0    0    0    0  0.00000000000E+00  0.00000000000E+00  0.74505805969E-08  0.10566000000E+00  0.10566000000E+00 0. -1.
     999900   -1    0    0    0    0 -0.00000000000E+00 -0.00000000000E+00 -0.74505805969E-08  0.93827000000E+00  0.93827000000E+00 0. -1.
     999902    2    1    2    0    0  0.95790440166E-02 -0.14029589745E-01 -0.15758120886E-01  0.10207587711E+01  0.10204957438E+01 0.  0.
     999903    2    3    3    0    0 -0.59552681906E-01  0.54854174470E-01  0.97551337735E-01  0.12814283923E+00  0.18676760236E-01 0.  0.
         14    1    1    2    0    0 -0.95790440166E-02  0.14029589745E-01  0.15758120886E-01  0.23171228853E-01  0.00000000000E+00 0. -1.
     999901    1    3    3    0    0  0.69131725923E-01 -0.68883764215E-01 -0.11330945862E+00  0.89261593192E+00  0.88000000000E+00 0. -1.
        -11    1    4    4    0    0 -0.27563559072E-01  0.28093081368E-01  0.61472914789E-01  0.72994187324E-01  0.51100000000E-03 0. -1.
         11    1    4    4    0    0 -0.31989122834E-01  0.26761093101E-01  0.36078422946E-01  0.55148651905E-01  0.51100000000E-03 0.  1.
</event>
<event>
 8    1  0.1131376E+005  0.1043930E+01  0.7957747E-01            NaN
         13   -1    0    0    0    0  0.00000000000E+00  0.00000000000E+00  0.74505805969E-08  0.10566000000E+00  0.10566000000E+00 0.  1.
     999900   -1    0    0    0    0 -0.00000000000E+00 -0.00000000000E+00 -0.74505805969E-08  0.93827000000E+00  0.93827000000E+00 0. -1.
     999902    2    1    2    0    0  0.28164617905E-02  0.45014437899E-02  0.16072178063E-01  0.10270033831E+01  0.10268638851E+01 0.  0.
     999903    2    3    3    0    0 -0.79206961489E-01  0.11003145213E+00 -0.33839017995E-02  0.13669839955E+00  0.17156294544E-01 0.  0.
         14    1    1    2    0    0 -0.28164617905E-02 -0.45014437899E-02 -0.16072178063E-01  0.16926616936E-01  0.00000000000E+00 0. -1.
     999901    1    3    3    0    0  0.82023423280E-01 -0.10553000834E+00  0.19456079862E-01  0.89030498351E+00  0.88000000000E+00 0.  1.
        -11    1    4    4    0    0 -0.27811137157E-01  0.49492941514E-01  0.41604157897E-02  0.56926099377E-01  0.51100000000E-03 0. -1.
         11    1    4    4    0    0 -0.51395824332E-01  0.60538510614E-01 -0.75443175892E-02  0.79772300173E-01  0.51100000000E-03 0.  1.
</event>
<event>
 8    1  0.1131376E+005  0.1043930E+01  0.7957747E-01            NaN
         13   -1    0    0    0    0  0.00000000000E+00  0.00000000000E+00  0.74505805969E-08  0.10566000000E+00  0.10566000000E+00 0. -1.
     999900   -1    0    0    0    0 -0.00000000000E+00 -0.00000000000E+00 -0.74505805969E-08  0.93827000000E+00  0.93827000000E+00 0. -1.
     999902    2    1    2    0    0 -0.11760822351E-01 -0.20678018589E-01 -0.30986940614E-02  0.10199404335E+01  0.10196582705E+01 0.  0.
     999903    2    3    3    0    0  0.79341117076E-01 -0.96859754644E-01  0.33472726547E-01  0.13121061570E+00  0.20468935503E-01 0.  0.
         14    1    1    2    0    0  0.11760822351E-01  0.20678018589E-01  0.30986940614E-02  0.23989566483E-01  0.00000000000E+00 0. -1.
     999901    1    3    3    0    0 -0.91101939427E-01  0.76181736055E-01 -0.36571420609E-01  0.88872981782E+00  0.88000000000E+00 0. -1.
        -11    1    4    4    0    0  0.19684382874E-01 -0.39331137745E-01  0.10973636253E-01  0.45333157171E-01  0.51100000000E-03 0. -1.
         11    1    4    4    0    0  0.59656734202E-01 -0.57528616899E-01  0.22499090295E-01  0.85877458527E-01  0.51100000000E-03 0.  1.
</event>
<event>
 8    1  0.1131376E+005  0.1043930E+01  0.7957747E-01            NaN
         13   -1    0    0    0    0  0.00000000000E+00  0.00000000000E+00  0.74505805969E-08  0.10566000000E+00  0.10566000000E+00 0. -1.
     999900   -1    0    0    0    0 -0.00000000000E+00 -0.00000000000E+00 -0.74505805969E-08  0.93827000000E+00  0.93827000000E+00 0.  1.
     999902    2    1    2    0    0 -0.36002726026E-03 -0.49784065469E-02  0.22659009060E-01  0.10207277406E+01  0.10204640001E+01 0.  0.
     999903    2    3    3    0    0  0.10887949919E+00 -0.38249683971E-01 -0.55868028428E-01  0.12988165529E+00  0.20741844473E-01 0.  0.
         14    1    1    2    0    0  0.36002726026E-03  0.49784065469E-02 -0.22659009060E-01  0.23202259436E-01  0.00000000000E+00 0.  1.
     999901    1    3    3    0    0 -0.10923952645E+00  0.33271277424E-01  0.78527037488E-01  0.89084608528E+00  0.88000000000E+00 0.  1.
        -11    1    4    4    0    0  0.74292797531E-01 -0.16713426946E-01 -0.41148295742E-01  0.86557505560E-01  0.51100000000E-03 0. -1.
         11    1    4    4    0    0  0.34586701655E-01 -0.21536257025E-01 -0.14719732686E-01  0.43324149725E-01  0.51100000000E-03 0.  1.
</event>
<event>
 8    1  0.1131376E+005  0.1043930E+01  0.7957747E-01            NaN
         13   -1    0    0    0    0  0.00000000000E+00  0.00000000000E+00  0.74505805969E-08  0.10566000000E+00  0.10566000000E+00 0.  1.
     999900   -1    0    0    0    0 -0.00000000000E+00 -0.00000000000E+00 -0.74505805969E-08  0.93827000000E+00  0.93827000000E+00 0. -1.
     999902    2    1    2    0    0  0.13223698219E-01  0.15919280767E-03  0.19699725956E-01  0.10202029956E+01  0.10199270471E+01 0.  0.
     999903    2    3    3    0    0 -0.70053709296E-01 -0.44842842712E-01  0.99919288684E-01  0.13149860824E+00  0.19738718008E-01 0.  0.
         14    1    1    2    0    0 -0.13223698219E-01 -0.15919280767E-03 -0.19699725956E-01  0.23727004439E-01  0.00000000000E+00 0. -1.
     999901    1    3    3    0    0  0.83277407515E-01  0.45002035520E-01 -0.80219562728E-01  0.88870438732E+00  0.88000000000E+00 0. -1.
        -11    1    4    4    0    0 -0.37359398961E-01 -0.17667251081E-01  0.62097046695E-01  0.74593302519E-01  0.51100000000E-03 0. -1.
         11    1    4    4    0    0 -0.32694310335E-01 -0.27175591631E-01  0.37822241989E-01  0.56905305718E-01  0.51100000000E-03 0.  1.
</event>
<event>
 8    1  0.1131376E+005  0.1043930E+01  0.7957747E-01            NaN
         13   -1    0    0    0    0  0.00000000000E+00  0.00000000000E+00  0.74505805969E-08  0.10566000000E+00  0.10566000000E+00 0.  1.
     999900   -1    0    0    0    0 -0.00000000000E+00 -0.00000000000E+00 -0.74505805969E-08  0.93827000000E+00  0.93827000000E+00 0. -1.
     999902    2    1    2    0    0  0.15597114372E-01  0.18299968730E-01  0.12184649773E-02  0.10198542136E+01  0.10195699944E+01 0.  0.
     999903    2    3    3    0    0 -0.31757097892E-01 -0.12163100860E+00  0.40241724278E-03  0.12754049875E+00  0.21536047951E-01 0.  0.
         14    1    1    2    0    0 -0.15597114372E-01 -0.18299968730E-01 -0.12184649773E-02  0.24075786366E-01  0.00000000000E+00 0. -1.
     999901    1    3    3    0    0  0.47354212264E-01  0.13993097733E+00  0.81604773453E-03  0.89231371488E+00  0.88000000000E+00 0. -1.
        -11    1    4    4    0    0 -0.31102001725E-01 -0.79164292992E-01  0.96976177894E-03  0.85061867809E-01  0.51100000000E-03 0. -1.
         11    1    4    4    0    0 -0.65509616720E-03 -0.42466715611E-01 -0.56734453616E-03  0.42478630941E-01  0.51100000000E-03 0.  1.
</event>
<event>
 8    1  0.1131376E+005  0.1043930E+01  0.7957747E-01            NaN
         13   -1    0    0    0    0  0.00000000000E+00  0.00000000000E+00  0.74505805969E-08  0.10566000000E+00  0.10566000000E+00 0.  1.
     999900   -1    0    0    0    0 -0.00000000000E+00 -0.00000000000E+00 -0.74505805969E-08  0.93827000000E+00  0.93827000000E+00 0.  1.
     999902    2    1    2    0    0  0.61399070766E-02  0.10188459748E-01 -0.20351782734E-01  0.10203567475E+01  0.10200844053E+01 0.  0.
     999903    2    3    3    0    0  0.12423751479E+00 -0.30196006440E-02  0.34240594513E-01  0.13069286412E+00  0.21543638311E-01 0.  0.
         14    1    1    2    0    0 -0.61399070766E-02 -0.10188459748E-01  0.20351782734E-01  0.23573252457E-01  0.00000000000E+00 0.  1.
     999901    1    3    3    0    0 -0.11809760771E+00  0.13208060392E-01 -0.54592377246E-01  0.88966388342E+00  0.88000000000E+00 0.  1.
        -11    1    4    4    0    0  0.10761445886E+00  0.45260678535E-02  0.31524982900E-01  0.11222942000E+00  0.51100000000E-03 0. -1.
         11    1    4    4    0    0  0.16623055930E-01 -0.75456684975E-02  0.27156116127E-02  0.18463444125E-01  0.51100000000E-03 0.  1.
</event>
<event>
 8    1  0.1131376E+005  0.1043930E+01  0.7957747E-01            NaN
         13   -1    0    0    0    0  0.00000000000E+00  0.00000000000E+00  0.74505805969E-08  0.10566000000E+00  0.10566000000E+00 0. -1.
     999900   -1    0    0    0    0 -0.00000000000E+00 -0.00000000000E+00 -0.74505805969E-08  0.93827000000E+00  0.93827000000E+00 0.  1.
     999902    2    1    2    0    0  0.45897185739E-02 -0.10990179801E-01 -0.21712155151E-01  0.10191657667E+01  0.10188648550E+01 0.  0.
     999903    2    3    3    0    0 -0.30157072861E-01 -0.91788375735E-01 -0.88185289550E-01  0.13228676394E+00  0.19712626824E-01 0.  0.
         14    1    1    2    0    0 -0.45897185739E-02  0.10990179801E-01  0.21712155151E-01  0.24764233280E-01  0.00000000000E+00 0. -1.
     999901    1    3    3    0    0  0.34746791435E-01  0.80798195934E-01  0.66473134399E-01  0.88687900278E+00  0.88000000000E+00 0. -1.
        -11    1    4    4    0    0 -0.97300900428E-02 -0.28316634510E-01 -0.40236393030E-01  0.50157102062E-01  0.51100000000E-03 0.  1.
         11    1    4    4    0    0 -0.20426982818E-01 -0.63471741225E-01 -0.47948896520E-01  0.82129661875E-01  0.51100000000E-03 0. -1.
</event>
<event>
 8    1  0.1131376E+005  0.1043930E+01  0.7957747E-01            NaN
         13   -1    0    0    0    0  0.00000000000E+00  0.00000000000E+00  0.74505805969E-08  0.10566000000E+00  0.10566000000E+00 0. -1.
     999900   -1    0    0    0    0 -0.00000000000E+00 -0.00000000000E+00 -0.74505805969E-08  0.93827000000E+00  0.93827000000E+00 0.  1.
     999902    2    1    2    0    0 -0.21314545865E-01  0.89077708190E-03  0.12044910862E-01  0.10194313628E+01  0.10191369487E+01 0.  0.
     999903    2    3    3    0    0 -0.62107894951E-01 -0.11358477275E+00  0.69527767811E-03  0.13100716058E+00  0.20087346659E-01 0.  0.
         14    1    1    2    0    0  0.21314545865E-01 -0.89077708190E-03 -0.12044910862E-01  0.24498637247E-01  0.00000000000E+00 0. -1.
     999901    1    3    3    0    0  0.40793349086E-01  0.11447554983E+00  0.11349633184E-01  0.88842420218E+00  0.88000000000E+00 0. -1.
        -11    1    4    4    0    0 -0.32263525927E-01 -0.47148063319E-01  0.84794003866E-02  0.57758430830E-01  0.51100000000E-03 0. -1.
         11    1    4    4    0    0 -0.29844369024E-01 -0.66436709430E-01 -0.77841227085E-02  0.73248729748E-01  0.51100000000E-03 0.  1.
</event>
<event>
 8    1  0.1131376E+005  0.1043930E+01  0.7957747E-01            NaN
         13   -1    0    0    0    0  0.00000000000E+00  0.00000000000E+00  0.74505805969E-08  0.10566000000E+00  0.10566000000E+00 0. -1.
     999900   -1    0    0    0    0 -0.00000000000E+00 -0.00000000000E+00 -0.74505805969E-08  0.93827000000E+00  0.93827000000E+00 0.  1.
     999902    2    1    2    0    0  0.17100677582E-01 -0.38499217343E-02  0.16176730607E-01  0.10200775015E+01  0.10197985916E+01 0.  0.
     999903    2    3    3    0    0 -0.51074763033E-01 -0.29692608221E-01  0.11570544218E+00  0.13147089588E+00  0.20163449871E-01 0.  0.
         14    1    1    2    0    0 -0.17100677582E-01  0.38499217343E-02 -0.16176730607E-01  0.23852498490E-01  0.00000000000E+00 0.  1.
     999901    1    3    3    0    0  0.68175440614E-01  0.25842686487E-01 -0.99528711573E-01  0.88860660563E+00  0.88000000000E+00 0.  1.
        -11    1    4    4    0    0 -0.38932947548E-02 -0.74671799306E-02  0.29805295158E-01  0.30976333879E-01  0.51100000000E-03 0.  1.
         11    1    4    4    0    0 -0.47181468278E-01 -0.22225428291E-01  0.85900147022E-01  0.10049456200E+00  0.51100000000E-03 0. -1.
</event>
<event>
 8    1  0.1131376E+005  0.1043930E+01  0.7957747E-01            NaN
         13   -1    0    0    0    0  0.00000000000E+00  0.00000000000E+00  0.74505805969E-08  0.10566000000E+00  0.10566000000E+00 0.  1.
     999900   -1    0    0    0    0 -0.00000000000E+00 -0.00000000000E+00 -0.74505805969E-08  0.93827000000E+00  0.93827000000E+00 0.  1.
     999902    2    1    2    0    0  0.83001502374E-02 -0.21240102249E-01  0.34786950662E-02  0.10208619321E+01  0.10206012682E+01 0.  0.
     999903    2    3    3    0    0 -0.11893442557E-01  0.11079457493E+00 -0.60415030090E-01  0.12849242047E+00  0.21057883280E-01 0.  0.
         14    1    1    2    0    0 -0.83001502374E-02  0.21240102249E-01 -0.34786950662E-02  0.23068067905E-01  0.00000000000E+00 0. -1.
     999901    1    3    3    0    0  0.20193592794E-01 -0.13203467717E+00  0.63893725156E-01  0.89236951163E+00  0.88000000000E+00 0. -1.
        -11    1    4    4    0    0  0.15444529250E-02  0.15820013811E-01 -0.16211235414E-02  0.15985847940E-01  0.51100000000E-03 0.  1.
         11    1    4    4    0    0 -0.13437895482E-01  0.94974561115E-01 -0.58793906549E-01  0.11250657253E+00  0.51100000000E-03 0. -1.
</event>
<event>
 8    1  0.1131376E+005  0.1043930E+01  0.7957747E-01            NaN
         13   -1    0    0    0    0  0.00000000000E+00  0.00000000000E+00  0.74505805969E-08  0.10566000000E+00  0.10566000000E+00 0.  1.
     999900   -1    0    0    0    0 -0.00000000000E+00 -0.00000000000E+00 -0.74505805969E-08  0.93827000000E+00  0.93827000000E+00 0. -1.
     999902    2    1    2    0    0  0.18062498144E-01  0.75313572929E-02 -0.13375393276E-01  0.10202260694E+01  0.10199506637E+01 0.  0.
     999903    2    3    3    0    0 -0.99656630173E-01 -0.78151239515E-01  0.31941250690E-02  0.12810844848E+00  0.19039746910E-01 0.  0.
         14    1    1    2    0    0 -0.18062498144E-01 -0.75313572929E-02  0.13375393276E-01  0.23703930626E-01  0.00000000000E+00 0. -1.
     999901    1    3    3    0    0  0.11771912832E+00  0.85682596808E-01 -0.16569518345E-01  0.89211762089E+00  0.88000000000E+00 0. -1.
        -11    1    4    4    0    0 -0.47042611508E-01 -0.40058322033E-01  0.10731396371E-01  0.62714435744E-01  0.51100000000E-03 0. -1.
         11    1    4    4    0    0 -0.52614018664E-01 -0.38092917482E-01 -0.75372713018E-02  0.65394012738E-01  0.51100000000E-03 0.  1.
</event>
<event>
 8    1  0.1131376E+005  0.1043930E+01  0.7957747E-01            NaN
         13   -1    0    0    0    0  0.00000000000E+00  0.00000000000E+00  0.74505805969E-08  0.10566000000E+00  0.10566000000E+00 0.  1.
     999900   -1    0    0    0    0 -0.00000000000E+00 -0.00000000000E+00 -0.74505805969E-08  0.93827000000E+00  0.93827000000E+00 0. -1.
     999902    2    1    2    0    0  0.21427485480E-01 -0.88579485013E-02  0.38380251677E-02  0.10204282804E+01  0.10201576078E+01 0.  0.
     999903    2    3    3    0    0  0.86034474189E-01 -0.77876538757E-01 -0.61828056305E-01  0.13293199139E+00  0.19532530607E-01 0.  0.
         14    1    1    2    0    0 -0.21427485480E-01  0.88579485013E-02 -0.38380251677E-02  0.23501719572E-01  0.00000000000E+00 0. -1.
     999901    1    3    3    0    0 -0.64606988709E-01  0.69018590256E-01  0.65666081473E-01  0.88749628903E+00  0.88000000000E+00 0.  1.
        -11    1    4    4    0    0  0.50346063775E-01 -0.41945038930E-01 -0.24277144752E-01  0.69883855838E-01  0.51100000000E-03 0.  1.
         11    1    4    4    0    0  0.35688410415E-01 -0.35931499827E-01 -0.37550911553E-01  0.63048135557E-01  0.51100000000E-03 0. -1.
</event>
<event>
 8    1  0.1131376E+005  0.1043930E+01  0.7957747E-01            NaN
         13   -1    0    0    0    0  0.00000000000E+00  0.00000000000E+00  0.74505805969E-08  0.10566000000E+00  0.10566000000E+00 0.  1.
     999900   -1    0    0    0    0 -0.00000000000E+00 -0.00000000000E+00 -0.74505805969E-08  0.93827000000E+00  0.93827000000E+00 0.  1.
     999902    2    1    2    0    0 -0.22889984315E-02  0.47360737441E-02  0.22898280888E-01  0.10204352947E+01  0.10201647855E+01 0.  0.
     999903    2    3    3    0    0  0.41554158647E-02 -0.35764052788E-01 -0.12103606356E+00  0.12779937441E+00  0.19662565090E-01 0.  0.
         14    1    1    2    0    0  0.22889984315E-02 -0.47360737441E-02 -0.22898280888E-01  0.23494705275E-01  0.00000000000E+00 0. -1.
     999901    1    3    3    0    0 -0.64444142961E-02  0.40500126532E-01  0.14393434444E+00  0.89263592031E+00  0.88000000000E+00 0. -1.
        -11    1    4    4    0    0  0.18255771483E-02 -0.18367205697E-01 -0.31127491120E-01  0.36192109657E-01  0.51100000000E-03 0.  1.
         11    1    4    4    0    0  0.23298387164E-02 -0.17396847091E-01 -0.89908572436E-01  0.91607264754E-01  0.51100000000E-03 0. -1.
</event>
<event>
 8    1  0.1131376E+005  0.1043930E+01  0.7957747E-01            NaN
         13   -1    0    0    0    0  0.00000000000E+00  0.00000000000E+00  0.74505805969E-08  0.10566000000E+00  0.10566000000E+00 0. -1.
     999900   -1    0    0    0    0 -0.00000000000E+00 -0.00000000000E+00 -0.74505805969E-08  0.93827000000E+00  0.93827000000E+00 0.  1.
     999902    2    1    2    0    0 -0.23412977377E-01 -0.11201533972E-01 -0.81892900882E-02  0.10167140792E+01  0.10163497491E+01 0.  0.
     999903    2    3    3    0    0 -0.86110088054E-01 -0.58778834238E-02  0.93047538289E-01  0.12867795135E+00  0.21229083915E-01 0.  0.
         14    1    1    2    0    0  0.23412977377E-01  0.11201533972E-01  0.81892900882E-02  0.27215920803E-01  0.00000000000E+00 0. -1.
     999901    1    3    3    0    0  0.62697110677E-01 -0.53236505485E-02 -0.10123682838E+00  0.88803612785E+00  0.88000000000E+00 0.  1.
        -11    1    4    4    0    0 -0.55039024452E-01  0.43779758631E-03  0.71951386677E-01  0.90591109084E-01  0.51100000000E-03 0. -1.
         11    1    4    4    0    0 -0.31071063601E-01 -0.63156810101E-02  0.21096151612E-01  0.38086842266E-01  0.51100000000E-03 0.  1.
</event>
<event>
 8    1  0.1131376E+005  0.1043930E+01  0.7957747E-01            NaN
         13   -1    0    0    0    0  0.00000000000E+00  0.00000000000E+00  0.74505805969E-08  0.10566000000E+00  0.10566000000E+00 0. -1.
     999900   -1    0    0    0    0 -0.00000000000E+00 -0.00000000000E+00 -0.74505805969E-08  0.93827000000E+00  0.93827000000E+00 0.  1.
     999902    2    1    2    0    0 -0.21423192087E-01  0.11314007424E-01 -0.70703759465E-03  0.10196924295E+01  0.10194043314E+01 0.  0.
     999903    2    3    3    0    0 -0.19453405675E-01 -0.12251660559E+00  0.29342063853E-01  0.12906486334E+00  0.20199717841E-01 0.  0.
         14    1    1    2    0    0  0.21423192087E-01 -0.11314007424E-01  0.70703759465E-03  0.24237570533E-01  0.00000000000E+00 0. -1.
     999901    1    3    3    0    0 -0.19697864124E-02  0.13383061302E+00 -0.30049101447E-01  0.89062756612E+00  0.88000000000E+00 0. -1.
        -11    1    4    4    0    0 -0.14810600877E-01 -0.91613924335E-01  0.12739541485E-01  0.93675087770E-01  0.51100000000E-03 0. -1.
         11    1    4    4    0    0 -0.46428047979E-02 -0.30902681257E-01  0.16602522368E-01  0.35389775575E-01  0.51100000000E-03 0.  1.
</event>
<event>
 8    1  0.1131376E+005  0.1043930E+01  0.7957747E-01            NaN
         13   -1    0    0    0    0  0.00000000000E+00  0.00000000000E+00  0.74505805969E-08  0.10566000000E+00  0.10566000000E+00 0. -1.
     999900   -1    0    0    0    0 -0.00000000000E+00 -0.00000000000E+00 -0.74505805969E-08  0.93827000000E+00  0.93827000000E+00 0.  1.
     999902    2    1    2    0    0  0.16355314739E-01 -0.17753608007E-01 -0.32144976419E-02  0.10195779998E+01  0.10192871420E+01 0.  0.
     999903    2    3    3    0    0  0.22834419362E-01 -0.34088507447E-01  0.12227075851E+00  0.13050243653E+00  0.19932649256E-01 0.  0.
         14    1    1    2    0    0 -0.16355314739E-01  0.17753608007E-01  0.32144976419E-02  0.24352000176E-01  0.00000000000E+00 0.  1.
     999901    1    3    3    0    0 -0.64791046235E-02  0.16334899440E-01 -0.12548525615E+00  0.88907556329E+00  0.88000000000E+00 0.  1.
        -11    1    4    4    0    0  0.87377663241E-02 -0.34211277037E-02  0.12372432267E-01  0.15536758874E-01  0.51100000000E-03 0. -1.
         11    1    4    4    0    0  0.14096653038E-01 -0.30667379743E-01  0.10989832624E+00  0.11496567766E+00  0.51100000000E-03 0.  1.
</event>
<event>
 8    1  0.1131376E+005  0.1043930E+01  0.7957747E-01            NaN
         13   -1    0    0    0    0  0.00000000000E+00  0.00000000000E+00  0.74505805969E-08  0.10566000000E+00  0.10566000000E+00 0.  1.
     999900   -1    0    0    0    0 -0.00000000000E+00 -0.00000000000E+00 -0.74505805969E-08  0.93827000000E+00  0.93827000000E+00 0. -1.
     999902    2    1    2    0    0 -0.15354246516E-01 -0.17020778072E-01  0.40931650656E-03  0.10210034365E+01  0.10207459969E+01 0.  0.
     999903    2    3    3    0    0  0.24906889087E-01  0.22733856706E-01 -0.12445432040E+00  0.13038998624E+00  0.19377545776E-01 0.  0.
         14    1    1    2    0    0  0.15354246516E-01  0.17020778072E-01 -0.40931650656E-03  0.22926563463E-01  0.00000000000E+00 0. -1.
     999901    1    3    3    0    0 -0.40261135602E-01 -0.39754634778E-01  0.12486363691E+00  0.89061345030E+00  0.88000000000E+00 0. -1.
        -11    1    4    4    0    0  0.19348685663E-01  0.82099832209E-02 -0.48543068002E-01  0.52900529614E-01  0.51100000000E-03 0.  1.
         11    1    4    4    0    0  0.55582034235E-02  0.14523873485E-01 -0.75911252401E-01  0.77489456627E-01  0.51100000000E-03 0. -1.
</event>
<event>
 8    1  0.1131376E+005  0.1043930E+01  0.7957747E-01            NaN
         13   -1    0    0    0    0  0.00000000000E+00  0.00000000000E+00  0.74505805969E-08  0.10566000000E+00  0.10566000000E+00 0. -1.
     999900   -1    0    0    0    0 -0.00000000000E+00 -0.00000000000E+00 -0.74505805969E-08  0.93827000000E+00  0.93827000000E+00 0.  1.
     999902    2    1    2    0    0  0.13877501728E-01  0.18904927345E-01 -0.27539344332E-02  0.10203171754E+01  0.10200439073E+01 0.  0.
     999903    2    3    3    0    0  0.74958140386E-01  0.25970916008E-01 -0.10388773362E+00  0.13239329465E+00  0.21026459106E-01 0.  0.
         14    1    1    2    0    0 -0.13877501728E-01 -0.18904927345E-01  0.27539344332E-02  0.23612824629E-01  0.00000000000E+00 0.  1.
     999901    1    3    3    0    0 -0.61080638658E-01 -0.70659886632E-02  0.10113379919E+00  0.88792388072E+00  0.88000000000E+00 0. -1.
        -11    1    4    4    0    0  0.40970570334E-01  0.42923805553E-02 -0.60184105821E-01  0.72934216105E-01  0.51100000000E-03 0. -1.
         11    1    4    4    0    0  0.33987570052E-01  0.21678535453E-01 -0.43703627803E-01  0.59459078546E-01  0.51100000000E-03 0.  1.
</event>
<event>
 8    1  0.1131376E+005  0.1043930E+01  0.7957747E-01            NaN
         13   -1    0    0    0    0  0.00000000000E+00  0.00000000000E+00  0.74505805969E-08  0.10566000000E+00  0.10566000000E+00 0.  1.
     999900   -1    0    0    0    0 -0.00000000000E+00 -0.00000000000E+00 -0.74505805969E-08  0.93827000000E+00  0.93827000000E+00 0. -1.
     999902    2    1    2    0    0 -0.16079208687E-01 -0.16988604551E-01 -0.60285953927E-02  0.10197743050E+01  0.10194881734E+01 0.  0.
     999903    2    3    3    0    0 -0.54840745775E-01  0.78652629524E-01 -0.85722623659E-01  0.13016717796E+00  0.20034532248E-01 0.  0.
         14    1    1    2    0    0  0.16079208687E-01  0.16988604551E-01  0.60285953927E-02  0.24155694960E-01  0.00000000000E+00 0. -1.
     999901    1    3    3    0    0  0.38761537088E-01 -0.95641234075E-01  0.79694028267E-01  0.88960712708E+00  0.88000000000E+00 0.  1.
        -11    1    4    4    0    0 -0.34628260737E-01  0.64707490465E-01 -0.64005783943E-01  0.97381606390E-01  0.51100000000E-03 0.  1.
         11    1    4    4    0    0 -0.20212485039E-01  0.13945139059E-01 -0.21716839716E-01  0.32785571569E-01  0.51100000000E-03 0. -1.
</event>
<event>
 8    1  0.1131376E+005  0.1043930E+01  0.7957747E-01            NaN
         13   -1    0    0    0    0  0.00000000000E+00  0.00000000000E+00  0.74505805969E-08  0.10566000000E+00  0.10566000000E+00 0. -1.
     999900   -1    0    0    0    0 -0.00000000000E+00 -0.00000000000E+00 -0.74505805969E-08  0.93827000000E+00  0.93827000000E+00 0. -1.
     999902    2    1    2    0    0 -0.23442703431E-01 -0.32940326947E-02 -0.58805204041E-02  0.10195375521E+01  0.10192457155E+01 0.  0.
     999903    2    3    3    0    0 -0.21207130064E-01 -0.10352534940E+00  0.73832656675E-01  0.13026509369E+00  0.18721461175E-01 0.  0.
         14    1    1    2    0    0  0.23442703431E-01  0.32940326947E-02  0.58805204041E-02  0.24392447924E-01  0.00000000000E+00 0. -1.
     999901    1    3    3    0    0 -0.22355733667E-02  0.10023131671E+00 -0.79713177080E-01  0.88927245838E+00  0.88000000000E+00 0. -1.
        -11    1    4    4    0    0 -0.18512487910E-01 -0.88316324239E-01  0.70358843586E-01  0.11442514290E+00  0.51100000000E-03 0.  1.
         11    1    4    4    0    0 -0.26946421538E-02 -0.15209025164E-01  0.34738130898E-02  0.15839950794E-01  0.51100000000E-03 0. -1.
</event>
<event>
 8    1  0.1131376E+005  0.1043930E+01  0.7957747E-01            NaN
         13   -1    0    0    0    0  0.00000000000E+00  0.00000000000E+00  0.74505805969E-08  0.10566000000E+00  0.10566000000E+00 0. -1.
     999900   -1    0    0    0    0 -0.00000000000E+00 -0.00000000000E+00 -0.74505805969E-08  0.93827000000E+00  0.93827000000E+00 0.  1.
     999902    2    1    2    0    0  0.28767331921E-02 -0.22274702928E-01 -0.91124086358E-02  0.10196921376E+01  0.10194040325E+01 0.  0.
     999903    2    3    3    0    0 -0.94354457295E-01 -0.50465978998E-01 -0.72364514086E-01  0.13163274693E+00  0.25317553538E-01 0.  0.
         14    1    1    2    0    0 -0.28767331921E-02  0.22274702928E-01  0.91124086358E-02  0.24237862438E-01  0.00000000000E+00 0. -1.
     999901    1    3    3    0    0  0.97231190488E-01  0.28191276070E-01  0.63252105450E-01  0.88805939063E+00  0.88000000000E+00 0. -1.
        -11    1    4    4    0    0 -0.17638481764E-01 -0.18357324164E-02 -0.20209679864E-01  0.26891973405E-01  0.51100000000E-03 0.  1.
         11    1    4    4    0    0 -0.76715975532E-01 -0.48630246582E-01 -0.52154834222E-01  0.10474077352E+00  0.51100000000E-03 0. -1.
</event>
<event>
 8    1  0.1131376E+005  0.1043930E+01  0.7957747E-01            NaN
         13   -1    0    0    0    0  0.00000000000E+00  0.00000000000E+00  0.74505805969E-08  0.10566000000E+00  0.10566000000E+00 0.  1.
     999900   -1    0    0    0    0 -0.00000000000E+00 -0.00000000000E+00 -0.74505805969E-08  0.93827000000E+00  0.93827000000E+00 0. -1.
     999902    2    1    2    0    0 -0.19073566898E-01 -0.73502828372E-02 -0.12952947847E-01  0.10197306928E+01  0.10194435145E+01 0.  0.
     999903    2    3    3    0    0 -0.94843951216E-01 -0.29092107931E-01 -0.86387968222E-01  0.13316058257E+00  0.20667217304E-01 0.  0.
         14    1    1    2    0    0  0.19073566898E-01  0.73502828372E-02  0.12952947847E-01  0.24199307220E-01  0.00000000000E+00 0.  1.
     999901    1    3    3    0    0  0.75770384317E-01  0.21741825093E-01  0.73435020375E-01  0.88657011021E+00  0.88000000000E+00 0.  1.
        -11    1    4    4    0    0 -0.62084078998E-01 -0.15010493689E-01 -0.67001291774E-01  0.92569876343E-01  0.51100000000E-03 0. -1.
         11    1    4    4    0    0 -0.32759872218E-01 -0.14081614242E-01 -0.19386676448E-01  0.40590706228E-01  0.51100000000E-03 0.  1.
</event>
<event>
 8    1  0.1131376E+005  0.1043930E+01  0.7957747E-01            NaN
         13   -1    0    0    0    0  0.00000000000E+00  0.00000000000E+00  0.74505805969E-08  0.10566000000E+00  0.10566000000E+00 0.  1.
     999900   -1    0    0    0    0 -0.00000000000E+00 -0.00000000000E+00 -0.74505805969E-08  0.93827000000E+00  0.93827000000E+00 0. -1.
     999902    2    1    2    0    0 -0.91202907190E-02  0.20545577918E-01 -0.98371205562E-02  0.10193928972E+01  0.10190975465E+01 0.  0.
     999903    2    3    3    0    0  0.99748862186E-01  0.11027906159E-01  0.77685732929E-01  0.12832425311E+00  0.18989223637E-01 0.  0.
         14    1    1    2    0    0  0.91202907190E-02 -0.20545577918E-01  0.98371205562E-02  0.24537102836E-01  0.00000000000E+00 0.  1.
     999901    1    3    3    0    0 -0.10886915291E+00  0.95176717583E-02 -0.87522853485E-01  0.89106864405E+00  0.88000000000E+00 0.  1.
        -11    1    4    4    0    0  0.51489367779E-01 -0.15785630074E-02  0.47167422894E-01  0.69847503598E-01  0.51100000000E-03 0.  1.
         11    1    4    4    0    0  0.48259494408E-01  0.12606469167E-01  0.30518310034E-01  0.58476749514E-01  0.51100000000E-03 0. -1.
</event>
<event>
 8    1  0.1131376E+005  0.1043930E+01  0.7957747E-01            NaN
         13   -1    0    0    0    0  0.00000000000E+00  0.00000000000E+00  0.74505805969E-08  0.10566000000E+00  0.10566000000E+00 0. -1.
     999900   -1    0    0    0    0 -0.00000000000E+00 -0.00000000000E+00 -0.74505805969E-08  0.93827000000E+00  0.93827000000E+00 0.  1.
     999902    2    1    2    0    0 -0.14870194302E-01  0.17230304353E-01 -0.63560383687E-02  0.10202993993E+01  0.10200257148E+01 0.  0.
     999903    2    3    3    0    0  0.24220691706E-01 -0.47673531197E-01 -0.11680208511E+00  0.13016517655E+00  0.20996157182E-01 0.  0.
         14    1    1    2    0    0  0.14870194302E-01 -0.17230304353E-01  0.63560383687E-02  0.23630600721E-01  0.00000000000E+00 0. -1.
     999901    1    3    3    0    0 -0.39090886008E-01  0.64903835550E-01  0.11044604674E+00  0.89013422273E+00  0.88000000000E+00 0. -1.
        -11    1    4    4    0    0  0.69260147437E-02 -0.35772513622E-01 -0.75096975079E-01  0.83471307634E-01  0.51100000000E-03 0.  1.
         11    1    4    4    0    0  0.17294676962E-01 -0.11901017575E-01 -0.41705110029E-01  0.46693868913E-01  0.51100000000E-03 0. -1.
</event>
<event>
 8    1  0.1131376E+005  0.1043930E+01  0.7957747E-01            NaN
         13   -1    0    0    0    0  0.00000000000E+00  0.00000000000E+00  0.74505805969E-08  0.10566000000E+00  0.10566000000E+00 0.  1.
     999900   -1    0    0    0    0 -0.00000000000E+00 -0.00000000000E+00 -0.74505805969E-08  0.93827000000E+00  0.93827000000E+00 0.  1.
     999902    2    1    2    0    0 -0.35927062486E-03  0.11613460145E-01  0.19583256252E-01  0.10211592851E+01  0.10209053727E+01 0.  0.
     999903    2    3    3    0    0 -0.37232442210E-01  0.22528086464E-01 -0.12008844570E+00  0.12931459896E+00  0.20180715566E-01 0.  0.
         14    1    1    2    0    0  0.35927062486E-03 -0.11613460145E-01 -0.19583256252E-01  0.22770714906E-01  0.00000000000E+00 0. -1.
     999901    1    3    3    0    0  0.36873171585E-01 -0.10914626319E-01  0.13967170196E+00  0.89184468613E+00  0.88000000000E+00 0. -1.
        -11    1    4    4    0    0 -0.71853330479E-02  0.15102553149E-01 -0.35668348288E-01  0.39398074994E-01  0.51100000000E-03 0. -1.
         11    1    4    4    0    0 -0.30047109162E-01  0.74255333156E-02 -0.84420097417E-01  0.89916523970E-01  0.51100000000E-03 0.  1.
</event>
<event>
 8    1  0.1131376E+005  0.1043930E+01  0.7957747E-01            NaN
         13   -1    0    0    0    0  0.00000000000E+00  0.00000000000E+00  0.74505805969E-08  0.10566000000E+00  0.10566000000E+00 0. -1.
     999900   -1    0    0    0    0 -0.00000000000E+00 -0.00000000000E+00 -0.74505805969E-08  0.93827000000E+00  0.93827000000E+00 0.  1.
     999902    2    1    2    0    0  0.14235610916E-01  0.74032956969E-02 -0.16834884641E-01  0.10206732860E+01  0.10204082918E+01 0.  0.
     999903    2    3    3    0    0 -0.54387860362E-02  0.71206785954E-01 -0.11070347145E+00  0.13316594583E+00  0.19440261762E-01 0.  0.
         14    1    1    2    0    0 -0.14235610916E-01 -0.74032956969E-02  0.16834884641E-01  0.23256714003E-01  0.00000000000E+00 0. -1.
     999901    1    3    3    0    0  0.19674396953E-01 -0.63803490257E-01  0.93868586811E-01  0.88750734017E+00  0.88000000000E+00 0. -1.
        -11    1    4    4    0    0 -0.88109386767E-02  0.41488915449E-01 -0.78404843763E-01  0.89143386698E-01  0.51100000000E-03 0. -1.
         11    1    4    4    0    0  0.33721526404E-02  0.29717870505E-01 -0.32298627689E-01  0.44022559130E-01  0.51100000000E-03 0.  1.
</event>
<event>
 8    1  0.1131376E+005  0.1043930E+01  0.7957747E-01            NaN
         13   -1    0    0    0    0  0.00000000000E+00  0.00000000000E+00  0.74505805969E-08  0.10566000000E+00  0.10566000000E+00 0.  1.
     999900   -1    0    0    0    0 -0.00000000000E+00 -0.00000000000E+00 -0.74505805969E-08  0.93827000000E+00  0.93827000000E+00 0.  1.
     999902    2    1    2    0    0  0.13301016834E-01  0.18009983976E-01  0.74172696195E-02  0.10203441470E+01  0.10200715102E+01 0.  0.
     999903    2    3    3    0    0 -0.46506070110E-02  0.12806234409E+00 -0.27396880295E-01  0.13262470498E+00  0.20423790074E-01 0.  0.
         14    1    1    2    0    0 -0.13301016834E-01 -0.18009983976E-01 -0.74172696195E-02  0.23585852969E-01  0.00000000000E+00 0. -1.
     999901    1    3    3    0    0  0.17951623845E-01 -0.11005236011E+00  0.34814149914E-01  0.88771944205E+00  0.88000000000E+00 0. -1.
        -11    1    4    4    0    0 -0.12513204755E-01  0.84060313082E-01 -0.15818851670E-01  0.86447751376E-01  0.51100000000E-03 0. -1.
         11    1    4    4    0    0  0.78625977440E-02  0.44002031008E-01 -0.11578028625E-01  0.46176953602E-01  0.51100000000E-03 0.  1.
</event>
<event>
 8    1  0.1131376E+005  0.1043930E+01  0.7957747E-01            NaN
         13   -1    0    0    0    0  0.00000000000E+00  0.00000000000E+00  0.74505805969E-08  0.10566000000E+00  0.10566000000E+00 0.  1.
     999900   -1    0    0    0    0 -0.00000000000E+00 -0.00000000000E+00 -0.74505805969E-08  0.93827000000E+00  0.93827000000E+00 0.  1.
     999902    2    1    2    0    0 -0.66702464674E-02 -0.20242570267E-01 -0.17349775086E-01  0.10164478506E+01  0.10160762592E+01 0.  0.
     999903    2    3    3    0    0  0.12375789073E+00  0.12208899973E-01  0.28027620864E-02  0.12601496621E+00  0.20170361352E-01 0.  0.
         14    1    1    2    0    0  0.66702464674E-02  0.20242570267E-01  0.17349775086E-01  0.27482149378E-01  0.00000000000E+00 0. -1.
     999901    1    3    3    0    0 -0.13042813719E+00 -0.32451470240E-01 -0.20152537172E-01  0.89043288441E+00  0.88000000000E+00 0.  1.
        -11    1    4    4    0    0  0.16090300214E-01 -0.11294190362E-02 -0.58809465669E-02  0.17176146304E-01  0.51100000000E-03 0.  1.
         11    1    4    4    0    0  0.10766759051E+00  0.13338319009E-01  0.86837086533E-02  0.10883881990E+00  0.51100000000E-03 0. -1.
</event>
<event>
 8    1  0.1131376E+005  0.1043930E+01  0.7957747E-01            NaN
         13   -1    0    0    0    0  0.00000000000E+00  0.00000000000E+00  0.74505805969E-08  0.10566000000E+00  0.10566000000E+00 0. -1.
     999900   -1    0    0    0    0 -0.00000000000E+00 -0.00000000000E+00 -0.74505805969E-08  0.93827000000E+00  0.93827000000E+00 0. -1.
     999902    2    1    2    0    0 -0.85568927907E-03 -0.19384226772E-01  0.14063089346E-01  0.10199664666E+01  0.10196849229E+01 0.  0.
     999903    2    3    3    0    0  0.27523523919E-01 -0.10775191345E+00  0.69359896699E-01  0.13335947096E+00  0.24615726741E-01 0.  0.
         14    1    1    2    0    0  0.85568927907E-03  0.19384226772E-01 -0.14063089346E-01  0.23963533413E-01  0.00000000000E+00 0.  1.
     999901    1    3    3    0    0 -0.28379213198E-01  0.88367686681E-01 -0.55296807354E-01  0.88660699563E+00  0.88000000000E+00 0. -1.
        -11    1    4    4    0    0  0.54290542086E-02 -0.99565253552E-02  0.16469165094E-01  0.20002538505E-01  0.51100000000E-03 0. -1.
         11    1    4    4    0    0  0.22094469711E-01 -0.97795388097E-01  0.52890731605E-01  0.11335693246E+00  0.51100000000E-03 0.  1.
</event>
<event>
 8    1  0.1131376E+005  0.1043930E+01  0.7957747E-01            NaN
         13   -1    0    0    0    0  0.00000000000E+00  0.00000000000E+00  0.74505805969E-08  0.10566000000E+00  0.10566000000E+00 0.  1.
     999900   -1    0    0    0    0 -0.00000000000E+00 -0.00000000000E+00 -0.74505805969E-08  0.93827000000E+00  0.93827000000E+00 0. -1.
     999902    2    1    2    0    0  0.39812248133E-02  0.20957941489E-01  0.10326544419E-01  0.10202293042E+01  0.10199539745E+01 0.  0.
     999903    2    3    3    0    0  0.23813055975E-01 -0.65010696051E-01 -0.10583901348E+00  0.12822126330E+00  0.21103159767E-01 0.  0.
         14    1    1    2    0    0 -0.39812248133E-02 -0.20957941489E-01 -0.10326544419E-01  0.23700695814E-01  0.00000000000E+00 0. -1.
     999901    1    3    3    0    0 -0.19831831162E-01  0.85968637540E-01  0.11616555789E+00  0.89200804089E+00  0.88000000000E+00 0.  1.
        -11    1    4    4    0    0  0.22654922197E-01 -0.31439693619E-01 -0.54864546734E-01  0.67172013845E-01  0.51100000000E-03 0. -1.
         11    1    4    4    0    0  0.11581337775E-02 -0.33571002432E-01 -0.50974466741E-01  0.61049249453E-01  0.51100000000E-03 0.  1.
</event>
<event>
 8    1  0.1131376E+005  0.1043930E+01  0.7957747E-01            NaN
         13   -1    0    0    0    0  0.00000000000E+00  0.00000000000E+00  0.74505805969E-08  0.10566000000E+00  0.10566000000E+00 0.  1.
     999900   -1    0    0    0    0 -0.00000000000E+00 -0.00000000000E+00 -0.74505805969E-08  0.93827000000E+00  0.93827000000E+00 0. -1.
     999902    2    1    2    0    0  0.23061132446E-01  0.22432913897E-01  0.92981564351E-02  0.10104410889E+01  0.10098859772E+01 0.  0.
     999903    2    3    3    0    0  0.10312525817E+00 -0.53375057730E-01  0.35874151208E-01  0.12316244251E+00  0.19957877134E-01 0.  0.
         14    1    1    2    0    0 -0.23061132446E-01 -0.22432913897E-01 -0.92981564351E-02  0.33488911130E-01  0.00000000000E+00 0. -1.
     999901    1    3    3    0    0 -0.80064125723E-01  0.75807971628E-01 -0.26575994773E-01  0.88727864636E+00  0.88000000000E+00 0. -1.
        -11    1    4    4    0    0  0.17524661501E-01 -0.18211275851E-01  0.77394118596E-02  0.26437169777E-01  0.51100000000E-03 0.  1.
         11    1    4    4    0    0  0.85600596667E-01 -0.35163781879E-01  0.28134739348E-01  0.96725272732E-01  0.51100000000E-03 0. -1.
</event>
<event>
 8    1  0.1131376E+005  0.1043930E+01  0.7957747E-01            NaN
         13   -1    0    0    0    0  0.00000000000E+00  0.00000000000E+00  0.74505805969E-08  0.10566000000E+00  0.10566000000E+00 0.  1.
     999900   -1    0    0    0    0 -0.00000000000E+00 -0.00000000000E+00 -0.74505805969E-08  0.93827000000E+00  0.93827000000E+00 0.  1.
     999902    2    1    2    0    0 -0.19924300942E-01 -0.76145950671E-02 -0.89582771133E-02  0.10207953819E+01  0.10205331945E+01 0.  0.
     999903    2    3    3    0    0 -0.87004583374E-01  0.65697783200E-01  0.70926453916E-01  0.13160696578E+00  0.20095654544E-01 0.  0.
         14    1    1    2    0    0  0.19924300942E-01  0.76145950671E-02  0.89582771133E-02  0.23134618106E-01  0.00000000000E+00 0.  1.
     999901    1    3    3    0    0  0.67080282432E-01 -0.73312378267E-01 -0.79884731029E-01  0.88918841611E+00  0.88000000000E+00 0.  1.
        -11    1    4    4    0    0 -0.11938334087E-01  0.17460764485E-01  0.18564266226E-01  0.28147739140E-01  0.51100000000E-03 0.  1.
         11    1    4    4    0    0 -0.75066249287E-01  0.48237018715E-01  0.52362187689E-01  0.10345922664E+00  0.51100000000E-03 0. -1.
</event>
<event>
 8    1  0.1131376E+005  0.1043930E+01  0.7957747E-01            NaN
         13   -1    0    0    0    0  0.00000000000E+00  0.00000000000E+00  0.74505805969E-08  0.10566000000E+00  0.10566000000E+00 0.  1.
     999900   -1    0    0    0    0 -0.00000000000E+00 -0.00000000000E+00 -0.74505805969E-08  0.93827000000E+00  0.93827000000E+00 0.  1.
     999902    2    1    2    0    0 -0.22908568472E-02 -0.32612547816E-01 -0.26661699140E-02  0.10111285555E+01  0.10105963690E+01 0.  0.
     999903    2    3    3    0    0 -0.10172497855E+00  0.59791675508E-01  0.14725096506E-01  0.12055113538E+00  0.19817468400E-01 0.  0.
         14    1    1    2    0    0  0.22908568472E-02  0.32612547816E-01  0.26661699140E-02  0.32801444514E-01  0.00000000000E+00 0.  1.
     999901    1    3    3    0    0  0.99434121706E-01 -0.92404223324E-01 -0.17391266420E-01  0.89057742010E+00  0.88000000000E+00 0.  1.
        -11    1    4    4    0    0 -0.49123779957E-01  0.30778520820E-01  0.17065327500E-01  0.60431362923E-01  0.51100000000E-03 0.  1.
         11    1    4    4    0    0 -0.52601198596E-01  0.29013154688E-01 -0.23402309935E-02  0.60119772461E-01  0.51100000000E-03 0. -1.
</event>
<event>
 8    1  0.1131376E+005  0.1043930E+01  0.7957747E-01            NaN
         13   -1    0    0    0    0  0.00000000000E+00  0.00000000000E+00  0.74505805969E-08  0.10566000000E+00  0.10566000000E+00 0. -1.
     999900   -1    0    0    0    0 -0.00000000000E+00 -0.00000000000E+00 -0.74505805969E-08  0.93827000000E+00  0.93827000000E+00 0. -1.
     999902    2    1    2    0    0  0.32254753365E-02 -0.48939366034E-02 -0.22401250999E-01  0.10207746474E+01  0.10205119845E+01 0.  0.
     999903    2    3    3    0    0  0.46658852498E-01  0.85488497666E-01 -0.87741486997E-01  0.13267285758E+00  0.20449617343E-01 0.  0.
         14    1    1    2    0    0 -0.32254753365E-02  0.48939366034E-02  0.22401250999E-01  0.23155352576E-01  0.00000000000E+00 0. -1.
     999901    1    3    3    0    0 -0.43433377161E-01 -0.90382434269E-01  0.65340235999E-01  0.88810178984E+00  0.88000000000E+00 0. -1.
        -11    1    4    4    0    0  0.46207240686E-01  0.74057182609E-01 -0.82387690903E-01  0.12003152970E+00  0.51100000000E-03 0. -1.
         11    1    4    4    0    0  0.45161181192E-03  0.11431315057E-01 -0.53537960945E-02  0.12641327889E-01  0.51100000000E-03 0.  1.
</event>
<event>
 8    1  0.1131376E+005  0.1043930E+01  0.7957747E-01            NaN
         13   -1    0    0    0    0  0.00000000000E+00  0.00000000000E+00  0.74505805969E-08  0.10566000000E+00  0.10566000000E+00 0.  1.
     999900   -1    0    0    0    0 -0.00000000000E+00 -0.00000000000E+00 -0.74505805969E-08  0.93827000000E+00  0.93827000000E+00 0.  1.
     999902    2    1    2    0    0 -0.17806574515E-01 -0.11794424704E-01  0.10501216207E-01  0.10201296199E+01  0.10198519419E+01 0.  0.
     999903    2    3    3    0    0 -0.28018361595E-01  0.83813265151E-01 -0.91852793203E-01  0.12899469512E+00  0.19824322149E-01 0.  0.
         14    1    1    2    0    0  0.17806574515E-01  0.11794424704E-01 -0.10501216207E-01  0.23800380079E-01  0.00000000000E+00 0. -1.
     999901    1    3    3    0    0  0.10211787080E-01 -0.95607689855E-01  0.10235400941E+00  0.89113492480E+00  0.88000000000E+00 0. -1.
        -11    1    4    4    0    0 -0.48802475171E-02  0.44343423406E-01 -0.49631138994E-01  0.66735800692E-01  0.51100000000E-03 0.  1.
         11    1    4    4    0    0 -0.23138114078E-01  0.39469841745E-01 -0.42221654209E-01  0.62258894430E-01  0.51100000000E-03 0. -1.
</event>
<event>
 8    1  0.1131376E+005  0.1043930E+01  0.7957747E-01            NaN
         13   -1    0    0    0    0  0.00000000000E+00  0.00000000000E+00  0.74505805969E-08  0.10566000000E+00  0.10566000000E+00 0.  1.
     999900   -1    0    0    0    0 -0.00000000000E+00 -0.00000000000E+00 -0.74505805969E-08  0.93827000000E+00  0.93827000000E+00 0. -1.
     999902    2    1    2    0    0  0.81726773803E-02  0.11215456217E-01 -0.15395453740E-01  0.10232032272E+01  0.10229932772E+01 0.  0.
     999903    2    3    3    0    0  0.12776799233E+00  0.31080013426E-01 -0.27569553621E-01  0.13480813004E+00  0.11069080448E-01 0.  0.
         14    1    1    2    0    0 -0.81726773803E-02 -0.11215456217E-01  0.15395453740E-01  0.20726772773E-01  0.00000000000E+00 0.  1.
     999901    1    3    3    0    0 -0.11959531494E+00 -0.19864557209E-01  0.12174099881E-01  0.88839509718E+00  0.88000000000E+00 0. -1.
        -11    1    4    4    0    0  0.53993935927E-01  0.15635378293E-01 -0.16774442818E-01  0.58663900519E-01  0.51100000000E-03 0.  1.
         11    1    4    4    0    0  0.73774056398E-01  0.15444635133E-01 -0.10795110803E-01  0.76144229526E-01  0.51100000000E-03 0. -1.
</event>
<event>
 7    1  0.1131376E+005  0.1043930E+01  0.7957747E-01            NaN
         13   -1    0    0    0    0  0.00000000000E+00  0.00000000000E+00  0.74505805969E-08  0.10566000000E+00  0.10566000000E+00 0. -1.
     999900   -1    0    0    0    0 -0.00000000000E+00 -0.00000000000E+00 -0.74505805969E-08  0.93827000000E+00  0.93827000000E+00 0. -1.
     999903    2    1    2    0    0 -0.57841708309E-01 -0.46347631140E-01  0.82154528232E-01  0.11251028425E+00  0.20382134855E-01 0.  0.
         14    1    1    2    0    0  0.12312787929E-01 -0.11074962811E-01 -0.44600113130E-01  0.47575515121E-01  0.00000000000E+00 0.  1.
     999901    1    1    2    0    0  0.45528920380E-01  0.57422593951E-01 -0.37554415102E-01  0.88384420063E+00  0.88000000000E+00 0. -1.
        -11    1    3    3    0    0 -0.14061600810E-01 -0.22908660417E-01  0.24028346455E-01  0.36057702281E-01  0.51100000000E-03 0.  1.
         11    1    3    3    0    0 -0.43780107498E-01 -0.23438970723E-01  0.58126181777E-01  0.76452581971E-01  0.51100000000E-03 0. -1.
</event>
<event>
 8    1  0.1131376E+005  0.1043930E+01  0.7957747E-01            NaN
         13   -1    0    0    0    0  0.00000000000E+00  0.00000000000E+00  0.74505805969E-08  0.10566000000E+00  0.10566000000E+00 0.  1.
     999900   -1    0    0    0    0 -0.00000000000E+00 -0.00000000000E+00 -0.74505805969E-08  0.93827000000E+00  0.93827000000E+00 0.  1.
     999902    2    1    2    0    0  0.13297238018E-01 -0.81208760367E-02 -0.17773053184E-01  0.10202942943E+01  0.10200204901E+01 0.  0.
     999903    2    3    3    0    0  0.31701748977E-01  0.84709676522E-02  0.12314006889E+00  0.12873917915E+00  0.18263118557E-01 0.  0.
         14    1    1    2    0    0 -0.13297238018E-01  0.81208760367E-02  0.17773053184E-01  0.23635705744E-01  0.00000000000E+00 0.  1.
     999901    1    3    3    0    0 -0.18404510959E-01 -0.16591843689E-01 -0.14091312208E+00  0.89155511511E+00  0.88000000000E+00 0.  1.
        -11    1    4    4    0    0  0.97618994302E-02 -0.21765206196E-02  0.16144241396E-01  0.18998146587E-01  0.51100000000E-03 0.  1.
         11    1    4    4    0    0  0.21939849547E-01  0.10647488272E-01  0.10699582750E+00  0.10974103256E+00  0.51100000000E-03 0. -1.
</event>
<event>
 8    1  0.1131376E+005  0.1043930E+01  0.7957747E-01            NaN
         13   -1    0    0    0    0  0.00000000000E+00  0.00000000000E+00  0.74505805969E-08  0.10566000000E+00  0.10566000000E+00 0. -1.
     999900   -1    0    0    0    0 -0.00000000000E+00 -0.00000000000E+00 -0.74505805969E-08  0.93827000000E+00  0.93827000000E+00 0.  1.
     999902    2    1    2    0    0  0.19986527760E-01 -0.18930856606E-01  0.72609515498E-02  0.10154596638E+01  0.10150604755E+01 0.  0.
     999903    2    3    3    0    0 -0.16661108939E-01  0.78836840353E-01  0.93780189375E-01  0.12507370800E+00  0.18864478928E-01 0.  0.
         14    1    1    2    0    0 -0.19986527760E-01  0.18930856606E-01 -0.72609515498E-02  0.28470336161E-01  0.00000000000E+00 0.  1.
     999901    1    3    3    0    0  0.36647636700E-01 -0.97767696958E-01 -0.86519237826E-01  0.89038595584E+00  0.88000000000E+00 0.  1.
        -11    1    4    4    0    0 -0.38081859992E-02  0.50673574353E-01  0.48711403800E-01  0.70394427332E-01  0.51100000000E-03 0.  1.
         11    1    4    4    0    0 -0.12852922940E-01  0.28163266000E-01  0.45068785575E-01  0.54679280666E-01  0.51100000000E-03 0. -1.
</event>
<event>
 8    1  0.1131376E+005  0.1043930E+01  0.7957747E-01            NaN
         13   -1    0    0    0    0  0.00000000000E+00  0.00000000000E+00  0.74505805969E-08  0.10566000000E+00  0.10566000000E+00 0. -1.
     999900   -1    0    0    0    0 -0.00000000000E+00 -0.00000000000E+00 -0.74505805969E-08  0.93827000000E+00  0.93827000000E+00 0. -1.
     999902    2    1    2    0    0 -0.17629205676E-01 -0.14045427437E-01 -0.37678774111E-02  0.10210769953E+01  0.10208212236E+01 0.  0.
     999903    2    3    3    0    0 -0.75202175956E-01 -0.78464253782E-01  0.74693336003E-01  0.13337175472E+00  0.19922954726E-01 0.  0.
         14    1    1    2    0    0  0.17629205676E-01  0.14045427437E-01  0.37678774111E-02  0.22853004722E-01  0.00000000000E+00 0. -1.
     999901    1    3    3    0    0  0.57572970280E-01  0.64418826345E-01 -0.78461213414E-01  0.88770524055E+00  0.88000000000E+00 0. -1.
        -11    1    4    4    0    0 -0.41142218869E-01 -0.29330545249E-01  0.30454721543E-01  0.58997578283E-01  0.51100000000E-03 0. -1.
         11    1    4    4    0    0 -0.34059957088E-01 -0.49133708533E-01  0.44238614460E-01  0.74374176442E-01  0.51100000000E-03 0.  1.
</event>
<event>
 8    1  0.1131376E+005  0.1043930E+01  0.7957747E-01            NaN
         13   -1    0    0    0    0  0.00000000000E+00  0.00000000000E+00  0.74505805969E-08  0.10566000000E+00  0.10566000000E+00 0.  1.
     999900   -1    0    0    0    0 -0.00000000000E+00 -0.00000000000E+00 -0.74505805969E-08  0.93827000000E+00  0.93827000000E+00 0.  1.
     999902    2    1    2    0    0 -0.82299312292E-02 -0.26357682947E-02  0.21631947592E-01  0.10206357904E+01  0.10203699312E+01 0.  0.
     999903    2    3    3    0    0 -0.11574442894E+00  0.47693233995E-01 -0.32975750602E-01  0.13098733380E+00  0.19971582016E-01 0.  0.
         14    1    1    2    0    0  0.82299312292E-02  0.26357682947E-02 -0.21631947592E-01  0.23294209563E-01  0.00000000000E+00 0.  1.
     999901    1    3    3    0    0  0.10751449772E+00 -0.50329002289E-01  0.54607698194E-01  0.88964845663E+00  0.88000000000E+00 0. -1.
        -11    1    4    4    0    0 -0.70683245126E-01  0.37516814287E-01 -0.26717431266E-01  0.84366549949E-01  0.51100000000E-03 0. -1.
         11    1    4    4    0    0 -0.45061183819E-01  0.10176419708E-01 -0.62583193361E-02  0.46620783854E-01  0.51100000000E-03 0.  1.
</event>
<event>
 8    1  0.1131376E+005  0.1043930E+01  0.7957747E-01            NaN
         13   -1    0    0    0    0  0.00000000000E+00  0.00000000000E+00  0.74505805969E-08  0.10566000000E+00  0.10566000000E+00 0. -1.
     999900   -1    0    0    0    0 -0.00000000000E+00 -0.00000000000E+00 -0.74505805969E-08  0.93827000000E+00  0.93827000000E+00 0. -1.
     999902    2    1    2    0    0  0.45632156452E-02  0.14723955814E-01  0.17513825235E-01  0.10205986501E+01  0.10203319327E+01 0.  0.
     999903    2    3    3    0    0 -0.50682924084E-01 -0.17637349156E-01 -0.11458392860E+00  0.12843879531E+00  0.22072892149E-01 0.  0.
         14    1    1    2    0    0 -0.45632156452E-02 -0.14723955814E-01 -0.17513825235E-01  0.23331349858E-01  0.00000000000E+00 0.  1.
     999901    1    3    3    0    0  0.55246139729E-01  0.32361304970E-01  0.13209775383E+00  0.89215985484E+00  0.88000000000E+00 0.  1.
        -11    1    4    4    0    0 -0.26346391975E-01 -0.72578716609E-02 -0.34017767468E-01  0.43638041840E-01  0.51100000000E-03 0. -1.
         11    1    4    4    0    0 -0.24336532109E-01 -0.10379477495E-01 -0.80566161129E-01  0.84800753465E-01  0.51100000000E-03 0.  1.
</event>
<event>
 8    1  0.1131376E+005  0.1043930E+01  0.7957747E-01            NaN
         13   -1    0    0    0    0  0.00000000000E+00  0.00000000000E+00  0.74505805969E-08  0.10566000000E+00  0.10566000000E+00 0.  1.
     999900   -1    0    0    0    0 -0.00000000000E+00 -0.00000000000E+00 -0.74505805969E-08  0.93827000000E+00  0.93827000000E+00 0. -1.
     999902    2    1    2    0    0 -0.23354314645E-01 -0.31089098920E-02 -0.31961083610E-02  0.10201538682E+01  0.10198767624E+01 0.  0.
     999903    2    3    3    0    0  0.96238421465E-01 -0.19560625144E-01  0.79635940874E-01  0.12805845302E+00  0.20313357382E-01 0.  0.
         14    1    1    2    0    0  0.23354314645E-01  0.31089098920E-02  0.31961083610E-02  0.23776131770E-01  0.00000000000E+00 0. -1.
     999901    1    3    3    0    0 -0.11959273611E+00  0.16451715252E-01 -0.82832049235E-01  0.89209541521E+00  0.88000000000E+00 0. -1.
        -11    1    4    4    0    0  0.87302298827E-01 -0.12845313090E-01  0.64823246564E-01  0.10949432800E+00  0.51100000000E-03 0. -1.
         11    1    4    4    0    0  0.89361226373E-02 -0.67153120542E-02  0.14812694310E-01  0.18564125013E-01  0.51100000000E-03 0.  1.
</event>
<event>
 8    1  0.1131376E+005  0.1043930E+01  0.7957747E-01            NaN
         13   -1    0    0    0    0  0.00000000000E+00  0.00000000000E+00  0.74505805969E-08  0.10566000000E+00  0.10566000000E+00 0. -1.
     999900   -1    0    0    0    0 -0.00000000000E+00 -0.00000000000E+00 -0.74505805969E-08  0.93827000000E+00  0.93827000000E+00 0. -1.
     999902    2    1    2    0    0 -0.17017699843E-01 -0.14921928697E-01  0.69760520822E-02  0.10202460103E+01  0.10199710732E+01 0.  0.
     999903    2    3    3    0    0  0.91173312084E-01  0.71189280016E-01 -0.50056344265E-01  0.12762451745E+00  0.20047279777E-01 0.  0.
         14    1    1    2    0    0  0.17017699843E-01  0.14921928697E-01 -0.69760520822E-02  0.23683989669E-01  0.00000000000E+00 0.  1.
     999901    1    3    3    0    0 -0.10819101193E+00 -0.86111208712E-01  0.57032396347E-01  0.89262149289E+00  0.88000000000E+00 0. -1.
        -11    1    4    4    0    0  0.10597634875E-01  0.16895669895E-01 -0.52579745020E-02  0.20632036812E-01  0.51100000000E-03 0.  1.
         11    1    4    4    0    0  0.80575677210E-01  0.54293610120E-01 -0.44798369763E-01  0.10699248063E+00  0.51100000000E-03 0. -1.
</event>
<event>
 8    1  0.1131376E+005  0.1043930E+01  0.7957747E-01            NaN
         13   -1    0    0    0    0  0.00000000000E+00  0.00000000000E+00  0.74505805969E-08  0.10566000000E+00  0.10566000000E+00 0. -1.
     999900   -1    0    0    0    0 -0.00000000000E+00 -0.00000000000E+00 -0.74505805969E-08  0.93827000000E+00  0.93827000000E+00 0. -1.
     999902    2    1    2    0    0  0.70643398676E-02 -0.14660910175E-01  0.15068011979E-01  0.10217513578E+01  0.10215106191E+01 0.  0.
     999903    2    3    3    0    0 -0.95459959503E-01 -0.82774659517E-01  0.35766717409E-01  0.13294364450E+00  0.20748648448E-01 0.  0.
         14    1    1    2    0    0 -0.70643398676E-02  0.14660910175E-01 -0.15068011979E-01  0.22178642202E-01  0.00000000000E+00 0.  1.
     999901    1    3    3    0    0  0.10252429937E+00  0.68113749341E-01 -0.20698705430E-01  0.88880771330E+00  0.88000000000E+00 0.  1.
        -11    1    4    4    0    0 -0.49088334338E-01 -0.45746575776E-01  0.85089062577E-02  0.67639310833E-01  0.51100000000E-03 0. -1.
         11    1    4    4    0    0 -0.46371625165E-01 -0.37028083741E-01  0.27257811151E-01  0.65304333667E-01  0.51100000000E-03 0.  1.
</event>
<event>
 8    1  0.1131376E+005  0.1043930E+01  0.7957747E-01            NaN
         13   -1    0    0    0    0  0.00000000000E+00  0.00000000000E+00  0.74505805969E-08  0.10566000000E+00  0.10566000000E+00 0. -1.
     999900   -1    0    0    0    0 -0.00000000000E+00 -0.00000000000E+00 -0.74505805969E-08  0.93827000000E+00  0.93827000000E+00 0. -1.
     999902    2    1    2    0    0  0.25148354202E-01 -0.24636068962E-02 -0.57794658017E-02  0.10180087480E+01  0.10176786820E+01 0.  0.
     999903    2    3    3    0    0  0.61126810839E-01  0.86843356098E-02 -0.11112060370E+00  0.13092618069E+00  0.31336425046E-01 0.  0.
         14    1    1    2    0    0 -0.25148354202E-01  0.24636068962E-02  0.57794658017E-02  0.25921251956E-01  0.00000000000E+00 0.  1.
     999901    1    3    3    0    0 -0.35978456637E-01 -0.11147942506E-01  0.10534113790E+00  0.88708256735E+00  0.88000000000E+00 0.  1.
        -11    1    4    4    0    0  0.35088966749E-01  0.19982523825E-01 -0.72593950348E-01  0.83070329204E-01  0.51100000000E-03 0.  1.
         11    1    4    4    0    0  0.26037844090E-01 -0.11298188215E-01 -0.38526653357E-01  0.47855851488E-01  0.51100000000E-03 0. -1.
</event>
<event>
 8    1  0.1131376E+005  0.1043930E+01  0.7957747E-01            NaN
         13   -1    0    0    0    0  0.00000000000E+00  0.00000000000E+00  0.74505805969E-08  0.10566000000E+00  0.10566000000E+00 0. -1.
     999900   -1    0    0    0    0 -0.00000000000E+00 -0.00000000000E+00 -0.74505805969E-08  0.93827000000E+00  0.93827000000E+00 0. -1.
     999902    2    1    2    0    0 -0.74543937043E-02 -0.20837185158E-01 -0.96820200259E-02  0.10197743012E+01  0.10194881695E+01 0.  0.
     999903    2    3    3    0    0 -0.37054143161E-02 -0.13097325270E+00 -0.10002561145E-01  0.13290107977E+00  0.19872663488E-01 0.  0.
         14    1    1    2    0    0  0.74543937043E-02  0.20837185158E-01  0.96820200259E-02  0.24155698760E-01  0.00000000000E+00 0. -1.
     999901    1    3    3    0    0 -0.37489793882E-02  0.11013606755E+00  0.32054111922E-03  0.88687322147E+00  0.88000000000E+00 0. -1.
        -11    1    4    4    0    0 -0.55417212855E-02 -0.12337414964E+00 -0.49902341391E-02  0.12360038443E+00  0.51100000000E-03 0. -1.
         11    1    4    4    0    0  0.18363069694E-02 -0.75991030697E-02 -0.50123270060E-02  0.93006953377E-02  0.51100000000E-03 0.  1.
</event>
<event>
 8    1  0.1131376E+005  0.1043930E+01  0.7957747E-01            NaN
         13   -1    0    0    0    0  0.00000000000E+00  0.00000000000E+00  0.74505805969E-08  0.10566000000E+00  0.10566000000E+00 0.  1.
     999900   -1    0    0    0    0 -0.00000000000E+00 -0.00000000000E+00 -0.74505805969E-08  0.93827000000E+00  0.93827000000E+00 0. -1.
     999902    2    1    2    0    0 -0.63126703786E-02  0.18913970362E-02 -0.23512489823E-01  0.10195114749E+01  0.10192190064E+01 0.  0.
     999903    2    3    3    0    0 -0.96151843380E-01 -0.30033919635E-01 -0.83403855076E-01  0.13233771601E+00  0.20244869033E-01 0.  0.
         14    1    1    2    0    0  0.63126703786E-02 -0.18913970362E-02  0.23512489823E-01  0.24418525093E-01  0.00000000000E+00 0.  1.
     999901    1    3    3    0    0  0.89839173001E-01  0.31925316671E-01  0.59891365254E-01  0.88717375890E+00  0.88000000000E+00 0.  1.
        -11    1    4    4    0    0 -0.81254113234E-01 -0.25644516890E-01 -0.59872860980E-01  0.10413881489E+00  0.51100000000E-03 0. -1.
         11    1    4    4    0    0 -0.14897730146E-01 -0.43894027453E-02 -0.23530994096E-01  0.28198901115E-01  0.51100000000E-03 0.  1.
</event>
<event>
 8    1  0.1131376E+005  0.1043930E+01  0.7957747E-01            NaN
         13   -1    0    0    0    0  0.00000000000E+00  0.00000000000E+00  0.74505805969E-08  0.10566000000E+00  0.10566000000E+00 0. -1.
     999900   -1    0    0    0    0 -0.00000000000E+00 -0.00000000000E+00 -0.74505805969E-08  0.93827000000E+00  0.93827000000E+00 0. -1.
     999902    2    1    2    0    0 -0.18616153837E-01 -0.83598163494E-02  0.68616169376E-02  0.10224002647E+01  0.10221735527E+01 0.  0.
     999903    2    3    3    0    0  0.79706761926E-01 -0.73869765059E-01 -0.70657209425E-01  0.13112695224E+00  0.19797127914E-01 0.  0.
         14    1    1    2    0    0  0.18616153837E-01  0.83598163494E-02 -0.68616169376E-02  0.21529735253E-01  0.00000000000E+00 0.  1.
     999901    1    3    3    0    0 -0.98322915763E-01  0.65509948710E-01  0.77518826363E-01  0.89127331251E+00  0.88000000000E+00 0. -1.
        -11    1    4    4    0    0  0.47615994290E-01 -0.49156375598E-01 -0.54611749073E-01  0.87557617784E-01  0.51100000000E-03 0.  1.
         11    1    4    4    0    0  0.32090767636E-01 -0.24713389461E-01 -0.16045460352E-01  0.43569334457E-01  0.51100000000E-03 0. -1.
</event>
<event>
 8    1  0.1131376E+005  0.1043930E+01  0.7957747E-01            NaN
         13   -1    0    0    0    0  0.00000000000E+00  0.00000000000E+00  0.74505805969E-08  0.10566000000E+00  0.10566000000E+00 0. -1.
     999900   -1    0    0    0    0 -0.00000000000E+00 -0.00000000000E+00 -0.74505805969E-08  0.93827000000E+00  0.93827000000E+00 0. -1.
     999902    2    1    2    0    0 -0.91641049239E-02  0.13542464610E-01 -0.16700350973E-01  0.10205573474E+01  0.10202896738E+01 0.  0.
     999903    2    3    3    0    0 -0.84084868412E-01  0.59700807406E-01 -0.82778950555E-01  0.13370330376E+00  0.19742524643E-01 0.  0.
         14    1    1    2    0    0  0.91641049239E-02 -0.13542464610E-01  0.16700350973E-01  0.23372652597E-01  0.00000000000E+00 0. -1.
     999901    1    3    3    0    0  0.74920763488E-01 -0.46158342796E-01  0.66078599582E-01  0.88685404365E+00  0.88000000000E+00 0.  1.
        -11    1    4    4    0    0 -0.48843184966E-01  0.31592201911E-01 -0.34428740609E-01  0.67596769450E-01  0.51100000000E-03 0. -1.
         11    1    4    4    0    0 -0.35241683447E-01  0.28108605496E-01 -0.48350209946E-01  0.66106534305E-01  0.51100000000E-03 0.  1.
</event>
<event>
 8    1  0.1131376E+005  0.1043930E+01  0.7957747E-01            NaN
         13   -1    0    0    0    0  0.00000000000E+00  0.00000000000E+00  0.74505805969E-08  0.10566000000E+00  0.10566000000E+00 0.  1.
     999900   -1    0    0    0    0 -0.00000000000E+00 -0.00000000000E+00 -0.74505805969E-08  0.93827000000E+00  0.93827000000E+00 0.  1.
     999902    2    1    2    0    0 -0.17641510453E-01 -0.11497099929E-01 -0.10125109645E-01  0.10205649825E+01  0.10202974858E+01 0.  0.
     999903    2    3    3    0    0 -0.30535765441E-01 -0.12271511832E+00  0.35089428352E-01  0.13231948497E+00  0.16903990204E-01 0.  0.
         14    1    1    2    0    0  0.17641510453E-01  0.11497099929E-01  0.10125109645E-01  0.23365017509E-01  0.00000000000E+00 0. -1.
     999901    1    3    3    0    0  0.12894254988E-01  0.11121801839E+00 -0.45214537997E-01  0.88824549752E+00  0.88000000000E+00 0.  1.
        -11    1    4    4    0    0 -0.25135841249E-01 -0.67394620101E-01  0.17696933479E-01  0.74076230394E-01  0.51100000000E-03 0.  1.
         11    1    4    4    0    0 -0.53999241922E-02 -0.55320498218E-01  0.17392494873E-01  0.58243254573E-01  0.51100000000E-03 0. -1.
</event>
<event>
 8    1  0.1131376E+005  0.1043930E+01  0.7957747E-01            NaN
         13   -1    0    0    0    0  0.00000000000E+00  0.00000000000E+00  0.74505805969E-08  0.10566000000E+00  0.10566000000E+00 0. -1.
     999900   -1    0    0    0    0 -0.00000000000E+00 -0.00000000000E+00 -0.74505805969E-08  0.93827000000E+00  0.93827000000E+00 0.  1.
     999902    2    1    2    0    0  0.12423209248E-02  0.11957505898E-01  0.21466936798E-01  0.10193260433E+01  0.10190290614E+01 0.  0.
     999903    2    3    3    0    0  0.96618897915E-01  0.90210679101E-02 -0.81339737698E-01  0.12821744925E+00  0.20173504010E-01 0.  0.
         14    1    1    2    0    0 -0.12423209248E-02 -0.11957505898E-01 -0.21466936798E-01  0.24603956675E-01  0.00000000000E+00 0.  1.
     999901    1    3    3    0    0 -0.95376576990E-01  0.29364379877E-02  0.10280667450E+00  0.89110859407E+00  0.88000000000E+00 0. -1.
        -11    1    4    4    0    0  0.87297059136E-01  0.14130083417E-01 -0.71496260700E-01  0.11372076418E+00  0.51100000000E-03 0.  1.
         11    1    4    4    0    0  0.93218387785E-02 -0.51090155067E-02 -0.98434769979E-02  0.14496685072E-01  0.51100000000E-03 0. -1.
</event>
<event>
 8    1  0.1131376E+005  0.1043930E+01  0.7957747E-01            NaN
         13   -1    0    0    0    0  0.00000000000E+00  0.00000000000E+00  0.74505805969E-08  0.10566000000E+00  0.10566000000E+00 0. -1.
     999900   -1    0    0    0    0 -0.00000000000E+00 -0.00000000000E+00 -0.74505805969E-08  0.93827000000E+00  0.93827000000E+00 0. -1.
     999902    2    1    2    0    0  0.37888753574E-02 -0.20504052195E-01 -0.13980455300E-01  0.10188257202E+01  0.10185163834E+01 0.  0.
     999903    2    3    3    0    0 -0.11030433242E+00  0.60436102079E-01 -0.76219355077E-02  0.12775389404E+00  0.21056955052E-01 0.  0.
         14    1    1    2    0    0 -0.37888753574E-02  0.20504052195E-01  0.13980455300E-01  0.25104279780E-01  0.00000000000E+00 0.  1.
     999901    1    3    3    0    0  0.11409320778E+00 -0.80940154274E-01 -0.63585197919E-02  0.89107182618E+00  0.88000000000E+00 0.  1.
        -11    1    4    4    0    0 -0.48437640960E-01  0.37403115432E-01 -0.81081706381E-02  0.61734930614E-01  0.51100000000E-03 0.  1.
         11    1    4    4    0    0 -0.61866691463E-01  0.23032986647E-01  0.48623513036E-03  0.66018963427E-01  0.51100000000E-03 0. -1.
</event>
<event>
 8    1  0.1131376E+005  0.1043930E+01  0.7957747E-01            NaN
         13   -1    0    0    0    0  0.00000000000E+00  0.00000000000E+00  0.74505805969E-08  0.10566000000E+00  0.10566000000E+00 0.  1.
     999900   -1    0    0    0    0 -0.00000000000E+00 -0.00000000000E+00 -0.74505805969E-08  0.93827000000E+00  0.93827000000E+00 0. -1.
     999902    2    1    2    0    0 -0.16320806572E-02 -0.14838483995E-01  0.18815332011E-01  0.10199120689E+01  0.10196292303E+01 0.  0.
     999903    2    3    3    0    0  0.12784073279E+00  0.10012347080E-01  0.62052114719E-02  0.13000208001E+00  0.20458154901E-01 0.  0.
         14    1    1    2    0    0  0.16320806572E-02  0.14838483995E-01 -0.18815332011E-01  0.24017931077E-01  0.00000000000E+00 0. -1.
     999901    1    3    3    0    0 -0.12947281345E+00 -0.24850831075E-01  0.12610120539E-01  0.88990998891E+00  0.88000000000E+00 0. -1.
        -11    1    4    4    0    0  0.37869134790E-01  0.12043624532E-01  0.44411863772E-02  0.39988817425E-01  0.51100000000E-03 0.  1.
         11    1    4    4    0    0  0.89971598005E-01 -0.20312774527E-02  0.17640250947E-02  0.90013262585E-01  0.51100000000E-03 0. -1.
</event>
<event>
 8    1  0.1131376E+005  0.1043930E+01  0.7957747E-01            NaN
         13   -1    0    0    0    0  0.00000000000E+00  0.00000000000E+00  0.74505805969E-08  0.10566000000E+00  0.10566000000E+00 0.  1.
     999900   -1    0    0    0    0 -0.00000000000E+00 -0.00000000000E+00 -0.74505805969E-08  0.93827000000E+00  0.93827000000E+00 0.  1.
     999902    2    1    2    0    0 -0.26835992498E-02 -0.13375278764E-01 -0.14879232468E-01  0.10237435851E+01  0.10235445455E+01 0.  0.
     999903    2    3    3    0    0 -0.99820247705E-01  0.39131040882E-01 -0.78728921489E-01  0.13454775468E+00  0.20236971088E-01 0.  0.
         14    1    1    2    0    0  0.26835992498E-02  0.13375278764E-01  0.14879232468E-01  0.20186414882E-01  0.00000000000E+00 0.  1.
     999901    1    3    3    0    0  0.97136648455E-01 -0.52506319646E-01  0.63849689021E-01  0.88919583044E+00  0.88000000000E+00 0. -1.
        -11    1    4    4    0    0 -0.69716723059E-01  0.33345584216E-01 -0.47129558286E-01  0.90519643426E-01  0.51100000000E-03 0. -1.
         11    1    4    4    0    0 -0.30103524646E-01  0.57854566665E-02 -0.31599363203E-01  0.44028111257E-01  0.51100000000E-03 0.  1.
</event>
<event>
 8    1  0.1131376E+005  0.1043930E+01  0.7957747E-01            NaN
         13   -1    0    0    0    0  0.00000000000E+00  0.00000000000E+00  0.74505805969E-08  0.10566000000E+00  0.10566000000E+00 0.  1.
     999900   -1    0    0    0    0 -0.00000000000E+00 -0.00000000000E+00 -0.74505805969E-08  0.93827000000E+00  0.93827000000E+00 0.  1.
     999902    2    1    2    0    0 -0.18024035793E-01  0.10223105583E-01  0.11863332675E-01  0.10200528893E+01  0.10197733967E+01 0.  0.
     999903    2    3    3    0    0  0.63021057307E-02 -0.12393511037E+00 -0.26948822837E-01  0.12870751768E+00  0.20970406201E-01 0.  0.
         14    1    1    2    0    0  0.18024035793E-01 -0.10223105583E-01 -0.11863332675E-01  0.23877110716E-01  0.00000000000E+00 0. -1.
     999901    1    3    3    0    0 -0.24326141523E-01  0.13415821595E+00  0.38812155512E-01  0.89134537161E+00  0.88000000000E+00 0. -1.
        -11    1    4    4    0    0  0.40115625309E-03 -0.47531714635E-01 -0.18748801200E-03  0.47536523803E-01  0.51100000000E-03 0. -1.
         11    1    4    4    0    0  0.59009494776E-02 -0.76403395731E-01 -0.26761334825E-01  0.81170993875E-01  0.51100000000E-03 0.  1.
</event>
<event>
 8    1  0.1131376E+005  0.1043930E+01  0.7957747E-01            NaN
         13   -1    0    0    0    0  0.00000000000E+00  0.00000000000E+00  0.74505805969E-08  0.10566000000E+00  0.10566000000E+00 0. -1.
     999900   -1    0    0    0    0 -0.00000000000E+00 -0.00000000000E+00 -0.74505805969E-08  0.93827000000E+00  0.93827000000E+00 0. -1.
     999902    2    1    2    0    0 -0.15823375794E-01 -0.66402621294E-02  0.14642547126E-02  0.10267074466E+01  0.10265629862E+01 0.  0.
     999903    2    3    3    0    0  0.73700339558E-01  0.52270046339E-01  0.98079661157E-01  0.13495666485E+00  0.20731224238E-01 0.  0.
         14    1    1    2    0    0  0.15823375794E-01  0.66402621294E-02 -0.14642547126E-02  0.17222553368E-01  0.00000000000E+00 0.  1.
     999901    1    3    3    0    0 -0.89523715352E-01 -0.58910308468E-01 -0.96615406444E-01  0.89175078179E+00  0.88000000000E+00 0. -1.
        -11    1    4    4    0    0  0.85733176676E-02  0.14936074218E-01  0.13668266093E-01  0.21992514814E-01  0.51100000000E-03 0.  1.
         11    1    4    4    0    0  0.65127021890E-01  0.37333972121E-01  0.84411395064E-01  0.11296415003E+00  0.51100000000E-03 0. -1.
</event>
<event>
 8    1  0.1131376E+005  0.1043930E+01  0.7957747E-01            NaN
         13   -1    0    0    0    0  0.00000000000E+00  0.00000000000E+00  0.74505805969E-08  0.10566000000E+00  0.10566000000E+00 0.  1.
     999900   -1    0    0    0    0 -0.00000000000E+00 -0.00000000000E+00 -0.74505805969E-08  0.93827000000E+00  0.93827000000E+00 0. -1.
     999902    2    1    2    0    0  0.22744263015E-01 -0.39893071786E-02  0.18950151400E-02  0.10207609009E+01  0.10204979224E+01 0.  0.
     999903    2    3    3    0    0  0.63475845637E-01 -0.10269304442E+00 -0.52056111752E-01  0.13266619103E+00  0.17760493211E-01 0.  0.
         14    1    1    2    0    0 -0.22744263015E-01  0.39893071786E-02 -0.18950151400E-02  0.23169099124E-01  0.00000000000E+00 0. -1.
     999901    1    3    3    0    0 -0.40731582622E-01  0.98703737243E-01  0.53951126892E-01  0.88809470985E+00  0.88000000000E+00 0.  1.
        -11    1    4    4    0    0  0.74727318749E-02 -0.25909031079E-01 -0.10574978499E-01  0.28969137101E-01  0.51100000000E-03 0. -1.
         11    1    4    4    0    0  0.56003113762E-01 -0.76784013342E-01 -0.41481133253E-01  0.10369705393E+00  0.51100000000E-03 0.  1.
</event>
<event>
 8    1  0.1131376E+005  0.1043930E+01  0.7957747E-01            NaN
         13   -1    0    0    0    0  0.00000000000E+00  0.00000000000E+00  0.74505805969E-08  0.10566000000E+00  0.10566000000E+00 0.  1.
     999900   -1    0    0    0    0 -0.00000000000E+00 -0.00000000000E+00 -0.74505805969E-08  0.93827000000E+00  0.93827000000E+00 0.  1.
     999902    2    1    2    0    0 -0.14530775519E-01 -0.38505113460E-02  0.23006797699E-01  0.10164475944E+01  0.10160759960E+01 0.  0.
     999903    2    3    3    0    0 -0.11510694373E+00  0.34995923422E-01 -0.39927684787E-01  0.12763638829E+00  0.14916583123E-01 0.  0.
         14    1    1    2    0    0  0.14530775519E-01  0.38505113460E-02 -0.23006797699E-01  0.27482405557E-01  0.00000000000E+00 0. -1.
     999901    1    3    3    0    0  0.10057616821E+00 -0.38846434768E-01  0.62934482486E-01  0.88881120616E+00  0.88000000000E+00 0.  1.
        -11    1    4    4    0    0 -0.54944438695E-01  0.22578089187E-01 -0.24764219915E-01  0.64359841235E-01  0.51100000000E-03 0. -1.
         11    1    4    4    0    0 -0.60162505031E-01  0.12417834235E-01 -0.15163464872E-01  0.63276547050E-01  0.51100000000E-03 0.  1.
</event>
<event>
 8    1  0.1131376E+005  0.1043930E+01  0.7957747E-01            NaN
         13   -1    0    0    0    0  0.00000000000E+00  0.00000000000E+00  0.74505805969E-08  0.10566000000E+00  0.10566000000E+00 0.  1.
     999900   -1    0    0    0    0 -0.00000000000E+00 -0.00000000000E+00 -0.74505805969E-08  0.93827000000E+00  0.93827000000E+00 0. -1.
     999902    2    1    2    0    0 -0.49286710950E-02  0.18978908704E-01 -0.14664017205E-01  0.10194448172E+01  0.10191507304E+01 0.  0.
     999903    2    3    3    0    0 -0.27988896801E-01  0.67653501645E-01 -0.10892490578E+00  0.13277345471E+00  0.20094291398E-01 0.  0.
         14    1    1    2    0    0  0.49286710950E-02 -0.18978908704E-01  0.14664017205E-01  0.24485182763E-01  0.00000000000E+00 0.  1.
     999901    1    3    3    0    0  0.23060225706E-01 -0.48674592942E-01  0.94260888580E-01  0.88667136253E+00  0.88000000000E+00 0.  1.
        -11    1    4    4    0    0 -0.86865038475E-02  0.49296407077E-02 -0.18673374276E-01  0.21182840566E-01  0.51100000000E-03 0.  1.
         11    1    4    4    0    0 -0.19302392953E-01  0.62723860937E-01 -0.90251531509E-01  0.11159061415E+00  0.51100000000E-03 0. -1.
</event>
<event>
 8    1  0.1131376E+005  0.1043930E+01  0.7957747E-01            NaN
         13   -1    0    0    0    0  0.00000000000E+00  0.00000000000E+00  0.74505805969E-08  0.10566000000E+00  0.10566000000E+00 0. -1.
     999900   -1    0    0    0    0 -0.00000000000E+00 -0.00000000000E+00 -0.74505805969E-08  0.93827000000E+00  0.93827000000E+00 0. -1.
     999902    2    1    2    0    0  0.13966473609E-01  0.16074465088E-01 -0.10378844611E-01  0.10202409471E+01  0.10199658910E+01 0.  0.
     999903    2    3    3    0    0  0.28755930205E-01  0.48184468861E-01  0.11603615216E+00  0.13050473236E+00  0.20456050401E-01 0.  0.
         14    1    1    2    0    0 -0.13966473609E-01 -0.16074465088E-01  0.10378844611E-01  0.23689052923E-01  0.00000000000E+00 0. -1.
     999901    1    3    3    0    0 -0.14789456596E-01 -0.32110003773E-01 -0.12641499678E+00  0.88973621472E+00  0.88000000000E+00 0. -1.
        -11    1    4    4    0    0  0.17932050193E-01  0.18736235618E-01  0.34686086385E-01  0.43312707823E-01  0.51100000000E-03 0.  1.
         11    1    4    4    0    0  0.10823880012E-01  0.29448233243E-01  0.81350065779E-01  0.87192024537E-01  0.51100000000E-03 0. -1.
</event>
<event>
 8    1  0.1131376E+005  0.1043930E+01  0.7957747E-01            NaN
         13   -1    0    0    0    0  0.00000000000E+00  0.00000000000E+00  0.74505805969E-08  0.10566000000E+00  0.10566000000E+00 0. -1.
     999900   -1    0    0    0    0 -0.00000000000E+00 -0.00000000000E+00 -0.74505805969E-08  0.93827000000E+00  0.93827000000E+00 0.  1.
     999902    2    1    2    0    0  0.20356929958E-01  0.50989393161E-02 -0.10713728678E-01  0.10203675773E+01  0.10200954882E+01 0.  0.
     999903    2    3    3    0    0  0.35412251597E-01  0.10077408047E+00 -0.75858161418E-01  0.13266031001E+00  0.20853161442E-01 0.  0.
         14    1    1    2    0    0 -0.20356929958E-01 -0.50989393161E-02  0.10713728678E-01  0.23562422661E-01  0.00000000000E+00 0. -1.
     999901    1    3    3    0    0 -0.15055321640E-01 -0.95675141152E-01  0.65144432740E-01  0.88770726732E+00  0.88000000000E+00 0.  1.
        -11    1    4    4    0    0  0.19537202570E-01  0.44256945522E-01 -0.46164024175E-01  0.66871202772E-01  0.51100000000E-03 0.  1.
         11    1    4    4    0    0  0.15875049028E-01  0.56517134946E-01 -0.29694137243E-01  0.65789107243E-01  0.51100000000E-03 0. -1.
</event>
<event>
 8    1  0.1131376E+005  0.1043930E+01  0.7957747E-01            NaN
         13   -1    0    0    0    0  0.00000000000E+00  0.00000000000E+00  0.74505805969E-08  0.10566000000E+00  0.10566000000E+00 0.  1.
     999900   -1    0    0    0    0 -0.00000000000E+00 -0.00000000000E+00 -0.74505805969E-08  0.93827000000E+00  0.93827000000E+00 0.  1.
     999902    2    1    2    0    0 -0.78119984342E-02 -0.23972815840E-02 -0.22399261209E-01  0.10200867372E+01  0.10198080458E+01 0.  0.
     999903    2    3    3    0    0  0.35479182142E-01 -0.73743374616E-01 -0.10215796309E+00  0.13254753139E+00  0.20874409919E-01 0.  0.
         14    1    1    2    0    0  0.78119984342E-02  0.23972815840E-02  0.22399261209E-01  0.23843262806E-01  0.00000000000E+00 0.  1.
     999901    1    3    3    0    0 -0.43291180576E-01  0.71346093032E-01  0.79758701885E-01  0.88753920580E+00  0.88000000000E+00 0. -1.
        -11    1    4    4    0    0  0.36085392690E-01 -0.56285082947E-01 -0.78074987459E-01  0.10279168700E+00  0.51100000000E-03 0. -1.
         11    1    4    4    0    0 -0.60621054872E-03 -0.17458291669E-01 -0.24082975636E-01  0.29755844396E-01  0.51100000000E-03 0.  1.
</event>
<event>
 8    1  0.1131376E+005  0.1043930E+01  0.7957747E-01            NaN
         13   -1    0    0    0    0  0.00000000000E+00  0.00000000000E+00  0.74505805969E-08  0.10566000000E+00  0.10566000000E+00 0. -1.
     999900   -1    0    0    0    0 -0.00000000000E+00 -0.00000000000E+00 -0.74505805969E-08  0.93827000000E+00  0.93827000000E+00 0. -1.
     999902    2    1    2    0    0 -0.12955276882E-01  0.10672094888E-01  0.16404384511E-01  0.10204600908E+01  0.10201901588E+01 0.  0.
     999903    2    3    3    0    0  0.99661912373E-01  0.12560457756E-01 -0.77250442442E-01  0.12835167592E+00  0.20402450247E-01 0.  0.
         14    1    1    2    0    0  0.12955276882E-01 -0.10672094888E-01 -0.16404384511E-01  0.23469909236E-01  0.00000000000E+00 0.  1.
     999901    1    3    3    0    0 -0.11261718925E+00 -0.18883628689E-02  0.93654826953E-01  0.89210841485E+00  0.88000000000E+00 0. -1.
        -11    1    4    4    0    0  0.16697623613E-01  0.99942392346E-02 -0.13491537719E-01  0.23684977585E-01  0.51100000000E-03 0. -1.
         11    1    4    4    0    0  0.82964288761E-01  0.25662185218E-02 -0.63758904723E-01  0.10466669833E+00  0.51100000000E-03 0.  1.
</event>
<event>
 8    1  0.1131376E+005  0.1043930E+01  0.7957747E-01            NaN
         13   -1    0    0    0    0  0.00000000000E+00  0.00000000000E+00  0.74505805969E-08  0.10566000000E+00  0.10566000000E+00 0.  1.
     999900   -1    0    0    0    0 -0.00000000000E+00 -0.00000000000E+00 -0.74505805969E-08  0.93827000000E+00  0.93827000000E+00 0. -1.
     999902    2    1    2    0    0  0.12774617871E-01  0.12046029749E-01  0.15915429572E-01  0.10202319285E+01  0.10199566605E+01 0.  0.
     999903    2    3    3    0    0  0.60389225362E-03  0.98623809124E-01 -0.83454105656E-01  0.13033410123E+00  0.17186325404E-01 0.  0.
         14    1    1    2    0    0 -0.12774617871E-01 -0.12046029749E-01 -0.15915429572E-01  0.23698071502E-01  0.00000000000E+00 0. -1.
     999901    1    3    3    0    0  0.12170725617E-01 -0.86577779374E-01  0.99369535228E-01  0.88989782727E+00  0.88000000000E+00 0. -1.
        -11    1    4    4    0    0 -0.88544628404E-03  0.82313788751E-01 -0.60633493316E-01  0.10224003847E+00  0.51100000000E-03 0.  1.
         11    1    4    4    0    0  0.14893385377E-02  0.16310020372E-01 -0.22820612339E-01  0.28094062760E-01  0.51100000000E-03 0. -1.
</event>
<event>
 8    1  0.1131376E+005  0.1043930E+01  0.7957747E-01            NaN
         13   -1    0    0    0    0  0.00000000000E+00  0.00000000000E+00  0.74505805969E-08  0.10566000000E+00  0.10566000000E+00 0.  1.
     999900   -1    0    0    0    0 -0.00000000000E+00 -0.00000000000E+00 -0.74505805969E-08  0.93827000000E+00  0.93827000000E+00 0. -1.
     999902    2    1    2    0    0  0.97271435729E-02 -0.97746206548E-02  0.90781362889E-02  0.10274202123E+01  0.10272875545E+01 0.  0.
     999903    2    3    3    0    0 -0.30498693971E-02  0.48377394455E-01  0.12721043472E+00  0.13753249532E+00  0.19570860234E-01 0.  0.
         14    1    1    2    0    0 -0.97271435729E-02  0.97746206548E-02 -0.90781362889E-02  0.16509787688E-01  0.00000000000E+00 0. -1.
     999901    1    3    3    0    0  0.12777012970E-01 -0.58152015109E-01 -0.11813229843E+00  0.88988771699E+00  0.88000000000E+00 0. -1.
        -11    1    4    4    0    0 -0.10629584456E-01  0.36132887591E-01  0.86441730585E-01  0.94292139327E-01  0.51100000000E-03 0.  1.
         11    1    4    4    0    0  0.75797150594E-02  0.12244506863E-01  0.40768704132E-01  0.43240355992E-01  0.51100000000E-03 0. -1.
</event>
<event>
 8    1  0.1131376E+005  0.1043930E+01  0.7957747E-01            NaN
         13   -1    0    0    0    0  0.00000000000E+00  0.00000000000E+00  0.74505805969E-08  0.10566000000E+00  0.10566000000E+00 0. -1.
     999900   -1    0    0    0    0 -0.00000000000E+00 -0.00000000000E+00 -0.74505805969E-08  0.93827000000E+00  0.93827000000E+00 0.  1.
     999902    2    1    2    0    0  0.17184432114E-01 -0.30013893457E-02 -0.15032993045E-01  0.10209016713E+01  0.10206419149E+01 0.  0.
     999903    2    3    3    0    0  0.11034547228E+00  0.15908955671E-01 -0.71317732199E-01  0.13399437485E+00  0.20953649818E-01 0.  0.
         14    1    1    2    0    0 -0.17184432114E-01  0.30013893457E-02  0.15032993045E-01  0.23028328749E-01  0.00000000000E+00 0. -1.
     999901    1    3    3    0    0 -0.93161040169E-01 -0.18910345017E-01  0.56284739154E-01  0.88690729640E+00  0.88000000000E+00 0. -1.
        -11    1    4    4    0    0  0.74764062314E-01  0.17768832770E-01 -0.56593854384E-01  0.95438576617E-01  0.51100000000E-03 0. -1.
         11    1    4    4    0    0  0.35581409969E-01 -0.18598770988E-02 -0.14723877815E-01  0.38555798229E-01  0.51100000000E-03 0.  1.
</event>
<event>
 8    1  0.1131376E+005  0.1043930E+01  0.7957747E-01            NaN
         13   -1    0    0    0    0  0.00000000000E+00  0.00000000000E+00  0.74505805969E-08  0.10566000000E+00  0.10566000000E+00 0.  1.
     999900   -1    0    0    0    0 -0.00000000000E+00 -0.00000000000E+00 -0.74505805969E-08  0.93827000000E+00  0.93827000000E+00 0.  1.
     999902    2    1    2    0    0  0.10424711604E-01 -0.55998691987E-02 -0.20199444031E-01  0.10205195176E+01  0.10202509667E+01 0.  0.
     999903    2    3    3    0    0  0.21850130005E-01 -0.11593839520E+00  0.52770841926E-01  0.13055896053E+00  0.18486231444E-01 0.  0.
         14    1    1    2    0    0 -0.10424711604E-01  0.55998691987E-02  0.20199444031E-01  0.23410482401E-01  0.00000000000E+00 0.  1.
     999901    1    3    3    0    0 -0.11425418401E-01  0.11033852601E+00 -0.72970285957E-01  0.88996055707E+00  0.88000000000E+00 0.  1.
        -11    1    4    4    0    0  0.24949355687E-01 -0.94176789887E-01  0.42594205285E-01  0.10633092470E+00  0.51100000000E-03 0.  1.
         11    1    4    4    0    0 -0.30992256819E-02 -0.21761605318E-01  0.10176636641E-01  0.24228035830E-01  0.51100000000E-03 0. -1.
</event>
<event>
 8    1  0.1131376E+005  0.1043930E+01  0.7957747E-01            NaN
         13   -1    0    0    0    0  0.00000000000E+00  0.00000000000E+00  0.74505805969E-08  0.10566000000E+00  0.10566000000E+00 0. -1.
     999900   -1    0    0    0    0 -0.00000000000E+00 -0.00000000000E+00 -0.74505805969E-08  0.93827000000E+00  0.93827000000E+00 0.  1.
     999902    2    1    2    0    0 -0.68569298826E-02 -0.10350496399E-02  0.23226185567E-01  0.10196906825E+01  0.10194025424E+01 0.  0.
     999903    2    3    3    0    0 -0.68008489769E-01 -0.48977947249E-01  0.10135896062E+00  0.13281821975E+00  0.18521517253E-01 0.  0.
         14    1    1    2    0    0  0.68569298826E-02  0.10350496399E-02 -0.23226185567E-01  0.24239317465E-01  0.00000000000E+00 0.  1.
     999901    1    3    3    0    0  0.61151559887E-01  0.47942897609E-01 -0.78132775056E-01  0.88687246278E+00  0.88000000000E+00 0.  1.
        -11    1    4    4    0    0 -0.48535633852E-01 -0.38512868341E-01  0.85568004947E-01  0.10564607599E+00  0.51100000000E-03 0. -1.
         11    1    4    4    0    0 -0.19472855917E-01 -0.10465078908E-01  0.15790955677E-01  0.27172143756E-01  0.51100000000E-03 0.  1.
</event>
<event>
 8    1  0.1131376E+005  0.1043930E+01  0.7957747E-01            NaN
         13   -1    0    0    0    0  0.00000000000E+00  0.00000000000E+00  0.74505805969E-08  0.10566000000E+00  0.10566000000E+00 0.  1.
     999900   -1    0    0    0    0 -0.00000000000E+00 -0.00000000000E+00 -0.74505805969E-08  0.93827000000E+00  0.93827000000E+00 0.  1.
     999902    2    1    2    0    0 -0.36492479807E-02  0.16541173612E-01 -0.16667048039E-01  0.10201662056E+01  0.10198893906E+01 0.  0.
     999903    2    3    3    0    0  0.50955851405E-01  0.36718824359E-01  0.11097075759E+00  0.12905439222E+00  0.19893623521E-01 0.  0.
         14    1    1    2    0    0  0.36492479807E-02 -0.16541173612E-01  0.16667048039E-01  0.23763794428E-01  0.00000000000E+00 0.  1.
     999901    1    3    3    0    0 -0.54605099386E-01 -0.20177650748E-01 -0.12763780563E+00  0.89111181335E+00  0.88000000000E+00 0. -1.
        -11    1    4    4    0    0  0.26294910671E-01  0.69163581059E-02  0.46363620343E-01  0.53750393012E-01  0.51100000000E-03 0. -1.
         11    1    4    4    0    0  0.24660940734E-01  0.29802466254E-01  0.64607137246E-01  0.75303999209E-01  0.51100000000E-03 0.  1.
</event>
<event>
 8    1  0.1131376E+005  0.1043930E+01  0.7957747E-01            NaN
         13   -1    0    0    0    0  0.00000000000E+00  0.00000000000E+00  0.74505805969E-08  0.10566000000E+00  0.10566000000E+00 0. -1.
     999900   -1    0    0    0    0 -0.00000000000E+00 -0.00000000000E+00 -0.74505805969E-08  0.93827000000E+00  0.93827000000E+00 0. -1.
     999902    2    1    2    0    0  0.17141651774E-01 -0.13420325511E-01  0.10223328366E-01  0.10198788502E+01  0.10195952194E+01 0.  0.
     999903    2    3    3    0    0 -0.86156835167E-02  0.70145976485E-01 -0.10513479599E+00  0.12805248596E+00  0.18692934836E-01 0.  0.
         14    1    1    2    0    0 -0.17141651774E-01  0.13420325511E-01 -0.10223328366E-01  0.24051149770E-01  0.00000000000E+00 0.  1.
     999901    1    3    3    0    0  0.25757335291E-01 -0.83566301996E-01  0.11535812436E+00  0.89182636427E+00  0.88000000000E+00 0.  1.
        -11    1    4    4    0    0  0.31590515784E-02  0.23139447323E-01 -0.46047010278E-01  0.51633341029E-01  0.51100000000E-03 0. -1.
         11    1    4    4    0    0 -0.11774735095E-01  0.47006529162E-01 -0.59087785715E-01  0.76419144932E-01  0.51100000000E-03 0.  1.
</event>
<event>
 8    1  0.1131376E+005  0.1043930E+01  0.7957747E-01            NaN
         13   -1    0    0    0    0  0.00000000000E+00  0.00000000000E+00  0.74505805969E-08  0.10566000000E+00  0.10566000000E+00 0.  1.
     999900   -1    0    0    0    0 -0.00000000000E+00 -0.00000000000E+00 -0.74505805969E-08  0.93827000000E+00  0.93827000000E+00 0. -1.
     999902    2    1    2    0    0  0.16905810182E-01  0.15860013948E-01 -0.49871194676E-02  0.10202188672E+01  0.10199432921E+01 0.  0.
     999903    2    3    3    0    0  0.42578346673E-01 -0.95982610342E-01 -0.74127208047E-01  0.13007943786E+00  0.20006001267E-01 0.  0.
         14    1    1    2    0    0 -0.16905810182E-01 -0.15860013948E-01  0.49871194676E-02  0.23711132848E-01  0.00000000000E+00 0. -1.
     999901    1    3    3    0    0 -0.25672536491E-01  0.11184262429E+00  0.69140088579E-01  0.89013942930E+00  0.88000000000E+00 0.  1.
        -11    1    4    4    0    0  0.33530851750E-01 -0.88661019211E-01 -0.62021695398E-01  0.11327862185E+00  0.51100000000E-03 0. -1.
         11    1    4    4    0    0  0.90474949231E-02 -0.73215911312E-02 -0.12105512648E-01  0.16800816009E-01  0.51100000000E-03 0.  1.
</event>
<event>
 8    1  0.1131376E+005  0.1043930E+01  0.7957747E-01            NaN
         13   -1    0    0    0    0  0.00000000000E+00  0.00000000000E+00  0.74505805969E-08  0.10566000000E+00  0.10566000000E+00 0.  1.
     999900   -1    0    0    0    0 -0.00000000000E+00 -0.00000000000E+00 -0.74505805969E-08  0.93827000000E+00  0.93827000000E+00 0.  1.
     999902    2    1    2    0    0  0.12982770885E-01  0.57233650220E-02 -0.17886820657E-01  0.10210991524E+01  0.10208438820E+01 0.  0.
     999903    2    3    3    0    0  0.12404706122E+00 -0.36168373546E-01 -0.25147307273E-01  0.13309976674E+00  0.19680858697E-01 0.  0.
         14    1    1    2    0    0 -0.12982770885E-01 -0.57233650220E-02  0.17886820657E-01  0.22830847559E-01  0.00000000000E+00 0.  1.
     999901    1    3    3    0    0 -0.11106429034E+00  0.41891738567E-01  0.72604866151E-02  0.88799938571E+00  0.88000000000E+00 0. -1.
        -11    1    4    4    0    0  0.87026883364E-01 -0.23046189731E-01 -0.84701201180E-02  0.90425711748E-01  0.51100000000E-03 0. -1.
         11    1    4    4    0    0  0.37020177858E-01 -0.13122183814E-01 -0.16677187155E-01  0.42674054988E-01  0.51100000000E-03 0.  1.
</event>
<event>
 8    1  0.1131376E+005  0.1043930E+01  0.7957747E-01            NaN
         13   -1    0    0    0    0  0.00000000000E+00  0.00000000000E+00  0.74505805969E-08  0.10566000000E+00  0.10566000000E+00 0. -1.
     999900   -1    0    0    0    0 -0.00000000000E+00 -0.00000000000E+00 -0.74505805969E-08  0.93827000000E+00  0.93827000000E+00 0. -1.
     999902    2    1    2    0    0 -0.39221031564E-02  0.14432656925E-01 -0.17160170938E-01  0.10211669610E+01  0.10209132217E+01 0.  0.
     999903    2    3    3    0    0  0.23442223979E-01  0.56820005330E-01  0.11295712250E+00  0.13016976471E+00  0.20169413718E-01 0.  0.
         14    1    1    2    0    0  0.39221031564E-02 -0.14432656925E-01  0.17160170938E-01  0.22763039027E-01  0.00000000000E+00 0. -1.
     999901    1    3    3    0    0 -0.27364327136E-01 -0.42387348404E-01 -0.13011729344E+00  0.89099719627E+00  0.88000000000E+00 0. -1.
        -11    1    4    4    0    0  0.23075118970E-01  0.33755281952E-01  0.62517654880E-01  0.74703403322E-01  0.51100000000E-03 0.  1.
         11    1    4    4    0    0  0.36710500896E-03  0.23064723378E-01  0.50439467619E-01  0.55466361385E-01  0.51100000000E-03 0. -1.
</event>
<event>
 8    1  0.1131376E+005  0.1043930E+01  0.7957747E-01            NaN
         13   -1    0    0    0    0  0.00000000000E+00  0.00000000000E+00  0.74505805969E-08  0.10566000000E+00  0.10566000000E+00 0.  1.
     999900   -1    0    0    0    0 -0.00000000000E+00 -0.00000000000E+00 -0.74505805969E-08  0.93827000000E+00  0.93827000000E+00 0.  1.
     999902    2    1    2    0    0  0.11068748750E-01 -0.15503850585E-01 -0.13311813887E-01  0.10206901426E+01  0.10204255369E+01 0.  0.
     999903    2    3    3    0    0  0.88499689659E-01  0.84227802537E-01 -0.43305859508E-01  0.13117252278E+00  0.20107597433E-01 0.  0.
         14    1    1    2    0    0 -0.11068748750E-01  0.15503850585E-01  0.13311813887E-01  0.23239857375E-01  0.00000000000E+00 0.  1.
     999901    1    3    3    0    0 -0.77430940909E-01 -0.99731653122E-01  0.29994045620E-01  0.88951761985E+00  0.88000000000E+00 0.  1.
        -11    1    4    4    0    0  0.55324971762E-01  0.63496084769E-01 -0.24161728234E-01  0.87616525345E-01  0.51100000000E-03 0. -1.
         11    1    4    4    0    0  0.33174717897E-01  0.20731717768E-01 -0.19144131273E-01  0.43555997433E-01  0.51100000000E-03 0.  1.
</event>
<event>
 8    1  0.1131376E+005  0.1043930E+01  0.7957747E-01            NaN
         13   -1    0    0    0    0  0.00000000000E+00  0.00000000000E+00  0.74505805969E-08  0.10566000000E+00  0.10566000000E+00 0.  1.
     999900   -1    0    0    0    0 -0.00000000000E+00 -0.00000000000E+00 -0.74505805969E-08  0.93827000000E+00  0.93827000000E+00 0.  1.
     999902    2    1    2    0    0  0.13965463883E-01 -0.20557599251E-01 -0.19691853119E-02  0.10189995616E+01  0.10186945468E+01 0.  0.
     999903    2    3    3    0    0 -0.40112029165E-01 -0.55756322021E-01 -0.10883719353E+00  0.13018906631E+00  0.19644743920E-01 0.  0.
         14    1    1    2    0    0 -0.13965463883E-01  0.20557599251E-01  0.19691853119E-02  0.24930438408E-01  0.00000000000E+00 0. -1.
     999901    1    3    3    0    0  0.54077493049E-01  0.35198722770E-01  0.10686800821E+00  0.88881049528E+00  0.88000000000E+00 0. -1.
        -11    1    4    4    0    0 -0.15129171039E-01 -0.70563459341E-02 -0.25824291068E-01  0.30754495028E-01  0.51100000000E-03 0. -1.
         11    1    4    4    0    0 -0.24982858126E-01 -0.48699976087E-01 -0.83012902458E-01  0.99434571284E-01  0.51100000000E-03 0.  1.
</event>
<event>
 8    1  0.1131376E+005  0.1043930E+01  0.7957747E-01            NaN
         13   -1    0    0    0    0  0.00000000000E+00  0.00000000000E+00  0.74505805969E-08  0.10566000000E+00  0.10566000000E+00 0. -1.
     999900   -1    0    0    0    0 -0.00000000000E+00 -0.00000000000E+00 -0.74505805969E-08  0.93827000000E+00  0.93827000000E+00 0.  1.
     999902    2    1    2    0    0  0.11472645819E-01 -0.91706883671E-02  0.18839318812E-01  0.10200418636E+01  0.10197621097E+01 0.  0.
     999903    2    3    3    0    0 -0.71152947607E-02 -0.12020820432E+00  0.48945151798E-01  0.13235881056E+00  0.24951694205E-01 0.  0.
         14    1    1    2    0    0 -0.11472645819E-01  0.91706883671E-02 -0.18839318812E-01  0.23888136397E-01  0.00000000000E+00 0.  1.
     999901    1    3    3    0    0  0.18587940579E-01  0.11103751595E+00 -0.30105832986E-01  0.88768305304E+00  0.88000000000E+00 0. -1.
        -11    1    4    4    0    0 -0.11393354579E-01 -0.67671401109E-01  0.16923221049E-01  0.70681564699E-01  0.51100000000E-03 0. -1.
         11    1    4    4    0    0  0.42780598181E-02 -0.52536803206E-01  0.32021930749E-01  0.61677245860E-01  0.51100000000E-03 0.  1.
</event>
<event>
 8    1  0.1131376E+005  0.1043930E+01  0.7957747E-01            NaN
         13   -1    0    0    0    0  0.00000000000E+00  0.00000000000E+00  0.74505805969E-08  0.10566000000E+00  0.10566000000E+00 0.  1.
     999900   -1    0    0    0    0 -0.00000000000E+00 -0.00000000000E+00 -0.74505805969E-08  0.93827000000E+00  0.93827000000E+00 0. -1.
     999902    2    1    2    0    0  0.21716410993E-01 -0.49273940931E-02 -0.74339687647E-02  0.10204535094E+01  0.10201834243E+01 0.  0.
     999903    2    3    3    0    0  0.80977534254E-02 -0.52258810505E-01 -0.11930569564E+00  0.13200485355E+00  0.19871473624E-01 0.  0.
         14    1    1    2    0    0 -0.21716410993E-01  0.49273940931E-02  0.74339687647E-02  0.23476490593E-01  0.00000000000E+00 0.  1.
     999901    1    3    3    0    0  0.13618657567E-01  0.47331416412E-01  0.11187172687E+00  0.88844865585E+00  0.88000000000E+00 0.  1.
        -11    1    4    4    0    0 -0.18934141975E-02 -0.41038761755E-01 -0.80246555215E-01  0.90152846481E-01  0.51100000000E-03 0. -1.
         11    1    4    4    0    0  0.99911676229E-02 -0.11220048751E-01 -0.39059140424E-01  0.41852007074E-01  0.51100000000E-03 0.  1.
</event>
<event>
 8    1  0.1131376E+005  0.1043930E+01  0.7957747E-01            NaN
         13   -1    0    0    0    0  0.00000000000E+00  0.00000000000E+00  0.74505805969E-08  0.10566000000E+00  0.10566000000E+00 0. -1.
     999900   -1    0    0    0    0 -0.00000000000E+00 -0.00000000000E+00 -0.74505805969E-08  0.93827000000E+00  0.93827000000E+00 0.  1.
     999902    2    1    2    0    0 -0.14868050136E-01  0.30197841296E-02 -0.19740363610E-01  0.10190330129E+01  0.10187288262E+01 0.  0.
     999903    2    3    3    0    0 -0.38077274271E-01 -0.67445892547E-02 -0.12507099585E+00  0.13239410491E+00  0.19750359816E-01 0.  0.
         14    1    1    2    0    0  0.14868050136E-01 -0.30197841296E-02  0.19740363610E-01  0.24896987096E-01  0.00000000000E+00 0. -1.
     999901    1    3    3    0    0  0.23209224135E-01  0.97643733843E-02  0.10533063224E+00  0.88663890799E+00  0.88000000000E+00 0. -1.
        -11    1    4    4    0    0 -0.36869621100E-02  0.52036940067E-03 -0.42312985662E-01  0.42479575687E-01  0.51100000000E-03 0.  1.
         11    1    4    4    0    0 -0.34390312161E-01 -0.72649586554E-02 -0.82758010188E-01  0.89914529227E-01  0.51100000000E-03 0. -1.
</event>
<event>
 8    1  0.1131376E+005  0.1043930E+01  0.7957747E-01            NaN
         13   -1    0    0    0    0  0.00000000000E+00  0.00000000000E+00  0.74505805969E-08  0.10566000000E+00  0.10566000000E+00 0. -1.
     999900   -1    0    0    0    0 -0.00000000000E+00 -0.00000000000E+00 -0.74505805969E-08  0.93827000000E+00  0.93827000000E+00 0. -1.
     999902    2    1    2    0    0  0.16292839932E-01  0.22270500485E-02 -0.17144131316E-01  0.10201742086E+01  0.10198975823E+01 0.  0.
     999903    2    3    3    0    0 -0.89828213859E-01  0.70073344760E-01  0.55416865070E-01  0.12824938222E+00  0.19937237921E-01 0.  0.
         14    1    1    2    0    0 -0.16292839932E-01 -0.22270500485E-02  0.17144131316E-01  0.23755791369E-01  0.00000000000E+00 0. -1.
     999901    1    3    3    0    0  0.10612105379E+00 -0.67846294711E-01 -0.72560996386E-01  0.89192482641E+00  0.88000000000E+00 0. -1.
        -11    1    4    4    0    0 -0.20628399866E-01  0.21514097257E-01  0.62701289696E-02  0.30462483485E-01  0.51100000000E-03 0. -1.
         11    1    4    4    0    0 -0.69199813993E-01  0.48559247503E-01  0.49146736100E-01  0.97786898739E-01  0.51100000000E-03 0.  1.
</event>
<event>
 8    1  0.1131376E+005  0.1043930E+01  0.7957747E-01            NaN
         13   -1    0    0    0    0  0.00000000000E+00  0.00000000000E+00  0.74505805969E-08  0.10566000000E+00  0.10566000000E+00 0. -1.
     999900   -1    0    0    0    0 -0.00000000000E+00 -0.00000000000E+00 -0.74505805969E-08  0.93827000000E+00  0.93827000000E+00 0. -1.
     999902    2    1    2    0    0 -0.82588760533E-02  0.49486580480E-03 -0.22258631202E-01  0.10201834089E+01  0.10199069993E+01 0.  0.
     999903    2    3    3    0    0  0.37450768007E-01  0.34698860133E-01  0.11546785693E+00  0.12764328637E+00  0.18799246060E-01 0.  0.
         14    1    1    2    0    0  0.82588760533E-02 -0.49486580480E-03  0.22258631202E-01  0.23746591099E-01  0.00000000000E+00 0. -1.
     999901    1    3    3    0    0 -0.45709644061E-01 -0.34203994328E-01 -0.13772648814E+00  0.89254012253E+00  0.88000000000E+00 0. -1.
        -11    1    4    4    0    0  0.23069198904E-01  0.32219454315E-01  0.88723154641E-01  0.97171706092E-01  0.51100000000E-03 0.  1.
         11    1    4    4    0    0  0.14381569104E-01  0.24794058174E-02  0.26744702293E-01  0.30471580281E-01  0.51100000000E-03 0. -1.
</event>
<event>
 8    1  0.1131376E+005  0.1043930E+01  0.7957747E-01            NaN
         13   -1    0    0    0    0  0.00000000000E+00  0.00000000000E+00  0.74505805969E-08  0.10566000000E+00  0.10566000000E+00 0. -1.
     999900   -1    0    0    0    0 -0.00000000000E+00 -0.00000000000E+00 -0.74505805969E-08  0.93827000000E+00  0.93827000000E+00 0. -1.
     999902    2    1    2    0    0  0.13586067516E-01 -0.23226857521E-02 -0.19340298753E-01  0.10201808262E+01  0.10199043558E+01 0.  0.
     999903    2    3    3    0    0 -0.10248079099E+00  0.52287727558E-01  0.52168818834E-01  0.12801079377E+00  0.20708903594E-01 0.  0.
         14    1    1    2    0    0 -0.13586067516E-01  0.23226857521E-02  0.19340298753E-01  0.23749173786E-01  0.00000000000E+00 0. -1.
     999901    1    3    3    0    0  0.11606685851E+00 -0.54610413310E-01 -0.71509117587E-01  0.89217003244E+00  0.88000000000E+00 0. -1.
        -11    1    4    4    0    0 -0.40128256515E-01  0.16437766724E-01  0.95502391741E-02  0.44406591122E-01  0.51100000000E-03 0. -1.
         11    1    4    4    0    0 -0.62352534479E-01  0.35849960833E-01  0.42618579660E-01  0.83604202651E-01  0.51100000000E-03 0.  1.
</event>
<event>
 8    1  0.1131376E+005  0.1043930E+01  0.7957747E-01            NaN
         13   -1    0    0    0    0  0.00000000000E+00  0.00000000000E+00  0.74505805969E-08  0.10566000000E+00  0.10566000000E+00 0. -1.
     999900   -1    0    0    0    0 -0.00000000000E+00 -0.00000000000E+00 -0.74505805969E-08  0.93827000000E+00  0.93827000000E+00 0. -1.
     999902    2    1    2    0    0 -0.15562541090E-02 -0.20451386299E-01  0.11394571104E-01  0.10204668932E+01  0.10201971196E+01 0.  0.
     999903    2    3    3    0    0  0.20001907840E-01  0.23977313375E-01  0.12627849710E+00  0.13162664879E+00  0.20107908079E-01 0.  0.
         14    1    1    2    0    0  0.15562541090E-02  0.20451386299E-01 -0.11394571104E-01  0.23463106764E-01  0.00000000000E+00 0.  1.
     999901    1    3    3    0    0 -0.21558161949E-01 -0.44428699674E-01 -0.11488392599E+00  0.88884024445E+00  0.88000000000E+00 0. -1.
        -11    1    4    4    0    0 -0.18051009135E-02  0.12191167881E-01  0.40460793127E-01  0.42299170974E-01  0.51100000000E-03 0. -1.
         11    1    4    4    0    0  0.21807008753E-01  0.11786145494E-01  0.85817703971E-01  0.89327477812E-01  0.51100000000E-03 0.  1.
</event>
<event>
 8    1  0.1131376E+005  0.1043930E+01  0.7957747E-01            NaN
         13   -1    0    0    0    0  0.00000000000E+00  0.00000000000E+00  0.74505805969E-08  0.10566000000E+00  0.10566000000E+00 0. -1.
     999900   -1    0    0    0    0 -0.00000000000E+00 -0.00000000000E+00 -0.74505805969E-08  0.93827000000E+00  0.93827000000E+00 0. -1.
     999902    2    1    2    0    0 -0.18672162979E-01  0.14150703719E-01  0.51077408511E-03  0.10204959868E+01  0.10202268895E+01 0.  0.
     999903    2    3    3    0    0 -0.62611572561E-01 -0.23686149815E-02 -0.11425952934E+00  0.13180268638E+00  0.19770906309E-01 0.  0.
         14    1    1    2    0    0  0.18672162979E-01 -0.14150703719E-01 -0.51077408511E-03  0.23434013234E-01  0.00000000000E+00 0.  1.
     999901    1    3    3    0    0  0.43939409582E-01  0.16519318700E-01  0.11477030342E+00  0.88869330039E+00  0.88000000000E+00 0.  1.
        -11    1    4    4    0    0 -0.55473424993E-01 -0.83827639051E-02 -0.10165351305E+00  0.11610886894E+00  0.51100000000E-03 0.  1.
         11    1    4    4    0    0 -0.71381475681E-02  0.60141489237E-02 -0.12606016292E-01  0.15693817437E-01  0.51100000000E-03 0. -1.
</event>
<event>
 8    1  0.1131376E+005  0.1043930E+01  0.7957747E-01            NaN
         13   -1    0    0    0    0  0.00000000000E+00  0.00000000000E+00  0.74505805969E-08  0.10566000000E+00  0.10566000000E+00 0. -1.
     999900   -1    0    0    0    0 -0.00000000000E+00 -0.00000000000E+00 -0.74505805969E-08  0.93827000000E+00  0.93827000000E+00 0.  1.
     999902    2    1    2    0    0 -0.13967514342E-01  0.14147341975E-01  0.13728648439E-01  0.10197698152E+01  0.10194835759E+01 0.  0.
     999903    2    3    3    0    0  0.75958153640E-02 -0.20733815569E-01 -0.12429587554E+00  0.12806782374E+00  0.21547976278E-01 0.  0.
         14    1    1    2    0    0  0.13967514342E-01 -0.14147341975E-01 -0.13728648439E-01  0.24160184805E-01  0.00000000000E+00 0.  1.
     999901    1    3    3    0    0 -0.21563329706E-01  0.34881157544E-01  0.13802452398E+00  0.89170199145E+00  0.88000000000E+00 0. -1.
        -11    1    4    4    0    0  0.51771447443E-03 -0.27718138121E-02 -0.75993386967E-01  0.76047399454E-01  0.51100000000E-03 0.  1.
         11    1    4    4    0    0  0.70781008896E-02 -0.17962001757E-01 -0.48302488577E-01  0.52020424288E-01  0.51100000000E-03 0. -1.
</event>
<event>
 8    1  0.1131376E+005  0.1043930E+01  0.7957747E-01            NaN
         13   -1    0    0    0    0  0.00000000000E+00  0.00000000000E+00  0.74505805969E-08  0.10566000000E+00  0.10566000000E+00 0.  1.
     999900   -1    0    0    0    0 -0.00000000000E+00 -0.00000000000E+00 -0.74505805969E-08  0.93827000000E+00  0.93827000000E+00 0.  1.
     999902    2    1    2    0    0  0.23135798945E-01 -0.42468408125E-02 -0.31440638655E-02  0.10201984601E+01  0.10199224049E+01 0.  0.
     999903    2    3    3    0    0  0.81574636466E-01  0.45263417775E-01 -0.91783655300E-01  0.13243534944E+00  0.20289999929E-01 0.  0.
         14    1    1    2    0    0 -0.23135798945E-01  0.42468408125E-02  0.31440638655E-02  0.23731539927E-01  0.00000000000E+00 0.  1.
     999901    1    3    3    0    0 -0.58438837521E-01 -0.49510258588E-01  0.88639591434E-01  0.88776311064E+00  0.88000000000E+00 0. -1.
        -11    1    4    4    0    0  0.61345542788E-01  0.38005095049E-01 -0.58915297002E-01  0.93160808345E-01  0.51100000000E-03 0.  1.
         11    1    4    4    0    0  0.20229093678E-01  0.72583227266E-02 -0.32868358298E-01  0.39274541092E-01  0.51100000000E-03 0. -1.
</event>
<event>
 8    1  0.1131376E+005  0.1043930E+01  0.7957747E-01            NaN
         13   -1    0    0    0    0  0.00000000000E+00  0.00000000000E+00  0.74505805969E-08  0.10566000000E+00  0.10566000000E+00 0.  1.
     999900   -1    0    0    0    0 -0.00000000000E+00 -0.00000000000E+00 -0.74505805969E-08  0.93827000000E+00  0.93827000000E+00 0.  1.
     999902    2    1    2    0    0 -0.21069739164E-01 -0.11600824700E-01 -0.39903894087E-02  0.10195489367E+01  0.10192573757E+01 0.  0.
     999903    2    3    3    0    0  0.22718980911E-02 -0.11243458408E+00 -0.64708227904E-01  0.13140540379E+00  0.20821339270E-01 0.  0.
         14    1    1    2    0    0  0.21069739164E-01  0.11600824700E-01  0.39903894087E-02  0.24381063344E-01  0.00000000000E+00 0.  1.
     999901    1    3    3    0    0 -0.23341637255E-01  0.10083375938E+00  0.60717838495E-01  0.88814353287E+00  0.88000000000E+00 0.  1.
        -11    1    4    4    0    0  0.38664409177E-02 -0.34012647367E-02 -0.16102271059E-02  0.54195866551E-02  0.51100000000E-03 0.  1.
         11    1    4    4    0    0 -0.15945428266E-02 -0.10903331934E+00 -0.63098000798E-01  0.12598581713E+00  0.51100000000E-03 0. -1.
</event>
<event>
 8    1  0.1131376E+005  0.1043930E+01  0.7957747E-01            NaN
         13   -1    0    0    0    0  0.00000000000E+00  0.00000000000E+00  0.74505805969E-08  0.10566000000E+00  0.10566000000E+00 0. -1.
     999900   -1    0    0    0    0 -0.00000000000E+00 -0.00000000000E+00 -0.74505805969E-08  0.93827000000E+00  0.93827000000E+00 0. -1.
     999902    2    1    2    0    0 -0.18323859315E-01 -0.80685908222E-02 -0.14405591858E-01  0.10192644967E+01  0.10189660088E+01 0.  0.
     999903    2    3    3    0    0 -0.49270930831E-02  0.96558833069E-01 -0.84699945210E-01  0.13018201045E+00  0.20625000284E-01 0.  0.
         14    1    1    2    0    0  0.18323859315E-01  0.80685908222E-02  0.14405591858E-01  0.24665503336E-01  0.00000000000E+00 0.  1.
     999901    1    3    3    0    0 -0.13396766232E-01 -0.10462742389E+00  0.70294353352E-01  0.88908248621E+00  0.88000000000E+00 0.  1.
        -11    1    4    4    0    0 -0.11452971304E-01  0.54956369802E-01 -0.55445566591E-01  0.78904024670E-01  0.51100000000E-03 0. -1.
         11    1    4    4    0    0  0.65258782210E-02  0.41602463267E-01 -0.29254378619E-01  0.51277985782E-01  0.51100000000E-03 0.  1.
</event>
<event>
 8    1  0.1131376E+005  0.1043930E+01  0.7957747E-01            NaN
         13   -1    0    0    0    0  0.00000000000E+00  0.00000000000E+00  0.74505805969E-08  0.10566000000E+00  0.10566000000E+00 0.  1.
     999900   -1    0    0    0    0 -0.00000000000E+00 -0.00000000000E+00 -0.74505805969E-08  0.93827000000E+00  0.93827000000E+00 0. -1.
     999902    2    1    2    0    0  0.21600293531E-01  0.65963394755E-02 -0.12075058234E-01  0.10183196231E+01  0.10179975262E+01 0.  0.
     999903    2    3    3    0    0 -0.89069947105E-01  0.67899517183E-03 -0.89682739313E-01  0.12797931213E+00  0.20044802078E-01 0.  0.
         14    1    1    2    0    0 -0.21600293531E-01 -0.65963394755E-02  0.12075058234E-01  0.25610376930E-01  0.00000000000E+00 0.  1.
     999901    1    3    3    0    0  0.11067024064E+00  0.59173443037E-02  0.77607681078E-01  0.89034031094E+00  0.88000000000E+00 0.  1.
        -11    1    4    4    0    0 -0.44930965646E-01  0.10342336217E-01 -0.45898563461E-01  0.65059164159E-01  0.51100000000E-03 0. -1.
         11    1    4    4    0    0 -0.44138981459E-01 -0.96633410450E-02 -0.43784175852E-01  0.62920147969E-01  0.51100000000E-03 0.  1.
</event>
<event>
 8    1  0.1131376E+005  0.1043930E+01  0.7957747E-01            NaN
         13   -1    0    0    0    0  0.00000000000E+00  0.00000000000E+00  0.74505805969E-08  0.10566000000E+00  0.10566000000E+00 0.  1.
     999900   -1    0    0    0    0 -0.00000000000E+00 -0.00000000000E+00 -0.74505805969E-08  0.93827000000E+00  0.93827000000E+00 0.  1.
     999902    2    1    2    0    0  0.22538640744E-01 -0.82767034626E-02 -0.35907153708E-02  0.10196526982E+01  0.10193636434E+01 0.  0.
     999903    2    3    3    0    0  0.13856376317E-01 -0.10884258128E+00  0.68955282970E-01  0.13091662973E+00  0.18591025388E-01 0.  0.
         14    1    1    2    0    0 -0.22538640744E-01  0.82767034626E-02  0.35907153708E-02  0.24277301820E-01  0.00000000000E+00 0. -1.
     999901    1    3    3    0    0  0.86822644263E-02  0.10056587782E+00 -0.72545998341E-01  0.88873606845E+00  0.88000000000E+00 0.  1.
        -11    1    4    4    0    0 -0.23738583913E-02 -0.48465986316E-01  0.25923726999E-01  0.55017158922E-01  0.51100000000E-03 0.  1.
         11    1    4    4    0    0  0.16230234709E-01 -0.60376594963E-01  0.43031555971E-01  0.75899470804E-01  0.51100000000E-03 0. -1.
</event>
<event>
 8    1  0.1131376E+005  0.1043930E+01  0.7957747E-01            NaN
         13   -1    0    0    0    0  0.00000000000E+00  0.00000000000E+00  0.74505805969E-08  0.10566000000E+00  0.10566000000E+00 0. -1.
     999900   -1    0    0    0    0 -0.00000000000E+00 -0.00000000000E+00 -0.74505805969E-08  0.93827000000E+00  0.93827000000E+00 0. -1.
     999902    2    1    2    0    0 -0.99441097353E-03  0.89985412010E-02  0.21730689478E-01  0.10203888560E+01  0.10201172638E+01 0.  0.
     999903    2    3    3    0    0 -0.98759312996E-01 -0.82092175834E-01  0.74130957011E-02  0.13018635750E+00  0.20025145552E-01 0.  0.
         14    1    1    2    0    0  0.99441097353E-03 -0.89985412010E-02 -0.21730689478E-01  0.23541144028E-01  0.00000000000E+00 0.  1.
     999901    1    3    3    0    0  0.97764902022E-01  0.91090717035E-01  0.14317593777E-01  0.89020249847E+00  0.88000000000E+00 0.  1.
        -11    1    4    4    0    0 -0.72657865959E-01 -0.50786380601E-01  0.10693526547E-01  0.89291850531E-01  0.51100000000E-03 0. -1.
         11    1    4    4    0    0 -0.26101447037E-01 -0.31305795233E-01 -0.32804308464E-02  0.40894506968E-01  0.51100000000E-03 0.  1.
</event>
<event>
 8    1  0.1131376E+005  0.1043930E+01  0.7957747E-01            NaN
         13   -1    0    0    0    0  0.00000000000E+00  0.00000000000E+00  0.74505805969E-08  0.10566000000E+00  0.10566000000E+00 0. -1.
     999900   -1    0    0    0    0 -0.00000000000E+00 -0.00000000000E+00 -0.74505805969E-08  0.93827000000E+00  0.93827000000E+00 0. -1.
     999902    2    1    2    0    0 -0.10057930354E-01 -0.81540403367E-02  0.20371769799E-01  0.10197916624E+01  0.10195059467E+01 0.  0.
     999903    2    3    3    0    0  0.32848739220E-01  0.12285690770E+00 -0.28210246796E-02  0.12875700735E+00  0.19938639009E-01 0.  0.
         14    1    1    2    0    0  0.10057930354E-01  0.81540403367E-02 -0.20371769799E-01  0.24138337589E-01  0.00000000000E+00 0.  1.
     999901    1    3    3    0    0 -0.42906669574E-01 -0.13101094803E+00  0.23192794478E-01  0.89103465506E+00  0.88000000000E+00 0.  1.
        -11    1    4    4    0    0  0.27929152269E-01  0.92240096166E-01  0.58484557102E-02  0.96554328967E-01  0.51100000000E-03 0.  1.
         11    1    4    4    0    0  0.49195869514E-02  0.30616811530E-01 -0.86694803898E-02  0.32202678386E-01  0.51100000000E-03 0. -1.
</event>
<event>
 8    1  0.1131376E+005  0.1043930E+01  0.7957747E-01            NaN
         13   -1    0    0    0    0  0.00000000000E+00  0.00000000000E+00  0.74505805969E-08  0.10566000000E+00  0.10566000000E+00 0.  1.
     999900   -1    0    0    0    0 -0.00000000000E+00 -0.00000000000E+00 -0.74505805969E-08  0.93827000000E+00  0.93827000000E+00 0.  1.
     999902    2    1    2    0    0 -0.13905185607E-01  0.23798146462E-03  0.19271854180E-01  0.10201641593E+01  0.10198872961E+01 0.  0.
     999903    2    3    3    0    0  0.50640541472E-01 -0.90053537877E-01  0.78445885065E-01  0.13122081165E+00  0.19774741514E-01 0.  0.
         14    1    1    2    0    0  0.13905185607E-01 -0.23798146462E-03 -0.19271854180E-01  0.23765840728E-01  0.00000000000E+00 0. -1.
     999901    1    3    3    0    0 -0.64545727079E-01  0.90291519341E-01 -0.59174030885E-01  0.88894334762E+00  0.88000000000E+00 0. -1.
        -11    1    4    4    0    0  0.29958805678E-01 -0.53718688838E-01  0.34341436116E-01  0.70447306007E-01  0.51100000000E-03 0. -1.
         11    1    4    4    0    0  0.20681735793E-01 -0.36334849039E-01  0.44104448949E-01  0.60773505644E-01  0.51100000000E-03 0.  1.
</event>
<event>
 8    1  0.1131376E+005  0.1043930E+01  0.7957747E-01            NaN
         13   -1    0    0    0    0  0.00000000000E+00  0.00000000000E+00  0.74505805969E-08  0.10566000000E+00  0.10566000000E+00 0. -1.
     999900   -1    0    0    0    0 -0.00000000000E+00 -0.00000000000E+00 -0.74505805969E-08  0.93827000000E+00  0.93827000000E+00 0.  1.
     999902    2    1    2    0    0  0.24406458806E-02 -0.78723952011E-02 -0.21971444815E-01  0.10204635187E+01  0.10201936665E+01 0.  0.
     999903    2    3    3    0    0 -0.21914025782E-01 -0.12832986655E+00 -0.31193202560E-02  0.13172364951E+00  0.19814401497E-01 0.  0.
         14    1    1    2    0    0 -0.24406458806E-02  0.78723952011E-02  0.21971444815E-01  0.23466481325E-01  0.00000000000E+00 0. -1.
     999901    1    3    3    0    0  0.24354671663E-01  0.12045747135E+00 -0.18852124559E-01  0.88873986916E+00  0.88000000000E+00 0.  1.
        -11    1    4    4    0    0 -0.64849015515E-02 -0.67220017666E-01 -0.10190767644E-01  0.68298591415E-01  0.51100000000E-03 0. -1.
         11    1    4    4    0    0 -0.15429124230E-01 -0.61109848888E-01  0.70714473884E-02  0.63425058098E-01  0.51100000000E-03 0.  1.
</event>
<event>
 8    1  0.1131376E+005  0.1043930E+01  0.7957747E-01            NaN
         13   -1    0    0    0    0  0.00000000000E+00  0.00000000000E+00  0.74505805969E-08  0.10566000000E+00  0.10566000000E+00 0.  1.
     999900   -1    0    0    0    0 -0.00000000000E+00 -0.00000000000E+00 -0.74505805969E-08  0.93827000000E+00  0.93827000000E+00 0.  1.
     999902    2    1    2    0    0  0.24090116255E-01  0.96828110494E-02  0.36495356237E-02  0.10177115019E+01  0.10173737226E+01 0.  0.
     999903    2    3    3    0    0  0.27776696717E-01  0.12506195977E+00 -0.10736684992E-01  0.13005565523E+00  0.19676340867E-01 0.  0.
         14    1    1    2    0    0 -0.24090116255E-01 -0.96828110494E-02 -0.36495356237E-02  0.26218498074E-01  0.00000000000E+00 0. -1.
     999901    1    3    3    0    0 -0.36865804621E-02 -0.11537914872E+00  0.14386220616E-01  0.88765584670E+00  0.88000000000E+00 0.  1.
        -11    1    4    4    0    0  0.22399888265E-02  0.43243669072E-01  0.22595030582E-02  0.43363566963E-01  0.51100000000E-03 0. -1.
         11    1    4    4    0    0  0.25536707890E-01  0.81818290699E-01 -0.12996188051E-01  0.86692088264E-01  0.51100000000E-03 0.  1.
</event>
<event>
 8    1  0.1131376E+005  0.1043930E+01  0.7957747E-01            NaN
         13   -1    0    0    0    0  0.00000000000E+00  0.00000000000E+00  0.74505805969E-08  0.10566000000E+00  0.10566000000E+00 0.  1.
     999900   -1    0    0    0    0 -0.00000000000E+00 -0.00000000000E+00 -0.74505805969E-08  0.93827000000E+00  0.93827000000E+00 0.  1.
     999902    2    1    2    0    0 -0.16385743636E-01 -0.16967742193E-01 -0.28825402723E-02  0.10201664584E+01  0.10198896494E+01 0.  0.
     999903    2    3    3    0    0  0.36356147286E-01  0.11905092696E+00  0.21040427838E-01  0.12783518932E+00  0.20105804401E-01 0.  0.
         14    1    1    2    0    0  0.16385743636E-01  0.16967742193E-01  0.28825402723E-02  0.23763541572E-01  0.00000000000E+00 0. -1.
     999901    1    3    3    0    0 -0.52741890922E-01 -0.13601866915E+00 -0.23922968111E-01  0.89233126910E+00  0.88000000000E+00 0. -1.
        -11    1    4    4    0    0  0.37056989432E-01  0.10104796237E+00  0.14224760901E-01  0.10856572253E+00  0.51100000000E-03 0. -1.
         11    1    4    4    0    0 -0.70084214598E-03  0.18002964588E-01  0.68156669373E-02  0.19269466793E-01  0.51100000000E-03 0.  1.
</event>
<event>
 7    1  0.1131376E+005  0.1043930E+01  0.7957747E-01            NaN
         13   -1    0    0    0    0  0.00000000000E+00  0.00000000000E+00  0.74505805969E-08  0.10566000000E+00  0.10566000000E+00 0. -1.
     999900   -1    0    0    0    0 -0.00000000000E+00 -0.00000000000E+00 -0.74505805969E-08  0.93827000000E+00  0.93827000000E+00 0. -1.
     999902    2    1    2    0    0 -0.66071514316E-02  0.20473508430E-01  0.93708031078E-02  0.10204644732E+01  0.10201946432E+01 0.  0.
         14    1    1    2    0    0  0.66071514316E-02 -0.20473508430E-01 -0.93708031078E-02  0.23465526807E-01  0.00000000000E+00 0.  1.
     999901    1    3    3    0    0 -0.88778125700E-01  0.88814940819E-01  0.68024912105E-01  0.89151390229E+00  0.88000000000E+00 0.  1.
        -11    1    3    3    0    0  0.16797876462E-01 -0.28775386350E-01 -0.36422570689E-01  0.49366550313E-01  0.51100000000E-03 0. -1.
         11    1    3    3    0    0  0.65373097807E-01 -0.39566046040E-01 -0.22231538309E-01  0.79584020587E-01  0.51100000000E-03 0.  1.
</event>
<event>
 8    1  0.1131376E+005  0.1043930E+01  0.7957747E-01            NaN
         13   -1    0    0    0    0  0.00000000000E+00  0.00000000000E+00  0.74505805969E-08  0.10566000000E+00  0.10566000000E+00 0. -1.
     999900   -1    0    0    0    0 -0.00000000000E+00 -0.00000000000E+00 -0.74505805969E-08  0.93827000000E+00  0.93827000000E+00 0. -1.
     999902    2    1    2    0    0  0.19526331942E-02  0.48801488058E-02  0.23482137861E-01  0.10198667619E+01  0.10195828425E+01 0.  0.
     999903    2    3    3    0    0  0.64378720024E-02 -0.12782511060E+00  0.12354621689E-02  0.12962762672E+00  0.20520481168E-01 0.  0.
         14    1    1    2    0    0 -0.19526331942E-02 -0.48801488058E-02 -0.23482137861E-01  0.24063238088E-01  0.00000000000E+00 0.  1.
     999901    1    3    3    0    0 -0.44852388082E-02  0.13270525941E+00  0.22246675693E-01  0.89023913519E+00  0.88000000000E+00 0. -1.
        -11    1    4    4    0    0 -0.48689218572E-02 -0.68762530681E-01  0.65985590029E-02  0.69251672381E-01  0.51100000000E-03 0. -1.
         11    1    4    4    0    0  0.11306793860E-01 -0.59062579919E-01 -0.53630968340E-02  0.60375954342E-01  0.51100000000E-03 0.  1.
</event>
<event>
 8    1  0.1131376E+005  0.1043930E+01  0.7957747E-01            NaN
         13   -1    0    0    0    0  0.00000000000E+00  0.00000000000E+00  0.74505805969E-08  0.10566000000E+00  0.10566000000E+00 0.  1.
     999900   -1    0    0    0    0 -0.00000000000E+00 -0.00000000000E+00 -0.74505805969E-08  0.93827000000E+00  0.93827000000E+00 0.  1.
     999902    2    1    2    0    0  0.23210975027E-01  0.21583197458E-03  0.53276445697E-02  0.10201144643E+01  0.10198364283E+01 0.  0.
     999903    2    3    3    0    0 -0.17442533970E-01  0.35258159558E-01 -0.12157652045E+00  0.12939265607E+00  0.20352624250E-01 0.  0.
         14    1    1    2    0    0 -0.23210975027E-01 -0.21583197458E-03 -0.53276445697E-02  0.23815535724E-01  0.00000000000E+00 0.  1.
     999901    1    3    3    0    0  0.40653508997E-01 -0.35042327583E-01  0.12690416502E+00  0.89072180821E+00  0.88000000000E+00 0. -1.
        -11    1    4    4    0    0 -0.15656891026E-01  0.37615622782E-01 -0.10668421092E+00  0.11420094262E+00  0.51100000000E-03 0. -1.
         11    1    4    4    0    0 -0.17856429437E-02 -0.23574632237E-02 -0.14892309527E-01  0.15191713453E-01  0.51100000000E-03 0.  1.
</event>
<event>
 8    1  0.1131376E+005  0.1043930E+01  0.7957747E-01            NaN
         13   -1    0    0    0    0  0.00000000000E+00  0.00000000000E+00  0.74505805969E-08  0.10566000000E+00  0.10566000000E+00 0. -1.
     999900   -1    0    0    0    0 -0.00000000000E+00 -0.00000000000E+00 -0.74505805969E-08  0.93827000000E+00  0.93827000000E+00 0. -1.
     999902    2    1    2    0    0 -0.13111188410E-01  0.61070455102E-02 -0.18802615140E-01  0.10202079090E+01  0.10199320761E+01 0.  0.
     999903    2    3    3    0    0  0.54427559211E-01  0.85321752893E-02  0.11365189717E+00  0.12773294489E+00  0.19073391513E-01 0.  0.
         14    1    1    2    0    0  0.13111188410E-01 -0.61070455102E-02  0.18802615140E-01  0.23722091023E-01  0.00000000000E+00 0. -1.
     999901    1    3    3    0    0 -0.67538747621E-01 -0.24251297791E-02 -0.13245451231E+00  0.89247496408E+00  0.88000000000E+00 0. -1.
        -11    1    4    4    0    0  0.30071129785E-02 -0.70768463127E-03  0.59464015774E-03  0.31872031501E-02  0.51100000000E-03 0.  1.
         11    1    4    4    0    0  0.51420446233E-01  0.92398599205E-02  0.11305725701E+00  0.12454574174E+00  0.51100000000E-03 0. -1.
</event>
<event>
 8    1  0.1131376E+005  0.1043930E+01  0.7957747E-01            NaN
         13   -1    0    0    0    0  0.00000000000E+00  0.00000000000E+00  0.74505805969E-08  0.10566000000E+00  0.10566000000E+00 0. -1.
     999900   -1    0    0    0    0 -0.00000000000E+00 -0.00000000000E+00 -0.74505805969E-08  0.93827000000E+00  0.93827000000E+00 0.  1.
     999902    2    1    2    0    0 -0.49888414088E-02  0.10894789331E-01 -0.19180286467E-01  0.10213143337E+01  0.10210639059E+01 0.  0.
     999903    2    3    3    0    0 -0.79043693228E-01 -0.70197158071E-01  0.72575378698E-01  0.12975439343E+00  0.19836092866E-01 0.  0.
         14    1    1    2    0    0  0.49888414088E-02 -0.10894789331E-01  0.19180286467E-01  0.22615666298E-01  0.00000000000E+00 0. -1.
     999901    1    3    3    0    0  0.74054851819E-01  0.81091947402E-01 -0.91755665165E-01  0.89155994027E+00  0.88000000000E+00 0.  1.
        -11    1    4    4    0    0 -0.28302037763E-01 -0.17432386796E-01  0.31574348727E-01  0.45848599428E-01  0.51100000000E-03 0.  1.
         11    1    4    4    0    0 -0.50741655465E-01 -0.52764771275E-01  0.41001029971E-01  0.83905794000E-01  0.51100000000E-03 0. -1.
</event>
<event>
 8    1  0.1131376E+005  0.1043930E+01  0.7957747E-01            NaN
         13   -1    0    0    0    0  0.00000000000E+00  0.00000000000E+00  0.74505805969E-08  0.10566000000E+00  0.10566000000E+00 0.  1.
     999900   -1    0    0    0    0 -0.00000000000E+00 -0.00000000000E+00 -0.74505805969E-08  0.93827000000E+00  0.93827000000E+00 0. -1.
     999902    2    1    2    0    0  0.91625778892E-02 -0.83439517169E-02 -0.20643207871E-01  0.10198526996E+01  0.10195684442E+01 0.  0.
     999903    2    3    3    0    0  0.64059166994E-02 -0.60439138677E-01 -0.11685968054E+00  0.13307250287E+00  0.18925665962E-01 0.  0.
         14    1    1    2    0    0 -0.91625778892E-02  0.83439517169E-02  0.20643207871E-01  0.24077300410E-01  0.00000000000E+00 0.  1.
     999901    1    3    3    0    0  0.27566611898E-02  0.52095186960E-01  0.96216472665E-01  0.88678019672E+00  0.88000000000E+00 0.  1.
        -11    1    4    4    0    0  0.59173234075E-02 -0.12002225557E-01 -0.40373944937E-01  0.42536862666E-01  0.51100000000E-03 0.  1.
         11    1    4    4    0    0  0.48859329193E-03 -0.48436913120E-01 -0.76485735598E-01  0.90535640203E-01  0.51100000000E-03 0. -1.
</event>
<event>
 8    1  0.1131376E+005  0.1043930E+01  0.7957747E-01            NaN
         13   -1    0    0    0    0  0.00000000000E+00  0.00000000000E+00  0.74505805969E-08  0.10566000000E+00  0.10566000000E+00 0. -1.
     999900   -1    0    0    0    0 -0.00000000000E+00 -0.00000000000E+00 -0.74505805969E-08  0.93827000000E+00  0.93827000000E+00 0.  1.
     999902    2    1    2    0    0  0.21778450914E-01 -0.11960082050E-01  0.31753897559E-02  0.10188814953E+01  0.10185735486E+01 0.  0.
     999903    2    3    3    0    0 -0.25080579609E-01  0.34495991837E-01 -0.11899921629E+00  0.12799397722E+00  0.20065786819E-01 0.  0.
         14    1    1    2    0    0 -0.21778450914E-01  0.11960082050E-01 -0.31753897559E-02  0.25048504685E-01  0.00000000000E+00 0. -1.
     999901    1    3    3    0    0  0.46859030523E-01 -0.46456073887E-01  0.12217460604E+00  0.89088751810E+00  0.88000000000E+00 0. -1.
        -11    1    4    4    0    0 -0.32175745829E-02 -0.24036746312E-02 -0.13935890992E-01  0.14512085193E-01  0.51100000000E-03 0. -1.
         11    1    4    4    0    0 -0.21863005026E-01  0.36899666468E-01 -0.10506332529E+00  0.11348189202E+00  0.51100000000E-03 0.  1.
</event>
<event>
 8    1  0.1131376E+005  0.1043930E+01  0.7957747E-01            NaN
         13   -1    0    0    0    0  0.00000000000E+00  0.00000000000E+00  0.74505805969E-08  0.10566000000E+00  0.10566000000E+00 0.  1.
     999900   -1    0    0    0    0 -0.00000000000E+00 -0.00000000000E+00 -0.74505805969E-08  0.93827000000E+00  0.93827000000E+00 0. -1.
     999902    2    1    2    0    0 -0.19235291340E-01  0.53943021263E-02  0.12989526035E-01  0.10201009691E+01  0.10198226142E+01 0.  0.
     999903    2    3    3    0    0  0.87521037711E-01  0.50742156380E-01  0.79211602012E-01  0.13002304831E+00  0.19920259107E-01 0.  0.
         14    1    1    2    0    0  0.19235291340E-01 -0.53943021263E-02 -0.12989526035E-01  0.23829030928E-01  0.00000000000E+00 0. -1.
     999901    1    3    3    0    0 -0.10675632905E+00 -0.45347854254E-01 -0.66222075977E-01  0.89007792076E+00  0.88000000000E+00 0. -1.
        -11    1    4    4    0    0  0.29664784394E-01  0.68810591477E-02  0.21611172834E-01  0.37345044121E-01  0.51100000000E-03 0.  1.
         11    1    4    4    0    0  0.57856253316E-01  0.43861097233E-01  0.57600429178E-01  0.92678004190E-01  0.51100000000E-03 0. -1.
</event>
<event>
 8    1  0.1131376E+005  0.1043930E+01  0.7957747E-01            NaN
         13   -1    0    0    0    0  0.00000000000E+00  0.00000000000E+00  0.74505805969E-08  0.10566000000E+00  0.10566000000E+00 0.  1.
     999900   -1    0    0    0    0 -0.00000000000E+00 -0.00000000000E+00 -0.74505805969E-08  0.93827000000E+00  0.93827000000E+00 0.  1.
     999902    2    1    2    0    0 -0.46429548417E-02 -0.20551868013E-02  0.92613057585E-02  0.10333681532E+01  0.10333141766E+01 0.  0.
     999903    2    3    3    0    0  0.96572066243E-03  0.49030621402E-01 -0.13056573833E+00  0.14084766648E+00  0.19639721856E-01 0.  0.
         14    1    1    2    0    0  0.46429548417E-02  0.20551868013E-02 -0.92613057585E-02  0.10561846752E-01  0.00000000000E+00 0. -1.
     999901    1    3    3    0    0 -0.56086755041E-02 -0.51085808204E-01  0.13982704409E+00  0.89252048677E+00  0.88000000000E+00 0. -1.
        -11    1    4    4    0    0 -0.91687927892E-02  0.28140141031E-01 -0.72645398174E-01  0.78444561923E-01  0.51100000000E-03 0.  1.
         11    1    4    4    0    0  0.10134513452E-01  0.20890480371E-01 -0.57920340161E-01  0.62403104557E-01  0.51100000000E-03 0. -1.
</event>
<event>
 8    1  0.1131376E+005  0.1043930E+01  0.7957747E-01            NaN
         13   -1    0    0    0    0  0.00000000000E+00  0.00000000000E+00  0.74505805969E-08  0.10566000000E+00  0.10566000000E+00 0.  1.
     999900   -1    0    0    0    0 -0.00000000000E+00 -0.00000000000E+00 -0.74505805969E-08  0.93827000000E+00  0.93827000000E+00 0.  1.
     999902    2    1    2    0    0  0.88577018125E-02  0.13959425325E-01  0.17859385182E-01  0.10195931539E+01  0.10193026624E+01 0.  0.
     999903    2    3    3    0    0  0.82409170203E-01  0.50440447708E-01 -0.84302429860E-01  0.12988661809E+00  0.20691152201E-01 0.  0.
         14    1    1    2    0    0 -0.88577018125E-02 -0.13959425325E-01 -0.17859385182E-01  0.24336846054E-01  0.00000000000E+00 0. -1.
     999901    1    3    3    0    0 -0.73551468390E-01 -0.36481022383E-01  0.10216181504E+00  0.88970653586E+00  0.88000000000E+00 0. -1.
        -11    1    4    4    0    0  0.17631166025E-01  0.18193653958E-01 -0.13785621725E-01  0.28847383713E-01  0.51100000000E-03 0.  1.
         11    1    4    4    0    0  0.64778004178E-01  0.32246793750E-01 -0.70516808135E-01  0.10103923437E+00  0.51100000000E-03 0. -1.
</event>
<event>
 8    1  0.1131376E+005  0.1043930E+01  0.7957747E-01            NaN
         13   -1    0    0    0    0  0.00000000000E+00  0.00000000000E+00  0.74505805969E-08  0.10566000000E+00  0.10566000000E+00 0. -1.
     999900   -1    0    0    0    0 -0.00000000000E+00 -0.00000000000E+00 -0.74505805969E-08  0.93827000000E+00  0.93827000000E+00 0.  1.
     999902    2    1    2    0    0 -0.11445998965E-01 -0.17324521785E-01 -0.10954278148E-01  0.10204534978E+01  0.10201834124E+01 0.  0.
     999903    2    3    3    0    0  0.83707313908E-01 -0.61671622766E-01 -0.78753281512E-01  0.13162419853E+00  0.17678994161E-01 0.  0.
         14    1    1    2    0    0  0.11445998965E-01  0.17324521785E-01  0.10954278148E-01  0.23476502234E-01  0.00000000000E+00 0.  1.
     999901    1    3    3    0    0 -0.95153312874E-01  0.44347100981E-01  0.67799003364E-01  0.88882929923E+00  0.88000000000E+00 0. -1.
        -11    1    4    4    0    0  0.23152449080E-01 -0.26943976430E-01 -0.23523556154E-01  0.42610240311E-01  0.51100000000E-03 0.  1.
         11    1    4    4    0    0  0.60554864829E-01 -0.34727646336E-01 -0.55229725357E-01  0.89013958223E-01  0.51100000000E-03 0. -1.
</event>
<event>
 8    1  0.1131376E+005  0.1043930E+01  0.7957747E-01            NaN
         13   -1    0    0    0    0  0.00000000000E+00  0.00000000000E+00  0.74505805969E-08  0.10566000000E+00  0.10566000000E+00 0.  1.
     999900   -1    0    0    0    0 -0.00000000000E+00 -0.00000000000E+00 -0.74505805969E-08  0.93827000000E+00  0.93827000000E+00 0.  1.
     999902    2    1    2    0    0 -0.13891075554E-01  0.75160436120E-02 -0.17697717787E-01  0.10202095003E+01  0.10199337049E+01 0.  0.
     999903    2    3    3    0    0 -0.71704804170E-01  0.56758312631E-01  0.90599956203E-01  0.13032433103E+00  0.20322258758E-01 0.  0.
         14    1    1    2    0    0  0.13891075554E-01 -0.75160436120E-02  0.17697717787E-01  0.23720499710E-01  0.00000000000E+00 0. -1.
     999901    1    3    3    0    0  0.57813728616E-01 -0.49242269019E-01 -0.10829767399E+00  0.88988516926E+00  0.88000000000E+00 0.  1.
        -11    1    4    4    0    0 -0.25132183679E-01  0.32599942010E-01  0.41878010031E-01  0.58723178734E-01  0.51100000000E-03 0.  1.
         11    1    4    4    0    0 -0.46572620491E-01  0.24158370621E-01  0.48721946172E-01  0.71601152297E-01  0.51100000000E-03 0. -1.
</event>
<event>
 8    1  0.1644327E+005  0.1043930E+01  0.7957747E-01            NaN
         13   -1    0    0    0    0  0.00000000000E+00  0.00000000000E+00  0.74505805969E-08  0.10566000000E+00  0.10566000000E+00 0.  1.
     999900   -1    0    0    0    0 -0.00000000000E+00 -0.00000000000E+00 -0.74505805969E-08  0.93827000000E+00  0.93827000000E+00 0. -1.
     999902    2    1    2    0    0  0.53404099668E-02  0.22465991013E-01  0.12671907929E-02  0.10208032513E+01  0.10205412444E+01 0.  0.
     999903    2    3    3    0    0  0.11834187743E+00 -0.37578732201E-01 -0.36097967888E-01  0.13076344577E+00  0.19469319318E-01 0.  0.
         14    1    1    2    0    0 -0.53404099668E-02 -0.22465991013E-01 -0.12671907929E-02  0.23126748654E-01  0.00000000000E+00 0. -1.
     999901    1    3    3    0    0 -0.11300146747E+00  0.60044723214E-01  0.37365158681E-01  0.89003980558E+00  0.88000000000E+00 0.  1.
        -11    1    4    4    0    0  0.64665673819E-01 -0.16031330767E-01 -0.10250653426E-01  0.67409123665E-01  0.51100000000E-03 0. -1.
         11    1    4    4    0    0  0.53676203614E-01 -0.21547401434E-01 -0.25847314462E-01  0.63354322101E-01  0.51100000000E-03 0.  1.
</event>
<event>
 8    1  0.1131376E+005  0.1043930E+01  0.7957747E-01            NaN
         13   -1    0    0    0    0  0.00000000000E+00  0.00000000000E+00  0.74505805969E-08  0.10566000000E+00  0.10566000000E+00 0.  1.
     999900   -1    0    0    0    0 -0.00000000000E+00 -0.00000000000E+00 -0.74505805969E-08  0.93827000000E+00  0.93827000000E+00 0. -1.
     999902    2    1    2    0    0 -0.12714964481E-01 -0.57888996283E-02  0.20161605398E-01  0.10194009965E+01  0.10191058432E+01 0.  0.
     999903    2    3    3    0    0 -0.42074451301E-01  0.68019388688E-02 -0.11893609547E+00  0.12790299927E+00  0.19921259802E-01 0.  0.
         14    1    1    2    0    0  0.12714964481E-01  0.57888996283E-02 -0.20161605398E-01  0.24529003504E-01  0.00000000000E+00 0. -1.
     999901    1    3    3    0    0  0.29359486820E-01 -0.12590838497E-01  0.13909770086E+00  0.89149799723E+00  0.88000000000E+00 0.  1.
        -11    1    4    4    0    0 -0.30403782719E-01  0.12789035813E-01 -0.95557181273E-01  0.10109097613E+00  0.51100000000E-03 0.  1.
         11    1    4    4    0    0 -0.11670668581E-01 -0.59870969438E-02 -0.23378914192E-01  0.26812023138E-01  0.51100000000E-03 0. -1.
</event>
<event>
 8    1  0.1131376E+005  0.1043930E+01  0.7957747E-01            NaN
         13   -1    0    0    0    0  0.00000000000E+00  0.00000000000E+00  0.74505805969E-08  0.10566000000E+00  0.10566000000E+00 0. -1.
     999900   -1    0    0    0    0 -0.00000000000E+00 -0.00000000000E+00 -0.74505805969E-08  0.93827000000E+00  0.93827000000E+00 0.  1.
     999902    2    1    2    0    0  0.21757118382E-01 -0.63420680712E-02 -0.78233901084E-02  0.10199550243E+01  0.10196732085E+01 0.  0.
     999903    2    3    3    0    0  0.55405967840E-01  0.91249880953E-01  0.71863873028E-01  0.13034472000E+00  0.20711536378E-01 0.  0.
         14    1    1    2    0    0 -0.21757118382E-01  0.63420680712E-02  0.78233901084E-02  0.23974975714E-01  0.00000000000E+00 0.  1.
     999901    1    3    3    0    0 -0.33648849458E-01 -0.97591949024E-01 -0.79687263137E-01  0.88961030429E+00  0.88000000000E+00 0.  1.
        -11    1    4    4    0    0  0.32092001972E-01  0.33809089403E-01  0.34043585302E-01  0.57725020035E-01  0.51100000000E-03 0.  1.
         11    1    4    4    0    0  0.23313965868E-01  0.57440791549E-01  0.37820287726E-01  0.72619699965E-01  0.51100000000E-03 0. -1.
</event>
<event>
 8    1  0.1131376E+005  0.1043930E+01  0.7957747E-01            NaN
         13   -1    0    0    0    0  0.00000000000E+00  0.00000000000E+00  0.74505805969E-08  0.10566000000E+00  0.10566000000E+00 0.  1.
     999900   -1    0    0    0    0 -0.00000000000E+00 -0.00000000000E+00 -0.74505805969E-08  0.93827000000E+00  0.93827000000E+00 0.  1.
     999902    2    1    2    0    0  0.14965971897E-01  0.11027063171E-01  0.12781240064E-01  0.10213703782E+01  0.10211212039E+01 0.  0.
     999903    2    3    3    0    0  0.10747126867E+00  0.24988252409E-01  0.73979112764E-01  0.13429804501E+00  0.19712164282E-01 0.  0.
         14    1    1    2    0    0 -0.14965971897E-01 -0.11027063171E-01 -0.12781240064E-01  0.22559621774E-01  0.00000000000E+00 0. -1.
     999901    1    3    3    0    0 -0.92505296769E-01 -0.13961189238E-01 -0.61197872700E-01  0.88707233322E+00  0.88000000000E+00 0.  1.
        -11    1    4    4    0    0  0.45992210134E-01  0.46653142389E-02  0.21677714547E-01  0.51061071071E-01  0.51100000000E-03 0. -1.
         11    1    4    4    0    0  0.61479058533E-01  0.20322938170E-01  0.52301398217E-01  0.83236973939E-01  0.51100000000E-03 0.  1.
</event>
<event>
 8    1  0.1131376E+005  0.1043930E+01  0.7957747E-01            NaN
         13   -1    0    0    0    0  0.00000000000E+00  0.00000000000E+00  0.74505805969E-08  0.10566000000E+00  0.10566000000E+00 0.  1.
     999900   -1    0    0    0    0 -0.00000000000E+00 -0.00000000000E+00 -0.74505805969E-08  0.93827000000E+00  0.93827000000E+00 0.  1.
     999902    2    1    2    0    0 -0.94278126156E-02 -0.10959435916E-01  0.18335367875E-01  0.10205809400E+01  0.10203138128E+01 0.  0.
     999903    2    3    3    0    0 -0.32392430088E-01  0.29058849881E-01 -0.11942256809E+00  0.12866946137E+00  0.20009853438E-01 0.  0.
         14    1    1    2    0    0  0.94278126156E-02  0.10959435916E-01 -0.18335367875E-01  0.23349059969E-01  0.00000000000E+00 0. -1.
     999901    1    3    3    0    0  0.22964617473E-01 -0.40018285797E-01  0.13775793597E+00  0.89191147867E+00  0.88000000000E+00 0. -1.
        -11    1    4    4    0    0 -0.19237519881E-01  0.28550072807E-01 -0.79697511633E-01  0.86816722525E-01  0.51100000000E-03 0.  1.
         11    1    4    4    0    0 -0.13154910207E-01  0.50877707343E-03 -0.39725056461E-01  0.41852738841E-01  0.51100000000E-03 0. -1.
</event>
<event>
 8    1  0.1131376E+005  0.1043930E+01  0.7957747E-01            NaN
         13   -1    0    0    0    0  0.00000000000E+00  0.00000000000E+00  0.74505805969E-08  0.10566000000E+00  0.10566000000E+00 0. -1.
     999900   -1    0    0    0    0 -0.00000000000E+00 -0.00000000000E+00 -0.74505805969E-08  0.93827000000E+00  0.93827000000E+00 0.  1.
     999902    2    1    2    0    0  0.23123439500E-01 -0.56610770137E-02  0.98917560396E-02  0.10181503940E+01  0.10178239714E+01 0.  0.
     999903    2    3    3    0    0 -0.55672169418E-01  0.83623515758E-01  0.76022846875E-01  0.12767085597E+00  0.20690369329E-01 0.  0.
         14    1    1    2    0    0 -0.23123439500E-01  0.56610770137E-02 -0.98917560396E-02  0.25779605986E-01  0.00000000000E+00 0.  1.
     999901    1    3    3    0    0  0.78795608918E-01 -0.89284592772E-01 -0.66131090835E-01  0.89047953804E+00  0.88000000000E+00 0.  1.
        -11    1    4    4    0    0 -0.21797798421E-01  0.21509594260E-01  0.14395427218E-01  0.33842223730E-01  0.51100000000E-03 0. -1.
         11    1    4    4    0    0 -0.33874370997E-01  0.62113921498E-01  0.61627419657E-01  0.93828632245E-01  0.51100000000E-03 0.  1.
</event>
<event>
 8    1  0.1131376E+005  0.1043930E+01  0.7957747E-01            NaN
         13   -1    0    0    0    0  0.00000000000E+00  0.00000000000E+00  0.74505805969E-08  0.10566000000E+00  0.10566000000E+00 0. -1.
     999900   -1    0    0    0    0 -0.00000000000E+00 -0.00000000000E+00 -0.74505805969E-08  0.93827000000E+00  0.93827000000E+00 0.  1.
     999902    2    1    2    0    0 -0.17998082286E-01 -0.62165523797E-02  0.15202031588E-01  0.10195644864E+01  0.10192733017E+01 0.  0.
     999903    2    3    3    0    0  0.25404819771E-01  0.11536878823E+00  0.49009952887E-01  0.12950281296E+00  0.20338164010E-01 0.  0.
         14    1    1    2    0    0  0.17998082286E-01  0.62165523797E-02 -0.15202031588E-01  0.24365513618E-01  0.00000000000E+00 0.  1.
     999901    1    3    3    0    0 -0.43402902057E-01 -0.12158534061E+00 -0.33807921299E-01  0.89006167343E+00  0.88000000000E+00 0.  1.
        -11    1    4    4    0    0  0.74032137097E-02  0.74005222947E-01  0.25468691829E-01  0.78616130540E-01  0.51100000000E-03 0. -1.
         11    1    4    4    0    0  0.18001606061E-01  0.41363565287E-01  0.23541261058E-01  0.50886682415E-01  0.51100000000E-03 0.  1.
</event>
<event>
 8    1  0.1131376E+005  0.1043930E+01  0.7957747E-01            NaN
         13   -1    0    0    0    0  0.00000000000E+00  0.00000000000E+00  0.74505805969E-08  0.10566000000E+00  0.10566000000E+00 0.  1.
     999900   -1    0    0    0    0 -0.00000000000E+00 -0.00000000000E+00 -0.74505805969E-08  0.93827000000E+00  0.93827000000E+00 0. -1.
     999902    2    1    2    0    0  0.14685823675E-01 -0.17245143268E-01 -0.80896818251E-02  0.10198777374E+01  0.10195940800E+01 0.  0.
     999903    2    3    3    0    0  0.79299438042E-01 -0.75494741072E-01  0.70902893182E-01  0.13206708096E+00  0.20655188434E-01 0.  0.
         14    1    1    2    0    0 -0.14685823675E-01  0.17245143268E-01  0.80896818251E-02  0.24052262584E-01  0.00000000000E+00 0. -1.
     999901    1    3    3    0    0 -0.64613614366E-01  0.58249597804E-01 -0.78992575007E-01  0.88781065645E+00  0.88000000000E+00 0.  1.
        -11    1    4    4    0    0  0.68454544828E-01 -0.65541425008E-01  0.68968105128E-01  0.11721161950E+00  0.51100000000E-03 0.  1.
         11    1    4    4    0    0  0.10844893214E-01 -0.99533160640E-02  0.19347880543E-02  0.14855461464E-01  0.51100000000E-03 0. -1.
</event>
<event>
 8    1  0.1131376E+005  0.1043930E+01  0.7957747E-01            NaN
         13   -1    0    0    0    0  0.00000000000E+00  0.00000000000E+00  0.74505805969E-08  0.10566000000E+00  0.10566000000E+00 0. -1.
     999900   -1    0    0    0    0 -0.00000000000E+00 -0.00000000000E+00 -0.74505805969E-08  0.93827000000E+00  0.93827000000E+00 0.  1.
     999902    2    1    2    0    0 -0.17795287018E-01  0.31273850654E-02 -0.15665181605E-01  0.10200166002E+01  0.10197362472E+01 0.  0.
     999903    2    3    3    0    0 -0.13092319631E+00 -0.56950522188E-02 -0.19815757177E-02  0.13262547989E+00  0.20304539401E-01 0.  0.
         14    1    1    2    0    0  0.17795287018E-01 -0.31273850654E-02  0.15665181605E-01  0.23913399845E-01  0.00000000000E+00 0. -1.
     999901    1    3    3    0    0  0.11312790930E+00  0.88224372842E-02 -0.13683605888E-01  0.88739112027E+00  0.88000000000E+00 0. -1.
        -11    1    4    4    0    0 -0.70214870560E-01  0.51607191563E-02  0.48605045234E-02  0.70573696908E-01  0.51100000000E-03 0.  1.
         11    1    4    4    0    0 -0.60708325753E-01 -0.10855771375E-01 -0.68420802410E-02  0.62051782979E-01  0.51100000000E-03 0. -1.
</event>
<event>
 8    1  0.1131376E+005  0.1043930E+01  0.7957747E-01            NaN
         13   -1    0    0    0    0  0.00000000000E+00  0.00000000000E+00  0.74505805969E-08  0.10566000000E+00  0.10566000000E+00 0. -1.
     999900   -1    0    0    0    0 -0.00000000000E+00 -0.00000000000E+00 -0.74505805969E-08  0.93827000000E+00  0.93827000000E+00 0.  1.
     999902    2    1    2    0    0 -0.78817888164E-02 -0.23223077187E-01 -0.19373540746E-02  0.10193294461E+01  0.10190325473E+01 0.  0.
     999903    2    3    3    0    0  0.56318414725E-01  0.61201424727E-01  0.94775435032E-01  0.12770030450E+00  0.20189265917E-01 0.  0.
         14    1    1    2    0    0  0.78817888164E-02  0.23223077187E-01  0.19373540746E-02  0.24600553852E-01  0.00000000000E+00 0. -1.
     999901    1    3    3    0    0 -0.64200203542E-01 -0.84424501915E-01 -0.96712789107E-01  0.89162914165E+00  0.88000000000E+00 0.  1.
        -11    1    4    4    0    0  0.33462958263E-01  0.24336811273E-01  0.55151328939E-01  0.68949112854E-01  0.51100000000E-03 0.  1.
         11    1    4    4    0    0  0.22855456462E-01  0.36864613454E-01  0.39624106094E-01  0.58751191647E-01  0.51100000000E-03 0. -1.
</event>
<event>
 8    1  0.1131376E+005  0.1043930E+01  0.7957747E-01            NaN
         13   -1    0    0    0    0  0.00000000000E+00  0.00000000000E+00  0.74505805969E-08  0.10566000000E+00  0.10566000000E+00 0.  1.
     999900   -1    0    0    0    0 -0.00000000000E+00 -0.00000000000E+00 -0.74505805969E-08  0.93827000000E+00  0.93827000000E+00 0.  1.
     999902    2    1    2    0    0  0.22611621954E-01 -0.29350694767E-02  0.33500791950E-02  0.10208838916E+01  0.10206237294E+01 0.  0.
     999903    2    3    3    0    0  0.54374000858E-01  0.11818991183E+00 -0.88381295801E-02  0.13193582665E+00  0.20088867336E-01 0.  0.
         14    1    1    2    0    0 -0.22611621954E-01  0.29350694767E-02 -0.33500791950E-02  0.23046108366E-01  0.00000000000E+00 0.  1.
     999901    1    3    3    0    0 -0.31762378904E-01 -0.12112498131E+00  0.12188208775E-01  0.88894806499E+00  0.88000000000E+00 0.  1.
        -11    1    4    4    0    0  0.37128765343E-01  0.56714273985E-01 -0.45358540238E-02  0.67940335459E-01  0.51100000000E-03 0. -1.
         11    1    4    4    0    0  0.17245235514E-01  0.61475637845E-01 -0.43022755563E-02  0.63995491188E-01  0.51100000000E-03 0.  1.
</event>
<event>
 8    1  0.1131376E+005  0.1043930E+01  0.7957747E-01            NaN
         13   -1    0    0    0    0  0.00000000000E+00  0.00000000000E+00  0.74505805969E-08  0.10566000000E+00  0.10566000000E+00 0.  1.
     999900   -1    0    0    0    0 -0.00000000000E+00 -0.00000000000E+00 -0.74505805969E-08  0.93827000000E+00  0.93827000000E+00 0.  1.
     999902    2    1    2    0    0 -0.15330756712E-01  0.91114492305E-02 -0.15129845117E-01  0.10205427637E+01  0.10202747521E+01 0.  0.
     999903    2    3    3    0    0  0.12323188416E+00 -0.11990055387E-01  0.27988160384E-01  0.12840822153E+00  0.19377191045E-01 0.  0.
         14    1    1    2    0    0  0.15330756712E-01 -0.91114492305E-02  0.15129845117E-01  0.23387236299E-01  0.00000000000E+00 0.  1.
     999901    1    3    3    0    0 -0.13856264087E+00  0.21101504618E-01 -0.43118005500E-01  0.89213454217E+00  0.88000000000E+00 0.  1.
        -11    1    4    4    0    0  0.37722971638E-01 -0.10420463502E-02 -0.94961042817E-04  0.37740940481E-01  0.51100000000E-03 0. -1.
         11    1    4    4    0    0  0.85508912520E-01 -0.10948009037E-01  0.28083121426E-01  0.90667281046E-01  0.51100000000E-03 0.  1.
</event>
<event>
 8    1  0.1131376E+005  0.1043930E+01  0.7957747E-01            NaN
         13   -1    0    0    0    0  0.00000000000E+00  0.00000000000E+00  0.74505805969E-08  0.10566000000E+00  0.10566000000E+00 0. -1.
     999900   -1    0    0    0    0 -0.00000000000E+00 -0.00000000000E+00 -0.74505805969E-08  0.93827000000E+00  0.93827000000E+00 0. -1.
     999902    2    1    2    0    0  0.26772808485E-02 -0.14746385057E-01  0.19130569082E-02  0.10288209467E+01  0.10287099965E+01 0.  0.
     999903    2    3    3    0    0 -0.11911921861E-01  0.13415257095E+00  0.27382189448E-02  0.13619312681E+00  0.20056514495E-01 0.  0.
         14    1    1    2    0    0 -0.26772808485E-02  0.14746385057E-01 -0.19130569082E-02  0.15109053303E-01  0.00000000000E+00 0. -1.
     999901    1    3    3    0    0  0.14589202710E-01 -0.14889895601E+00 -0.82516203658E-03  0.89262781988E+00  0.88000000000E+00 0.  1.
        -11    1    4    4    0    0 -0.51748957603E-03  0.27244245567E-01 -0.72880914713E-02  0.28211595316E-01  0.51100000000E-03 0. -1.
         11    1    4    4    0    0 -0.11394432285E-01  0.10690832538E+00  0.10026310416E-01  0.10798153150E+00  0.51100000000E-03 0.  1.
</event>
<event>
 8    1  0.1131376E+005  0.1043930E+01  0.7957747E-01            NaN
         13   -1    0    0    0    0  0.00000000000E+00  0.00000000000E+00  0.74505805969E-08  0.10566000000E+00  0.10566000000E+00 0.  1.
     999900   -1    0    0    0    0 -0.00000000000E+00 -0.00000000000E+00 -0.74505805969E-08  0.93827000000E+00  0.93827000000E+00 0.  1.
     999902    2    1    2    0    0 -0.18659791107E-01  0.22336662748E-02  0.16778877802E-01  0.10187365919E+01  0.10184250272E+01 0.  0.
     999903    2    3    3    0    0 -0.12021706620E+00  0.24440430764E-01 -0.41604580167E-01  0.13069625014E+00  0.17351975328E-01 0.  0.
         14    1    1    2    0    0  0.18659791107E-01 -0.22336662748E-02 -0.16778877802E-01  0.25193408056E-01  0.00000000000E+00 0. -1.
     999901    1    3    3    0    0  0.10155727509E+00 -0.22206764489E-01  0.58383457969E-01  0.88804034181E+00  0.88000000000E+00 0. -1.
        -11    1    4    4    0    0 -0.33318381992E-01 -0.88134351406E-03 -0.12838820938E-01  0.35720971278E-01  0.51100000000E-03 0. -1.
         11    1    4    4    0    0 -0.86898684205E-01  0.25321774278E-01 -0.28765759229E-01  0.94975278858E-01  0.51100000000E-03 0.  1.
</event>
<event>
 8    1  0.1131376E+005  0.1043930E+01  0.7957747E-01            NaN
         13   -1    0    0    0    0  0.00000000000E+00  0.00000000000E+00  0.74505805969E-08  0.10566000000E+00  0.10566000000E+00 0.  1.
     999900   -1    0    0    0    0 -0.00000000000E+00 -0.00000000000E+00 -0.74505805969E-08  0.93827000000E+00  0.93827000000E+00 0.  1.
     999902    2    1    2    0    0  0.23066475782E-01 -0.89274684482E-04 -0.44170733707E-03  0.10208591227E+01  0.10205983946E+01 0.  0.
     999903    2    3    3    0    0 -0.10885845687E+00 -0.64280318872E-01 -0.13374009945E-01  0.12861928807E+00  0.19543134214E-01 0.  0.
         14    1    1    2    0    0 -0.23066475782E-01  0.89274684482E-04  0.44170733707E-03  0.23070877321E-01  0.00000000000E+00 0.  1.
     999901    1    3    3    0    0  0.13192493266E+00  0.64191044187E-01  0.12932302608E-01  0.89223983461E+00  0.88000000000E+00 0.  1.
        -11    1    4    4    0    0 -0.25906575984E-01 -0.19787201454E-01  0.41619186807E-02  0.32867411043E-01  0.51100000000E-03 0. -1.
         11    1    4    4    0    0 -0.82951880890E-01 -0.44493117418E-01 -0.17535928625E-01  0.95751877028E-01  0.51100000000E-03 0.  1.
</event>
<event>
 8    1  0.1131376E+005  0.1043930E+01  0.7957747E-01            NaN
         13   -1    0    0    0    0  0.00000000000E+00  0.00000000000E+00  0.74505805969E-08  0.10566000000E+00  0.10566000000E+00 0. -1.
     999900   -1    0    0    0    0 -0.00000000000E+00 -0.00000000000E+00 -0.74505805969E-08  0.93827000000E+00  0.93827000000E+00 0. -1.
     999902    2    1    2    0    0 -0.32136318169E-02  0.25964364099E-01 -0.13618676993E-01  0.10144351870E+01  0.10140063139E+01 0.  0.
     999903    2    3    3    0    0 -0.60655553560E-01  0.10894490010E+00 -0.23956286689E-01  0.12860664267E+00  0.20437158070E-01 0.  0.
         14    1    1    2    0    0  0.32136318169E-02 -0.25964364099E-01  0.13618676993E-01  0.29494813028E-01  0.00000000000E+00 0. -1.
     999901    1    3    3    0    0  0.57441921743E-01 -0.82980536006E-01  0.10337609696E-01  0.88582854430E+00  0.88000000000E+00 0. -1.
        -11    1    4    4    0    0 -0.22866429102E-01  0.22858808853E-01 -0.64903117404E-02  0.32981570453E-01  0.51100000000E-03 0. -1.
         11    1    4    4    0    0 -0.37789124458E-01  0.86086091252E-01 -0.17465974949E-01  0.95625072215E-01  0.51100000000E-03 0.  1.
</event>
<event>
 8    1  0.1131376E+005  0.1043930E+01  0.7957747E-01            NaN
         13   -1    0    0    0    0  0.00000000000E+00  0.00000000000E+00  0.74505805969E-08  0.10566000000E+00  0.10566000000E+00 0.  1.
     999900   -1    0    0    0    0 -0.00000000000E+00 -0.00000000000E+00 -0.74505805969E-08  0.93827000000E+00  0.93827000000E+00 0.  1.
     999902    2    1    2    0    0  0.16847275889E-01  0.11852341195E-01 -0.14547981989E-01  0.10187119018E+01  0.10183997184E+01 0.  0.
     999903    2    3    3    0    0 -0.84998131187E-01 -0.28110078960E-01 -0.90004858561E-01  0.12873256374E+00  0.21362105629E-01 0.  0.
         14    1    1    2    0    0 -0.16847275889E-01 -0.11852341195E-01  0.14547981989E-01  0.25218098196E-01  0.00000000000E+00 0.  1.
     999901    1    3    3    0    0  0.10184540708E+00  0.39962420155E-01  0.75456876572E-01  0.88997933807E+00  0.88000000000E+00 0. -1.
        -11    1    4    4    0    0 -0.14523522381E-01 -0.13313449680E-01 -0.23909780249E-01  0.30985792830E-01  0.51100000000E-03 0.  1.
         11    1    4    4    0    0 -0.70474608805E-01 -0.14796629280E-01 -0.66095078312E-01  0.97746770905E-01  0.51100000000E-03 0. -1.
</event>
<event>
 8    1  0.1131376E+005  0.1043930E+01  0.7957747E-01            NaN
         13   -1    0    0    0    0  0.00000000000E+00  0.00000000000E+00  0.74505805969E-08  0.10566000000E+00  0.10566000000E+00 0.  1.
     999900   -1    0    0    0    0 -0.00000000000E+00 -0.00000000000E+00 -0.74505805969E-08  0.93827000000E+00  0.93827000000E+00 0.  1.
     999902    2    1    2    0    0  0.23159879525E-02  0.10363374401E-01  0.16782081879E-01  0.10240704531E+01  0.10238778694E+01 0.  0.
     999903    2    3    3    0    0 -0.11211448620E+00  0.54964038916E-01 -0.42287759654E-01  0.13358025170E+00  0.21557491458E-01 0.  0.
         14    1    1    2    0    0 -0.23159879525E-02 -0.10363374401E-01 -0.16782081879E-01  0.19859546857E-01  0.00000000000E+00 0. -1.
     999901    1    3    3    0    0  0.11443047415E+00 -0.44600664514E-01  0.59069841532E-01  0.89049020144E+00  0.88000000000E+00 0. -1.
        -11    1    4    4    0    0 -0.50332209551E-01  0.13716826836E-01 -0.21607086938E-01  0.56467778278E-01  0.51100000000E-03 0.  1.
         11    1    4    4    0    0 -0.61782276647E-01  0.41247212080E-01 -0.20680672716E-01  0.77112473421E-01  0.51100000000E-03 0. -1.
</event>
<event>
 8    1  0.1131376E+005  0.1043930E+01  0.7957747E-01            NaN
         13   -1    0    0    0    0  0.00000000000E+00  0.00000000000E+00  0.74505805969E-08  0.10566000000E+00  0.10566000000E+00 0.  1.
     999900   -1    0    0    0    0 -0.00000000000E+00 -0.00000000000E+00 -0.74505805969E-08  0.93827000000E+00  0.93827000000E+00 0.  1.
     999902    2    1    2    0    0 -0.17447101215E-01 -0.15758140879E-01 -0.52992893644E-03  0.10204140231E+01  0.10201430181E+01 0.  0.
     999903    2    3    3    0    0 -0.11610674470E+00  0.56995743075E-01  0.15762785297E-01  0.13176768995E+00  0.19620596880E-01 0.  0.
         14    1    1    2    0    0  0.17447101215E-01  0.15758140879E-01  0.52992893644E-03  0.23515976898E-01  0.00000000000E+00 0. -1.
     999901    1    3    3    0    0  0.98659643483E-01 -0.72753883954E-01 -0.16292714234E-01  0.88864633315E+00  0.88000000000E+00 0.  1.
        -11    1    4    4    0    0 -0.11123657452E-01  0.12137241752E-01 -0.31588816168E-03  0.16474504508E-01  0.51100000000E-03 0.  1.
         11    1    4    4    0    0 -0.10498308725E+00  0.44858501323E-01  0.16078673459E-01  0.11529318544E+00  0.51100000000E-03 0. -1.
</event>
<event>
 8    1  0.1131376E+005  0.1043930E+01  0.7957747E-01            NaN
         13   -1    0    0    0    0  0.00000000000E+00  0.00000000000E+00  0.74505805969E-08  0.10566000000E+00  0.10566000000E+00 0.  1.
     999900   -1    0    0    0    0 -0.00000000000E+00 -0.00000000000E+00 -0.74505805969E-08  0.93827000000E+00  0.93827000000E+00 0. -1.
     999902    2    1    2    0    0  0.23169964625E-01 -0.28185203086E-02 -0.44185682707E-02  0.10201746835E+01  0.10198980683E+01 0.  0.
     999903    2    3    3    0    0 -0.70347698687E-01  0.52239687551E-02  0.10531422001E+00  0.12840592432E+00  0.20516040167E-01 0.  0.
         14    1    1    2    0    0 -0.23169964625E-01  0.28185203086E-02  0.44185682707E-02  0.23755316521E-01  0.00000000000E+00 0. -1.
     999901    1    3    3    0    0  0.93517663313E-01 -0.80424890637E-02 -0.10973278828E+00  0.89176875916E+00  0.88000000000E+00 0. -1.
        -11    1    4    4    0    0 -0.40574970215E-01  0.12154105818E-01  0.53431265736E-01  0.68185128696E-01  0.51100000000E-03 0. -1.
         11    1    4    4    0    0 -0.29772728472E-01 -0.69301370630E-02  0.51882954277E-01  0.60220795627E-01  0.51100000000E-03 0.  1.
</event>
<event>
 8    1  0.1131376E+005  0.1043930E+01  0.7957747E-01            NaN
         13   -1    0    0    0    0  0.00000000000E+00  0.00000000000E+00  0.74505805969E-08  0.10566000000E+00  0.10566000000E+00 0. -1.
     999900   -1    0    0    0    0 -0.00000000000E+00 -0.00000000000E+00 -0.74505805969E-08  0.93827000000E+00  0.93827000000E+00 0. -1.
     999902    2    1    2    0    0 -0.86847726736E-02  0.12833327508E-01  0.17184939479E-01  0.10207903864E+01  0.10205280845E+01 0.  0.
     999903    2    3    3    0    0 -0.10758592412E+00  0.75017125288E-01 -0.32197928173E-02  0.13283508600E+00  0.20796462474E-01 0.  0.
         14    1    1    2    0    0  0.86847726736E-02 -0.12833327508E-01 -0.17184939479E-01  0.23139613571E-01  0.00000000000E+00 0.  1.
     999901    1    3    3    0    0  0.98901151445E-01 -0.62183797780E-01  0.20404732296E-01  0.88795530043E+00  0.88000000000E+00 0.  1.
        -11    1    4    4    0    0 -0.60491080720E-01  0.30762363998E-01  0.28351286369E-02  0.67924906778E-01  0.51100000000E-03 0. -1.
         11    1    4    4    0    0 -0.47094843399E-01  0.44254761290E-01 -0.60549214542E-02  0.64910179220E-01  0.51100000000E-03 0.  1.
</event>
<event>
 8    1  0.1131376E+005  0.1043930E+01  0.7957747E-01            NaN
         13   -1    0    0    0    0  0.00000000000E+00  0.00000000000E+00  0.74505805969E-08  0.10566000000E+00  0.10566000000E+00 0.  1.
     999900   -1    0    0    0    0 -0.00000000000E+00 -0.00000000000E+00 -0.74505805969E-08  0.93827000000E+00  0.93827000000E+00 0. -1.
     999902    2    1    2    0    0 -0.25521615216E-02 -0.22101607683E-01 -0.42531560188E-02  0.10212786440E+01  0.10210274163E+01 0.  0.
     999903    2    3    3    0    0 -0.58531063005E-01  0.91263482973E-01  0.67505118606E-01  0.12935121921E+00  0.20491174008E-01 0.  0.
         14    1    1    2    0    0  0.25521615216E-02  0.22101607683E-01  0.42531560188E-02  0.22651355958E-01  0.00000000000E+00 0. -1.
     999901    1    3    3    0    0  0.55978901483E-01 -0.11336509066E+00 -0.71758274625E-01  0.89192742483E+00  0.88000000000E+00 0.  1.
        -11    1    4    4    0    0 -0.34377384028E-01  0.42625890229E-01  0.43670310071E-01  0.70043758845E-01  0.51100000000E-03 0.  1.
         11    1    4    4    0    0 -0.24153678977E-01  0.48637592743E-01  0.23834808535E-01  0.59307460364E-01  0.51100000000E-03 0. -1.
</event>
<event>
 8    1  0.1131376E+005  0.1043930E+01  0.7957747E-01            NaN
         13   -1    0    0    0    0  0.00000000000E+00  0.00000000000E+00  0.74505805969E-08  0.10566000000E+00  0.10566000000E+00 0.  1.
     999900   -1    0    0    0    0 -0.00000000000E+00 -0.00000000000E+00 -0.74505805969E-08  0.93827000000E+00  0.93827000000E+00 0. -1.
     999902    2    1    2    0    0 -0.19840345931E-01 -0.11361459481E-01 -0.27713241227E-03  0.10210652041E+01  0.10208091654E+01 0.  0.
     999903    2    3    3    0    0  0.39279068931E-01 -0.31154957011E-02  0.12278560673E+00  0.13049935091E+00  0.20030571616E-01 0.  0.
         14    1    1    2    0    0  0.19840345931E-01  0.11361459481E-01  0.27713241227E-03  0.22864795878E-01  0.00000000000E+00 0.  1.
     999901    1    3    3    0    0 -0.59119414862E-01 -0.82459637803E-02 -0.12306273914E+00  0.89056585321E+00  0.88000000000E+00 0. -1.
        -11    1    4    4    0    0  0.22854470494E-01 -0.68792616944E-02  0.45347609042E-01  0.51247612919E-01  0.51100000000E-03 0.  1.
         11    1    4    4    0    0  0.16424598437E-01  0.37637659933E-02  0.77437997690E-01  0.79251737996E-01  0.51100000000E-03 0. -1.
</event>
<event>
 8    1  0.1131376E+005  0.1043930E+01  0.7957747E-01            NaN
         13   -1    0    0    0    0  0.00000000000E+00  0.00000000000E+00  0.74505805969E-08  0.10566000000E+00  0.10566000000E+00 0.  1.
     999900   -1    0    0    0    0 -0.00000000000E+00 -0.00000000000E+00 -0.74505805969E-08  0.93827000000E+00  0.93827000000E+00 0. -1.
     999902    2    1    2    0    0  0.70533174411E-02 -0.13560091048E-02 -0.23952433885E-01  0.10189238580E+01  0.10186169650E+01 0.  0.
     999903    2    3    3    0    0  0.50106387943E-01 -0.67342814952E-02 -0.12084969516E+00  0.13254269174E+00  0.20172150447E-01 0.  0.
         14    1    1    2    0    0 -0.70533174411E-02  0.13560091048E-02  0.23952433885E-01  0.25006141978E-01  0.00000000000E+00 0.  1.
     999901    1    3    3    0    0 -0.43053070502E-01  0.53782723904E-02  0.96897261276E-01  0.88638116628E+00  0.88000000000E+00 0.  1.
        -11    1    4    4    0    0  0.27211180865E-03  0.30569100302E-02 -0.12473601881E-01  0.12855761691E-01  0.51100000000E-03 0.  1.
         11    1    4    4    0    0  0.49834276135E-01 -0.97911915254E-02 -0.10837609328E+00  0.11968693005E+00  0.51100000000E-03 0. -1.
</event>
<event>
 8    1  0.1131376E+005  0.1043930E+01  0.7957747E-01            NaN
         13   -1    0    0    0    0  0.00000000000E+00  0.00000000000E+00  0.74505805969E-08  0.10566000000E+00  0.10566000000E+00 0.  1.
     999900   -1    0    0    0    0 -0.00000000000E+00 -0.00000000000E+00 -0.74505805969E-08  0.93827000000E+00  0.93827000000E+00 0.  1.
     999902    2    1    2    0    0  0.21783611583E-01  0.35145945203E-02 -0.96400160990E-02  0.10198507970E+01  0.10195664961E+01 0.  0.
     999903    2    3    3    0    0  0.42014547288E-02  0.11660076556E+00 -0.56582331868E-01  0.13119946189E+00  0.19958651555E-01 0.  0.
         14    1    1    2    0    0 -0.21783611583E-01 -0.35145945203E-02  0.96400160990E-02  0.24079203032E-01  0.00000000000E+00 0.  1.
     999901    1    3    3    0    0  0.17582156854E-01 -0.11308617103E+00  0.46942315769E-01  0.88865133507E+00  0.88000000000E+00 0.  1.
        -11    1    4    4    0    0  0.90100317402E-02  0.94427079404E-01 -0.51525367209E-01  0.10794803650E+00  0.51100000000E-03 0. -1.
         11    1    4    4    0    0 -0.48085770114E-02  0.22173686152E-01 -0.50569646588E-02  0.23251425397E-01  0.51100000000E-03 0.  1.
</event>
<event>
 8    1  0.1131376E+005  0.1043930E+01  0.7957747E-01            NaN
         13   -1    0    0    0    0  0.00000000000E+00  0.00000000000E+00  0.74505805969E-08  0.10566000000E+00  0.10566000000E+00 0.  1.
     999900   -1    0    0    0    0 -0.00000000000E+00 -0.00000000000E+00 -0.74505805969E-08  0.93827000000E+00  0.93827000000E+00 0.  1.
     999902    2    1    2    0    0  0.18548456444E-01  0.59014284358E-02  0.27218862253E-02  0.10242759735E+01  0.10240873933E+01 0.  0.
     999903    2    3    3    0    0  0.40994910352E-01 -0.11703806172E+00  0.47419951882E-01  0.13432323394E+00  0.20385994544E-01 0.  0.
         14    1    1    2    0    0 -0.18548456444E-01 -0.59014284358E-02 -0.27218862253E-02  0.19654026526E-01  0.00000000000E+00 0. -1.
     999901    1    3    3    0    0 -0.22446453907E-01  0.12293949016E+00 -0.44698065657E-01  0.88995273954E+00  0.88000000000E+00 0. -1.
        -11    1    4    4    0    0  0.17492929603E-01 -0.57122607234E-01  0.12276287562E-01  0.60991501053E-01  0.51100000000E-03 0. -1.
         11    1    4    4    0    0  0.23501980748E-01 -0.59915454485E-01  0.35143664321E-01  0.73331732886E-01  0.51100000000E-03 0.  1.
</event>
<event>
 8    1  0.1131376E+005  0.1043930E+01  0.7957747E-01            NaN
         13   -1    0    0    0    0  0.00000000000E+00  0.00000000000E+00  0.74505805969E-08  0.10566000000E+00  0.10566000000E+00 0. -1.
     999900   -1    0    0    0    0 -0.00000000000E+00 -0.00000000000E+00 -0.74505805969E-08  0.93827000000E+00  0.93827000000E+00 0.  1.
     999902    2    1    2    0    0  0.14082251663E-01  0.17632849350E-01 -0.87238904700E-02  0.10197363344E+01  0.10194492917E+01 0.  0.
     999903    2    3    3    0    0  0.97418143204E-01 -0.33936267962E-01  0.76855183024E-01  0.13017013539E+00  0.19889195087E-01 0.  0.
         14    1    1    2    0    0 -0.14082251663E-01 -0.17632849350E-01  0.87238904700E-02  0.24193665556E-01  0.00000000000E+00 0.  1.
     999901    1    3    3    0    0 -0.83335891541E-01  0.51569117312E-01 -0.85579073494E-01  0.88956619905E+00  0.88000000000E+00 0.  1.
        -11    1    4    4    0    0  0.11577522368E-01 -0.94292071373E-02  0.56278586903E-02  0.15965052015E-01  0.51100000000E-03 0.  1.
         11    1    4    4    0    0  0.85840620836E-01 -0.24507060825E-01  0.71227324334E-01  0.11420508337E+00  0.51100000000E-03 0. -1.
</event>
<event>
 8    1  0.1131376E+005  0.1043930E+01  0.7957747E-01            NaN
         13   -1    0    0    0    0  0.00000000000E+00  0.00000000000E+00  0.74505805969E-08  0.10566000000E+00  0.10566000000E+00 0. -1.
     999900   -1    0    0    0    0 -0.00000000000E+00 -0.00000000000E+00 -0.74505805969E-08  0.93827000000E+00  0.93827000000E+00 0. -1.
     999902    2    1    2    0    0  0.19066265846E-01 -0.10946341334E-01  0.25362602043E-01  0.10103650411E+01  0.10098073627E+01 0.  0.
     999903    2    3    3    0    0  0.11671682351E+00  0.24253548493E-01  0.29515437196E-01  0.12425448950E+00  0.18893533942E-01 0.  0.
         14    1    1    2    0    0 -0.19066265846E-01  0.10946341334E-01 -0.25362602043E-01  0.33564958875E-01  0.00000000000E+00 0.  1.
     999901    1    3    3    0    0 -0.97650557661E-01 -0.35199889827E-01 -0.41528351530E-02  0.88611055162E+00  0.88000000000E+00 0.  1.
        -11    1    4    4    0    0  0.24846933835E-01  0.48768029082E-02  0.14457601818E-01  0.29162247837E-01  0.51100000000E-03 0. -1.
         11    1    4    4    0    0  0.91869889672E-01  0.19376745585E-01  0.15057835378E-01  0.95092241666E-01  0.51100000000E-03 0.  1.
</event>
<event>
 8    1  0.1131376E+005  0.1043930E+01  0.7957747E-01            NaN
         13   -1    0    0    0    0  0.00000000000E+00  0.00000000000E+00  0.74505805969E-08  0.10566000000E+00  0.10566000000E+00 0. -1.
     999900   -1    0    0    0    0 -0.00000000000E+00 -0.00000000000E+00 -0.74505805969E-08  0.93827000000E+00  0.93827000000E+00 0. -1.
     999902    2    1    2    0    0 -0.51256889908E-02  0.22620082469E-01 -0.37750211930E-02  0.10204312425E+01  0.10201606389E+01 0.  0.
     999903    2    3    3    0    0 -0.54364268575E-01 -0.63159052007E-01  0.95745799486E-01  0.12931571051E+00  0.24713464275E-01 0.  0.
         14    1    1    2    0    0  0.51256889908E-02 -0.22620082469E-01  0.37750211930E-02  0.23498757489E-01  0.00000000000E+00 0. -1.
     999901    1    3    3    0    0  0.49238579584E-01  0.85779134476E-01 -0.99520820679E-01  0.89111553200E+00  0.88000000000E+00 0. -1.
        -11    1    4    4    0    0  0.22812346628E-02 -0.16464226606E-02  0.60154818223E-02  0.66604715838E-02  0.51100000000E-03 0.  1.
         11    1    4    4    0    0 -0.56645503238E-01 -0.61512629347E-01  0.89730317663E-01  0.12265523892E+00  0.51100000000E-03 0. -1.
</event>
<event>
 8    1  0.1131376E+005  0.1043930E+01  0.7957747E-01            NaN
         13   -1    0    0    0    0  0.00000000000E+00  0.00000000000E+00  0.74505805969E-08  0.10566000000E+00  0.10566000000E+00 0.  1.
     999900   -1    0    0    0    0 -0.00000000000E+00 -0.00000000000E+00 -0.74505805969E-08  0.93827000000E+00  0.93827000000E+00 0.  1.
     999902    2    1    2    0    0  0.16987124015E-01  0.29719718198E-02  0.16853228687E-01  0.10198172168E+01  0.10195321129E+01 0.  0.
     999903    2    3    3    0    0  0.96765107531E-01 -0.51077663051E-02 -0.84685143156E-01  0.13035679055E+00  0.20778451795E-01 0.  0.
         14    1    1    2    0    0 -0.16987124015E-01 -0.29719718198E-02 -0.16853228687E-01  0.24112783248E-01  0.00000000000E+00 0. -1.
     999901    1    3    3    0    0 -0.79777983516E-01  0.80797381249E-02  0.10153837184E+00  0.88946042620E+00  0.88000000000E+00 0. -1.
        -11    1    4    4    0    0  0.68412180383E-01  0.49386488343E-02 -0.64286551090E-01  0.94008714752E-01  0.51100000000E-03 0.  1.
         11    1    4    4    0    0  0.28352927148E-01 -0.10046415139E-01 -0.20398592066E-01  0.36348075799E-01  0.51100000000E-03 0. -1.
</event>
<event>
 8    1  0.1131376E+005  0.1043930E+01  0.7957747E-01            NaN
         13   -1    0    0    0    0  0.00000000000E+00  0.00000000000E+00  0.74505805969E-08  0.10566000000E+00  0.10566000000E+00 0.  1.
     999900   -1    0    0    0    0 -0.00000000000E+00 -0.00000000000E+00 -0.74505805969E-08  0.93827000000E+00  0.93827000000E+00 0.  1.
     999902    2    1    2    0    0 -0.36331527778E-02  0.16240640977E-01 -0.14936573727E-01  0.10215679909E+01  0.10213232106E+01 0.  0.
     999903    2    3    3    0    0  0.36949898947E-01 -0.85168029708E-01 -0.91149394302E-01  0.13154602674E+00  0.19423098449E-01 0.  0.
         14    1    1    2    0    0  0.36331527778E-02 -0.16240640977E-01  0.14936573727E-01  0.22362009148E-01  0.00000000000E+00 0.  1.
     999901    1    3    3    0    0 -0.40583051725E-01  0.10140867069E+00  0.76212820576E-01  0.89002196411E+00  0.88000000000E+00 0. -1.
        -11    1    4    4    0    0  0.14880994871E-01 -0.37014173167E-01 -0.52659872248E-01  0.66066756313E-01  0.51100000000E-03 0.  1.
         11    1    4    4    0    0  0.22068904077E-01 -0.48153856541E-01 -0.38489522055E-01  0.65479270429E-01  0.51100000000E-03 0. -1.
</event>
<event>
 8    1  0.1131376E+005  0.1043930E+01  0.7957747E-01            NaN
         13   -1    0    0    0    0  0.00000000000E+00  0.00000000000E+00  0.74505805969E-08  0.10566000000E+00  0.10566000000E+00 0. -1.
     999900   -1    0    0    0    0 -0.00000000000E+00 -0.00000000000E+00 -0.74505805969E-08  0.93827000000E+00  0.93827000000E+00 0.  1.
     999902    2    1    2    0    0 -0.15918610299E-01 -0.54611085882E-02 -0.16514003611E-01  0.10203516587E+01  0.10200791976E+01 0.  0.
     999903    2    3    3    0    0 -0.10509457658E+00  0.40682234380E-01 -0.68503947045E-01  0.13311746459E+00  0.18098463968E-01 0.  0.
         14    1    1    2    0    0  0.15918610299E-01  0.54611085882E-02  0.16514003611E-01  0.23578341251E-01  0.00000000000E+00 0. -1.
     999901    1    3    3    0    0  0.89175966282E-01 -0.46143342968E-01  0.51989943434E-01  0.88723419416E+00  0.88000000000E+00 0. -1.
        -11    1    4    4    0    0 -0.98003289678E-01  0.33802693132E-01 -0.58450333904E-01  0.11901247626E+00  0.51100000000E-03 0. -1.
         11    1    4    4    0    0 -0.70912869028E-02  0.68795412477E-02 -0.10053613141E-01  0.14104988334E-01  0.51100000000E-03 0.  1.
</event>
<event>
 8    1  0.1131376E+005  0.1043930E+01  0.7957747E-01            NaN
         13   -1    0    0    0    0  0.00000000000E+00  0.00000000000E+00  0.74505805969E-08  0.10566000000E+00  0.10566000000E+00 0. -1.
     999900   -1    0    0    0    0 -0.00000000000E+00 -0.00000000000E+00 -0.74505805969E-08  0.93827000000E+00  0.93827000000E+00 0. -1.
     999902    2    1    2    0    0 -0.57880812998E-02 -0.86721030610E-02 -0.21350330926E-01  0.10201698677E+01  0.10198931390E+01 0.  0.
     999903    2    3    3    0    0  0.42426430816E-01 -0.96219101640E-01  0.72756423022E-01  0.12952673081E+00  0.20629089914E-01 0.  0.
         14    1    1    2    0    0  0.57880812998E-02  0.86721030610E-02  0.21350330926E-01  0.23760132308E-01  0.00000000000E+00 0. -1.
     999901    1    3    3    0    0 -0.48214512116E-01  0.87546998579E-01 -0.94106753949E-01  0.89064313688E+00  0.88000000000E+00 0. -1.
        -11    1    4    4    0    0  0.21223588352E-01 -0.52326496804E-01  0.26701790972E-01  0.62463987484E-01  0.51100000000E-03 0. -1.
         11    1    4    4    0    0  0.21202842464E-01 -0.43892604836E-01  0.46054632051E-01  0.67062743324E-01  0.51100000000E-03 0.  1.
</event>
<event>
 8    1  0.1131376E+005  0.1043930E+01  0.7957747E-01            NaN
         13   -1    0    0    0    0  0.00000000000E+00  0.00000000000E+00  0.74505805969E-08  0.10566000000E+00  0.10566000000E+00 0. -1.
     999900   -1    0    0    0    0 -0.00000000000E+00 -0.00000000000E+00 -0.74505805969E-08  0.93827000000E+00  0.93827000000E+00 0.  1.
     999902    2    1    2    0    0 -0.12083836059E-01 -0.19570152297E-01  0.55656884806E-02  0.10202659589E+01  0.10199914901E+01 0.  0.
     999903    2    3    3    0    0 -0.95241711900E-02 -0.75192641552E-01 -0.10560623306E+00  0.13152549656E+00  0.20040873338E-01 0.  0.
         14    1    1    2    0    0  0.12083836059E-01  0.19570152297E-01 -0.55656884806E-02  0.23664041141E-01  0.00000000000E+00 0.  1.
     999901    1    3    3    0    0 -0.25596648687E-02  0.55622489255E-01  0.11117192154E+00  0.88874046230E+00  0.88000000000E+00 0. -1.
        -11    1    4    4    0    0 -0.64635256958E-02 -0.18005808547E-01 -0.40634039625E-01  0.44915171191E-01  0.51100000000E-03 0. -1.
         11    1    4    4    0    0 -0.30606454942E-02 -0.57186833005E-01 -0.64972193430E-01  0.86610325367E-01  0.51100000000E-03 0.  1.
</event>
<event>
 8    1  0.1131376E+005  0.1043930E+01  0.7957747E-01            NaN
         13   -1    0    0    0    0  0.00000000000E+00  0.00000000000E+00  0.74505805969E-08  0.10566000000E+00  0.10566000000E+00 0.  1.
     999900   -1    0    0    0    0 -0.00000000000E+00 -0.00000000000E+00 -0.74505805969E-08  0.93827000000E+00  0.93827000000E+00 0. -1.
     999902    2    1    2    0    0  0.71190944226E-02  0.21484378330E-01  0.40270947453E-02  0.10209413613E+01  0.10206825097E+01 0.  0.
     999903    2    3    3    0    0  0.66804102372E-01 -0.71783936757E-01 -0.82542734854E-01  0.12978727014E+00  0.20388985846E-01 0.  0.
         14    1    1    2    0    0 -0.71190944226E-02 -0.21484378330E-01 -0.40270947453E-02  0.22988638709E-01  0.00000000000E+00 0. -1.
     999901    1    3    3    0    0 -0.59685007949E-01  0.93268315087E-01  0.86569829599E-01  0.89115409115E+00  0.88000000000E+00 0.  1.
        -11    1    4    4    0    0  0.15951029322E-01 -0.69097202550E-02 -0.18590655070E-01  0.25456888014E-01  0.51100000000E-03 0.  1.
         11    1    4    4    0    0  0.50853073050E-01 -0.64874216502E-01 -0.63952079784E-01  0.10433038213E+00  0.51100000000E-03 0. -1.
</event>
<event>
 8    1  0.1131376E+005  0.1043930E+01  0.7957747E-01            NaN
         13   -1    0    0    0    0  0.00000000000E+00  0.00000000000E+00  0.74505805969E-08  0.10566000000E+00  0.10566000000E+00 0. -1.
     999900   -1    0    0    0    0 -0.00000000000E+00 -0.00000000000E+00 -0.74505805969E-08  0.93827000000E+00  0.93827000000E+00 0. -1.
     999902    2    1    2    0    0 -0.12390929151E-02 -0.13806267095E-02 -0.23802755013E-01  0.10200550628E+01  0.10197756216E+01 0.  0.
     999903    2    3    3    0    0  0.15184525714E-01 -0.12786251427E+00 -0.10672685863E-01  0.13076332108E+00  0.20143175988E-01 0.  0.
         14    1    1    2    0    0  0.12390929151E-02  0.13806267095E-02  0.23802755013E-01  0.23874937226E-01  0.00000000000E+00 0. -1.
     999901    1    3    3    0    0 -0.16423618629E-01  0.12648188756E+00 -0.13130069150E-01  0.88929174169E+00  0.88000000000E+00 0.  1.
        -11    1    4    4    0    0  0.73880126878E-02 -0.12610048197E-01 -0.34225674500E-02  0.15019025799E-01  0.51100000000E-03 0. -1.
         11    1    4    4    0    0  0.77965130264E-02 -0.11525246608E+00 -0.72501184128E-02  0.11574429528E+00  0.51100000000E-03 0.  1.
</event>
<event>
 8    1  0.1131376E+005  0.1043930E+01  0.7957747E-01            NaN
         13   -1    0    0    0    0  0.00000000000E+00  0.00000000000E+00  0.74505805969E-08  0.10566000000E+00  0.10566000000E+00 0. -1.
     999900   -1    0    0    0    0 -0.00000000000E+00 -0.00000000000E+00 -0.74505805969E-08  0.93827000000E+00  0.93827000000E+00 0.  1.
     999902    2    1    2    0    0  0.97058164675E-03  0.14447333641E-01  0.21066331040E-01  0.10183671797E+01  0.10180462931E+01 0.  0.
     999903    2    3    3    0    0  0.53012915989E-01  0.61242362851E-01 -0.96363772426E-01  0.12781229171E+00  0.22113548055E-01 0.  0.
         14    1    1    2    0    0 -0.97058164675E-03 -0.14447333641E-01 -0.21066331040E-01  0.25562820297E-01  0.00000000000E+00 0.  1.
     999901    1    3    3    0    0 -0.52042334342E-01 -0.46795029210E-01  0.11743010347E+00  0.89055488799E+00  0.88000000000E+00 0. -1.
        -11    1    4    4    0    0  0.19975624218E-01  0.12232571036E-01 -0.38679622445E-01  0.45222070613E-01  0.51100000000E-03 0. -1.
         11    1    4    4    0    0  0.33037291771E-01  0.49009791815E-01 -0.57684149981E-01  0.82590221100E-01  0.51100000000E-03 0.  1.
</event>
<event>
 8    1  0.1131376E+005  0.1043930E+01  0.7957747E-01            NaN
         13   -1    0    0    0    0  0.00000000000E+00  0.00000000000E+00  0.74505805969E-08  0.10566000000E+00  0.10566000000E+00 0.  1.
     999900   -1    0    0    0    0 -0.00000000000E+00 -0.00000000000E+00 -0.74505805969E-08  0.93827000000E+00  0.93827000000E+00 0. -1.
     999902    2    1    2    0    0  0.14013118924E-02  0.18060684964E-01 -0.13257941297E-01  0.10214817256E+01  0.10212350321E+01 0.  0.
     999903    2    3    3    0    0  0.82121665772E-01 -0.68350563574E-01 -0.74034600817E-01  0.13149493819E+00  0.19850166803E-01 0.  0.
         14    1    1    2    0    0 -0.14013118924E-02 -0.18060684964E-01  0.13257941297E-01  0.22448274407E-01  0.00000000000E+00 0.  1.
     999901    1    3    3    0    0 -0.80720353880E-01  0.86411248539E-01  0.60776659520E-01  0.88998678740E+00  0.88000000000E+00 0.  1.
        -11    1    4    4    0    0  0.66548579378E-01 -0.62463104864E-01 -0.67843495925E-01  0.11372490469E+00  0.51100000000E-03 0.  1.
         11    1    4    4    0    0  0.15573086395E-01 -0.58874587106E-02 -0.61911048927E-02  0.17770033503E-01  0.51100000000E-03 0. -1.
</event>
<event>
 8    1  0.1131376E+005  0.1043930E+01  0.7957747E-01            NaN
         13   -1    0    0    0    0  0.00000000000E+00  0.00000000000E+00  0.74505805969E-08  0.10566000000E+00  0.10566000000E+00 0. -1.
     999900   -1    0    0    0    0 -0.00000000000E+00 -0.00000000000E+00 -0.74505805969E-08  0.93827000000E+00  0.93827000000E+00 0.  1.
     999902    2    1    2    0    0  0.77549375377E-02 -0.17777430801E-01 -0.14696112675E-01  0.10195958300E+01  0.10193054031E+01 0.  0.
     999903    2    3    3    0    0  0.12036554874E+00 -0.12872549276E-01  0.41918095191E-01  0.13060180518E+00  0.25419224296E-01 0.  0.
         14    1    1    2    0    0 -0.77549375377E-02  0.17777430801E-01  0.14696112675E-01  0.24334170006E-01  0.00000000000E+00 0.  1.
     999901    1    3    3    0    0 -0.11261061120E+00 -0.49048815256E-02 -0.56614207866E-01  0.88899402481E+00  0.88000000000E+00 0.  1.
        -11    1    4    4    0    0  0.70537462004E-01 -0.57023887706E-02  0.11265769017E-01  0.71660515322E-01  0.51100000000E-03 0.  1.
         11    1    4    4    0    0  0.49828086737E-01 -0.71701605050E-02  0.30652326173E-01  0.58941289860E-01  0.51100000000E-03 0. -1.
</event>
<event>
 8    1  0.1131376E+005  0.1043930E+01  0.7957747E-01            NaN
         13   -1    0    0    0    0  0.00000000000E+00  0.00000000000E+00  0.74505805969E-08  0.10566000000E+00  0.10566000000E+00 0.  1.
     999900   -1    0    0    0    0 -0.00000000000E+00 -0.00000000000E+00 -0.74505805969E-08  0.93827000000E+00  0.93827000000E+00 0.  1.
     999902    2    1    2    0    0  0.42503444171E-03  0.25825651471E-01 -0.12823711406E-02  0.10180690371E+01  0.10177405243E+01 0.  0.
     999903    2    3    3    0    0 -0.88542288725E-01 -0.74391264957E-01 -0.47258429971E-01  0.12673721731E+00  0.21334616295E-01 0.  0.
         14    1    1    2    0    0 -0.42503444171E-03 -0.25825651471E-01  0.12823711406E-02  0.25860962935E-01  0.00000000000E+00 0. -1.
     999901    1    3    3    0    0  0.88967323167E-01  0.10021691643E+00  0.45976058831E-01  0.89133181976E+00  0.88000000000E+00 0. -1.
        -11    1    4    4    0    0 -0.60925674722E-01 -0.48268310456E-01 -0.42017196721E-01  0.88359909325E-01  0.51100000000E-03 0.  1.
         11    1    4    4    0    0 -0.27616614004E-01 -0.26122954501E-01 -0.52412332501E-02  0.38377307981E-01  0.51100000000E-03 0. -1.
</event>
<event>
 8    1  0.1131376E+005  0.1043930E+01  0.7957747E-01            NaN
         13   -1    0    0    0    0  0.00000000000E+00  0.00000000000E+00  0.74505805969E-08  0.10566000000E+00  0.10566000000E+00 0.  1.
     999900   -1    0    0    0    0 -0.00000000000E+00 -0.00000000000E+00 -0.74505805969E-08  0.93827000000E+00  0.93827000000E+00 0. -1.
     999902    2    1    2    0    0 -0.20057834953E-01 -0.76351767093E-02 -0.10610713340E-01  0.10199884064E+01  0.10197073842E+01 0.  0.
     999903    2    3    3    0    0  0.94530077134E-01  0.83606539837E-01  0.63960411940E-03  0.12781016744E+00  0.20224757630E-01 0.  0.
         14    1    1    2    0    0  0.20057834953E-01  0.76351767093E-02  0.10610713340E-01  0.23941593597E-01  0.00000000000E+00 0.  1.
     999901    1    3    3    0    0 -0.11458791209E+00 -0.91241716546E-01 -0.11250317459E-01  0.89217823896E+00  0.88000000000E+00 0. -1.
        -11    1    4    4    0    0  0.81363272794E-01  0.61265213116E-01 -0.39341296994E-03  0.10185197294E+00  0.51100000000E-03 0. -1.
         11    1    4    4    0    0  0.13166804340E-01  0.22341326720E-01  0.10330170893E-02  0.25958194495E-01  0.51100000000E-03 0.  1.
</event>
<event>
 8    1  0.1131376E+005  0.1043930E+01  0.7957747E-01            NaN
         13   -1    0    0    0    0  0.00000000000E+00  0.00000000000E+00  0.74505805969E-08  0.10566000000E+00  0.10566000000E+00 0.  1.
     999900   -1    0    0    0    0 -0.00000000000E+00 -0.00000000000E+00 -0.74505805969E-08  0.93827000000E+00  0.93827000000E+00 0.  1.
     999902    2    1    2    0    0  0.17756193231E-01 -0.58734846683E-02  0.15630776012E-01  0.10195558051E+01  0.10192644104E+01 0.  0.
     999903    2    3    3    0    0 -0.57857057233E-01 -0.61907950377E-01 -0.93658809816E-01  0.12781512607E+00  0.19613780995E-01 0.  0.
         14    1    1    2    0    0 -0.17756193231E-01  0.58734846683E-02 -0.15630776012E-01  0.24374194940E-01  0.00000000000E+00 0.  1.
     999901    1    3    3    0    0  0.75613250464E-01  0.56034465708E-01  0.10928958583E+00  0.89174067899E+00  0.88000000000E+00 0. -1.
        -11    1    4    4    0    0 -0.22673759180E-02 -0.12074883476E-01 -0.14239593685E-01  0.18814115813E-01  0.51100000000E-03 0.  1.
         11    1    4    4    0    0 -0.55589681315E-01 -0.49833066901E-01 -0.79419216131E-01  0.10900101026E+00  0.51100000000E-03 0. -1.
</event>
<event>
 8    1  0.1131376E+005  0.1043930E+01  0.7957747E-01            NaN
         13   -1    0    0    0    0  0.00000000000E+00  0.00000000000E+00  0.74505805969E-08  0.10566000000E+00  0.10566000000E+00 0.  1.
     999900   -1    0    0    0    0 -0.00000000000E+00 -0.00000000000E+00 -0.74505805969E-08  0.93827000000E+00  0.93827000000E+00 0. -1.
     999902    2    1    2    0    0  0.17897553855E-01  0.10249266932E-01  0.12036585980E-01  0.10200501066E+01  0.10197705481E+01 0.  0.
     999903    2    3    3    0    0 -0.47039362127E-01 -0.11627870345E+00 -0.16902048722E-01  0.12816245957E+00  0.20161803692E-01 0.  0.
         14    1    1    2    0    0 -0.17897553855E-01 -0.10249266932E-01 -0.12036585980E-01  0.23879893398E-01  0.00000000000E+00 0. -1.
     999901    1    3    3    0    0  0.64936915982E-01  0.12652797038E+00  0.28938634703E-01  0.89188764703E+00  0.88000000000E+00 0.  1.
        -11    1    4    4    0    0 -0.39118224887E-01 -0.71702810033E-01 -0.86265457346E-02  0.82135296294E-01  0.51100000000E-03 0. -1.
         11    1    4    4    0    0 -0.79211372401E-02 -0.44575893413E-01 -0.82755029878E-02  0.46027163279E-01  0.51100000000E-03 0.  1.
</event>
<event>
 8    1  0.1131376E+005  0.1043930E+01  0.7957747E-01            NaN
         13   -1    0    0    0    0  0.00000000000E+00  0.00000000000E+00  0.74505805969E-08  0.10566000000E+00  0.10566000000E+00 0.  1.
     999900   -1    0    0    0    0 -0.00000000000E+00 -0.00000000000E+00 -0.74505805969E-08  0.93827000000E+00  0.93827000000E+00 0.  1.
     999902    2    1    2    0    0 -0.16426278141E-01  0.15540065837E-01  0.61522932745E-02  0.10204956881E+01  0.10202265839E+01 0.  0.
     999903    2    3    3    0    0 -0.11056857436E+00 -0.24054324398E-01  0.65920929031E-01  0.13257520888E+00  0.20654223919E-01 0.  0.
         14    1    1    2    0    0  0.16426278141E-01 -0.15540065837E-01 -0.61522932745E-02  0.23434311860E-01  0.00000000000E+00 0.  1.
     999901    1    3    3    0    0  0.94142296221E-01  0.39594390235E-01 -0.59768635756E-01  0.88792047926E+00  0.88000000000E+00 0.  1.
        -11    1    4    4    0    0 -0.10161714236E+00 -0.19140337561E-01  0.65371861393E-01  0.12233616606E+00  0.51100000000E-03 0.  1.
         11    1    4    4    0    0 -0.89514319995E-02 -0.49139868374E-02  0.54906763762E-03  0.10239042814E-01  0.51100000000E-03 0. -1.
</event>
<event>
 8    1  0.1131376E+005  0.1043930E+01  0.7957747E-01            NaN
         13   -1    0    0    0    0  0.00000000000E+00  0.00000000000E+00  0.74505805969E-08  0.10566000000E+00  0.10566000000E+00 0. -1.
     999900   -1    0    0    0    0 -0.00000000000E+00 -0.00000000000E+00 -0.74505805969E-08  0.93827000000E+00  0.93827000000E+00 0. -1.
     999902    2    1    2    0    0 -0.23170131101E-01  0.23896342522E-02  0.49126859671E-02  0.10201245424E+01  0.10198467445E+01 0.  0.
     999903    2    3    3    0    0 -0.52662602438E-01 -0.27102053746E-01 -0.11606842646E+00  0.13086867649E+00  0.12118574715E-01 0.  0.
         14    1    1    2    0    0  0.23170131101E-01 -0.23896342522E-02 -0.49126859671E-02  0.23805457579E-01  0.00000000000E+00 0.  1.
     999901    1    3    3    0    0  0.29492471337E-01  0.29491687999E-01  0.12098111243E+00  0.88925586593E+00  0.88000000000E+00 0.  1.
        -11    1    4    4    0    0 -0.51471274146E-01 -0.24200562115E-01 -0.10580605097E+00  0.12012552107E+00  0.51100000000E-03 0. -1.
         11    1    4    4    0    0 -0.11913282921E-02 -0.29014916310E-02 -0.10262375487E-01  0.10743155422E-01  0.51100000000E-03 0.  1.
</event>
<event>
 8    1  0.1131376E+005  0.1043930E+01  0.7957747E-01            NaN
         13   -1    0    0    0    0  0.00000000000E+00  0.00000000000E+00  0.74505805969E-08  0.10566000000E+00  0.10566000000E+00 0. -1.
     999900   -1    0    0    0    0 -0.00000000000E+00 -0.00000000000E+00 -0.74505805969E-08  0.93827000000E+00  0.93827000000E+00 0. -1.
     999902    2    1    2    0    0 -0.57611360493E-03  0.10720981075E-01 -0.21599687084E-01  0.10198090998E+01  0.10195238017E+01 0.  0.
     999903    2    3    3    0    0 -0.66407050604E-01  0.97474243089E-01 -0.57341203027E-01  0.13237611832E+00  0.18008295347E-01 0.  0.
         14    1    1    2    0    0  0.57611360493E-03 -0.10720981075E-01  0.21599687084E-01  0.24120900154E-01  0.00000000000E+00 0.  1.
     999901    1    3    3    0    0  0.65830936999E-01 -0.86753262015E-01  0.35741515943E-01  0.88743298152E+00  0.88000000000E+00 0.  1.
        -11    1    4    4    0    0 -0.10551939711E-01  0.22164496241E-01 -0.19127561717E-01  0.31124476920E-01  0.51100000000E-03 0. -1.
         11    1    4    4    0    0 -0.55855110893E-01  0.75309746849E-01 -0.38213641310E-01  0.10125164140E+00  0.51100000000E-03 0.  1.
</event>
<event>
 8    1  0.1131376E+005  0.1043930E+01  0.7957747E-01            NaN
         13   -1    0    0    0    0  0.00000000000E+00  0.00000000000E+00  0.74505805969E-08  0.10566000000E+00  0.10566000000E+00 0. -1.
     999900   -1    0    0    0    0 -0.00000000000E+00 -0.00000000000E+00 -0.74505805969E-08  0.93827000000E+00  0.93827000000E+00 0. -1.
     999902    2    1    2    0    0 -0.22915967619E-01  0.75291866047E-02 -0.95742032561E-03  0.10197898493E+01  0.10195040901E+01 0.  0.
     999903    2    3    3    0    0  0.12345443625E+00 -0.23455704968E-01 -0.46986509506E-02  0.12715422629E+00  0.18840170321E-01 0.  0.
         14    1    1    2    0    0  0.22915967619E-01 -0.75291866047E-02  0.95742032561E-03  0.24140150714E-01  0.00000000000E+00 0.  1.
     999901    1    3    3    0    0 -0.14637040387E+00  0.30984891573E-01  0.37412306250E-02  0.89263562300E+00  0.88000000000E+00 0. -1.
        -11    1    4    4    0    0  0.11673133078E+00 -0.23762314487E-01 -0.84617464473E-02  0.11942660277E+00  0.51100000000E-03 0.  1.
         11    1    4    4    0    0  0.67231054669E-02  0.30660951856E-03  0.37630954967E-02  0.77276235178E-02  0.51100000000E-03 0. -1.
</event>
<event>
 8    1  0.1131376E+005  0.1043930E+01  0.7957747E-01            NaN
         13   -1    0    0    0    0  0.00000000000E+00  0.00000000000E+00  0.74505805969E-08  0.10566000000E+00  0.10566000000E+00 0. -1.
     999900   -1    0    0    0    0 -0.00000000000E+00 -0.00000000000E+00 -0.74505805969E-08  0.93827000000E+00  0.93827000000E+00 0.  1.
     999902    2    1    2    0    0 -0.19009444629E-01  0.16798253160E-01 -0.15797715542E-02  0.10185127623E+01  0.10181955662E+01 0.  0.
     999903    2    3    3    0    0 -0.12977585780E+00  0.10351609423E-01  0.63034458674E-03  0.13154284053E+00  0.18820002030E-01 0.  0.
         14    1    1    2    0    0  0.19009444629E-01 -0.16798253160E-01  0.15797715542E-02  0.25417237704E-01  0.00000000000E+00 0. -1.
     999901    1    3    3    0    0  0.11076641317E+00  0.64466437370E-02 -0.22101161409E-02  0.88696992176E+00  0.88000000000E+00 0.  1.
        -11    1    4    4    0    0 -0.48327468806E-01  0.14204993089E-02 -0.85177167942E-02  0.49095566804E-01  0.51100000000E-03 0. -1.
         11    1    4    4    0    0 -0.81448388991E-01  0.89311101146E-02  0.91480613809E-02  0.82447273728E-01  0.51100000000E-03 0.  1.
</event>
<event>
 8    1  0.1131376E+005  0.1043930E+01  0.7957747E-01            NaN
         13   -1    0    0    0    0  0.00000000000E+00  0.00000000000E+00  0.74505805969E-08  0.10566000000E+00  0.10566000000E+00 0. -1.
     999900   -1    0    0    0    0 -0.00000000000E+00 -0.00000000000E+00 -0.74505805969E-08  0.93827000000E+00  0.93827000000E+00 0. -1.
     999902    2    1    2    0    0 -0.23363052534E-01 -0.38868895946E-02  0.49509394015E-03  0.10202406511E+01  0.10199655881E+01 0.  0.
     999903    2    3    3    0    0 -0.62930560904E-01  0.90155044710E-01 -0.64531100747E-01  0.13196260951E+00  0.34083423590E-01 0.  0.
         14    1    1    2    0    0  0.23363052534E-01  0.38868895946E-02 -0.49509394015E-03  0.23689348924E-01  0.00000000000E+00 0. -1.
     999901    1    3    3    0    0  0.39567508370E-01 -0.94041934304E-01  0.65026194687E-01  0.88827804156E+00  0.88000000000E+00 0.  1.
        -11    1    4    4    0    0 -0.17136772543E-01  0.54281787523E-01 -0.32745483482E-01  0.65671220785E-01  0.51100000000E-03 0.  1.
         11    1    4    4    0    0 -0.45793788361E-01  0.35873257187E-01 -0.31785617265E-01  0.66291388728E-01  0.51100000000E-03 0. -1.
</event>
<event>
 8    1  0.1131376E+005  0.1043930E+01  0.7957747E-01            NaN
         13   -1    0    0    0    0  0.00000000000E+00  0.00000000000E+00  0.74505805969E-08  0.10566000000E+00  0.10566000000E+00 0.  1.
     999900   -1    0    0    0    0 -0.00000000000E+00 -0.00000000000E+00 -0.74505805969E-08  0.93827000000E+00  0.93827000000E+00 0.  1.
     999902    2    1    2    0    0  0.71469271465E-03 -0.18393496775E-01  0.15580631188E-01  0.10198138731E+01  0.10195286892E+01 0.  0.
     999903    2    3    3    0    0  0.75515794774E-01 -0.37235146255E-01  0.10013217327E+00  0.13240236995E+00  0.20367721243E-01 0.  0.
         14    1    1    2    0    0 -0.71469271465E-03  0.18393496775E-01 -0.15580631188E-01  0.24116126917E-01  0.00000000000E+00 0. -1.
     999901    1    3    3    0    0 -0.74801102059E-01  0.18841649480E-01 -0.84551542078E-01  0.88741150313E+00  0.88000000000E+00 0. -1.
        -11    1    4    4    0    0  0.45111771828E-01 -0.31911788197E-01  0.57305810402E-01  0.79609366348E-01  0.51100000000E-03 0.  1.
         11    1    4    4    0    0  0.30404022945E-01 -0.53233580578E-02  0.42826362863E-01  0.52793003603E-01  0.51100000000E-03 0. -1.
</event>
<event>
 8    1  0.1131376E+005  0.1043930E+01  0.7957747E-01            NaN
         13   -1    0    0    0    0  0.00000000000E+00  0.00000000000E+00  0.74505805969E-08  0.10566000000E+00  0.10566000000E+00 0.  1.
     999900   -1    0    0    0    0 -0.00000000000E+00 -0.00000000000E+00 -0.74505805969E-08  0.93827000000E+00  0.93827000000E+00 0. -1.
     999902    2    1    2    0    0 -0.16688984764E-01  0.15424087598E-01  0.18390656064E-02  0.10211307269E+01  0.10208761701E+01 0.  0.
     999903    2    3    3    0    0 -0.16525639535E-03  0.10239155627E+00  0.82036777153E-01  0.13306088330E+00  0.22160951127E-01 0.  0.
         14    1    1    2    0    0  0.16688984764E-01 -0.15424087598E-01 -0.18390656064E-02  0.22799273080E-01  0.00000000000E+00 0. -1.
     999901    1    3    3    0    0 -0.16523728369E-01 -0.86967468670E-01 -0.80197711547E-01  0.88806984362E+00  0.88000000000E+00 0. -1.
        -11    1    4    4    0    0  0.93938331124E-02  0.25264875652E-01  0.23495563751E-01  0.35761161603E-01  0.51100000000E-03 0.  1.
         11    1    4    4    0    0 -0.95590895078E-02  0.77126680616E-01  0.58541213403E-01  0.97299721699E-01  0.51100000000E-03 0. -1.
</event>
<event>
 8    1  0.1131376E+005  0.1043930E+01  0.7957747E-01            NaN
         13   -1    0    0    0    0  0.00000000000E+00  0.00000000000E+00  0.74505805969E-08  0.10566000000E+00  0.10566000000E+00 0. -1.
     999900   -1    0    0    0    0 -0.00000000000E+00 -0.00000000000E+00 -0.74505805969E-08  0.93827000000E+00  0.93827000000E+00 0. -1.
     999902    2    1    2    0    0 -0.77967374065E-02 -0.60681481992E-03 -0.26938426686E-01  0.10158793998E+01  0.10154920575E+01 0.  0.
     999903    2    3    3    0    0 -0.10420468094E-02  0.85677952172E-01 -0.95006202895E-01  0.12901756784E+00  0.16660038188E-01 0.  0.
         14    1    1    2    0    0  0.77967374065E-02  0.60681481992E-03  0.26938426686E-01  0.28050600184E-01  0.00000000000E+00 0. -1.
     999901    1    3    3    0    0 -0.67546905972E-02 -0.86284766992E-01  0.68067776210E-01  0.88686183198E+00  0.88000000000E+00 0.  1.
        -11    1    4    4    0    0 -0.53840080548E-02  0.54035362084E-01 -0.69126394139E-01  0.87906355777E-01  0.51100000000E-03 0.  1.
         11    1    4    4    0    0  0.43419612455E-02  0.31642590087E-01 -0.25879808757E-01  0.41111212062E-01  0.51100000000E-03 0. -1.
</event>
<event>
 7    1  0.1131376E+005  0.1043930E+01  0.7957747E-01            NaN
         13   -1    0    0    0    0  0.00000000000E+00  0.00000000000E+00  0.74505805969E-08  0.10566000000E+00  0.10566000000E+00 0. -1.
     999900   -1    0    0    0    0 -0.00000000000E+00 -0.00000000000E+00 -0.74505805969E-08  0.93827000000E+00  0.93827000000E+00 0.  1.
     999902    2    1    2    0    0 -0.11665772880E-01  0.20133879654E-01  0.46138601630E-02  0.10202076251E+01  0.10199317855E+01 0.  0.
         14    1    1    2    0    0  0.11665772880E-01 -0.20133879654E-01 -0.46138601630E-02  0.23722374932E-01  0.00000000000E+00 0.  1.
     999901    1    3    3    0    0  0.79430422441E-02 -0.98591993652E-01  0.39894412747E-01  0.88643952828E+00  0.88000000000E+00 0. -1.
        -11    1    3    3    0    0  0.12539445799E-01  0.25462067162E-01  0.16421802426E-02  0.28434353203E-01  0.51100000000E-03 0. -1.
         11    1    3    3    0    0 -0.32148260923E-01  0.93263806144E-01 -0.36922732827E-01  0.10533374358E+00  0.51100000000E-03 0.  1.
</event>
<event>
 8    1  0.1131376E+005  0.1043930E+01  0.7957747E-01            NaN
         13   -1    0    0    0    0  0.00000000000E+00  0.00000000000E+00  0.74505805969E-08  0.10566000000E+00  0.10566000000E+00 0. -1.
     999900   -1    0    0    0    0 -0.00000000000E+00 -0.00000000000E+00 -0.74505805969E-08  0.93827000000E+00  0.93827000000E+00 0. -1.
     999902    2    1    2    0    0  0.89199387264E-02  0.16891721314E-01  0.13385954902E-01  0.10206044915E+01  0.10203379091E+01 0.  0.
     999903    2    3    3    0    0  0.53539723012E-01  0.66728420844E-01  0.10087389592E+00  0.13373992376E+00  0.19789902536E-01 0.  0.
         14    1    1    2    0    0 -0.89199387264E-02 -0.16891721314E-01 -0.13385954902E-01  0.23325508450E-01  0.00000000000E+00 0.  1.
     999901    1    3    3    0    0 -0.44619784285E-01 -0.49836699531E-01 -0.87487941015E-01  0.88686456779E+00  0.88000000000E+00 0. -1.
        -11    1    4    4    0    0  0.35397412730E-01  0.37227677220E-01  0.73083190910E-01  0.89332472784E-01  0.51100000000E-03 0. -1.
         11    1    4    4    0    0  0.18142310282E-01  0.29500743624E-01  0.27790705008E-01  0.44407450981E-01  0.51100000000E-03 0.  1.
</event>
<event>
 8    1  0.1131376E+005  0.1043930E+01  0.7957747E-01            NaN
         13   -1    0    0    0    0  0.00000000000E+00  0.00000000000E+00  0.74505805969E-08  0.10566000000E+00  0.10566000000E+00 0. -1.
     999900   -1    0    0    0    0 -0.00000000000E+00 -0.00000000000E+00 -0.74505805969E-08  0.93827000000E+00  0.93827000000E+00 0. -1.
     999902    2    1    2    0    0  0.57702173931E-02 -0.21306874122E-01 -0.61087423361E-02  0.10210259605E+01  0.10207690321E+01 0.  0.
     999903    2    3    3    0    0 -0.87515862603E-01 -0.77090333696E-01 -0.60060919984E-01  0.13269892354E+00  0.19993610031E-01 0.  0.
         14    1    1    2    0    0 -0.57702173931E-02  0.21306874122E-01  0.61087423361E-02  0.22904039525E-01  0.00000000000E+00 0. -1.
     999901    1    3    3    0    0  0.93286079996E-01  0.55783459574E-01  0.53952177648E-01  0.88832703694E+00  0.88000000000E+00 0.  1.
        -11    1    4    4    0    0 -0.78432775501E-01 -0.73438635975E-01 -0.59631417336E-01  0.12288653539E+00  0.51100000000E-03 0. -1.
         11    1    4    4    0    0 -0.90830871015E-02 -0.36516977214E-02 -0.42950264789E-03  0.98123881429E-02  0.51100000000E-03 0.  1.
</event>
<event>
 8    1  0.1131376E+005  0.1043930E+01  0.7957747E-01            NaN
         13   -1    0    0    0    0  0.00000000000E+00  0.00000000000E+00  0.74505805969E-08  0.10566000000E+00  0.10566000000E+00 0.  1.
     999900   -1    0    0    0    0 -0.00000000000E+00 -0.00000000000E+00 -0.74505805969E-08  0.93827000000E+00  0.93827000000E+00 0.  1.
     999902    2    1    2    0    0  0.21451408589E-01 -0.19072895671E-02  0.10233367709E-01  0.10200862902E+01  0.10198075882E+01 0.  0.
     999903    2    3    3    0    0 -0.26102439489E-01 -0.90821317215E-01 -0.86689106296E-01  0.12904137618E+00  0.14381467493E-01 0.  0.
         14    1    1    2    0    0 -0.21451408589E-01  0.19072895671E-02 -0.10233367709E-01  0.23843709834E-01  0.00000000000E+00 0. -1.
     999901    1    3    3    0    0  0.47553848078E-01  0.88914027648E-01  0.96922474005E-01  0.89104491399E+00  0.88000000000E+00 0. -1.
        -11    1    4    4    0    0 -0.90026923924E-02 -0.26704767638E-01 -0.17519409140E-01  0.33187104461E-01  0.51100000000E-03 0.  1.
         11    1    4    4    0    0 -0.17099747096E-01 -0.64116549577E-01 -0.69169697156E-01  0.95854271715E-01  0.51100000000E-03 0. -1.
</event>
<event>
 8    1  0.1131376E+005  0.1043930E+01  0.7957747E-01            NaN
         13   -1    0    0    0    0  0.00000000000E+00  0.00000000000E+00  0.74505805969E-08  0.10566000000E+00  0.10566000000E+00 0.  1.
     999900   -1    0    0    0    0 -0.00000000000E+00 -0.00000000000E+00 -0.74505805969E-08  0.93827000000E+00  0.93827000000E+00 0.  1.
     999902    2    1    2    0    0  0.75691745060E-02 -0.75220931375E-02  0.30686856616E-01  0.10114406563E+01  0.10109187127E+01 0.  0.
     999903    2    3    3    0    0  0.85296377960E-01 -0.25064920804E-01  0.87181979549E-01  0.12603624703E+00  0.19511936344E-01 0.  0.
         14    1    1    2    0    0 -0.75691745060E-02  0.75220931375E-02 -0.30686856616E-01  0.32489343743E-01  0.00000000000E+00 0. -1.
     999901    1    3    3    0    0 -0.77727203454E-01  0.17542827667E-01 -0.56495122933E-01  0.88540440922E+00  0.88000000000E+00 0.  1.
        -11    1    4    4    0    0  0.32385863559E-01 -0.14446887947E-02  0.24232127260E-01  0.40477010719E-01  0.51100000000E-03 0. -1.
         11    1    4    4    0    0  0.52910514401E-01 -0.23620232009E-01  0.62949852289E-01  0.85559236314E-01  0.51100000000E-03 0.  1.
</event>
<event>
 8    1  0.1131376E+005  0.1043930E+01  0.7957747E-01            NaN
         13   -1    0    0    0    0  0.00000000000E+00  0.00000000000E+00  0.74505805969E-08  0.10566000000E+00  0.10566000000E+00 0.  1.
     999900   -1    0    0    0    0 -0.00000000000E+00 -0.00000000000E+00 -0.74505805969E-08  0.93827000000E+00  0.93827000000E+00 0.  1.
     999902    2    1    2    0    0  0.12595590551E-01  0.18637339668E-01 -0.11571080909E-02  0.10214058301E+01  0.10211574470E+01 0.  0.
     999903    2    3    3    0    0 -0.21548720620E-01  0.11110544689E+00 -0.68123960972E-01  0.13337388008E+00  0.18410598627E-01 0.  0.
         14    1    1    2    0    0 -0.12595590551E-01 -0.18637339668E-01  0.11571080909E-02  0.22524169915E-01  0.00000000000E+00 0. -1.
     999901    1    3    3    0    0  0.34144311171E-01 -0.92468107218E-01  0.66966852881E-01  0.88803195000E+00  0.88000000000E+00 0.  1.
        -11    1    4    4    0    0 -0.17802084249E-01  0.61907019682E-01 -0.30228286447E-01  0.71157597711E-01  0.51100000000E-03 0.  1.
         11    1    4    4    0    0 -0.37466363705E-02  0.49198427205E-01 -0.37895674526E-01  0.62216282373E-01  0.51100000000E-03 0. -1.
</event>
<event>
 8    1  0.1131376E+005  0.1043930E+01  0.7957747E-01            NaN
         13   -1    0    0    0    0  0.00000000000E+00  0.00000000000E+00  0.74505805969E-08  0.10566000000E+00  0.10566000000E+00 0.  1.
     999900   -1    0    0    0    0 -0.00000000000E+00 -0.00000000000E+00 -0.74505805969E-08  0.93827000000E+00  0.93827000000E+00 0. -1.
     999902    2    1    2    0    0  0.73419873643E-02  0.18616797599E-01 -0.13225601915E-01  0.10199423682E+01  0.10196602513E+01 0.  0.
     999903    2    3    3    0    0  0.86755074032E-01 -0.52669068929E-02 -0.97401863841E-01  0.13204456289E+00  0.19861025429E-01 0.  0.
         14    1    1    2    0    0 -0.73419873643E-02 -0.18616797599E-01  0.13225601915E-01  0.23987631757E-01  0.00000000000E+00 0.  1.
     999901    1    3    3    0    0 -0.79413086668E-01  0.23883704492E-01  0.84176261926E-01  0.88789780535E+00  0.88000000000E+00 0.  1.
        -11    1    4    4    0    0  0.33433449720E-01 -0.98286910973E-02 -0.30049191188E-01  0.46017537319E-01  0.51100000000E-03 0.  1.
         11    1    4    4    0    0  0.53321624312E-01  0.45617842044E-02 -0.67352672653E-01  0.86027025573E-01  0.51100000000E-03 0. -1.
</event>
<event>
 8    1  0.1131376E+005  0.1043930E+01  0.7957747E-01            NaN
         13   -1    0    0    0    0  0.00000000000E+00  0.00000000000E+00  0.74505805969E-08  0.10566000000E+00  0.10566000000E+00 0. -1.
     999900   -1    0    0    0    0 -0.00000000000E+00 -0.00000000000E+00 -0.74505805969E-08  0.93827000000E+00  0.93827000000E+00 0.  1.
     999902    2    1    2    0    0 -0.97265475111E-02  0.19659851977E-01  0.97412184384E-02  0.10199298574E+01  0.10196474426E+01 0.  0.
     999903    2    3    3    0    0  0.61798521777E-02  0.86796769743E-01  0.98344723680E-01  0.13279347535E+00  0.19762403961E-01 0.  0.
         14    1    1    2    0    0  0.97265475111E-02 -0.19659851977E-01 -0.97412184384E-02  0.24000142560E-01  0.00000000000E+00 0.  1.
     999901    1    3    3    0    0 -0.15906399689E-01 -0.67136917765E-01 -0.88603505242E-01  0.88713638209E+00  0.88000000000E+00 0.  1.
        -11    1    4    4    0    0  0.62680780033E-02  0.24068524573E-01  0.40116623527E-01  0.47203678683E-01  0.51100000000E-03 0. -1.
         11    1    4    4    0    0 -0.88225825538E-04  0.62728245170E-01  0.58228100153E-01  0.85589796672E-01  0.51100000000E-03 0.  1.
</event>
<event>
 8    1  0.1131376E+005  0.1043930E+01  0.7957747E-01            NaN
         13   -1    0    0    0    0  0.00000000000E+00  0.00000000000E+00  0.74505805969E-08  0.10566000000E+00  0.10566000000E+00 0.  1.
     999900   -1    0    0    0    0 -0.00000000000E+00 -0.00000000000E+00 -0.74505805969E-08  0.93827000000E+00  0.93827000000E+00 0. -1.
     999902    2    1    2    0    0  0.72619957740E-02  0.11068499367E-02 -0.17259798353E-01  0.10251720060E+01  0.10250003803E+01 0.  0.
     999903    2    3    3    0    0 -0.35389778085E-02 -0.13306792607E+00 -0.82026322080E-02  0.13489027318E+00  0.20211514311E-01 0.  0.
         14    1    1    2    0    0 -0.72619957740E-02 -0.11068499367E-02  0.17259798353E-01  0.18757993992E-01  0.00000000000E+00 0.  1.
     999901    1    3    3    0    0  0.10800973582E-01  0.13417477601E+00 -0.90571661455E-02  0.89028173283E+00  0.88000000000E+00 0. -1.
        -11    1    4    4    0    0 -0.89878300795E-02 -0.88032951003E-01 -0.12284814236E-01  0.89340692485E-01  0.51100000000E-03 0.  1.
         11    1    4    4    0    0  0.54488522711E-02 -0.45034975068E-01  0.40821820275E-02  0.45549580696E-01  0.51100000000E-03 0. -1.
</event>
<event>
 8    1  0.1131376E+005  0.1043930E+01  0.7957747E-01            NaN
         13   -1    0    0    0    0  0.00000000000E+00  0.00000000000E+00  0.74505805969E-08  0.10566000000E+00  0.10566000000E+00 0.  1.
     999900   -1    0    0    0    0 -0.00000000000E+00 -0.00000000000E+00 -0.74505805969E-08  0.93827000000E+00  0.93827000000E+00 0. -1.
     999902    2    1    2    0    0  0.20131578693E-01 -0.10263005625E-01 -0.68623803390E-02  0.10203142847E+01  0.10200409490E+01 0.  0.
     999903    2    3    3    0    0 -0.11802570438E+00  0.36108998945E-01 -0.27845141531E-01  0.12808221066E+00  0.19894071569E-01 0.  0.
         14    1    1    2    0    0 -0.20131578693E-01  0.10263005625E-01  0.68623803390E-02  0.23615715299E-01  0.00000000000E+00 0.  1.
     999901    1    3    3    0    0  0.13815728307E+00 -0.46372004570E-01  0.20982761192E-01  0.89223207404E+00  0.88000000000E+00 0.  1.
        -11    1    4    4    0    0 -0.70984994089E-01  0.12520587286E-01 -0.11630496551E-01  0.73014820844E-01  0.51100000000E-03 0.  1.
         11    1    4    4    0    0 -0.47040710287E-01  0.23588411658E-01 -0.16214644980E-01  0.55067389821E-01  0.51100000000E-03 0. -1.
</event>
<event>
 8    1  0.1131376E+005  0.1043930E+01  0.7957747E-01            NaN
         13   -1    0    0    0    0  0.00000000000E+00  0.00000000000E+00  0.74505805969E-08  0.10566000000E+00  0.10566000000E+00 0. -1.
     999900   -1    0    0    0    0 -0.00000000000E+00 -0.00000000000E+00 -0.74505805969E-08  0.93827000000E+00  0.93827000000E+00 0.  1.
     999902    2    1    2    0    0 -0.13645680957E-01  0.19387217933E-01  0.13514428849E-02  0.10201835218E+01  0.10199071149E+01 0.  0.
     999903    2    3    3    0    0 -0.94132051936E-01 -0.78561978838E-01  0.39254760697E-01  0.13029096507E+00  0.20049229934E-01 0.  0.
         14    1    1    2    0    0  0.13645680957E-01 -0.19387217933E-01 -0.13514428849E-02  0.23746478178E-01  0.00000000000E+00 0. -1.
     999901    1    3    3    0    0  0.80486370978E-01  0.97949196771E-01 -0.37903317812E-01  0.88989255675E+00  0.88000000000E+00 0.  1.
        -11    1    4    4    0    0 -0.18995074649E-02 -0.66065171517E-02 -0.17708737115E-04  0.68931583534E-02  0.51100000000E-03 0. -1.
         11    1    4    4    0    0 -0.92232544471E-01 -0.71955461686E-01  0.39272469434E-01  0.12339780672E+00  0.51100000000E-03 0.  1.
</event>
<event>
 8    1  0.1131376E+005  0.1043930E+01  0.7957747E-01            NaN
         13   -1    0    0    0    0  0.00000000000E+00  0.00000000000E+00  0.74505805969E-08  0.10566000000E+00  0.10566000000E+00 0.  1.
     999900   -1    0    0    0    0 -0.00000000000E+00 -0.00000000000E+00 -0.74505805969E-08  0.93827000000E+00  0.93827000000E+00 0.  1.
     999902    2    1    2    0    0  0.54717893439E-02  0.21727295743E-01  0.68956934807E-02  0.10204871664E+01  0.10202178641E+01 0.  0.
     999903    2    3    3    0    0 -0.73497955068E-01 -0.35044384455E-02 -0.10471165804E+00  0.12957243318E+00  0.20254718511E-01 0.  0.
         14    1    1    2    0    0 -0.54717893439E-02 -0.21727295743E-01 -0.68956934807E-02  0.23442833606E-01  0.00000000000E+00 0. -1.
     999901    1    3    3    0    0  0.78969744412E-01  0.25231734188E-01  0.11160735152E+00  0.89091473321E+00  0.88000000000E+00 0. -1.
        -11    1    4    4    0    0 -0.38517735153E-01 -0.11943532385E-01 -0.55062623039E-01  0.68252600420E-01  0.51100000000E-03 0.  1.
         11    1    4    4    0    0 -0.34980219915E-01  0.84390939399E-02 -0.49649035004E-01  0.61319832760E-01  0.51100000000E-03 0. -1.
</event>
<event>
 8    1  0.1131376E+005  0.1043930E+01  0.7957747E-01            NaN
         13   -1    0    0    0    0  0.00000000000E+00  0.00000000000E+00  0.74505805969E-08  0.10566000000E+00  0.10566000000E+00 0.  1.
     999900   -1    0    0    0    0 -0.00000000000E+00 -0.00000000000E+00 -0.74505805969E-08  0.93827000000E+00  0.93827000000E+00 0.  1.
     999902    2    1    2    0    0 -0.18466015602E-01 -0.96097647450E-02 -0.14866963169E-01  0.10183493842E+01  0.10180280450E+01 0.  0.
     999903    2    3    3    0    0  0.82653449845E-01 -0.96112320075E-01 -0.20779716616E-02  0.12825309915E+00  0.19374432450E-01 0.  0.
         14    1    1    2    0    0  0.18466015602E-01  0.96097647450E-02  0.14866963169E-01  0.25580615796E-01  0.00000000000E+00 0.  1.
     999901    1    3    3    0    0 -0.10111946545E+00  0.86502555330E-01 -0.12788991507E-01  0.89009628506E+00  0.88000000000E+00 0.  1.
        -11    1    4    4    0    0  0.66103078502E-01 -0.78076323295E-01  0.59799714722E-02  0.10247707269E+00  0.51100000000E-03 0. -1.
         11    1    4    4    0    0  0.16550371344E-01 -0.18035996779E-01 -0.80579431338E-02  0.25776026458E-01  0.51100000000E-03 0.  1.
</event>
<event>
 8    1  0.1131376E+005  0.1043930E+01  0.7957747E-01            NaN
         13   -1    0    0    0    0  0.00000000000E+00  0.00000000000E+00  0.74505805969E-08  0.10566000000E+00  0.10566000000E+00 0.  1.
     999900   -1    0    0    0    0 -0.00000000000E+00 -0.00000000000E+00 -0.74505805969E-08  0.93827000000E+00  0.93827000000E+00 0. -1.
     999902    2    1    2    0    0 -0.20832604077E-01  0.96998933704E-02  0.50960692648E-02  0.10203916218E+01  0.10201200943E+01 0.  0.
     999903    2    3    3    0    0  0.87741059934E-01  0.93423471024E-01  0.49335691136E-02  0.12977503522E+00  0.19768184688E-01 0.  0.
         14    1    1    2    0    0  0.20832604077E-01 -0.96998933704E-02 -0.50960692648E-02  0.23538378151E-01  0.00000000000E+00 0.  1.
     999901    1    3    3    0    0 -0.10857366401E+00 -0.83723577653E-01  0.16250015114E-03  0.89061658663E+00  0.88000000000E+00 0.  1.
        -11    1    4    4    0    0  0.30018472160E-01  0.30060484577E-01 -0.75656392508E-02  0.43153695347E-01  0.51100000000E-03 0.  1.
         11    1    4    4    0    0  0.57722587774E-01  0.63362986447E-01  0.12499208364E-01  0.86621339874E-01  0.51100000000E-03 0. -1.
</event>
<event>
 8    1  0.1131376E+005  0.1043930E+01  0.7957747E-01            NaN
         13   -1    0    0    0    0  0.00000000000E+00  0.00000000000E+00  0.74505805969E-08  0.10566000000E+00  0.10566000000E+00 0. -1.
     999900   -1    0    0    0    0 -0.00000000000E+00 -0.00000000000E+00 -0.74505805969E-08  0.93827000000E+00  0.93827000000E+00 0. -1.
     999902    2    1    2    0    0  0.19451336128E-01 -0.66628088238E-02 -0.15371062816E-01  0.10182586722E+01  0.10179350207E+01 0.  0.
     999903    2    3    3    0    0  0.34059740490E-02  0.12270835110E+00  0.28224871989E-01  0.12758760150E+00  0.20322710666E-01 0.  0.
         14    1    1    2    0    0 -0.19451336128E-01  0.66628088238E-02  0.15371062816E-01  0.25671327794E-01  0.00000000000E+00 0. -1.
     999901    1    3    3    0    0  0.16045362079E-01 -0.12937115992E+00 -0.43595934805E-01  0.89067107071E+00  0.88000000000E+00 0.  1.
        -11    1    4    4    0    0  0.11268877824E-01  0.49224674684E-01  0.10309782398E-01  0.51542302425E-01  0.51100000000E-03 0.  1.
         11    1    4    4    0    0 -0.78629037750E-02  0.73483676415E-01  0.17915089591E-01  0.76045299074E-01  0.51100000000E-03 0. -1.
</event>
<event>
 8    1  0.1131376E+005  0.1043930E+01  0.7957747E-01            NaN
         13   -1    0    0    0    0  0.00000000000E+00  0.00000000000E+00  0.74505805969E-08  0.10566000000E+00  0.10566000000E+00 0. -1.
     999900   -1    0    0    0    0 -0.00000000000E+00 -0.00000000000E+00 -0.74505805969E-08  0.93827000000E+00  0.93827000000E+00 0. -1.
     999902    2    1    2    0    0  0.46820612372E-02 -0.23390344980E-01 -0.20533575787E-02  0.10199874393E+01  0.10197063941E+01 0.  0.
     999903    2    3    3    0    0  0.82588108693E-01  0.87141022383E-02 -0.99057988214E-01  0.13065626019E+00  0.19022145601E-01 0.  0.
         14    1    1    2    0    0 -0.46820612372E-02  0.23390344980E-01  0.20533575787E-02  0.23942560704E-01  0.00000000000E+00 0. -1.
     999901    1    3    3    0    0 -0.77906047456E-01 -0.32104447218E-01  0.97004630635E-01  0.88933117910E+00  0.88000000000E+00 0.  1.
        -11    1    4    4    0    0  0.64856662590E-01  0.13881596653E-01 -0.72029557743E-01  0.97916309763E-01  0.51100000000E-03 0.  1.
         11    1    4    4    0    0  0.17731446103E-01 -0.51674944147E-02 -0.27028430470E-01  0.32739950430E-01  0.51100000000E-03 0. -1.
</event>
<event>
 8    1  0.1131376E+005  0.1043930E+01  0.7957747E-01            NaN
         13   -1    0    0    0    0  0.00000000000E+00  0.00000000000E+00  0.74505805969E-08  0.10566000000E+00  0.10566000000E+00 0.  1.
     999900   -1    0    0    0    0 -0.00000000000E+00 -0.00000000000E+00 -0.74505805969E-08  0.93827000000E+00  0.93827000000E+00 0. -1.
     999902    2    1    2    0    0 -0.17458015109E-02 -0.22563410346E-01  0.57020833942E-02  0.10205918539E+01  0.10203249792E+01 0.  0.
     999903    2    3    3    0    0  0.97727875195E-01  0.43291119300E-02  0.84690547038E-01  0.13106535202E+00  0.20884418677E-01 0.  0.
         14    1    1    2    0    0  0.17458015109E-02  0.22563410346E-01 -0.57020833942E-02  0.23338146121E-01  0.00000000000E+00 0.  1.
     999901    1    3    3    0    0 -0.99473676706E-01 -0.26892522276E-01 -0.78988463644E-01  0.88952650185E+00  0.88000000000E+00 0. -1.
        -11    1    4    4    0    0  0.39266687167E-01 -0.67486625831E-02  0.26606819410E-01  0.47912431871E-01  0.51100000000E-03 0. -1.
         11    1    4    4    0    0  0.58461188029E-01  0.11077774513E-01  0.58083727628E-01  0.83152920154E-01  0.51100000000E-03 0.  1.
</event>
<event>
 8    1  0.1131376E+005  0.1043930E+01  0.7957747E-01            NaN
         13   -1    0    0    0    0  0.00000000000E+00  0.00000000000E+00  0.74505805969E-08  0.10566000000E+00  0.10566000000E+00 0. -1.
     999900   -1    0    0    0    0 -0.00000000000E+00 -0.00000000000E+00 -0.74505805969E-08  0.93827000000E+00  0.93827000000E+00 0.  1.
     999902    2    1    2    0    0  0.12002608533E-02 -0.13687267807E-01 -0.15684437321E-01  0.10230785372E+01  0.10228660273E+01 0.  0.
     999903    2    3    3    0    0 -0.23648162959E-01  0.34761912025E-01  0.12216175792E+00  0.13068493530E+00  0.19683269011E-01 0.  0.
         14    1    1    2    0    0 -0.12002608533E-02  0.13687267807E-01  0.15684437321E-01  0.20851462784E-01  0.00000000000E+00 0. -1.
     999901    1    3    3    0    0  0.24848423812E-01 -0.48449179832E-01 -0.13784619524E+00  0.89239360191E+00  0.88000000000E+00 0.  1.
        -11    1    4    4    0    0 -0.18888434097E-02  0.59484755473E-02  0.45679154170E-01  0.46106380659E-01  0.51100000000E-03 0. -1.
         11    1    4    4    0    0 -0.21759319549E-01  0.28813436478E-01  0.76482603747E-01  0.84578554645E-01  0.51100000000E-03 0.  1.
</event>
<event>
 8    1  0.1131376E+005  0.1043930E+01  0.7957747E-01            NaN
         13   -1    0    0    0    0  0.00000000000E+00  0.00000000000E+00  0.74505805969E-08  0.10566000000E+00  0.10566000000E+00 0. -1.
     999900   -1    0    0    0    0 -0.00000000000E+00 -0.00000000000E+00 -0.74505805969E-08  0.93827000000E+00  0.93827000000E+00 0.  1.
     999902    2    1    2    0    0 -0.20639215634E-01  0.56621603695E-02  0.10121420145E-01  0.10202555322E+01  0.10199808187E+01 0.  0.
     999903    2    3    3    0    0  0.11123737218E+00  0.48331390546E-02  0.61648251349E-01  0.12893789179E+00  0.20672707656E-01 0.  0.
         14    1    1    2    0    0  0.20639215634E-01 -0.56621603695E-02 -0.10121420145E-01  0.23674467846E-01  0.00000000000E+00 0.  1.
     999901    1    3    3    0    0 -0.13187658782E+00  0.82902131494E-03 -0.51526831204E-01  0.89131764036E+00  0.88000000000E+00 0.  1.
        -11    1    4    4    0    0  0.69768546523E-01 -0.49969836675E-02  0.45038845504E-01  0.83194823487E-01  0.51100000000E-03 0.  1.
         11    1    4    4    0    0  0.41468825658E-01  0.98301227221E-02  0.16609405845E-01  0.45743068303E-01  0.51100000000E-03 0. -1.
</event>
<event>
 8    1  0.1131376E+005  0.1043930E+01  0.7957747E-01            NaN
         13   -1    0    0    0    0  0.00000000000E+00  0.00000000000E+00  0.74505805969E-08  0.10566000000E+00  0.10566000000E+00 0.  1.
     999900   -1    0    0    0    0 -0.00000000000E+00 -0.00000000000E+00 -0.74505805969E-08  0.93827000000E+00  0.93827000000E+00 0. -1.
     999902    2    1    2    0    0 -0.21462650364E-01  0.88987935854E-02  0.57235578700E-02  0.10200010844E+01  0.10197203632E+01 0.  0.
     999903    2    3    3    0    0  0.62131571098E-02  0.74361196904E-01  0.10646075566E+00  0.13140710534E+00  0.19124432369E-01 0.  0.
         14    1    1    2    0    0  0.21462650364E-01 -0.88987935854E-02 -0.57235578700E-02  0.23928915617E-01  0.00000000000E+00 0.  1.
     999901    1    3    3    0    0 -0.27675807474E-01 -0.65462403319E-01 -0.10073719779E+00  0.88859397904E+00  0.88000000000E+00 0. -1.
        -11    1    4    4    0    0  0.12915493222E-01  0.41741596805E-01  0.62226169533E-01  0.76036360807E-01  0.51100000000E-03 0. -1.
         11    1    4    4    0    0 -0.67023361123E-02  0.32619600099E-01  0.44234586123E-01  0.55370744536E-01  0.51100000000E-03 0.  1.
</event>
<event>
 8    1  0.1131376E+005  0.1043930E+01  0.7957747E-01            NaN
         13   -1    0    0    0    0  0.00000000000E+00  0.00000000000E+00  0.74505805969E-08  0.10566000000E+00  0.10566000000E+00 0. -1.
     999900   -1    0    0    0    0 -0.00000000000E+00 -0.00000000000E+00 -0.74505805969E-08  0.93827000000E+00  0.93827000000E+00 0.  1.
     999902    2    1    2    0    0 -0.21819650693E-01 -0.86056242406E-02  0.36731173841E-02  0.10201887760E+01  0.10199124928E+01 0.  0.
     999903    2    3    3    0    0  0.11195943535E+00  0.55517885227E-01  0.16981947533E-01  0.12767222531E+00  0.19866047145E-01 0.  0.
         14    1    1    2    0    0  0.21819650693E-01  0.86056242406E-02 -0.36731173841E-02  0.23741223984E-01  0.00000000000E+00 0.  1.
     999901    1    3    3    0    0 -0.13377908604E+00 -0.64123509468E-01 -0.13308830149E-01  0.89251655071E+00  0.88000000000E+00 0.  1.
        -11    1    4    4    0    0  0.63051349296E-01  0.24881960118E-01  0.10226519218E-02  0.67793004988E-01  0.51100000000E-03 0. -1.
         11    1    4    4    0    0  0.48908086053E-01  0.30635925109E-01  0.15959295611E-01  0.59879220320E-01  0.51100000000E-03 0.  1.
</event>
<event>
 8    1  0.1131376E+005  0.1043930E+01  0.7957747E-01            NaN
         13   -1    0    0    0    0  0.00000000000E+00  0.00000000000E+00  0.74505805969E-08  0.10566000000E+00  0.10566000000E+00 0.  1.
     999900   -1    0    0    0    0 -0.00000000000E+00 -0.00000000000E+00 -0.74505805969E-08  0.93827000000E+00  0.93827000000E+00 0. -1.
     999902    2    1    2    0    0  0.10852211107E-02  0.18236821045E-01  0.15764665293E-01  0.10197994381E+01  0.10195139086E+01 0.  0.
     999903    2    3    3    0    0  0.11896191074E+00  0.35995506149E-01  0.38204585813E-01  0.13147864305E+00  0.19478976629E-01 0.  0.
         14    1    1    2    0    0 -0.10852211107E-02 -0.18236821045E-01 -0.15764665293E-01  0.24130561918E-01  0.00000000000E+00 0. -1.
     999901    1    3    3    0    0 -0.11787668963E+00 -0.17758685104E-01 -0.22439920520E-01  0.88832079503E+00  0.88000000000E+00 0.  1.
        -11    1    4    4    0    0  0.34426182290E-01  0.19828401966E-01  0.11532074349E-01  0.41371214768E-01  0.51100000000E-03 0. -1.
         11    1    4    4    0    0  0.84535728452E-01  0.16167104183E-01  0.26672511464E-01  0.90107428281E-01  0.51100000000E-03 0.  1.
</event>
<event>
 8    1  0.1131376E+005  0.1043930E+01  0.7957747E-01            NaN
         13   -1    0    0    0    0  0.00000000000E+00  0.00000000000E+00  0.74505805969E-08  0.10566000000E+00  0.10566000000E+00 0. -1.
     999900   -1    0    0    0    0 -0.00000000000E+00 -0.00000000000E+00 -0.74505805969E-08  0.93827000000E+00  0.93827000000E+00 0.  1.
     999902    2    1    2    0    0  0.60622371928E-03 -0.55204752165E-02  0.17082836972E-01  0.10259670806E+01  0.10258098186E+01 0.  0.
     999903    2    3    3    0    0 -0.10385154808E+00 -0.76868051386E-01  0.37220915279E-01  0.13669353164E+00  0.24614704845E-01 0.  0.
         14    1    1    2    0    0 -0.60622371928E-03  0.55204752165E-02 -0.17082836972E-01  0.17962919385E-01  0.00000000000E+00 0.  1.
     999901    1    3    3    0    0  0.10445777180E+00  0.71347576169E-01 -0.20138078306E-01  0.88927354898E+00  0.88000000000E+00 0.  1.
        -11    1    4    4    0    0 -0.44959363089E-01 -0.47834488057E-01  0.14677123953E-01  0.67269321875E-01  0.51100000000E-03 0.  1.
         11    1    4    4    0    0 -0.58892184992E-01 -0.29033563328E-01  0.22543791326E-01  0.69424209762E-01  0.51100000000E-03 0. -1.
</event>
<event>
 8    1  0.1131376E+005  0.1043930E+01  0.7957747E-01            NaN
         13   -1    0    0    0    0  0.00000000000E+00  0.00000000000E+00  0.74505805969E-08  0.10566000000E+00  0.10566000000E+00 0.  1.
     999900   -1    0    0    0    0 -0.00000000000E+00 -0.00000000000E+00 -0.74505805969E-08  0.93827000000E+00  0.93827000000E+00 0. -1.
     999902    2    1    2    0    0  0.23205826421E-01  0.23834633021E-02  0.61032200754E-02  0.10198169211E+01  0.10195318102E+01 0.  0.
     999903    2    3    3    0    0 -0.11201157780E+00 -0.44355859052E-01  0.35806771980E-01  0.12776837332E+00  0.22991226786E-01 0.  0.
         14    1    1    2    0    0 -0.23205826421E-01 -0.23834633021E-02 -0.61032200754E-02  0.24113078867E-01  0.00000000000E+00 0. -1.
     999901    1    3    3    0    0  0.13521740422E+00  0.46739322354E-01 -0.29703551904E-01  0.89204854781E+00  0.88000000000E+00 0.  1.
        -11    1    4    4    0    0 -0.60134957862E-01 -0.26948800342E-01  0.31028065507E-01  0.72838540396E-01  0.51100000000E-03 0. -1.
         11    1    4    4    0    0 -0.51876619934E-01 -0.17407058710E-01  0.47787064733E-02  0.54929832925E-01  0.51100000000E-03 0.  1.
</event>
<event>
 8    1  0.1131376E+005  0.1043930E+01  0.7957747E-01            NaN
         13   -1    0    0    0    0  0.00000000000E+00  0.00000000000E+00  0.74505805969E-08  0.10566000000E+00  0.10566000000E+00 0. -1.
     999900   -1    0    0    0    0 -0.00000000000E+00 -0.00000000000E+00 -0.74505805969E-08  0.93827000000E+00  0.93827000000E+00 0. -1.
     999902    2    1    2    0    0 -0.13519781347E-01 -0.15909517731E-01  0.91858452699E-02  0.10211204188E+01  0.10208656291E+01 0.  0.
     999903    2    3    3    0    0  0.10622345961E+00 -0.38463079719E-01  0.63059054063E-01  0.13109264981E+00  0.21118869777E-01 0.  0.
         14    1    1    2    0    0  0.13519781347E-01  0.15909517731E-01 -0.91858452699E-02  0.22809581220E-01  0.00000000000E+00 0.  1.
     999901    1    3    3    0    0 -0.11974324096E+00  0.22553561988E-01 -0.53873208793E-01  0.89002776897E+00  0.88000000000E+00 0. -1.
        -11    1    4    4    0    0  0.53941382472E-01 -0.23989408926E-01  0.21795672593E-01  0.62932320380E-01  0.51100000000E-03 0.  1.
         11    1    4    4    0    0  0.52282077143E-01 -0.14473670793E-01  0.41263381469E-01  0.68160329429E-01  0.51100000000E-03 0. -1.
</event>
<event>
 8    1  0.1131376E+005  0.1043930E+01  0.7957747E-01            NaN
         13   -1    0    0    0    0  0.00000000000E+00  0.00000000000E+00  0.74505805969E-08  0.10566000000E+00  0.10566000000E+00 0. -1.
     999900   -1    0    0    0    0 -0.00000000000E+00 -0.00000000000E+00 -0.74505805969E-08  0.93827000000E+00  0.93827000000E+00 0.  1.
     999902    2    1    2    0    0  0.45694241988E-02  0.16855230489E-01 -0.15264989010E-01  0.10207352092E+01  0.10204716404E+01 0.  0.
     999903    2    3    3    0    0 -0.60970119303E-01  0.13830889593E-01 -0.11524044714E+00  0.13264756111E+00  0.20158518250E-01 0.  0.
         14    1    1    2    0    0 -0.45694241988E-02 -0.16855230489E-01  0.15264989010E-01  0.23194790834E-01  0.00000000000E+00 0. -1.
     999901    1    3    3    0    0  0.65539543501E-01  0.30243408968E-02  0.99975458126E-01  0.88808764805E+00  0.88000000000E+00 0. -1.
        -11    1    4    4    0    0 -0.43848739519E-01  0.17508164361E-01 -0.93327524543E-01  0.10459223554E+00  0.51100000000E-03 0. -1.
         11    1    4    4    0    0 -0.17121379783E-01 -0.36772747688E-02 -0.21912922593E-01  0.28055325572E-01  0.51100000000E-03 0.  1.
</event>
<event>
 8    1  0.1131376E+005  0.1043930E+01  0.7957747E-01            NaN
         13   -1    0    0    0    0  0.00000000000E+00  0.00000000000E+00  0.74505805969E-08  0.10566000000E+00  0.10566000000E+00 0.  1.
     999900   -1    0    0    0    0 -0.00000000000E+00 -0.00000000000E+00 -0.74505805969E-08  0.93827000000E+00  0.93827000000E+00 0.  1.
     999902    2    1    2    0    0  0.20909334192E-01  0.99035361365E-02 -0.38437291439E-02  0.10204767585E+01  0.10202072143E+01 0.  0.
     999903    2    3    3    0    0  0.10166088481E+00  0.47247911630E-01 -0.65489063831E-01  0.13384517625E+00  0.32533260995E-01 0.  0.
         14    1    1    2    0    0 -0.20909334192E-01 -0.99035361365E-02  0.38437291439E-02  0.23453241526E-01  0.00000000000E+00 0. -1.
     999901    1    3    3    0    0 -0.80751550615E-01 -0.37344375493E-01  0.61645334687E-01  0.88663158222E+00  0.88000000000E+00 0.  1.
        -11    1    4    4    0    0  0.57005474493E-01  0.19114293570E-01 -0.17788656176E-01  0.62703092032E-01  0.51100000000E-03 0. -1.
         11    1    4    4    0    0  0.44655410313E-01  0.28133618060E-01 -0.47700407655E-01  0.71142084218E-01  0.51100000000E-03 0.  1.
</event>
<event>
 8    1  0.1131376E+005  0.1043930E+01  0.7957747E-01            NaN
         13   -1    0    0    0    0  0.00000000000E+00  0.00000000000E+00  0.74505805969E-08  0.10566000000E+00  0.10566000000E+00 0. -1.
     999900   -1    0    0    0    0 -0.00000000000E+00 -0.00000000000E+00 -0.74505805969E-08  0.93827000000E+00  0.93827000000E+00 0. -1.
     999902    2    1    2    0    0 -0.23990140641E-01  0.35063214676E-02  0.74881952363E-02  0.10185549294E+01  0.10182387982E+01 0.  0.
     999903    2    3    3    0    0  0.39461153194E-01  0.11817808506E+00 -0.27153327808E-01  0.12817539510E+00  0.12976374603E-01 0.  0.
         14    1    1    2    0    0  0.23990140641E-01 -0.35063214676E-02 -0.74881952363E-02  0.25375070564E-01  0.00000000000E+00 0.  1.
     999901    1    3    3    0    0 -0.63451293835E-01 -0.11467176359E+00  0.34641523045E-01  0.89037953434E+00  0.88000000000E+00 0. -1.
        -11    1    4    4    0    0  0.27307083320E-01  0.87374700599E-01 -0.14318380980E-01  0.92656852198E-01  0.51100000000E-03 0.  1.
         11    1    4    4    0    0  0.12154069874E-01  0.30803384457E-01 -0.12834946828E-01  0.35518542898E-01  0.51100000000E-03 0. -1.
</event>
<event>
 8    1  0.1131376E+005  0.1043930E+01  0.7957747E-01            NaN
         13   -1    0    0    0    0  0.00000000000E+00  0.00000000000E+00  0.74505805969E-08  0.10566000000E+00  0.10566000000E+00 0. -1.
     999900   -1    0    0    0    0 -0.00000000000E+00 -0.00000000000E+00 -0.74505805969E-08  0.93827000000E+00  0.93827000000E+00 0.  1.
     999902    2    1    2    0    0 -0.12319536493E-01 -0.15469376506E-02 -0.20097286926E-01  0.10203066019E+01  0.10200330862E+01 0.  0.
     999903    2    3    3    0    0  0.56438999649E-01 -0.11484395122E+00 -0.14604080073E-01  0.13036608429E+00  0.20187693442E-01 0.  0.
         14    1    1    2    0    0  0.12319536493E-01  0.15469376506E-02  0.20097286926E-01  0.23623398089E-01  0.00000000000E+00 0. -1.
     999901    1    3    3    0    0 -0.68758536142E-01  0.11329701357E+00 -0.54932068525E-02  0.88994051762E+00  0.88000000000E+00 0. -1.
        -11    1    4    4    0    0  0.19037733297E-01 -0.20203849211E-01 -0.22701367078E-02  0.27857592389E-01  0.51100000000E-03 0. -1.
         11    1    4    4    0    0  0.37401266351E-01 -0.94640102007E-01 -0.12333943365E-01  0.10250849190E+00  0.51100000000E-03 0.  1.
</event>
<event>
 8    1  0.1131376E+005  0.1043930E+01  0.7957747E-01            NaN
         13   -1    0    0    0    0  0.00000000000E+00  0.00000000000E+00  0.74505805969E-08  0.10566000000E+00  0.10566000000E+00 0. -1.
     999900   -1    0    0    0    0 -0.00000000000E+00 -0.00000000000E+00 -0.74505805969E-08  0.93827000000E+00  0.93827000000E+00 0.  1.
     999902    2    1    2    0    0  0.85424065726E-02 -0.22215026519E-01 -0.59319541131E-02  0.10194010744E+01  0.10191059230E+01 0.  0.
     999903    2    3    3    0    0 -0.11183085122E+00 -0.13978491007E-01 -0.61180537254E-01  0.12945165577E+00  0.17695636408E-01 0.  0.
         14    1    1    2    0    0 -0.85424065726E-02  0.22215026519E-01  0.59319541131E-02  0.24528925637E-01  0.00000000000E+00 0. -1.
     999901    1    3    3    0    0  0.12037325779E+00 -0.82365355128E-02  0.55248583141E-01  0.88994941859E+00  0.88000000000E+00 0. -1.
        -11    1    4    4    0    0 -0.48367262991E-01 -0.13459457614E-01 -0.21625615551E-01  0.54666968980E-01  0.51100000000E-03 0. -1.
         11    1    4    4    0    0 -0.63463588231E-01 -0.51903339262E-03 -0.39554921704E-01  0.74784686793E-01  0.51100000000E-03 0.  1.
</event>
<event>
 8    1  0.1131376E+005  0.1043930E+01  0.7957747E-01            NaN
         13   -1    0    0    0    0  0.00000000000E+00  0.00000000000E+00  0.74505805969E-08  0.10566000000E+00  0.10566000000E+00 0. -1.
     999900   -1    0    0    0    0 -0.00000000000E+00 -0.00000000000E+00 -0.74505805969E-08  0.93827000000E+00  0.93827000000E+00 0.  1.
     999902    2    1    2    0    0  0.19033030975E-02  0.23465988583E-01  0.20184385067E-02  0.10203005845E+01  0.10200269278E+01 0.  0.
     999903    2    3    3    0    0  0.41534256224E-01  0.79007408971E-01 -0.95917179466E-01  0.13224267699E+00  0.17909639536E-01 0.  0.
         14    1    1    2    0    0 -0.19033030975E-02 -0.23465988583E-01 -0.20184385067E-02  0.23629415499E-01  0.00000000000E+00 0.  1.
     999901    1    3    3    0    0 -0.39630953126E-01 -0.55541420388E-01  0.97935617973E-01  0.88805790751E+00  0.88000000000E+00 0. -1.
        -11    1    4    4    0    0  0.11093640814E-01  0.39611797817E-01 -0.46654983178E-01  0.62202186209E-01  0.51100000000E-03 0.  1.
         11    1    4    4    0    0  0.30440615410E-01  0.39395611154E-01 -0.49262196288E-01  0.70040490781E-01  0.51100000000E-03 0. -1.
</event>
<event>
 8    1  0.1131376E+005  0.1043930E+01  0.7957747E-01            NaN
         13   -1    0    0    0    0  0.00000000000E+00  0.00000000000E+00  0.74505805969E-08  0.10566000000E+00  0.10566000000E+00 0.  1.
     999900   -1    0    0    0    0 -0.00000000000E+00 -0.00000000000E+00 -0.74505805969E-08  0.93827000000E+00  0.93827000000E+00 0.  1.
     999902    2    1    2    0    0 -0.22624375448E-01 -0.36338364203E-02  0.83666289196E-02  0.10195359923E+01  0.10192441180E+01 0.  0.
     999903    2    3    3    0    0 -0.10889534385E+00 -0.73124571117E-01  0.48241907038E-03  0.13255583303E+00  0.19115892037E-01 0.  0.
         14    1    1    2    0    0  0.22624375448E-01  0.36338364203E-02 -0.83666289196E-02  0.24394007687E-01  0.00000000000E+00 0.  1.
     999901    1    3    3    0    0  0.86270968403E-01  0.69490734697E-01  0.78842098492E-02  0.88698015928E+00  0.88000000000E+00 0.  1.
        -11    1    4    4    0    0 -0.54607515013E-01 -0.33563554103E-01  0.94223839841E-02  0.64788388627E-01  0.51100000000E-03 0. -1.
         11    1    4    4    0    0 -0.54287828838E-01 -0.39561017015E-01 -0.89399649137E-02  0.67767444403E-01  0.51100000000E-03 0.  1.
</event>
<event>
 8    1  0.1131376E+005  0.1043930E+01  0.7957747E-01            NaN
         13   -1    0    0    0    0  0.00000000000E+00  0.00000000000E+00  0.74505805969E-08  0.10566000000E+00  0.10566000000E+00 0.  1.
     999900   -1    0    0    0    0 -0.00000000000E+00 -0.00000000000E+00 -0.74505805969E-08  0.93827000000E+00  0.93827000000E+00 0.  1.
     999902    2    1    2    0    0  0.21277941968E-01 -0.68462043368E-02 -0.72247752281E-02  0.10204391783E+01  0.10201687595E+01 0.  0.
     999903    2    3    3    0    0 -0.71407835719E-01 -0.91464169795E-01  0.53999304590E-01  0.12942894185E+00  0.19265324649E-01 0.  0.
         14    1    1    2    0    0 -0.21277941968E-01  0.68462043368E-02  0.72247752281E-02  0.23490821725E-01  0.00000000000E+00 0. -1.
     999901    1    3    3    0    0  0.92685777687E-01  0.84617965458E-01 -0.61224079818E-01  0.89101023642E+00  0.88000000000E+00 0.  1.
        -11    1    4    4    0    0 -0.22948576391E-01 -0.20797974201E-01  0.21863838787E-01  0.37914132678E-01  0.51100000000E-03 0. -1.
         11    1    4    4    0    0 -0.48459259328E-01 -0.70666195594E-01  0.32135465803E-01  0.91514809172E-01  0.51100000000E-03 0.  1.
</event>
<event>
 8    1  0.1131376E+005  0.1043930E+01  0.7957747E-01            NaN
         13   -1    0    0    0    0  0.00000000000E+00  0.00000000000E+00  0.74505805969E-08  0.10566000000E+00  0.10566000000E+00 0. -1.
     999900   -1    0    0    0    0 -0.00000000000E+00 -0.00000000000E+00 -0.74505805969E-08  0.93827000000E+00  0.93827000000E+00 0.  1.
     999902    2    1    2    0    0 -0.96048079101E-02  0.89384959798E-02 -0.19780240895E-01  0.10201938045E+01  0.10199176397E+01 0.  0.
     999903    2    3    3    0    0 -0.18844180399E-01  0.88194653159E-01 -0.96078473114E-01  0.13329565666E+00  0.20081312430E-01 0.  0.
         14    1    1    2    0    0  0.96048079101E-02 -0.89384959798E-02  0.19780240895E-01  0.23736195467E-01  0.00000000000E+00 0. -1.
     999901    1    3    3    0    0  0.92393724886E-02 -0.79256157179E-01  0.76298232219E-01  0.88689814787E+00  0.88000000000E+00 0. -1.
        -11    1    4    4    0    0 -0.62193651061E-02  0.32677970662E-01 -0.49966048800E-01  0.60028305178E-01  0.51100000000E-03 0. -1.
         11    1    4    4    0    0 -0.12624815293E-01  0.55516682497E-01 -0.46112424314E-01  0.73267351486E-01  0.51100000000E-03 0.  1.
</event>
<event>
 8    1  0.1136954E+005  0.1043930E+01  0.7957747E-01            NaN
         13   -1    0    0    0    0  0.00000000000E+00  0.00000000000E+00  0.74505805969E-08  0.10566000000E+00  0.10566000000E+00 0.  1.
     999900   -1    0    0    0    0 -0.00000000000E+00 -0.00000000000E+00 -0.74505805969E-08  0.93827000000E+00  0.93827000000E+00 0. -1.
     999902    2    1    2    0    0 -0.10746306017E-01 -0.53927444073E-02  0.19967934773E-01  0.10206215637E+01  0.10203553758E+01 0.  0.
     999903    2    3    3    0    0  0.15675440589E-01 -0.42570250557E-02  0.13079471182E+00  0.13327609934E+00  0.19784345171E-01 0.  0.
         14    1    1    2    0    0  0.10746306017E-01  0.53927444073E-02 -0.19967934773E-01  0.23308436334E-01  0.00000000000E+00 0. -1.
     999901    1    3    3    0    0 -0.26421746606E-01 -0.11357193516E-02 -0.11082677705E+00  0.88734546433E+00  0.88000000000E+00 0. -1.
        -11    1    4    4    0    0 -0.32406464048E-02 -0.51602597414E-03  0.53782780825E-01  0.53885217882E-01  0.51100000000E-03 0.  1.
         11    1    4    4    0    0  0.18916086994E-01 -0.37409990816E-02  0.77011930998E-01  0.79390881456E-01  0.51100000000E-03 0. -1.
</event>
<event>
 8    1  0.1131376E+005  0.1043930E+01  0.7957747E-01            NaN
         13   -1    0    0    0    0  0.00000000000E+00  0.00000000000E+00  0.74505805969E-08  0.10566000000E+00  0.10566000000E+00 0. -1.
     999900   -1    0    0    0    0 -0.00000000000E+00 -0.00000000000E+00 -0.74505805969E-08  0.93827000000E+00  0.93827000000E+00 0.  1.
     999902    2    1    2    0    0 -0.12174085520E-01 -0.18264322348E-01  0.71785327516E-02  0.10208361662E+01  0.10205749130E+01 0.  0.
     999903    2    3    3    0    0 -0.49858131771E-01  0.96731525692E-01  0.69106448421E-01  0.13039852143E+00  0.19627832572E-01 0.  0.
         14    1    1    2    0    0  0.12174085520E-01  0.18264322348E-01 -0.71785327516E-02  0.23093833842E-01  0.00000000000E+00 0.  1.
     999901    1    3    3    0    0  0.37684046251E-01 -0.11499584804E+00 -0.61927915670E-01  0.89043764473E+00  0.88000000000E+00 0.  1.
        -11    1    4    4    0    0 -0.42137202873E-01  0.74887388850E-01  0.62644569316E-01  0.10634034070E+00  0.51100000000E-03 0.  1.
         11    1    4    4    0    0 -0.77209288980E-02  0.21844136842E-01  0.64618791053E-02  0.24058180729E-01  0.51100000000E-03 0. -1.
</event>
<event>
 8    1  0.1131376E+005  0.1043930E+01  0.7957747E-01            NaN
         13   -1    0    0    0    0  0.00000000000E+00  0.00000000000E+00  0.74505805969E-08  0.10566000000E+00  0.10566000000E+00 0.  1.
     999900   -1    0    0    0    0 -0.00000000000E+00 -0.00000000000E+00 -0.74505805969E-08  0.93827000000E+00  0.93827000000E+00 0.  1.
     999902    2    1    2    0    0 -0.47982801842E-02 -0.19502139671E-01  0.29611411580E-02  0.10236291305E+01  0.10234278048E+01 0.  0.
     999903    2    3    3    0    0 -0.84925451498E-01 -0.36155711355E-01 -0.95414271144E-01  0.13437358414E+00  0.20804066923E-01 0.  0.
         14    1    1    2    0    0  0.47982801842E-02  0.19502139671E-01 -0.29611411580E-02  0.20300869475E-01  0.00000000000E+00 0.  1.
     999901    1    3    3    0    0  0.80127171314E-01  0.16653571684E-01  0.98375412302E-01  0.88925554639E+00  0.88000000000E+00 0. -1.
        -11    1    4    4    0    0 -0.73026101539E-01 -0.23738934399E-01 -0.71577793135E-01  0.10497614064E+00  0.51100000000E-03 0. -1.
         11    1    4    4    0    0 -0.11899349959E-01 -0.12416776956E-01 -0.23836478009E-01  0.29397443500E-01  0.51100000000E-03 0.  1.
</event>
<event>
 8    1  0.1131376E+005  0.1043930E+01  0.7957747E-01            NaN
         13   -1    0    0    0    0  0.00000000000E+00  0.00000000000E+00  0.74505805969E-08  0.10566000000E+00  0.10566000000E+00 0. -1.
     999900   -1    0    0    0    0 -0.00000000000E+00 -0.00000000000E+00 -0.74505805969E-08  0.93827000000E+00  0.93827000000E+00 0.  1.
     999902    2    1    2    0    0  0.12122317916E-02  0.10557484728E-01  0.19691164109E-01  0.10215543004E+01  0.10213092170E+01 0.  0.
     999903    2    3    3    0    0 -0.67949344895E-01 -0.65034173319E-01  0.89652921956E-01  0.13285183610E+00  0.27665985757E-01 0.  0.
         14    1    1    2    0    0 -0.12122317916E-02 -0.10557484728E-01 -0.19691164109E-01  0.22375699624E-01  0.00000000000E+00 0.  1.
     999901    1    3    3    0    0  0.69161576687E-01  0.75591658046E-01 -0.69961757847E-01  0.88870246428E+00  0.88000000000E+00 0. -1.
        -11    1    4    4    0    0 -0.48024940861E-01 -0.33376009522E-01  0.67747926481E-01  0.89500813514E-01  0.51100000000E-03 0.  1.
         11    1    4    4    0    0 -0.19924404035E-01 -0.31658163797E-01  0.21904995475E-01  0.43351022582E-01  0.51100000000E-03 0. -1.
</event>
<event>
 8    1  0.1131376E+005  0.1043930E+01  0.7957747E-01            NaN
         13   -1    0    0    0    0  0.00000000000E+00  0.00000000000E+00  0.74505805969E-08  0.10566000000E+00  0.10566000000E+00 0.  1.
     999900   -1    0    0    0    0 -0.00000000000E+00 -0.00000000000E+00 -0.74505805969E-08  0.93827000000E+00  0.93827000000E+00 0.  1.
     999902    2    1    2    0    0  0.14648866268E-01 -0.76169720294E-02  0.17095936197E-01  0.10201628256E+01  0.10198859309E+01 0.  0.
     999903    2    3    3    0    0 -0.73955805625E-01  0.93563309980E-01 -0.44838338793E-01  0.12779289568E+00  0.98485228162E-02 0.  0.
         14    1    1    2    0    0 -0.14648866268E-01  0.76169720294E-02 -0.17095936197E-01  0.23767174428E-01  0.00000000000E+00 0.  1.
     999901    1    3    3    0    0  0.88604671893E-01 -0.10118028201E+00  0.61934274990E-01  0.89236992989E+00  0.88000000000E+00 0.  1.
        -11    1    4    4    0    0 -0.38077698034E-01  0.52215976535E-01 -0.19793901872E-01  0.67590524228E-01  0.51100000000E-03 0. -1.
         11    1    4    4    0    0 -0.35878107591E-01  0.41347333445E-01 -0.25044436921E-01  0.60202371457E-01  0.51100000000E-03 0.  1.
</event>
<event>
 8    1  0.1131376E+005  0.1043930E+01  0.7957747E-01            NaN
         13   -1    0    0    0    0  0.00000000000E+00  0.00000000000E+00  0.74505805969E-08  0.10566000000E+00  0.10566000000E+00 0. -1.
     999900   -1    0    0    0    0 -0.00000000000E+00 -0.00000000000E+00 -0.74505805969E-08  0.93827000000E+00  0.93827000000E+00 0. -1.
     999902    2    1    2    0    0 -0.23709110611E-02  0.15399350047E-02  0.22671016145E-01  0.10210833899E+01  0.10208277629E+01 0.  0.
     999903    2    3    3    0    0 -0.67400773742E-01 -0.38544706005E-01  0.10702704894E+00  0.13375503933E+00  0.20175794407E-01 0.  0.
         14    1    1    2    0    0  0.23709110611E-02 -0.15399350047E-02 -0.22671016145E-01  0.22846610080E-01  0.00000000000E+00 0.  1.
     999901    1    3    3    0    0  0.65029862680E-01  0.40084641010E-01 -0.84356032797E-01  0.88732835059E+00  0.88000000000E+00 0. -1.
        -11    1    4    4    0    0 -0.51376435804E-01 -0.18623728465E-01  0.72607727242E-01  0.90876424853E-01  0.51100000000E-03 0.  1.
         11    1    4    4    0    0 -0.16024337938E-01 -0.19920977540E-01  0.34419321700E-01  0.42878614481E-01  0.51100000000E-03 0. -1.
</event>
<event>
 8    1  0.1131376E+005  0.1043930E+01  0.7957747E-01            NaN
         13   -1    0    0    0    0  0.00000000000E+00  0.00000000000E+00  0.74505805969E-08  0.10566000000E+00  0.10566000000E+00 0. -1.
     999900   -1    0    0    0    0 -0.00000000000E+00 -0.00000000000E+00 -0.74505805969E-08  0.93827000000E+00  0.93827000000E+00 0. -1.
     999902    2    1    2    0    0  0.59555507914E-02 -0.22421244932E-01  0.20750056052E-02  0.10206386613E+01  0.10203728684E+01 0.  0.
     999903    2    3    3    0    0  0.58378084579E-01  0.73253498865E-01 -0.87563891671E-01  0.12938285597E+00  0.17274618379E-01 0.  0.
         14    1    1    2    0    0 -0.59555507914E-02  0.22421244932E-01 -0.20750056052E-02  0.23291338686E-01  0.00000000000E+00 0. -1.
     999901    1    3    3    0    0 -0.52422533788E-01 -0.95674743797E-01  0.89638897276E-01  0.89125580534E+00  0.88000000000E+00 0.  1.
        -11    1    4    4    0    0  0.31431719782E-01  0.45939043055E-01 -0.41513378793E-01  0.69440409165E-01  0.51100000000E-03 0.  1.
         11    1    4    4    0    0  0.26946364797E-01  0.27314455810E-01 -0.46050512878E-01  0.59942446808E-01  0.51100000000E-03 0. -1.
</event>
<event>
 8    1  0.1131376E+005  0.1043930E+01  0.7957747E-01            NaN
         13   -1    0    0    0    0  0.00000000000E+00  0.00000000000E+00  0.74505805969E-08  0.10566000000E+00  0.10566000000E+00 0. -1.
     999900   -1    0    0    0    0 -0.00000000000E+00 -0.00000000000E+00 -0.74505805969E-08  0.93827000000E+00  0.93827000000E+00 0. -1.
     999902    2    1    2    0    0 -0.51594836186E-02 -0.76000989149E-03 -0.24989915768E-01  0.10184017064E+01  0.10180816970E+01 0.  0.
     999903    2    3    3    0    0  0.12467677193E+00  0.19205522981E-01  0.69619292427E-02  0.12807761022E+00  0.21029888484E-01 0.  0.
         14    1    1    2    0    0  0.51594836186E-02  0.76000989149E-03  0.24989915768E-01  0.25528293643E-01  0.00000000000E+00 0. -1.
     999901    1    3    3    0    0 -0.12983625555E+00 -0.19965532873E-01 -0.31951845010E-01  0.89032409613E+00  0.88000000000E+00 0. -1.
        -11    1    4    4    0    0  0.67818151088E-01  0.14020251464E-01 -0.60467761086E-02  0.69517578284E-01  0.51100000000E-03 0. -1.
         11    1    4    4    0    0  0.56858620842E-01  0.51852715168E-02  0.13008705351E-01  0.58560031939E-01  0.51100000000E-03 0.  1.
</event>
<event>
 8    1  0.1131376E+005  0.1043930E+01  0.7957747E-01            NaN
         13   -1    0    0    0    0  0.00000000000E+00  0.00000000000E+00  0.74505805969E-08  0.10566000000E+00  0.10566000000E+00 0.  1.
     999900   -1    0    0    0    0 -0.00000000000E+00 -0.00000000000E+00 -0.74505805969E-08  0.93827000000E+00  0.93827000000E+00 0.  1.
     999902    2    1    2    0    0 -0.19810345606E-01  0.14178120850E-02 -0.12049790090E-01  0.10206994721E+01  0.10204350812E+01 0.  0.
     999903    2    3    3    0    0  0.99072951744E-01  0.20124854225E-01  0.76314850382E-01  0.12812370419E+00  0.19268307203E-01 0.  0.
         14    1    1    2    0    0  0.19810345606E-01 -0.14178120850E-02  0.12049790090E-01  0.23230527875E-01  0.00000000000E+00 0.  1.
     999901    1    3    3    0    0 -0.11888329735E+00 -0.18707042140E-01 -0.88364640472E-01  0.89257576793E+00  0.88000000000E+00 0.  1.
        -11    1    4    4    0    0  0.29847487751E-01 -0.22029975885E-02  0.18314165860E-01  0.35091245568E-01  0.51100000000E-03 0. -1.
         11    1    4    4    0    0  0.69225463993E-01  0.22327851813E-01  0.58000684522E-01  0.93032458624E-01  0.51100000000E-03 0.  1.
</event>
<event>
 8    1  0.1131376E+005  0.1043930E+01  0.7957747E-01            NaN
         13   -1    0    0    0    0  0.00000000000E+00  0.00000000000E+00  0.74505805969E-08  0.10566000000E+00  0.10566000000E+00 0.  1.
     999900   -1    0    0    0    0 -0.00000000000E+00 -0.00000000000E+00 -0.74505805969E-08  0.93827000000E+00  0.93827000000E+00 0.  1.
     999902    2    1    2    0    0  0.38298314463E-03  0.10483964359E-02  0.36038682887E-01  0.10078740369E+01  0.10072288924E+01 0.  0.
     999903    2    3    3    0    0  0.10121909720E+00 -0.59017314330E-01  0.14509586013E-01  0.11982037100E+00  0.20446129009E-01 0.  0.
         14    1    1    2    0    0 -0.38298314463E-03 -0.10483964359E-02 -0.36038682887E-01  0.36055963105E-01  0.00000000000E+00 0. -1.
     999901    1    3    3    0    0 -0.10083611405E+00  0.60065710765E-01  0.21529096874E-01  0.88805366590E+00  0.88000000000E+00 0. -1.
        -11    1    4    4    0    0  0.32731846686E-01 -0.12053148966E-01 -0.27807596330E-02  0.34994941529E-01  0.51100000000E-03 0. -1.
         11    1    4    4    0    0  0.68487250509E-01 -0.46964165363E-01  0.17290345646E-01  0.84825429466E-01  0.51100000000E-03 0.  1.
</event>
<event>
 8    1  0.1131376E+005  0.1043930E+01  0.7957747E-01            NaN
         13   -1    0    0    0    0  0.00000000000E+00  0.00000000000E+00  0.74505805969E-08  0.10566000000E+00  0.10566000000E+00 0. -1.
     999900   -1    0    0    0    0 -0.00000000000E+00 -0.00000000000E+00 -0.74505805969E-08  0.93827000000E+00  0.93827000000E+00 0. -1.
     999902    2    1    2    0    0  0.21115614704E-01  0.36076849782E-02 -0.63929100821E-02  0.10215748244E+01  0.10213301954E+01 0.  0.
     999903    2    3    3    0    0  0.72020451861E-01 -0.64933250898E-01 -0.89569053904E-01  0.13353910824E+00  0.20169418773E-01 0.  0.
         14    1    1    2    0    0 -0.21115614704E-01 -0.36076849782E-02  0.63929100821E-02  0.22355175565E-01  0.00000000000E+00 0. -1.
     999901    1    3    3    0    0 -0.50904837157E-01  0.68540935876E-01  0.83176143822E-01  0.88803571619E+00  0.88000000000E+00 0.  1.
        -11    1    4    4    0    0  0.37884930033E-01 -0.20903106846E-01 -0.41446155744E-01  0.59918717830E-01  0.51100000000E-03 0. -1.
         11    1    4    4    0    0  0.34135521828E-01 -0.44030144052E-01 -0.48122898160E-01  0.73620390410E-01  0.51100000000E-03 0.  1.
</event>
<event>
 8    1  0.1131376E+005  0.1043930E+01  0.7957747E-01            NaN
         13   -1    0    0    0    0  0.00000000000E+00  0.00000000000E+00  0.74505805969E-08  0.10566000000E+00  0.10566000000E+00 0. -1.
     999900   -1    0    0    0    0 -0.00000000000E+00 -0.00000000000E+00 -0.74505805969E-08  0.93827000000E+00  0.93827000000E+00 0.  1.
     999902    2    1    2    0    0 -0.22050614442E-01  0.26422548657E-02 -0.51617117737E-02  0.10211296847E+01  0.10208751043E+01 0.  0.
     999903    2    3    3    0    0  0.64033589828E-01  0.10099746535E+00 -0.48124630401E-01  0.13043891346E+00  0.19938441743E-01 0.  0.
         14    1    1    2    0    0  0.22050614442E-01 -0.26422548657E-02  0.51617117737E-02  0.22800315272E-01  0.00000000000E+00 0.  1.
     999901    1    3    3    0    0 -0.86084204271E-01 -0.98355210482E-01  0.42962918627E-01  0.89069077127E+00  0.88000000000E+00 0. -1.
        -11    1    4    4    0    0  0.33570238956E-01  0.47522131908E-01 -0.13162598881E-01  0.59655922547E-01  0.51100000000E-03 0. -1.
         11    1    4    4    0    0  0.30463350873E-01  0.53475333440E-01 -0.34962031520E-01  0.70782990908E-01  0.51100000000E-03 0.  1.
</event>
<event>
 8    1  0.1131376E+005  0.1043930E+01  0.7957747E-01            NaN
         13   -1    0    0    0    0  0.00000000000E+00  0.00000000000E+00  0.74505805969E-08  0.10566000000E+00  0.10566000000E+00 0.  1.
     999900   -1    0    0    0    0 -0.00000000000E+00 -0.00000000000E+00 -0.74505805969E-08  0.93827000000E+00  0.93827000000E+00 0.  1.
     999902    2    1    2    0    0 -0.15008141564E-01 -0.69394480850E-02  0.16245547673E-01  0.10207498777E+01  0.10204866460E+01 0.  0.
     999903    2    3    3    0    0 -0.54502206562E-01  0.39339613438E-01  0.11289895983E+00  0.13336979291E+00  0.22874239331E-01 0.  0.
         14    1    1    2    0    0  0.15008141564E-01  0.69394480850E-02 -0.16245547673E-01  0.23180122349E-01  0.00000000000E+00 0. -1.
     999901    1    3    3    0    0  0.39494064998E-01 -0.46279061523E-01 -0.96653412159E-01  0.88738008474E+00  0.88000000000E+00 0.  1.
        -11    1    4    4    0    0 -0.50403329591E-01  0.40806469497E-01  0.11107556034E+00  0.12862233403E+00  0.51100000000E-03 0.  1.
         11    1    4    4    0    0 -0.40988769711E-02 -0.14668560587E-02  0.18233994974E-02  0.47474588833E-02  0.51100000000E-03 0. -1.
</event>
<event>
 8    1  0.1131376E+005  0.1043930E+01  0.7957747E-01            NaN
         13   -1    0    0    0    0  0.00000000000E+00  0.00000000000E+00  0.74505805969E-08  0.10566000000E+00  0.10566000000E+00 0. -1.
     999900   -1    0    0    0    0 -0.00000000000E+00 -0.00000000000E+00 -0.74505805969E-08  0.93827000000E+00  0.93827000000E+00 0. -1.
     999902    2    1    2    0    0 -0.14919160170E-01  0.15521847728E-01 -0.72335912197E-02  0.10212180221E+01  0.10209654327E+01 0.  0.
     999903    2    3    3    0    0  0.66536745144E-01  0.21825529100E-02  0.10931636656E+00  0.12970420061E+00  0.21004991421E-01 0.  0.
         14    1    1    2    0    0  0.14919160170E-01 -0.15521847728E-01  0.72335912197E-02  0.22711977876E-01  0.00000000000E+00 0. -1.
     999901    1    3    3    0    0 -0.81455905314E-01  0.13339294818E-01 -0.11654995778E+00  0.89151382152E+00  0.88000000000E+00 0.  1.
        -11    1    4    4    0    0  0.57480468270E-01  0.45913406429E-02  0.10400145583E+00  0.11891866370E+00  0.51100000000E-03 0. -1.
         11    1    4    4    0    0  0.90562768741E-02 -0.24087877329E-02  0.53149107347E-02  0.10785536903E-01  0.51100000000E-03 0.  1.
</event>
<event>
 8    1  0.1131376E+005  0.1043930E+01  0.7957747E-01            NaN
         13   -1    0    0    0    0  0.00000000000E+00  0.00000000000E+00  0.74505805969E-08  0.10566000000E+00  0.10566000000E+00 0. -1.
     999900   -1    0    0    0    0 -0.00000000000E+00 -0.00000000000E+00 -0.74505805969E-08  0.93827000000E+00  0.93827000000E+00 0.  1.
     999902    2    1    2    0    0  0.91530019687E-02 -0.90533166970E-02 -0.19462182154E-01  0.10205951222E+01  0.10203283231E+01 0.  0.
     999903    2    3    3    0    0 -0.11435604996E+00  0.37140045676E-01  0.41434319122E-01  0.12868890711E+00  0.19681027796E-01 0.  0.
         14    1    1    2    0    0 -0.91530019687E-02  0.90533166970E-02  0.19462182154E-01  0.23334877811E-01  0.00000000000E+00 0. -1.
     999901    1    3    3    0    0  0.12350905193E+00 -0.46193362373E-01 -0.60896501276E-01  0.89190621508E+00  0.88000000000E+00 0.  1.
        -11    1    4    4    0    0 -0.40443999575E-01  0.13946881524E-01  0.49805737718E-02  0.43073191685E-01  0.51100000000E-03 0.  1.
         11    1    4    4    0    0 -0.73912050388E-01  0.23193164151E-01  0.36453745351E-01  0.85615715421E-01  0.51100000000E-03 0. -1.
</event>
<event>
 8    1  0.1131376E+005  0.1043930E+01  0.7957747E-01            NaN
         13   -1    0    0    0    0  0.00000000000E+00  0.00000000000E+00  0.74505805969E-08  0.10566000000E+00  0.10566000000E+00 0.  1.
     999900   -1    0    0    0    0 -0.00000000000E+00 -0.00000000000E+00 -0.74505805969E-08  0.93827000000E+00  0.93827000000E+00 0. -1.
     999902    2    1    2    0    0  0.18397918328E-02  0.22724859848E-01 -0.44998214252E-02  0.10206909707E+01  0.10204263840E+01 0.  0.
     999903    2    3    3    0    0  0.21937827409E-01  0.46802591989E-01  0.11933386672E+00  0.13146746083E+00  0.19270978776E-01 0.  0.
         14    1    1    2    0    0 -0.18397918328E-02 -0.22724859848E-01  0.44998214252E-02  0.23239029282E-01  0.00000000000E+00 0.  1.
     999901    1    3    3    0    0 -0.20098035576E-01 -0.24077732140E-01 -0.12383368814E+00  0.88922350989E+00  0.88000000000E+00 0. -1.
        -11    1    4    4    0    0  0.13712065615E-02  0.11259386685E-01  0.11880307680E-01  0.16433405841E-01  0.51100000000E-03 0. -1.
         11    1    4    4    0    0  0.20566620848E-01  0.35543205303E-01  0.10745355904E+00  0.11503405499E+00  0.51100000000E-03 0.  1.
</event>
<event>
 8    1  0.1131376E+005  0.1043930E+01  0.7957747E-01            NaN
         13   -1    0    0    0    0  0.00000000000E+00  0.00000000000E+00  0.74505805969E-08  0.10566000000E+00  0.10566000000E+00 0. -1.
     999900   -1    0    0    0    0 -0.00000000000E+00 -0.00000000000E+00 -0.74505805969E-08  0.93827000000E+00  0.93827000000E+00 0.  1.
     999902    2    1    2    0    0 -0.11036207318E-02 -0.22542512636E-01 -0.19361330652E-02  0.10212775947E+01  0.10210263434E+01 0.  0.
     999903    2    3    3    0    0 -0.10889823944E+00 -0.32724152478E-01 -0.64944404503E-01  0.13240561973E+00  0.19590195274E-01 0.  0.
         14    1    1    2    0    0  0.11036207318E-02  0.22542512636E-01  0.19361330652E-02  0.22652405301E-01  0.00000000000E+00 0. -1.
     999901    1    3    3    0    0  0.10779461871E+00  0.10181639842E-01  0.63008271438E-01  0.88887197497E+00  0.88000000000E+00 0.  1.
        -11    1    4    4    0    0 -0.20405146057E-01 -0.17842210560E-03 -0.62824058684E-02  0.21357236819E-01  0.51100000000E-03 0.  1.
         11    1    4    4    0    0 -0.88493093388E-01 -0.32545730372E-01 -0.58661998635E-01  0.11104838291E+00  0.51100000000E-03 0. -1.
</event>
<event>
 8    1  0.1131376E+005  0.1043930E+01  0.7957747E-01            NaN
         13   -1    0    0    0    0  0.00000000000E+00  0.00000000000E+00  0.74505805969E-08  0.10566000000E+00  0.10566000000E+00 0.  1.
     999900   -1    0    0    0    0 -0.00000000000E+00 -0.00000000000E+00 -0.74505805969E-08  0.93827000000E+00  0.93827000000E+00 0. -1.
     999902    2    1    2    0    0 -0.12860339539E-01  0.16178752738E-01 -0.12196214430E-01  0.10199323330E+01  0.10196499772E+01 0.  0.
     999903    2    3    3    0    0  0.29068989464E-01  0.10228549979E+00  0.73221468431E-01  0.13062438802E+00  0.19849878885E-01 0.  0.
         14    1    1    2    0    0  0.12860339539E-01 -0.16178752738E-01  0.12196214430E-01  0.23997666962E-01  0.00000000000E+00 0.  1.
     999901    1    3    3    0    0 -0.41929329003E-01 -0.86106747052E-01 -0.85417682861E-01  0.88930794501E+00  0.88000000000E+00 0. -1.
        -11    1    4    4    0    0  0.23440598440E-01  0.65584342899E-01  0.57426995476E-01  0.90271194847E-01  0.51100000000E-03 0.  1.
         11    1    4    4    0    0  0.56283910243E-02  0.36701156891E-01  0.15794472955E-01  0.40353193177E-01  0.51100000000E-03 0. -1.
</event>
<event>
 8    1  0.1131376E+005  0.1043930E+01  0.7957747E-01            NaN
         13   -1    0    0    0    0  0.00000000000E+00  0.00000000000E+00  0.74505805969E-08  0.10566000000E+00  0.10566000000E+00 0. -1.
     999900   -1    0    0    0    0 -0.00000000000E+00 -0.00000000000E+00 -0.74505805969E-08  0.93827000000E+00  0.93827000000E+00 0.  1.
     999902    2    1    2    0    0 -0.81853153275E-02  0.21789028898E-01 -0.30787752744E-02  0.10204514987E+01  0.10201813668E+01 0.  0.
     999903    2    3    3    0    0 -0.77223849233E-01  0.15768454898E-01 -0.10391834639E+00  0.13198586311E+00  0.20225683793E-01 0.  0.
         14    1    1    2    0    0  0.81853153275E-02 -0.21789028898E-01  0.30787752744E-02  0.23478501326E-01  0.00000000000E+00 0.  1.
     999901    1    3    3    0    0  0.69038533906E-01  0.60205739999E-02  0.10083957111E+00  0.88846563556E+00  0.88000000000E+00 0. -1.
        -11    1    4    4    0    0 -0.34271572138E-01 -0.26001801888E-02 -0.49503142671E-01  0.60267104205E-01  0.51100000000E-03 0.  1.
         11    1    4    4    0    0 -0.42952277095E-01  0.18368635087E-01 -0.54415203715E-01  0.71718758906E-01  0.51100000000E-03 0. -1.
</event>
<event>
 8    1  0.1131376E+005  0.1043930E+01  0.7957747E-01            NaN
         13   -1    0    0    0    0  0.00000000000E+00  0.00000000000E+00  0.74505805969E-08  0.10566000000E+00  0.10566000000E+00 0.  1.
     999900   -1    0    0    0    0 -0.00000000000E+00 -0.00000000000E+00 -0.74505805969E-08  0.93827000000E+00  0.93827000000E+00 0.  1.
     999902    2    1    2    0    0  0.21478738786E-01 -0.72046218263E-02 -0.80580983586E-02  0.10198847147E+01  0.10196012238E+01 0.  0.
     999903    2    3    3    0    0  0.12099206820E-01  0.10265610937E+00 -0.76987926644E-01  0.13032938922E+00  0.19337560607E-01 0.  0.
         14    1    1    2    0    0 -0.21478738786E-01  0.72046218263E-02  0.80580983586E-02  0.24045285290E-01  0.00000000000E+00 0.  1.
     999901    1    3    3    0    0  0.93795319662E-02 -0.10986073119E+00  0.68929828285E-01  0.88955532549E+00  0.88000000000E+00 0. -1.
        -11    1    4    4    0    0  0.14987885128E-01  0.46825522713E-01 -0.33430901884E-01  0.59457149273E-01  0.51100000000E-03 0. -1.
         11    1    4    4    0    0 -0.28886783081E-02  0.55830586652E-01 -0.43557024760E-01  0.70872239948E-01  0.51100000000E-03 0.  1.
</event>
<event>
 8    1  0.1131376E+005  0.1043930E+01  0.7957747E-01            NaN
         13   -1    0    0    0    0  0.00000000000E+00  0.00000000000E+00  0.74505805969E-08  0.10566000000E+00  0.10566000000E+00 0.  1.
     999900   -1    0    0    0    0 -0.00000000000E+00 -0.00000000000E+00 -0.74505805969E-08  0.93827000000E+00  0.93827000000E+00 0.  1.
     999902    2    1    2    0    0  0.12392117181E-01 -0.14049513085E-01 -0.14604567240E-01  0.10201761209E+01  0.10198995396E+01 0.  0.
     999903    2    3    3    0    0 -0.76446456482E-01 -0.10362084424E+00 -0.17920038768E-01  0.13117313563E+00  0.17433406189E-01 0.  0.
         14    1    1    2    0    0 -0.12392117181E-01  0.14049513085E-01  0.14604567240E-01  0.23753879060E-01  0.00000000000E+00 0.  1.
     999901    1    3    3    0    0  0.88838573663E-01  0.89571331159E-01  0.33154715284E-02  0.88900298531E+00  0.88000000000E+00 0. -1.
        -11    1    4    4    0    0 -0.19811368300E-01 -0.16088909593E-01 -0.95565631051E-03  0.25544426511E-01  0.51100000000E-03 0.  1.
         11    1    4    4    0    0 -0.56635088182E-01 -0.87531934651E-01 -0.16964382458E-01  0.10562870912E+00  0.51100000000E-03 0. -1.
</event>
<event>
 8    1  0.1131376E+005  0.1043930E+01  0.7957747E-01            NaN
         13   -1    0    0    0    0  0.00000000000E+00  0.00000000000E+00  0.74505805969E-08  0.10566000000E+00  0.10566000000E+00 0. -1.
     999900   -1    0    0    0    0 -0.00000000000E+00 -0.00000000000E+00 -0.74505805969E-08  0.93827000000E+00  0.93827000000E+00 0. -1.
     999902    2    1    2    0    0  0.12837901961E-01  0.19874063308E-01  0.47588709534E-02  0.10197962690E+01  0.10195106637E+01 0.  0.
     999903    2    3    3    0    0  0.10579650926E+00 -0.70090080733E-01  0.21009590416E-01  0.13019021250E+00  0.20064091108E-01 0.  0.
         14    1    1    2    0    0 -0.12837901961E-01 -0.19874063308E-01 -0.47588709534E-02  0.24133730998E-01  0.00000000000E+00 0.  1.
     999901    1    3    3    0    0 -0.92958607299E-01  0.89964144042E-01 -0.16250719463E-01  0.88960605650E+00  0.88000000000E+00 0. -1.
        -11    1    4    4    0    0  0.69440974047E-01 -0.44925597103E-01  0.39720942616E-02  0.82803362284E-01  0.51100000000E-03 0. -1.
         11    1    4    4    0    0  0.36355535213E-01 -0.25164483630E-01  0.17037496155E-01  0.47386850214E-01  0.51100000000E-03 0.  1.
</event>
<event>
 8    1  0.1131376E+005  0.1043930E+01  0.7957747E-01            NaN
         13   -1    0    0    0    0  0.00000000000E+00  0.00000000000E+00  0.74505805969E-08  0.10566000000E+00  0.10566000000E+00 0. -1.
     999900   -1    0    0    0    0 -0.00000000000E+00 -0.00000000000E+00 -0.74505805969E-08  0.93827000000E+00  0.93827000000E+00 0.  1.
     999902    2    1    2    0    0  0.46746019016E-02 -0.12181171817E-01 -0.18910283351E-01  0.10209554126E+01  0.10206968810E+01 0.  0.
     999903    2    3    3    0    0 -0.46460826158E-01 -0.62075921795E-01 -0.10709763668E+00  0.13366666176E+00  0.19617447569E-01 0.  0.
         14    1    1    2    0    0 -0.46746019016E-02  0.12181171817E-01  0.18910283351E-01  0.22974587400E-01  0.00000000000E+00 0. -1.
     999901    1    3    3    0    0  0.51135428059E-01  0.49894749978E-01  0.88187353332E-01  0.88728875084E+00  0.88000000000E+00 0.  1.
        -11    1    4    4    0    0 -0.13833820989E-01 -0.85433830810E-02 -0.14200502686E-01  0.21593503541E-01  0.51100000000E-03 0.  1.
         11    1    4    4    0    0 -0.32627005168E-01 -0.53532538714E-01 -0.92897133998E-01  0.11207315822E+00  0.51100000000E-03 0. -1.
</event>
<event>
 8    1  0.1131376E+005  0.1043930E+01  0.7957747E-01            NaN
         13   -1    0    0    0    0  0.00000000000E+00  0.00000000000E+00  0.74505805969E-08  0.10566000000E+00  0.10566000000E+00 0.  1.
     999900   -1    0    0    0    0 -0.00000000000E+00 -0.00000000000E+00 -0.74505805969E-08  0.93827000000E+00  0.93827000000E+00 0.  1.
     999902    2    1    2    0    0  0.10734294022E-02  0.14190369376E-01  0.19612222043E-01  0.10196986549E+01  0.10194107066E+01 0.  0.
     999903    2    3    3    0    0  0.43598092905E-01 -0.50529111234E-02  0.12323288977E+00  0.13239042565E+00  0.20360600804E-01 0.  0.
         14    1    1    2    0    0 -0.10734294022E-02 -0.14190369376E-01 -0.19612222043E-01  0.24231345138E-01  0.00000000000E+00 0. -1.
     999901    1    3    3    0    0 -0.42524663503E-01  0.19243280499E-01 -0.10362066773E+00  0.88730822921E+00  0.88000000000E+00 0.  1.
        -11    1    4    4    0    0  0.16794588695E-01  0.61738239262E-02  0.32338341005E-01  0.36962193269E-01  0.51100000000E-03 0. -1.
         11    1    4    4    0    0  0.26803504210E-01 -0.11226735050E-01  0.90894548770E-01  0.95428232379E-01  0.51100000000E-03 0.  1.
</event>
<event>
 8    1  0.1131376E+005  0.1043930E+01  0.7957747E-01            NaN
         13   -1    0    0    0    0  0.00000000000E+00  0.00000000000E+00  0.74505805969E-08  0.10566000000E+00  0.10566000000E+00 0. -1.
     999900   -1    0    0    0    0 -0.00000000000E+00 -0.00000000000E+00 -0.74505805969E-08  0.93827000000E+00  0.93827000000E+00 0. -1.
     999902    2    1    2    0    0 -0.10849877278E-01  0.13116615956E-01 -0.16134869806E-01  0.10204758005E+01  0.10202062340E+01 0.  0.
     999903    2    3    3    0    0  0.55152403872E-02  0.13081116573E+00  0.55550947301E-02  0.13222455299E+00  0.17620850705E-01 0.  0.
         14    1    1    2    0    0  0.10849877278E-01 -0.13116615956E-01  0.16134869806E-01  0.23454199512E-01  0.00000000000E+00 0. -1.
     999901    1    3    3    0    0 -0.16365117665E-01 -0.11769454977E+00 -0.21689964536E-01  0.88825124750E+00  0.88000000000E+00 0. -1.
        -11    1    4    4    0    0  0.33286683732E-02  0.73615497665E-01 -0.56113091751E-02  0.73905814665E-01  0.51100000000E-03 0.  1.
         11    1    4    4    0    0  0.21865720140E-02  0.57195668065E-01  0.11166403905E-01  0.58318738324E-01  0.51100000000E-03 0. -1.
</event>
<event>
 8    1  0.1131376E+005  0.1043930E+01  0.7957747E-01            NaN
         13   -1    0    0    0    0  0.00000000000E+00  0.00000000000E+00  0.74505805969E-08  0.10566000000E+00  0.10566000000E+00 0. -1.
     999900   -1    0    0    0    0 -0.00000000000E+00 -0.00000000000E+00 -0.74505805969E-08  0.93827000000E+00  0.93827000000E+00 0. -1.
     999902    2    1    2    0    0  0.22476552576E-01 -0.67718162011E-02 -0.25378545946E-02  0.10203186973E+01  0.10200454649E+01 0.  0.
     999903    2    3    3    0    0  0.34437268378E-01 -0.91802372679E-01 -0.86314314176E-01  0.13217920967E+00  0.20188649177E-01 0.  0.
         14    1    1    2    0    0 -0.22476552576E-01  0.67718162011E-02  0.25378545946E-02  0.23611302724E-01  0.00000000000E+00 0. -1.
     999901    1    3    3    0    0 -0.11960715802E-01  0.85030556478E-01  0.83776459581E-01  0.88813948760E+00  0.88000000000E+00 0.  1.
        -11    1    4    4    0    0  0.28769066792E-01 -0.48617620500E-01 -0.50873766359E-01  0.76024558215E-01  0.51100000000E-03 0. -1.
         11    1    4    4    0    0  0.56682015859E-02 -0.43184752179E-01 -0.35440547817E-01  0.56154651459E-01  0.51100000000E-03 0.  1.
</event>
<event>
 8    1  0.1131376E+005  0.1043930E+01  0.7957747E-01            NaN
         13   -1    0    0    0    0  0.00000000000E+00  0.00000000000E+00  0.74505805969E-08  0.10566000000E+00  0.10566000000E+00 0.  1.
     999900   -1    0    0    0    0 -0.00000000000E+00 -0.00000000000E+00 -0.74505805969E-08  0.93827000000E+00  0.93827000000E+00 0. -1.
     999902    2    1    2    0    0  0.20359545285E-01  0.74781315201E-02 -0.92668787965E-02  0.10203438054E+01  0.10200711605E+01 0.  0.
     999903    2    3    3    0    0 -0.76823755835E-01  0.10166333261E+00  0.13665226593E-01  0.12970284089E+00  0.19969122662E-01 0.  0.
         14    1    1    2    0    0 -0.20359545285E-01 -0.74781315201E-02  0.92668787965E-02  0.23586194646E-01  0.00000000000E+00 0.  1.
     999901    1    3    3    0    0  0.97183301120E-01 -0.94185201089E-01 -0.22932105389E-01  0.89064096446E+00  0.88000000000E+00 0.  1.
        -11    1    4    4    0    0 -0.13801164461E-01  0.12798543250E-01  0.84350459586E-02  0.20632158663E-01  0.51100000000E-03 0.  1.
         11    1    4    4    0    0 -0.63022591374E-01  0.88864789359E-01  0.52301806344E-02  0.10907068223E+00  0.51100000000E-03 0. -1.
</event>
<event>
 8    1  0.1131376E+005  0.1043930E+01  0.7957747E-01            NaN
         13   -1    0    0    0    0  0.00000000000E+00  0.00000000000E+00  0.74505805969E-08  0.10566000000E+00  0.10566000000E+00 0.  1.
     999900   -1    0    0    0    0 -0.00000000000E+00 -0.00000000000E+00 -0.74505805969E-08  0.93827000000E+00  0.93827000000E+00 0.  1.
     999902    2    1    2    0    0  0.22691911089E-01  0.65008976631E-02 -0.50495873268E-02  0.10197911758E+01  0.10195054485E+01 0.  0.
     999903    2    3    3    0    0 -0.42977335724E-01 -0.11922983906E+00  0.30106694562E-02  0.12839584499E+00  0.20337722877E-01 0.  0.
         14    1    1    2    0    0 -0.22691911089E-01 -0.65008976631E-02  0.50495873268E-02  0.24138824153E-01  0.00000000000E+00 0.  1.
     999901    1    3    3    0    0  0.65669246813E-01  0.12573073672E+00 -0.80602567830E-02  0.89139533086E+00  0.88000000000E+00 0. -1.
        -11    1    4    4    0    0 -0.16959840555E-02 -0.41594033994E-02 -0.38686557362E-02  0.59501778764E-02  0.51100000000E-03 0. -1.
         11    1    4    4    0    0 -0.41281351668E-01 -0.11507043566E+00  0.68793251924E-02  0.12244566711E+00  0.51100000000E-03 0.  1.
</event>
<event>
 8    1  0.1131376E+005  0.1043930E+01  0.7957747E-01            NaN
         13   -1    0    0    0    0  0.00000000000E+00  0.00000000000E+00  0.74505805969E-08  0.10566000000E+00  0.10566000000E+00 0.  1.
     999900   -1    0    0    0    0 -0.00000000000E+00 -0.00000000000E+00 -0.74505805969E-08  0.93827000000E+00  0.93827000000E+00 0. -1.
     999902    2    1    2    0    0 -0.44877471954E-02 -0.14459248233E-01  0.16497116513E-01  0.10215388279E+01  0.10212934017E+01 0.  0.
     999903    2    3    3    0    0 -0.12670700593E+00 -0.20158290303E-02  0.29732427263E-01  0.13290641834E+00  0.26858329946E-01 0.  0.
         14    1    1    2    0    0  0.44877471954E-02  0.14459248233E-01 -0.16497116513E-01  0.22391172091E-01  0.00000000000E+00 0. -1.
     999901    1    3    3    0    0  0.12221925873E+00 -0.12443419203E-01 -0.13235310750E-01  0.88863240957E+00  0.88000000000E+00 0.  1.
        -11    1    4    4    0    0 -0.39724885482E-01 -0.81023530376E-02  0.19873481033E-01  0.45154523812E-01  0.51100000000E-03 0.  1.
         11    1    4    4    0    0 -0.86982120444E-01  0.60865240073E-02  0.98589462303E-02  0.87751894528E-01  0.51100000000E-03 0. -1.
</event>
<event>
 8    1  0.1131376E+005  0.1043930E+01  0.7957747E-01            NaN
         13   -1    0    0    0    0  0.00000000000E+00  0.00000000000E+00  0.74505805969E-08  0.10566000000E+00  0.10566000000E+00 0.  1.
     999900   -1    0    0    0    0 -0.00000000000E+00 -0.00000000000E+00 -0.74505805969E-08  0.93827000000E+00  0.93827000000E+00 0.  1.
     999902    2    1    2    0    0  0.16124208544E-01 -0.14137010494E-01 -0.16513438961E-01  0.10168645454E+01  0.10165042867E+01 0.  0.
     999903    2    3    3    0    0 -0.10178559238E+00 -0.64010773277E-01 -0.36678724928E-01  0.12737213276E+00  0.20509642362E-01 0.  0.
         14    1    1    2    0    0 -0.16124208544E-01  0.14137010494E-01  0.16513438961E-01  0.27065454609E-01  0.00000000000E+00 0.  1.
     999901    1    3    3    0    0  0.11790980093E+00  0.49873762784E-01  0.20165285968E-01  0.88949241263E+00  0.88000000000E+00 0. -1.
        -11    1    4    4    0    0 -0.69358901438E-01 -0.33228511384E-01 -0.27841676616E-01  0.81793711587E-01  0.51100000000E-03 0.  1.
         11    1    4    4    0    0 -0.32426690944E-01 -0.30782261894E-01 -0.88370483118E-02  0.45578421174E-01  0.51100000000E-03 0. -1.
</event>
<event>
 8    1  0.1131376E+005  0.1043930E+01  0.7957747E-01            NaN
         13   -1    0    0    0    0  0.00000000000E+00  0.00000000000E+00  0.74505805969E-08  0.10566000000E+00  0.10566000000E+00 0.  1.
     999900   -1    0    0    0    0 -0.00000000000E+00 -0.00000000000E+00 -0.74505805969E-08  0.93827000000E+00  0.93827000000E+00 0.  1.
     999902    2    1    2    0    0  0.33834066322E-02  0.19518857304E-01 -0.12953861215E-01  0.10202607002E+01  0.10199861081E+01 0.  0.
     999903    2    3    3    0    0 -0.11157675159E-01  0.12963254028E+00  0.13567640363E-01  0.13288262056E+00  0.23337111416E-01 0.  0.
         14    1    1    2    0    0 -0.33834066322E-02 -0.19518857304E-01  0.12953861215E-01  0.23669299763E-01  0.00000000000E+00 0.  1.
     999901    1    3    3    0    0  0.14541081791E-01 -0.11011368297E+00 -0.26521501578E-01  0.88737807967E+00  0.88000000000E+00 0. -1.
        -11    1    4    4    0    0 -0.53007398672E-02  0.50984159223E-01  0.16812281207E-01  0.53948088522E-01  0.51100000000E-03 0. -1.
         11    1    4    4    0    0 -0.58569352919E-02  0.78648381054E-01 -0.32446408436E-02  0.78934532042E-01  0.51100000000E-03 0.  1.
</event>
<event>
 8    1  0.1131376E+005  0.1043930E+01  0.7957747E-01            NaN
         13   -1    0    0    0    0  0.00000000000E+00  0.00000000000E+00  0.74505805969E-08  0.10566000000E+00  0.10566000000E+00 0.  1.
     999900   -1    0    0    0    0 -0.00000000000E+00 -0.00000000000E+00 -0.74505805969E-08  0.93827000000E+00  0.93827000000E+00 0. -1.
     999902    2    1    2    0    0  0.17521687774E-01  0.40292533643E-02 -0.16533469660E-01  0.10195046025E+01  0.10192119674E+01 0.  0.
     999903    2    3    3    0    0 -0.23551506267E-04  0.18735040005E-01 -0.12915777386E+00  0.13203160037E+00  0.19990264333E-01 0.  0.
         14    1    1    2    0    0 -0.17521687774E-01 -0.40292533643E-02  0.16533469660E-01  0.24425397522E-01  0.00000000000E+00 0.  1.
     999901    1    3    3    0    0  0.17545239281E-01 -0.14705786641E-01  0.11262430420E+00  0.88747300211E+00  0.88000000000E+00 0.  1.
        -11    1    4    4    0    0  0.33949485394E-02  0.82514065478E-02 -0.10601431021E+00  0.10639034955E+00  0.51100000000E-03 0. -1.
         11    1    4    4    0    0 -0.34185000457E-02  0.10483633458E-01 -0.23143463645E-01  0.25641250818E-01  0.51100000000E-03 0.  1.
</event>
<event>
 8    1  0.1131376E+005  0.1043930E+01  0.7957747E-01            NaN
         13   -1    0    0    0    0  0.00000000000E+00  0.00000000000E+00  0.74505805969E-08  0.10566000000E+00  0.10566000000E+00 0.  1.
     999900   -1    0    0    0    0 -0.00000000000E+00 -0.00000000000E+00 -0.74505805969E-08  0.93827000000E+00  0.93827000000E+00 0.  1.
     999902    2    1    2    0    0  0.83003066557E-02  0.22129122413E-02  0.22120504183E-01  0.10202000869E+01  0.10199240700E+01 0.  0.
     999903    2    3    3    0    0 -0.10880502804E+00  0.49727432155E-02 -0.64660870286E-01  0.12820665471E+00  0.19815546025E-01 0.  0.
         14    1    1    2    0    0 -0.83003066557E-02 -0.22129122413E-02 -0.22120504183E-01  0.23729913116E-01  0.00000000000E+00 0. -1.
     999901    1    3    3    0    0  0.11710533470E+00 -0.27598309742E-02  0.86781374469E-01  0.89199343217E+00  0.88000000000E+00 0. -1.
        -11    1    4    4    0    0 -0.26118336242E-01  0.78118213623E-02 -0.22476260795E-01  0.35336036300E-01  0.51100000000E-03 0. -1.
         11    1    4    4    0    0 -0.82686691800E-01 -0.28390781468E-02 -0.42184609491E-01  0.92870618413E-01  0.51100000000E-03 0.  1.
</event>
<event>
 8    1  0.1131376E+005  0.1043930E+01  0.7957747E-01            NaN
         13   -1    0    0    0    0  0.00000000000E+00  0.00000000000E+00  0.74505805969E-08  0.10566000000E+00  0.10566000000E+00 0.  1.
     999900   -1    0    0    0    0 -0.00000000000E+00 -0.00000000000E+00 -0.74505805969E-08  0.93827000000E+00  0.93827000000E+00 0. -1.
     999902    2    1    2    0    0 -0.15857643360E-01 -0.13992061884E-01  0.10366458405E-01  0.10203778003E+01  0.10201059501E+01 0.  0.
     999903    2    3    3    0    0 -0.11317469407E-01  0.10569615563E+00  0.72166941139E-01  0.13011650036E+00  0.20554168532E-01 0.  0.
         14    1    1    2    0    0  0.15857643360E-01  0.13992061884E-01 -0.10366458405E-01  0.23552199654E-01  0.00000000000E+00 0.  1.
     999901    1    3    3    0    0 -0.45401739526E-02 -0.11968821751E+00 -0.61800482734E-01  0.89026129999E+00  0.88000000000E+00 0. -1.
        -11    1    4    4    0    0 -0.11313088573E-02  0.38947841041E-02  0.89789132059E-02  0.98656579258E-02  0.51100000000E-03 0. -1.
         11    1    4    4    0    0 -0.10186160550E-01  0.10180137152E+00  0.63188027933E-01  0.12025084243E+00  0.51100000000E-03 0.  1.
</event>
<event>
 8    1  0.1131376E+005  0.1043930E+01  0.7957747E-01            NaN
         13   -1    0    0    0    0  0.00000000000E+00  0.00000000000E+00  0.74505805969E-08  0.10566000000E+00  0.10566000000E+00 0. -1.
     999900   -1    0    0    0    0 -0.00000000000E+00 -0.00000000000E+00 -0.74505805969E-08  0.93827000000E+00  0.93827000000E+00 0. -1.
     999902    2    1    2    0    0 -0.67148561891E-02  0.23732699054E-01 -0.19207446226E-03  0.10192648993E+01  0.10189664213E+01 0.  0.
     999903    2    3    3    0    0 -0.54763226974E-01  0.11758987040E+00  0.20246505892E-01  0.13273483774E+00  0.19550639408E-01 0.  0.
         14    1    1    2    0    0  0.67148561891E-02 -0.23732699054E-01  0.19207446226E-03  0.24665100661E-01  0.00000000000E+00 0. -1.
     999901    1    3    3    0    0  0.48048370785E-01 -0.93857171343E-01 -0.20438580354E-01  0.88653006160E+00  0.88000000000E+00 0.  1.
        -11    1    4    4    0    0 -0.36744394268E-01  0.86003939545E-01  0.61403693171E-02  0.93727228614E-01  0.51100000000E-03 0. -1.
         11    1    4    4    0    0 -0.18018832706E-01  0.31585930852E-01  0.14106136575E-01  0.39007609129E-01  0.51100000000E-03 0.  1.
</event>
<event>
 8    1  0.1131376E+005  0.1043930E+01  0.7957747E-01            NaN
         13   -1    0    0    0    0  0.00000000000E+00  0.00000000000E+00  0.74505805969E-08  0.10566000000E+00  0.10566000000E+00 0. -1.
     999900   -1    0    0    0    0 -0.00000000000E+00 -0.00000000000E+00 -0.74505805969E-08  0.93827000000E+00  0.93827000000E+00 0.  1.
     999902    2    1    2    0    0  0.17018286795E-01 -0.15297253160E-01  0.76157480601E-02  0.10198130421E+01  0.10195278384E+01 0.  0.
     999903    2    3    3    0    0  0.79750212624E-01  0.65649943601E-02  0.10326371759E+00  0.13214092558E+00  0.19865378830E-01 0.  0.
         14    1    1    2    0    0 -0.17018286795E-01  0.15297253160E-01 -0.76157480601E-02  0.24116957897E-01  0.00000000000E+00 0. -1.
     999901    1    3    3    0    0 -0.62731925829E-01 -0.21862247521E-01 -0.95647969534E-01  0.88767211653E+00  0.88000000000E+00 0. -1.
        -11    1    4    4    0    0  0.63495942855E-01  0.99816080683E-02  0.91333285330E-01  0.11168436502E+00  0.51100000000E-03 0. -1.
         11    1    4    4    0    0  0.16254269769E-01 -0.34166137082E-02  0.11930432265E-01  0.20456560560E-01  0.51100000000E-03 0.  1.
</event>
<event>
 8    1  0.1131376E+005  0.1043930E+01  0.7957747E-01            NaN
         13   -1    0    0    0    0  0.00000000000E+00  0.00000000000E+00  0.74505805969E-08  0.10566000000E+00  0.10566000000E+00 0.  1.
     999900   -1    0    0    0    0 -0.00000000000E+00 -0.00000000000E+00 -0.74505805969E-08  0.93827000000E+00  0.93827000000E+00 0.  1.
     999902    2    1    2    0    0 -0.40142361574E-02  0.23096317887E-01  0.22290707485E-02  0.10203816933E+01  0.10201099339E+01 0.  0.
     999903    2    3    3    0    0 -0.41120919500E-01 -0.42187279248E-01  0.11416318163E+00  0.13011875508E+00  0.20663054738E-01 0.  0.
         14    1    1    2    0    0  0.40142361574E-02 -0.23096317887E-01 -0.22290707485E-02  0.23548306696E-01  0.00000000000E+00 0. -1.
     999901    1    3    3    0    0  0.37106683343E-01  0.65283597134E-01 -0.11193411088E+00  0.89026293823E+00  0.88000000000E+00 0.  1.
        -11    1    4    4    0    0 -0.38429789020E-01 -0.33566032774E-01  0.80906886548E-01  0.95654130345E-01  0.51100000000E-03 0.  1.
         11    1    4    4    0    0 -0.26911304804E-02 -0.86212464736E-02  0.33256295085E-01  0.34464624730E-01  0.51100000000E-03 0. -1.
</event>
<event>
 8    1  0.1131376E+005  0.1043930E+01  0.7957747E-01            NaN
         13   -1    0    0    0    0  0.00000000000E+00  0.00000000000E+00  0.74505805969E-08  0.10566000000E+00  0.10566000000E+00 0. -1.
     999900   -1    0    0    0    0 -0.00000000000E+00 -0.00000000000E+00 -0.74505805969E-08  0.93827000000E+00  0.93827000000E+00 0.  1.
     999902    2    1    2    0    0 -0.23534982883E-01  0.43668461633E-02 -0.11004351549E-02  0.10199680359E+01  0.10196865296E+01 0.  0.
     999903    2    3    3    0    0 -0.10645125795E+00  0.33682587004E-01 -0.69640708821E-01  0.13293235996E+00  0.18836056143E-01 0.  0.
         14    1    1    2    0    0  0.23534982883E-01 -0.43668461633E-02  0.11004351549E-02  0.23961964073E-01  0.00000000000E+00 0.  1.
     999901    1    3    3    0    0  0.82916275070E-01 -0.29315740840E-01  0.68540273667E-01  0.88703567597E+00  0.88000000000E+00 0. -1.
        -11    1    4    4    0    0 -0.71464340336E-01  0.24193354949E-01 -0.36508452389E-01  0.83818843825E-01  0.51100000000E-03 0. -1.
         11    1    4    4    0    0 -0.34986917617E-01  0.94892320551E-02 -0.33132256433E-01  0.49113516130E-01  0.51100000000E-03 0.  1.
</event>
<event>
 8    1  0.1131376E+005  0.1043930E+01  0.7957747E-01            NaN
         13   -1    0    0    0    0  0.00000000000E+00  0.00000000000E+00  0.74505805969E-08  0.10566000000E+00  0.10566000000E+00 0. -1.
     999900   -1    0    0    0    0 -0.00000000000E+00 -0.00000000000E+00 -0.74505805969E-08  0.93827000000E+00  0.93827000000E+00 0. -1.
     999902    2    1    2    0    0  0.58637959028E-02  0.92369178187E-02  0.20946617298E-01  0.10202981247E+01  0.10200244104E+01 0.  0.
     999903    2    3    3    0    0  0.81711086492E-01 -0.68748688704E-01 -0.69750648802E-01  0.12897295375E+00  0.19125531038E-01 0.  0.
         14    1    1    2    0    0 -0.58637959028E-02 -0.92369178187E-02 -0.20946617298E-01  0.23631875283E-01  0.00000000000E+00 0.  1.
     999901    1    3    3    0    0 -0.75847290590E-01  0.77985606522E-01  0.90697266100E-01  0.89132517096E+00  0.88000000000E+00 0.  1.
        -11    1    4    4    0    0  0.20297969370E-01 -0.72208193579E-02 -0.13982519434E-01  0.25688903508E-01  0.51100000000E-03 0.  1.
         11    1    4    4    0    0  0.61413117122E-01 -0.61527869346E-01 -0.55768129368E-01  0.10328405025E+00  0.51100000000E-03 0. -1.
</event>
<event>
 8    1  0.1183614E+005  0.1043930E+01  0.7957747E-01            NaN
         13   -1    0    0    0    0  0.00000000000E+00  0.00000000000E+00  0.74505805969E-08  0.10566000000E+00  0.10566000000E+00 0. -1.
     999900   -1    0    0    0    0 -0.00000000000E+00 -0.00000000000E+00 -0.74505805969E-08  0.93827000000E+00  0.93827000000E+00 0. -1.
     999902    2    1    2    0    0 -0.64776183440E-02 -0.98773414777E-02  0.23282643820E-01  0.10178224739E+01  0.10174875849E+01 0.  0.
     999903    2    3    3    0    0  0.76833259984E-01  0.26097278494E-01  0.99279527844E-01  0.12989770116E+00  0.20798325227E-01 0.  0.
         14    1    1    2    0    0  0.64776183440E-02  0.98773414777E-02 -0.23282643820E-01  0.26107526067E-01  0.00000000000E+00 0.  1.
     999901    1    3    3    0    0 -0.83310878327E-01 -0.35974619972E-01 -0.75996884025E-01  0.88792477278E+00  0.88000000000E+00 0. -1.
        -11    1    4    4    0    0  0.57877422603E-01  0.98651394913E-02  0.72401306269E-01  0.93216561269E-01  0.51100000000E-03 0. -1.
         11    1    4    4    0    0  0.18955837380E-01  0.16232139003E-01  0.26878221575E-01  0.36681139887E-01  0.51100000000E-03 0.  1.
</event>
<event>
 8    1  0.1131376E+005  0.1043930E+01  0.7957747E-01            NaN
         13   -1    0    0    0    0  0.00000000000E+00  0.00000000000E+00  0.74505805969E-08  0.10566000000E+00  0.10566000000E+00 0.  1.
     999900   -1    0    0    0    0 -0.00000000000E+00 -0.00000000000E+00 -0.74505805969E-08  0.93827000000E+00  0.93827000000E+00 0.  1.
     999902    2    1    2    0    0  0.63624077280E-03 -0.20260793447E-01  0.14866932457E-01  0.10187917774E+01  0.10184815931E+01 0.  0.
     999903    2    3    3    0    0 -0.10717299253E+00 -0.38271794960E-01  0.60993613071E-01  0.13083068727E+00  0.21110833220E-01 0.  0.
         14    1    1    2    0    0 -0.63624077280E-03  0.20260793447E-01 -0.14866932457E-01  0.25138222572E-01  0.00000000000E+00 0. -1.
     999901    1    3    3    0    0  0.10780923331E+00  0.18011001513E-01 -0.46126680615E-01  0.88796109015E+00  0.88000000000E+00 0. -1.
        -11    1    4    4    0    0 -0.10638602945E+00 -0.37158916789E-01  0.56407701933E-01  0.12601929343E+00  0.51100000000E-03 0. -1.
         11    1    4    4    0    0 -0.78696308201E-03 -0.11128781713E-02  0.45859111387E-02  0.48113938405E-02  0.51100000000E-03 0.  1.
</event>
<event>
 8    1  0.1131376E+005  0.1043930E+01  0.7957747E-01            NaN
         13   -1    0    0    0    0  0.00000000000E+00  0.00000000000E+00  0.74505805969E-08  0.10566000000E+00  0.10566000000E+00 0.  1.
     999900   -1    0    0    0    0 -0.00000000000E+00 -0.00000000000E+00 -0.74505805969E-08  0.93827000000E+00  0.93827000000E+00 0.  1.
     999902    2    1    2    0    0 -0.16770283971E-01  0.34468171500E-02 -0.16382103418E-01  0.10202340872E+01  0.10199588699E+01 0.  0.
     999903    2    3    3    0    0 -0.12100831229E-01  0.11167294531E+00  0.62130276466E-01  0.13012235687E+00  0.21316183343E-01 0.  0.
         14    1    1    2    0    0  0.16770283971E-01 -0.34468171500E-02  0.16382103418E-01  0.23695912840E-01  0.00000000000E+00 0.  1.
     999901    1    3    3    0    0 -0.46694527423E-02 -0.10822612816E+00 -0.78512379884E-01  0.89011173029E+00  0.88000000000E+00 0.  1.
        -11    1    4    4    0    0 -0.12473768709E-01  0.28386715613E-01  0.15494795007E-01  0.34666270673E-01  0.51100000000E-03 0. -1.
         11    1    4    4    0    0  0.37293748041E-03  0.83286229700E-01  0.46635481459E-01  0.95456086196E-01  0.51100000000E-03 0.  1.
</event>
<event>
 8    1  0.1131376E+005  0.1043930E+01  0.7957747E-01            NaN
         13   -1    0    0    0    0  0.00000000000E+00  0.00000000000E+00  0.74505805969E-08  0.10566000000E+00  0.10566000000E+00 0. -1.
     999900   -1    0    0    0    0 -0.00000000000E+00 -0.00000000000E+00 -0.74505805969E-08  0.93827000000E+00  0.93827000000E+00 0. -1.
     999902    2    1    2    0    0 -0.93317443482E-02  0.98427234324E-02  0.19362095723E-01  0.10202899618E+01  0.10200160561E+01 0.  0.
     999903    2    3    3    0    0 -0.11644394808E+00  0.44833138929E-01  0.43078418360E-01  0.13278795200E+00  0.14411338549E-01 0.  0.
         14    1    1    2    0    0  0.93317443482E-02 -0.98427234324E-02 -0.19362095723E-01  0.23640038239E-01  0.00000000000E+00 0.  1.
     999901    1    3    3    0    0  0.10711220373E+00 -0.34990415496E-01 -0.23716322638E-01  0.88750200976E+00  0.88000000000E+00 0. -1.
        -11    1    4    4    0    0 -0.34364613316E-01  0.14273685302E-01  0.60763477606E-02  0.37707397995E-01  0.51100000000E-03 0. -1.
         11    1    4    4    0    0 -0.82079334762E-01  0.30559453627E-01  0.37002070600E-01  0.95080554009E-01  0.51100000000E-03 0.  1.
</event>
<event>
 8    1  0.1131376E+005  0.1043930E+01  0.7957747E-01            NaN
         13   -1    0    0    0    0  0.00000000000E+00  0.00000000000E+00  0.74505805969E-08  0.10566000000E+00  0.10566000000E+00 0. -1.
     999900   -1    0    0    0    0 -0.00000000000E+00 -0.00000000000E+00 -0.74505805969E-08  0.93827000000E+00  0.93827000000E+00 0. -1.
     999902    2    1    2    0    0 -0.59444315768E-02  0.37321794206E-02  0.23817810220E-01  0.10190995044E+01  0.10187969603E+01 0.  0.
     999903    2    3    3    0    0  0.32186135175E-01 -0.23296430612E-01 -0.11832302576E+00  0.12646940004E+00  0.20383810891E-01 0.  0.
         14    1    1    2    0    0  0.59444315768E-02 -0.37321794206E-02 -0.23817810220E-01  0.24830495639E-01  0.00000000000E+00 0.  1.
     999901    1    3    3    0    0 -0.38130566751E-01  0.27028610032E-01  0.14214083598E+00  0.89263010432E+00  0.88000000000E+00 0.  1.
        -11    1    4    4    0    0  0.78455463197E-02 -0.18041583008E-01 -0.48751419567E-01  0.52573884632E-01  0.51100000000E-03 0.  1.
         11    1    4    4    0    0  0.24340588855E-01 -0.52548476038E-02 -0.69571606190E-01  0.73895515412E-01  0.51100000000E-03 0. -1.
</event>
<event>
 8    1  0.1131376E+005  0.1043930E+01  0.7957747E-01            NaN
         13   -1    0    0    0    0  0.00000000000E+00  0.00000000000E+00  0.74505805969E-08  0.10566000000E+00  0.10566000000E+00 0.  1.
     999900   -1    0    0    0    0 -0.00000000000E+00 -0.00000000000E+00 -0.74505805969E-08  0.93827000000E+00  0.93827000000E+00 0.  1.
     999902    2    1    2    0    0 -0.20692331811E-01  0.33746950438E-02 -0.89647482866E-02  0.10211280730E+01  0.10208734562E+01 0.  0.
     999903    2    3    3    0    0 -0.46144136087E-01  0.10777533936E+00  0.58041964875E-01  0.13206272756E+00  0.18080078954E-01 0.  0.
         14    1    1    2    0    0  0.20692331811E-01 -0.33746950438E-02  0.89647482866E-02  0.22801926985E-01  0.00000000000E+00 0.  1.
     999901    1    3    3    0    0  0.25451804276E-01 -0.10440064432E+00 -0.67006713162E-01  0.88906534545E+00  0.88000000000E+00 0.  1.
        -11    1    4    4    0    0 -0.11000042876E-01  0.40444641935E-01  0.13623542305E-01  0.44075299550E-01  0.51100000000E-03 0. -1.
         11    1    4    4    0    0 -0.35144093211E-01  0.67330697426E-01  0.44418422570E-01  0.87987428012E-01  0.51100000000E-03 0.  1.
</event>
<event>
 8    1  0.1131376E+005  0.1043930E+01  0.7957747E-01            NaN
         13   -1    0    0    0    0  0.00000000000E+00  0.00000000000E+00  0.74505805969E-08  0.10566000000E+00  0.10566000000E+00 0. -1.
     999900   -1    0    0    0    0 -0.00000000000E+00 -0.00000000000E+00 -0.74505805969E-08  0.93827000000E+00  0.93827000000E+00 0.  1.
     999902    2    1    2    0    0  0.40083792802E-02  0.22027692638E-01 -0.81210228630E-02  0.10201132546E+01  0.10198351901E+01 0.  0.
     999903    2    3    3    0    0 -0.51140316725E-01  0.35728743493E-01 -0.11509764733E+00  0.13181539038E+00  0.15360781629E-01 0.  0.
         14    1    1    2    0    0 -0.40083792802E-02 -0.22027692638E-01  0.81210228630E-02  0.23816745365E-01  0.00000000000E+00 0.  1.
     999901    1    3    3    0    0  0.55148696005E-01 -0.13701050854E-01  0.10697662447E+00  0.88829786426E+00  0.88000000000E+00 0. -1.
        -11    1    4    4    0    0 -0.11813098805E-01  0.98626531450E-02 -0.43352294057E-01  0.46005475233E-01  0.51100000000E-03 0. -1.
         11    1    4    4    0    0 -0.39327217920E-01  0.25866090348E-01 -0.71745353275E-01  0.85809915143E-01  0.51100000000E-03 0.  1.
</event>
<event>
 8    1  0.1146440E+005  0.1043930E+01  0.7957747E-01            NaN
         13   -1    0    0    0    0  0.00000000000E+00  0.00000000000E+00  0.74505805969E-08  0.10566000000E+00  0.10566000000E+00 0.  1.
     999900   -1    0    0    0    0 -0.00000000000E+00 -0.00000000000E+00 -0.74505805969E-08  0.93827000000E+00  0.93827000000E+00 0.  1.
     999902    2    1    2    0    0  0.16158585228E-01  0.66922856008E-02  0.15870794204E-01  0.10203128733E+01  0.10200395045E+01 0.  0.
     999903    2    3    3    0    0  0.87594806760E-03  0.64547108084E-01 -0.11036476860E+00  0.12929314471E+00  0.19215584138E-01 0.  0.
         14    1    1    2    0    0 -0.16158585228E-01 -0.66922856008E-02 -0.15870794204E-01  0.23617126662E-01  0.00000000000E+00 0. -1.
     999901    1    3    3    0    0  0.15282637160E-01 -0.57854822483E-01  0.12623556281E+00  0.89101972863E+00  0.88000000000E+00 0. -1.
        -11    1    4    4    0    0  0.85210356116E-02  0.26510092766E-01 -0.55480751355E-01  0.62078723878E-01  0.51100000000E-03 0. -1.
         11    1    4    4    0    0 -0.76450875440E-02  0.38037015317E-01 -0.54884017247E-01  0.67214420834E-01  0.51100000000E-03 0.  1.
</event>
<event>
 8    1  0.1131376E+005  0.1043930E+01  0.7957747E-01            NaN
         13   -1    0    0    0    0  0.00000000000E+00  0.00000000000E+00  0.74505805969E-08  0.10566000000E+00  0.10566000000E+00 0.  1.
     999900   -1    0    0    0    0 -0.00000000000E+00 -0.00000000000E+00 -0.74505805969E-08  0.93827000000E+00  0.93827000000E+00 0. -1.
     999902    2    1    2    0    0  0.19144793462E-03  0.17838928665E-01  0.13198512377E-01  0.10217384530E+01  0.10214974310E+01 0.  0.
     999903    2    3    3    0    0 -0.29931915357E-01  0.99919193457E-01 -0.79695573797E-01  0.13253999479E+00  0.18322143906E-01 0.  0.
         14    1    1    2    0    0 -0.19144793462E-03 -0.17838928665E-01 -0.13198512377E-01  0.22191546976E-01  0.00000000000E+00 0. -1.
     999901    1    3    3    0    0  0.30123363292E-01 -0.82080264792E-01  0.92894086174E-01  0.88919845824E+00  0.88000000000E+00 0.  1.
        -11    1    4    4    0    0 -0.20054550611E-01  0.59870844697E-01 -0.37060308591E-01  0.73214961850E-01  0.51100000000E-03 0. -1.
         11    1    4    4    0    0 -0.98773647467E-02  0.40048348760E-01 -0.42635265206E-01  0.59325032937E-01  0.51100000000E-03 0.  1.
</event>
<event>
 8    1  0.1176293E+005  0.1043930E+01  0.7957747E-01            NaN
         13   -1    0    0    0    0  0.00000000000E+00  0.00000000000E+00  0.74505805969E-08  0.10566000000E+00  0.10566000000E+00 0.  1.
     999900   -1    0    0    0    0 -0.00000000000E+00 -0.00000000000E+00 -0.74505805969E-08  0.93827000000E+00  0.93827000000E+00 0.  1.
     999902    2    1    2    0    0  0.15414172373E-01  0.29212473819E-02  0.17481931447E-01  0.10204406764E+01  0.10201702925E+01 0.  0.
     999903    2    3    3    0    0  0.57195085413E-01  0.37074981152E-02 -0.11426341345E+00  0.12965276742E+00  0.21649228775E-01 0.  0.
         14    1    1    2    0    0 -0.15414172373E-01 -0.29212473819E-02 -0.17481931447E-01  0.23489323603E-01  0.00000000000E+00 0. -1.
     999901    1    3    3    0    0 -0.41780913039E-01 -0.78625073336E-03  0.13174534490E+00  0.89078790898E+00  0.88000000000E+00 0. -1.
        -11    1    4    4    0    0  0.28950507280E-01  0.10180781736E-01 -0.44003089586E-01  0.53649913351E-01  0.51100000000E-03 0.  1.
         11    1    4    4    0    0  0.28244578133E-01 -0.64732836209E-02 -0.70260323869E-01  0.76002854064E-01  0.51100000000E-03 0. -1.
</event>
<event>
 8    1  0.1131376E+005  0.1043930E+01  0.7957747E-01            NaN
         13   -1    0    0    0    0  0.00000000000E+00  0.00000000000E+00  0.74505805969E-08  0.10566000000E+00  0.10566000000E+00 0. -1.
     999900   -1    0    0    0    0 -0.00000000000E+00 -0.00000000000E+00 -0.74505805969E-08  0.93827000000E+00  0.93827000000E+00 0.  1.
     999902    2    1    2    0    0 -0.14082619595E-01 -0.17428156145E-01  0.75517915036E-02  0.10202849084E+01  0.10200108842E+01 0.  0.
     999903    2    3    3    0    0  0.11004932375E+00 -0.50664556088E-02 -0.63259070506E-01  0.12867079391E+00  0.20443594926E-01 0.  0.
         14    1    1    2    0    0  0.14082619595E-01  0.17428156145E-01 -0.75517915036E-02  0.23645091587E-01  0.00000000000E+00 0.  1.
     999901    1    3    3    0    0 -0.12413194335E+00 -0.12361700536E-01  0.70810862009E-01  0.89161411450E+00  0.88000000000E+00 0. -1.
        -11    1    4    4    0    0  0.55737344711E-01 -0.53361122823E-02 -0.43379739392E-01  0.70832115601E-01  0.51100000000E-03 0. -1.
         11    1    4    4    0    0  0.54311979042E-01  0.26965667350E-03 -0.19879331114E-01  0.57838678311E-01  0.51100000000E-03 0.  1.
</event>
<event>
 8    1  0.1131376E+005  0.1043930E+01  0.7957747E-01            NaN
         13   -1    0    0    0    0  0.00000000000E+00  0.00000000000E+00  0.74505805969E-08  0.10566000000E+00  0.10566000000E+00 0. -1.
     999900   -1    0    0    0    0 -0.00000000000E+00 -0.00000000000E+00 -0.74505805969E-08  0.93827000000E+00  0.93827000000E+00 0. -1.
     999902    2    1    2    0    0  0.75186051397E-02 -0.16288853178E-01 -0.13243274182E-01  0.10216311105E+01  0.10213877254E+01 0.  0.
     999903    2    3    3    0    0  0.10626763345E+00  0.54119168931E-01  0.50428919531E-01  0.13103422729E+00  0.20129541218E-01 0.  0.
         14    1    1    2    0    0 -0.75186051397E-02  0.16288853178E-01  0.13243274182E-01  0.22298889483E-01  0.00000000000E+00 0.  1.
     999901    1    3    3    0    0 -0.98749028314E-01 -0.70408022108E-01 -0.63672193714E-01  0.89059688323E+00  0.88000000000E+00 0. -1.
        -11    1    4    4    0    0  0.48619474697E-01  0.14193543174E-01  0.24530597762E-01  0.56278959969E-01  0.51100000000E-03 0.  1.
         11    1    4    4    0    0  0.57648158756E-01  0.39925625757E-01  0.25898321769E-01  0.74755267316E-01  0.51100000000E-03 0. -1.
</event>
<event>
 8    1  0.1131376E+005  0.1043930E+01  0.7957747E-01            NaN
         13   -1    0    0    0    0  0.00000000000E+00  0.00000000000E+00  0.74505805969E-08  0.10566000000E+00  0.10566000000E+00 0.  1.
     999900   -1    0    0    0    0 -0.00000000000E+00 -0.00000000000E+00 -0.74505805969E-08  0.93827000000E+00  0.93827000000E+00 0.  1.
     999902    2    1    2    0    0  0.19387287434E-02 -0.19807121122E-01 -0.13083550002E-01  0.10201127794E+01  0.10198347036E+01 0.  0.
     999903    2    3    3    0    0  0.23075918318E-01 -0.10829573112E+00 -0.71922242400E-01  0.13346797645E+00  0.19504573862E-01 0.  0.
         14    1    1    2    0    0 -0.19387287434E-02  0.19807121122E-01  0.13083550002E-01  0.23817220597E-01  0.00000000000E+00 0.  1.
     999901    1    3    3    0    0 -0.21137189575E-01  0.88488609994E-01  0.58838692398E-01  0.88664480295E+00  0.88000000000E+00 0.  1.
        -11    1    4    4    0    0  0.55477969934E-02 -0.70766672049E-01 -0.46697985174E-01  0.84968599287E-01  0.51100000000E-03 0.  1.
         11    1    4    4    0    0  0.17528121325E-01 -0.37529059067E-01 -0.25224257226E-01  0.48499377163E-01  0.51100000000E-03 0. -1.
</event>
<event>
 8    1  0.1131376E+005  0.1043930E+01  0.7957747E-01            NaN
         13   -1    0    0    0    0  0.00000000000E+00  0.00000000000E+00  0.74505805969E-08  0.10566000000E+00  0.10566000000E+00 0.  1.
     999900   -1    0    0    0    0 -0.00000000000E+00 -0.00000000000E+00 -0.74505805969E-08  0.93827000000E+00  0.93827000000E+00 0. -1.
     999902    2    1    2    0    0 -0.50006833518E-02  0.11504846354E-01 -0.19894737702E-01  0.10204104568E+01  0.10201393686E+01 0.  0.
     999903    2    3    3    0    0  0.69943644471E-01  0.47205735167E-01 -0.10024964988E+00  0.13285870190E+00  0.21930516065E-01 0.  0.
         14    1    1    2    0    0  0.50006833518E-02 -0.11504846354E-01  0.19894737702E-01  0.23519543189E-01  0.00000000000E+00 0.  1.
     999901    1    3    3    0    0 -0.74944327823E-01 -0.35700888813E-01  0.80354912178E-01  0.88755175491E+00  0.88000000000E+00 0. -1.
        -11    1    4    4    0    0  0.21418023061E-01  0.22295968391E-01 -0.24180106428E-01  0.39252778070E-01  0.51100000000E-03 0. -1.
         11    1    4    4    0    0  0.48525621410E-01  0.24909766776E-01 -0.76069543452E-01  0.93605923830E-01  0.51100000000E-03 0.  1.
</event>
<event>
 8    1  0.1131376E+005  0.1043930E+01  0.7957747E-01            NaN
         13   -1    0    0    0    0  0.00000000000E+00  0.00000000000E+00  0.74505805969E-08  0.10566000000E+00  0.10566000000E+00 0.  1.
     999900   -1    0    0    0    0 -0.00000000000E+00 -0.00000000000E+00 -0.74505805969E-08  0.93827000000E+00  0.93827000000E+00 0.  1.
     999902    2    1    2    0    0  0.82917700361E-02  0.11414424222E-01 -0.18773622452E-01  0.10204461453E+01  0.10201758888E+01 0.  0.
     999903    2    3    3    0    0  0.59355010826E-01  0.35861742262E-01 -0.11241294720E+00  0.13366914457E+00  0.20535034550E-01 0.  0.
         14    1    1    2    0    0 -0.82917700361E-02 -0.11414424222E-01  0.18773622452E-01  0.23483854680E-01  0.00000000000E+00 0.  1.
     999901    1    3    3    0    0 -0.51063240790E-01 -0.24447318040E-01  0.93639324747E-01  0.88677700075E+00  0.88000000000E+00 0. -1.
        -11    1    4    4    0    0  0.25526096851E-01  0.67149077988E-02 -0.54324340401E-01  0.60399227546E-01  0.51100000000E-03 0.  1.
         11    1    4    4    0    0  0.33828913975E-01  0.29146834463E-01 -0.58088606798E-01  0.73269917024E-01  0.51100000000E-03 0. -1.
</event>
<event>
 7    1  0.1131376E+005  0.1043930E+01  0.7957747E-01            NaN
         13   -1    0    0    0    0  0.00000000000E+00  0.00000000000E+00  0.74505805969E-08  0.10566000000E+00  0.10566000000E+00 0. -1.
     999900   -1    0    0    0    0 -0.00000000000E+00 -0.00000000000E+00 -0.74505805969E-08  0.93827000000E+00  0.93827000000E+00 0. -1.
     999903    2    1    2    0    0 -0.10989771079E+00 -0.17120789855E-01 -0.23668963436E-01  0.11556814715E+00  0.20619130027E-01 0.  0.
         14    1    1    2    0    0  0.96576179708E-02 -0.30691682574E-01 -0.23940317002E-01  0.40104709727E-01  0.00000000000E+00 0.  1.
     999901    1    1    2    0    0  0.10024009282E+00  0.47812472429E-01  0.47609280438E-01  0.88825714312E+00  0.88000000000E+00 0.  1.
        -11    1    3    3    0    0 -0.10387510488E+00 -0.10928691227E-01 -0.21343237968E-01  0.10660801393E+00  0.51100000000E-03 0.  1.
         11    1    3    3    0    0 -0.60226059089E-02 -0.61920986281E-02 -0.23257254686E-02  0.89601332194E-02  0.51100000000E-03 0. -1.
</event>
<event>
 8    1  0.1131376E+005  0.1043930E+01  0.7957747E-01            NaN
         13   -1    0    0    0    0  0.00000000000E+00  0.00000000000E+00  0.74505805969E-08  0.10566000000E+00  0.10566000000E+00 0.  1.
     999900   -1    0    0    0    0 -0.00000000000E+00 -0.00000000000E+00 -0.74505805969E-08  0.93827000000E+00  0.93827000000E+00 0.  1.
     999902    2    1    2    0    0 -0.13756964840E-01  0.16171139234E-01 -0.11499716204E-01  0.10197845388E+01  0.10194986524E+01 0.  0.
     999903    2    3    3    0    0 -0.59898855117E-02  0.13023749054E+00  0.75198232471E-02  0.13218485258E+00  0.20459834802E-01 0.  0.
         14    1    1    2    0    0  0.13756964840E-01 -0.16171139234E-01  0.11499716204E-01  0.24145461240E-01  0.00000000000E+00 0. -1.
     999901    1    3    3    0    0 -0.77670793286E-02 -0.11406635130E+00 -0.19019539451E-01  0.88759968618E+00  0.88000000000E+00 0.  1.
        -11    1    4    4    0    0  0.43673530187E-02  0.52787573343E-01 -0.43444377149E-02  0.53148254269E-01  0.51100000000E-03 0.  1.
         11    1    4    4    0    0 -0.10357238530E-01  0.77449917197E-01  0.11864260962E-01  0.79036598313E-01  0.51100000000E-03 0. -1.
</event>
<event>
 8    1  0.1131376E+005  0.1043930E+01  0.7957747E-01            NaN
         13   -1    0    0    0    0  0.00000000000E+00  0.00000000000E+00  0.74505805969E-08  0.10566000000E+00  0.10566000000E+00 0. -1.
     999900   -1    0    0    0    0 -0.00000000000E+00 -0.00000000000E+00 -0.74505805969E-08  0.93827000000E+00  0.93827000000E+00 0. -1.
     999902    2    1    2    0    0 -0.21929324312E-01  0.65908743711E-02  0.10870699849E-02  0.10210058509E+01  0.10207484661E+01 0.  0.
     999903    2    3    3    0    0 -0.46771674984E-01  0.11551184388E+00 -0.41370589909E-01  0.13292726607E+00  0.20677444178E-01 0.  0.
         14    1    1    2    0    0  0.21929324312E-01 -0.65908743711E-02 -0.10870699849E-02  0.22924149077E-01  0.00000000000E+00 0.  1.
     999901    1    3    3    0    0  0.24842350672E-01 -0.10892096951E+00  0.42457659894E-01  0.88807858485E+00  0.88000000000E+00 0.  1.
        -11    1    4    4    0    0 -0.80855041569E-02  0.37300997214E-01 -0.54170629982E-02  0.38553151144E-01  0.51100000000E-03 0. -1.
         11    1    4    4    0    0 -0.38686170827E-01  0.78210846670E-01 -0.35953526911E-01  0.94374114928E-01  0.51100000000E-03 0.  1.
</event>
<event>
 8    1  0.1131376E+005  0.1043930E+01  0.7957747E-01            NaN
         13   -1    0    0    0    0  0.00000000000E+00  0.00000000000E+00  0.74505805969E-08  0.10566000000E+00  0.10566000000E+00 0.  1.
     999900   -1    0    0    0    0 -0.00000000000E+00 -0.00000000000E+00 -0.74505805969E-08  0.93827000000E+00  0.93827000000E+00 0. -1.
     999902    2    1    2    0    0 -0.21613795772E-01 -0.60369433653E-02  0.36213614619E-02  0.10211986315E+01  0.10209456058E+01 0.  0.
     999903    2    3    3    0    0 -0.68370478474E-01 -0.60600802894E-01 -0.94327736734E-01  0.13285330006E+00  0.20132008856E-01 0.  0.
         14    1    1    2    0    0  0.21613795772E-01  0.60369433653E-02 -0.36213614619E-02  0.22731368452E-01  0.00000000000E+00 0. -1.
     999901    1    3    3    0    0  0.46756682702E-01  0.54563859529E-01  0.97949098196E-01  0.88834533149E+00  0.88000000000E+00 0. -1.
        -11    1    4    4    0    0 -0.13022768465E-01 -0.23491273193E-01 -0.29094533320E-01  0.39600320767E-01  0.51100000000E-03 0.  1.
         11    1    4    4    0    0 -0.55347710009E-01 -0.37109529701E-01 -0.65233203414E-01  0.93252979290E-01  0.51100000000E-03 0. -1.
</event>
<event>
 8    1  0.1131376E+005  0.1043930E+01  0.7957747E-01            NaN
         13   -1    0    0    0    0  0.00000000000E+00  0.00000000000E+00  0.74505805969E-08  0.10566000000E+00  0.10566000000E+00 0. -1.
     999900   -1    0    0    0    0 -0.00000000000E+00 -0.00000000000E+00 -0.74505805969E-08  0.93827000000E+00  0.93827000000E+00 0.  1.
     999902    2    1    2    0    0 -0.17101256428E-01  0.39960841580E-02 -0.14931126515E-01  0.10208787484E+01  0.10206184688E+01 0.  0.
     999903    2    3    3    0    0  0.12649710537E+00 -0.92400766032E-02  0.97882690774E-02  0.12879874418E+00  0.20159603342E-01 0.  0.
         14    1    1    2    0    0  0.17101256428E-01 -0.39960841580E-02  0.14931126515E-01  0.23051251572E-01  0.00000000000E+00 0. -1.
     999901    1    3    3    0    0 -0.14359836180E+00  0.13236160761E-01 -0.24719395592E-01  0.89208000425E+00  0.88000000000E+00 0. -1.
        -11    1    4    4    0    0  0.11098301309E+00 -0.10483540859E-01  0.22573429212E-02  0.11150107866E+00  0.51100000000E-03 0.  1.
         11    1    4    4    0    0  0.15514092282E-01  0.12434642553E-02  0.75309261562E-02  0.17297665520E-01  0.51100000000E-03 0. -1.
</event>
<event>
 8    1  0.1131376E+005  0.1043930E+01  0.7957747E-01            NaN
         13   -1    0    0    0    0  0.00000000000E+00  0.00000000000E+00  0.74505805969E-08  0.10566000000E+00  0.10566000000E+00 0.  1.
     999900   -1    0    0    0    0 -0.00000000000E+00 -0.00000000000E+00 -0.74505805969E-08  0.93827000000E+00  0.93827000000E+00 0.  1.
     999902    2    1    2    0    0 -0.75121472800E-04 -0.13773627099E-01 -0.19438366792E-01  0.10201063028E+01  0.10198280739E+01 0.  0.
     999903    2    3    3    0    0  0.11342599542E+00 -0.11821039016E-01  0.58505335827E-01  0.12939785612E+00  0.17769002451E-01 0.  0.
         14    1    1    2    0    0  0.75121472800E-04  0.13773627099E-01  0.19438366792E-01  0.23823697241E-01  0.00000000000E+00 0.  1.
     999901    1    3    3    0    0 -0.11350111689E+00 -0.19525880825E-02 -0.77943702619E-01  0.89070844664E+00  0.88000000000E+00 0.  1.
        -11    1    4    4    0    0  0.42388376378E-01 -0.13062980086E-01  0.21769486562E-01  0.49412423203E-01  0.51100000000E-03 0. -1.
         11    1    4    4    0    0  0.71037619041E-01  0.12419410697E-02  0.36735849265E-01  0.79985432917E-01  0.51100000000E-03 0.  1.
</event>
<event>
 8    1  0.1131376E+005  0.1043930E+01  0.7957747E-01            NaN
         13   -1    0    0    0    0  0.00000000000E+00  0.00000000000E+00  0.74505805969E-08  0.10566000000E+00  0.10566000000E+00 0.  1.
     999900   -1    0    0    0    0 -0.00000000000E+00 -0.00000000000E+00 -0.74505805969E-08  0.93827000000E+00  0.93827000000E+00 0. -1.
     999902    2    1    2    0    0  0.24644215129E-01 -0.10250648123E-01 -0.32320632675E-02  0.10170439561E+01  0.10166885212E+01 0.  0.
     999903    2    3    3    0    0  0.63295318886E-01 -0.11229299292E+00 -0.10930107523E-02  0.13030209762E+00  0.19011268244E-01 0.  0.
         14    1    1    2    0    0 -0.24644215129E-01  0.10250648123E-01  0.32320632675E-02  0.26886043949E-01  0.00000000000E+00 0.  1.
     999901    1    3    3    0    0 -0.38651103757E-01  0.10204234479E+00 -0.21390525152E-02  0.88674185843E+00  0.88000000000E+00 0. -1.
        -11    1    4    4    0    0  0.51576762031E-01 -0.75761204875E-01 -0.46393106556E-02  0.91769858178E-01  0.51100000000E-03 0. -1.
         11    1    4    4    0    0  0.11718556855E-01 -0.36531788040E-01  0.35462999033E-02  0.38532239439E-01  0.51100000000E-03 0.  1.
</event>
<event>
 7    1  0.1131376E+005  0.1043930E+01  0.7957747E-01            NaN
         13   -1    0    0    0    0  0.00000000000E+00  0.00000000000E+00  0.74505805969E-08  0.10566000000E+00  0.10566000000E+00 0. -1.
     999900   -1    0    0    0    0 -0.00000000000E+00 -0.00000000000E+00 -0.74505805969E-08  0.93827000000E+00  0.93827000000E+00 0.  1.
     999903    2    1    2    0    0 -0.70559569317E-01  0.26267474775E-01 -0.23703519200E-01  0.80959540575E-01  0.17998814807E-01 0.  0.
         14    1    1    2    0    0 -0.61195448821E-01  0.66285802241E-02 -0.34664240700E-01  0.70642979945E-01  0.00000000000E+00 0.  1.
     999901    1    1    2    0    0  0.13175501814E+00 -0.32896054999E-01  0.58367759900E-01  0.89232747948E+00  0.88000000000E+00 0.  1.
        -11    1    3    3    0    0 -0.49338334511E-01  0.26853807602E-01 -0.17392229588E-01  0.58806028654E-01  0.51100000000E-03 0.  1.
         11    1    3    3    0    0 -0.21221234805E-01 -0.58633282700E-03 -0.63112896122E-02  0.22153511921E-01  0.51100000000E-03 0. -1.
</event>
<event>
 8    1  0.1131376E+005  0.1043930E+01  0.7957747E-01            NaN
         13   -1    0    0    0    0  0.00000000000E+00  0.00000000000E+00  0.74505805969E-08  0.10566000000E+00  0.10566000000E+00 0. -1.
     999900   -1    0    0    0    0 -0.00000000000E+00 -0.00000000000E+00 -0.74505805969E-08  0.93827000000E+00  0.93827000000E+00 0. -1.
     999902    2    1    2    0    0  0.12149351498E-01 -0.18870916612E-01  0.15810607243E-01  0.10164765205E+01  0.10161057146E+01 0.  0.
     999903    2    3    3    0    0 -0.10176877418E+00 -0.59723032115E-01 -0.40551978549E-01  0.12640743566E+00  0.20264571603E-01 0.  0.
         14    1    1    2    0    0 -0.12149351498E-01  0.18870916612E-01 -0.15810607243E-01  0.27453479506E-01  0.00000000000E+00 0.  1.
     999901    1    3    3    0    0  0.11391812568E+00  0.40852115503E-01  0.56362585791E-01  0.89006908483E+00  0.88000000000E+00 0.  1.
        -11    1    4    4    0    0 -0.57304096519E-01 -0.37676541709E-01 -0.33328380038E-01  0.76251710210E-01  0.51100000000E-03 0.  1.
         11    1    4    4    0    0 -0.44464677664E-01 -0.22046490406E-01 -0.72235985111E-02  0.50155725450E-01  0.51100000000E-03 0. -1.
</event>
<event>
 8    1  0.1131376E+005  0.1043930E+01  0.7957747E-01            NaN
         13   -1    0    0    0    0  0.00000000000E+00  0.00000000000E+00  0.74505805969E-08  0.10566000000E+00  0.10566000000E+00 0. -1.
     999900   -1    0    0    0    0 -0.00000000000E+00 -0.00000000000E+00 -0.74505805969E-08  0.93827000000E+00  0.93827000000E+00 0.  1.
     999902    2    1    2    0    0  0.30219327386E-02  0.39263587772E-02  0.20502939905E-01  0.10228368989E+01  0.10226193831E+01 0.  0.
     999903    2    3    3    0    0  0.95692258133E-01 -0.82310623466E-01  0.39139285371E-01  0.13358332441E+00  0.19508303322E-01 0.  0.
         14    1    1    2    0    0 -0.30219327386E-02 -0.39263587772E-02 -0.20502939905E-01  0.21093101134E-01  0.00000000000E+00 0.  1.
     999901    1    3    3    0    0 -0.92670325394E-01  0.86236982243E-01 -0.18636345466E-01  0.88925357446E+00  0.88000000000E+00 0.  1.
        -11    1    4    4    0    0  0.14778590726E-01 -0.23172989809E-01  0.77663855562E-02  0.28565224770E-01  0.51100000000E-03 0. -1.
         11    1    4    4    0    0  0.80913667407E-01 -0.59137633657E-01  0.31372899814E-01  0.10501809964E+00  0.51100000000E-03 0.  1.
</event>
<event>
 8    1  0.1131376E+005  0.1043930E+01  0.7957747E-01            NaN
         13   -1    0    0    0    0  0.00000000000E+00  0.00000000000E+00  0.74505805969E-08  0.10566000000E+00  0.10566000000E+00 0.  1.
     999900   -1    0    0    0    0 -0.00000000000E+00 -0.00000000000E+00 -0.74505805969E-08  0.93827000000E+00  0.93827000000E+00 0. -1.
     999902    2    1    2    0    0  0.26009497167E-03 -0.17659792699E-01 -0.22481575075E-01  0.10153405414E+01  0.10149379576E+01 0.  0.
     999903    2    3    3    0    0  0.27474365229E-01 -0.83225357571E-01  0.87421984100E-01  0.12566742604E+00  0.21642499298E-01 0.  0.
         14    1    1    2    0    0 -0.26009497167E-03  0.17659792699E-01  0.22481575075E-01  0.28589458642E-01  0.00000000000E+00 0.  1.
     999901    1    3    3    0    0 -0.27214270257E-01  0.65565564872E-01 -0.10990355917E+00  0.88967311532E+00  0.88000000000E+00 0. -1.
        -11    1    4    4    0    0 -0.64811155919E-03 -0.10948889681E-01  0.38064553265E-02  0.11621035108E-01  0.51100000000E-03 0.  1.
         11    1    4    4    0    0  0.28122476788E-01 -0.72276467890E-01  0.83615528773E-01  0.11404639093E+00  0.51100000000E-03 0. -1.
</event>
<event>
 8    1  0.1131376E+005  0.1043930E+01  0.7957747E-01            NaN
         13   -1    0    0    0    0  0.00000000000E+00  0.00000000000E+00  0.74505805969E-08  0.10566000000E+00  0.10566000000E+00 0.  1.
     999900   -1    0    0    0    0 -0.00000000000E+00 -0.00000000000E+00 -0.74505805969E-08  0.93827000000E+00  0.93827000000E+00 0.  1.
     999902    2    1    2    0    0  0.13831029820E-01 -0.39830476392E-02  0.18156804776E-01  0.10207603730E+01  0.10204973824E+01 0.  0.
     999903    2    3    3    0    0  0.93724022093E-01 -0.13284253861E-01 -0.87953725663E-01  0.13074416681E+00  0.19937792762E-01 0.  0.
         14    1    1    2    0    0 -0.13831029820E-01  0.39830476392E-02 -0.18156804776E-01  0.23169626972E-01  0.00000000000E+00 0. -1.
     999901    1    3    3    0    0 -0.79892992273E-01  0.93012062214E-02  0.10611053044E+00  0.89001620621E+00  0.88000000000E+00 0. -1.
        -11    1    4    4    0    0  0.45801169013E-01 -0.16427666651E-01 -0.42198717309E-01  0.64409690094E-01  0.51100000000E-03 0. -1.
         11    1    4    4    0    0  0.47922853080E-01  0.31434127902E-02 -0.45755008355E-01  0.66334476721E-01  0.51100000000E-03 0.  1.
</event>
<event>
 8    1  0.1131376E+005  0.1043930E+01  0.7957747E-01            NaN
         13   -1    0    0    0    0  0.00000000000E+00  0.00000000000E+00  0.74505805969E-08  0.10566000000E+00  0.10566000000E+00 0.  1.
     999900   -1    0    0    0    0 -0.00000000000E+00 -0.00000000000E+00 -0.74505805969E-08  0.93827000000E+00  0.93827000000E+00 0.  1.
     999902    2    1    2    0    0 -0.54002764169E-02 -0.22953097851E-01 -0.79212676978E-02  0.10190552303E+01  0.10187515930E+01 0.  0.
     999903    2    3    3    0    0 -0.58392186397E-01 -0.11548155487E+00  0.18291341048E-01  0.13223125748E+00  0.20122011600E-01 0.  0.
         14    1    1    2    0    0  0.54002764169E-02  0.22953097851E-01  0.79212676978E-02  0.24874769713E-01  0.00000000000E+00 0. -1.
     999901    1    3    3    0    0  0.52991909980E-01  0.92528457020E-01 -0.26212608746E-01  0.88682397280E+00  0.88000000000E+00 0.  1.
        -11    1    4    4    0    0 -0.26876723792E-01 -0.74143855394E-01  0.13672346984E-01  0.80042887051E-01  0.51100000000E-03 0.  1.
         11    1    4    4    0    0 -0.31515462604E-01 -0.41337699477E-01  0.46189940646E-02  0.52188370432E-01  0.51100000000E-03 0. -1.
</event>
<event>
 8    1  0.1131376E+005  0.1043930E+01  0.7957747E-01            NaN
         13   -1    0    0    0    0  0.00000000000E+00  0.00000000000E+00  0.74505805969E-08  0.10566000000E+00  0.10566000000E+00 0. -1.
     999900   -1    0    0    0    0 -0.00000000000E+00 -0.00000000000E+00 -0.74505805969E-08  0.93827000000E+00  0.93827000000E+00 0. -1.
     999902    2    1    2    0    0 -0.29557069080E-01 -0.10517771583E-01  0.11191386423E-01  0.10106209775E+01  0.10100719128E+01 0.  0.
     999903    2    3    3    0    0 -0.41259277652E-01  0.46659479496E-01 -0.10210759390E+00  0.12143998427E+00  0.21030312132E-01 0.  0.
         14    1    1    2    0    0  0.29557069080E-01  0.10517771583E-01 -0.11191386423E-01  0.33309022528E-01  0.00000000000E+00 0.  1.
     999901    1    3    3    0    0  0.11702208572E-01 -0.57177251080E-01  0.11329898032E+00  0.88918099320E+00  0.88000000000E+00 0.  1.
        -11    1    4    4    0    0 -0.42764365746E-01  0.38899345174E-01 -0.89234790076E-01  0.10632525059E+00  0.51100000000E-03 0. -1.
         11    1    4    4    0    0  0.15050880942E-02  0.77601343225E-02 -0.12872803826E-01  0.15114733680E-01  0.51100000000E-03 0.  1.
</event>
<event>
 8    1  0.1131376E+005  0.1043930E+01  0.7957747E-01            NaN
         13   -1    0    0    0    0  0.00000000000E+00  0.00000000000E+00  0.74505805969E-08  0.10566000000E+00  0.10566000000E+00 0. -1.
     999900   -1    0    0    0    0 -0.00000000000E+00 -0.00000000000E+00 -0.74505805969E-08  0.93827000000E+00  0.93827000000E+00 0. -1.
     999902    2    1    2    0    0 -0.48097788496E-02  0.70428911653E-02  0.21231038870E-01  0.10210500240E+01  0.10207936414E+01 0.  0.
     999903    2    3    3    0    0  0.11931603221E+00 -0.47986202929E-01 -0.54603050270E-02  0.13023699876E+00  0.19820940982E-01 0.  0.
         14    1    1    2    0    0  0.48097788496E-02 -0.70428911653E-02 -0.21231038870E-01  0.22879975962E-01  0.00000000000E+00 0.  1.
     999901    1    3    3    0    0 -0.12412581106E+00  0.55029094095E-01  0.26691343897E-01  0.89081302528E+00  0.88000000000E+00 0. -1.
        -11    1    4    4    0    0  0.27089684150E-01 -0.19930932543E-01 -0.34920589463E-02  0.33816396260E-01  0.51100000000E-03 0. -1.
         11    1    4    4    0    0  0.92226348058E-01 -0.28055270387E-01 -0.19682460807E-02  0.96420602499E-01  0.51100000000E-03 0.  1.
</event>
<event>
 8    1  0.1131376E+005  0.1043930E+01  0.7957747E-01            NaN
         13   -1    0    0    0    0  0.00000000000E+00  0.00000000000E+00  0.74505805969E-08  0.10566000000E+00  0.10566000000E+00 0.  1.
     999900   -1    0    0    0    0 -0.00000000000E+00 -0.00000000000E+00 -0.74505805969E-08  0.93827000000E+00  0.93827000000E+00 0. -1.
     999902    2    1    2    0    0  0.22064064246E-01 -0.38446062151E-02 -0.73284105292E-02  0.10203649936E+01  0.10200928441E+01 0.  0.
     999903    2    3    3    0    0 -0.65852072617E-01 -0.98875292861E-01 -0.48805758837E-01  0.12992664704E+00  0.19649745743E-01 0.  0.
         14    1    1    2    0    0 -0.22064064246E-01  0.38446062151E-02  0.73284105292E-02  0.23565006448E-01  0.00000000000E+00 0.  1.
     999901    1    3    3    0    0  0.87916136863E-01  0.95030686646E-01  0.41477348308E-01  0.89043834652E+00  0.88000000000E+00 0. -1.
        -11    1    4    4    0    0 -0.45002655127E-01 -0.60024224948E-01 -0.21424323790E-01  0.78021851554E-01  0.51100000000E-03 0.  1.
         11    1    4    4    0    0 -0.20849417490E-01 -0.38851067914E-01 -0.27381435047E-01  0.51904795481E-01  0.51100000000E-03 0. -1.
</event>
<event>
 8    1  0.1131376E+005  0.1043930E+01  0.7957747E-01            NaN
         13   -1    0    0    0    0  0.00000000000E+00  0.00000000000E+00  0.74505805969E-08  0.10566000000E+00  0.10566000000E+00 0.  1.
     999900   -1    0    0    0    0 -0.00000000000E+00 -0.00000000000E+00 -0.74505805969E-08  0.93827000000E+00  0.93827000000E+00 0.  1.
     999902    2    1    2    0    0 -0.15889718244E-01 -0.80084817499E-02  0.17388400032E-01  0.10190507841E+01  0.10187470369E+01 0.  0.
     999903    2    3    3    0    0  0.21431728341E-01  0.76710405177E-01  0.10087430951E+00  0.13026505223E+00  0.21202647738E-01 0.  0.
         14    1    1    2    0    0  0.15889718244E-01  0.80084817499E-02 -0.17388400032E-01  0.24879215853E-01  0.00000000000E+00 0. -1.
     999901    1    3    3    0    0 -0.37321446585E-01 -0.84718886926E-01 -0.83485909479E-01  0.88878573192E+00  0.88000000000E+00 0.  1.
        -11    1    4    4    0    0  0.37329489672E-02  0.31074446588E-01  0.54422225968E-01  0.62782130730E-01  0.51100000000E-03 0.  1.
         11    1    4    4    0    0  0.17698779374E-01  0.45635958589E-01  0.46452083543E-01  0.67482921499E-01  0.51100000000E-03 0. -1.
</event>
<event>
 8    1  0.1131376E+005  0.1043930E+01  0.7957747E-01            NaN
         13   -1    0    0    0    0  0.00000000000E+00  0.00000000000E+00  0.74505805969E-08  0.10566000000E+00  0.10566000000E+00 0.  1.
     999900   -1    0    0    0    0 -0.00000000000E+00 -0.00000000000E+00 -0.74505805969E-08  0.93827000000E+00  0.93827000000E+00 0.  1.
     999902    2    1    2    0    0 -0.24794090478E-02  0.10632649899E-01 -0.21256953577E-01  0.10200331636E+01  0.10197532035E+01 0.  0.
     999903    2    3    3    0    0  0.44678676828E-01  0.12168852367E+00  0.10236327408E-01  0.13124234521E+00  0.17762033114E-01 0.  0.
         14    1    1    2    0    0  0.24794090478E-02 -0.10632649899E-01  0.21256953577E-01  0.23896836370E-01  0.00000000000E+00 0.  1.
     999901    1    3    3    0    0 -0.47158085876E-01 -0.11105587377E+00 -0.31493280985E-01  0.88879081842E+00  0.88000000000E+00 0. -1.
        -11    1    4    4    0    0  0.34198174441E-01  0.68389552382E-01  0.78665844155E-02  0.76868656040E-01  0.51100000000E-03 0.  1.
         11    1    4    4    0    0  0.10480502388E-01  0.53298971291E-01  0.23697429927E-02  0.54373689169E-01  0.51100000000E-03 0. -1.
</event>
<event>
 8    1  0.1131376E+005  0.1043930E+01  0.7957747E-01            NaN
         13   -1    0    0    0    0  0.00000000000E+00  0.00000000000E+00  0.74505805969E-08  0.10566000000E+00  0.10566000000E+00 0.  1.
     999900   -1    0    0    0    0 -0.00000000000E+00 -0.00000000000E+00 -0.74505805969E-08  0.93827000000E+00  0.93827000000E+00 0. -1.
     999902    2    1    2    0    0 -0.14086552053E-01  0.91928998722E-02  0.16069965028E-01  0.10206666354E+01  0.10204014879E+01 0.  0.
     999903    2    3    3    0    0 -0.49891345227E-01  0.12052194810E+00 -0.98452635951E-02  0.13255192475E+00  0.21410213360E-01 0.  0.
         14    1    1    2    0    0  0.14086552053E-01 -0.91928998722E-02 -0.16069965028E-01  0.23263364606E-01  0.00000000000E+00 0. -1.
     999901    1    3    3    0    0  0.35804793175E-01 -0.11132904823E+00  0.25915228623E-01  0.88811471065E+00  0.88000000000E+00 0. -1.
        -11    1    4    4    0    0 -0.45211423738E-01  0.94611481914E-01 -0.13093013384E-02  0.10486839723E+00  0.51100000000E-03 0. -1.
         11    1    4    4    0    0 -0.46799214893E-02  0.25910466187E-01 -0.85359622567E-02  0.27683527518E-01  0.51100000000E-03 0.  1.
</event>
<event>
 8    1  0.1131376E+005  0.1043930E+01  0.7957747E-01            NaN
         13   -1    0    0    0    0  0.00000000000E+00  0.00000000000E+00  0.74505805969E-08  0.10566000000E+00  0.10566000000E+00 0.  1.
     999900   -1    0    0    0    0 -0.00000000000E+00 -0.00000000000E+00 -0.74505805969E-08  0.93827000000E+00  0.93827000000E+00 0. -1.
     999902    2    1    2    0    0 -0.74799036999E-02 -0.16742077967E-01 -0.14941126838E-01  0.10202765984E+01  0.10200023794E+01 0.  0.
     999903    2    3    3    0    0  0.68949110091E-01 -0.48973508577E-01  0.95992010554E-01  0.12944192229E+00  0.19706872676E-01 0.  0.
         14    1    1    2    0    0  0.74799036999E-02  0.16742077967E-01  0.14941126838E-01  0.23653401557E-01  0.00000000000E+00 0.  1.
     999901    1    3    3    0    0 -0.76429013791E-01  0.32231430610E-01 -0.11093313739E+00  0.89083467615E+00  0.88000000000E+00 0.  1.
        -11    1    4    4    0    0  0.20899810405E-01 -0.24546901379E-01  0.28231921491E-01  0.42856212553E-01  0.51100000000E-03 0.  1.
         11    1    4    4    0    0  0.48049299686E-01 -0.24426607198E-01  0.67760089063E-01  0.86585709735E-01  0.51100000000E-03 0. -1.
</event>
<event>
 8    1  0.1131376E+005  0.1043930E+01  0.7957747E-01            NaN
         13   -1    0    0    0    0  0.00000000000E+00  0.00000000000E+00  0.74505805969E-08  0.10566000000E+00  0.10566000000E+00 0.  1.
     999900   -1    0    0    0    0 -0.00000000000E+00 -0.00000000000E+00 -0.74505805969E-08  0.93827000000E+00  0.93827000000E+00 0. -1.
     999902    2    1    2    0    0  0.11149246151E-01  0.21199334332E-01 -0.75917739790E-02  0.10188032712E+01  0.10184933741E+01 0.  0.
     999903    2    3    3    0    0 -0.96221986016E-01 -0.68395381274E-01 -0.42539473693E-01  0.12707621868E+00  0.20053921287E-01 0.  0.
         14    1    1    2    0    0 -0.11149246151E-01 -0.21199334332E-01  0.75917739790E-02  0.25126728757E-01  0.00000000000E+00 0. -1.
     999901    1    3    3    0    0  0.10737123217E+00  0.89594715606E-01  0.34947699714E-01  0.89172705257E+00  0.88000000000E+00 0.  1.
        -11    1    4    4    0    0 -0.54475706421E-01 -0.49970525610E-01 -0.22854815619E-01  0.77377385183E-01  0.51100000000E-03 0. -1.
         11    1    4    4    0    0 -0.41746279595E-01 -0.18424855663E-01 -0.19684658073E-01  0.49698833494E-01  0.51100000000E-03 0.  1.
</event>
<event>
 8    1  0.1131376E+005  0.1043930E+01  0.7957747E-01            NaN
         13   -1    0    0    0    0  0.00000000000E+00  0.00000000000E+00  0.74505805969E-08  0.10566000000E+00  0.10566000000E+00 0. -1.
     999900   -1    0    0    0    0 -0.00000000000E+00 -0.00000000000E+00 -0.74505805969E-08  0.93827000000E+00  0.93827000000E+00 0. -1.
     999902    2    1    2    0    0  0.14173951142E-01 -0.16904074219E-01 -0.95837160257E-02  0.10198780515E+01  0.10195944015E+01 0.  0.
     999903    2    3    3    0    0  0.69516421529E-01  0.61024567596E-01  0.88191594579E-01  0.12931885993E+00  0.19725097352E-01 0.  0.
         14    1    1    2    0    0 -0.14173951142E-01  0.16904074219E-01  0.95837160257E-02  0.24051948550E-01  0.00000000000E+00 0. -1.
     999901    1    3    3    0    0 -0.55342470387E-01 -0.77928641816E-01 -0.97775310605E-01  0.89055919152E+00  0.88000000000E+00 0. -1.
        -11    1    4    4    0    0  0.52231310143E-01  0.53786605555E-01  0.63081269305E-01  0.97982734982E-01  0.51100000000E-03 0.  1.
         11    1    4    4    0    0  0.17285111386E-01  0.72379620417E-02  0.25110325274E-01  0.31336124944E-01  0.51100000000E-03 0. -1.
</event>
<event>
 8    1  0.1131376E+005  0.1043930E+01  0.7957747E-01            NaN
         13   -1    0    0    0    0  0.00000000000E+00  0.00000000000E+00  0.74505805969E-08  0.10566000000E+00  0.10566000000E+00 0. -1.
     999900   -1    0    0    0    0 -0.00000000000E+00 -0.00000000000E+00 -0.74505805969E-08  0.93827000000E+00  0.93827000000E+00 0.  1.
     999902    2    1    2    0    0  0.33602778336E-02 -0.12171515059E-01 -0.24365891385E-01  0.10164867147E+01  0.10161161879E+01 0.  0.
     999903    2    3    3    0    0 -0.77900003240E-01  0.76681002775E-01  0.57756663138E-01  0.12449898093E+00  0.14689364339E-01 0.  0.
         14    1    1    2    0    0 -0.33602778336E-02  0.12171515059E-01  0.24365891385E-01  0.27443285316E-01  0.00000000000E+00 0. -1.
     999901    1    3    3    0    0  0.81260281073E-01 -0.88852517834E-01 -0.82122554522E-01  0.89198773375E+00  0.88000000000E+00 0.  1.
        -11    1    4    4    0    0 -0.48334638824E-01  0.38783216504E-01  0.36662498100E-01  0.72005382303E-01  0.51100000000E-03 0.  1.
         11    1    4    4    0    0 -0.29565364415E-01  0.37897786271E-01  0.21094165038E-01  0.52493598628E-01  0.51100000000E-03 0. -1.
</event>
<event>
 8    1  0.1131376E+005  0.1043930E+01  0.7957747E-01            NaN
         13   -1    0    0    0    0  0.00000000000E+00  0.00000000000E+00  0.74505805969E-08  0.10566000000E+00  0.10566000000E+00 0. -1.
     999900   -1    0    0    0    0 -0.00000000000E+00 -0.00000000000E+00 -0.74505805969E-08  0.93827000000E+00  0.93827000000E+00 0. -1.
     999902    2    1    2    0    0 -0.11374371773E-01 -0.17484539050E-01  0.83375410201E-02  0.10214666959E+01  0.10212196683E+01 0.  0.
     999903    2    3    3    0    0 -0.45951648656E-01  0.16213768154E-01 -0.11989145121E+00  0.13086362025E+00  0.19413571034E-01 0.  0.
         14    1    1    2    0    0  0.11374371773E-01  0.17484539050E-01 -0.83375410201E-02  0.22463304060E-01  0.00000000000E+00 0.  1.
     999901    1    3    3    0    0  0.34577276883E-01 -0.33698307203E-01  0.12822899223E+00  0.89060307569E+00  0.88000000000E+00 0. -1.
        -11    1    4    4    0    0 -0.42048273608E-01  0.92891214290E-02 -0.11021840357E+00  0.11833301609E+00  0.51100000000E-03 0. -1.
         11    1    4    4    0    0 -0.39033750475E-02  0.69246467246E-02 -0.96730476384E-02  0.12530604161E-01  0.51100000000E-03 0.  1.
</event>
<event>
 8    1  0.1131376E+005  0.1043930E+01  0.7957747E-01            NaN
         13   -1    0    0    0    0  0.00000000000E+00  0.00000000000E+00  0.74505805969E-08  0.10566000000E+00  0.10566000000E+00 0. -1.
     999900   -1    0    0    0    0 -0.00000000000E+00 -0.00000000000E+00 -0.74505805969E-08  0.93827000000E+00  0.93827000000E+00 0. -1.
     999902    2    1    2    0    0  0.17204710597E-01 -0.93114204508E-02 -0.93735529293E-02  0.10222374180E+01  0.10220072264E+01 0.  0.
     999903    2    3    3    0    0  0.22678839506E-01 -0.80237437663E-01 -0.10351829174E+00  0.13436147071E+00  0.19611015316E-01 0.  0.
         14    1    1    2    0    0 -0.17204710597E-01  0.93114204508E-02  0.93735529293E-02  0.21692581959E-01  0.00000000000E+00 0.  1.
     999901    1    3    3    0    0 -0.54741289087E-02  0.70926017212E-01  0.94144738813E-01  0.88787594733E+00  0.88000000000E+00 0.  1.
        -11    1    4    4    0    0  0.17219917259E-01 -0.36336013338E-01 -0.38162478599E-01  0.55438861005E-01  0.51100000000E-03 0. -1.
         11    1    4    4    0    0  0.54589222470E-02 -0.43901424325E-01 -0.65355813143E-01  0.78922609704E-01  0.51100000000E-03 0.  1.
</event>
<event>
 8    1  0.1131376E+005  0.1043930E+01  0.7957747E-01            NaN
         13   -1    0    0    0    0  0.00000000000E+00  0.00000000000E+00  0.74505805969E-08  0.10566000000E+00  0.10566000000E+00 0.  1.
     999900   -1    0    0    0    0 -0.00000000000E+00 -0.00000000000E+00 -0.74505805969E-08  0.93827000000E+00  0.93827000000E+00 0.  1.
     999902    2    1    2    0    0  0.11987668667E-01  0.10597398588E-01  0.17516465112E-01  0.10202058434E+01  0.10199299619E+01 0.  0.
     999903    2    3    3    0    0 -0.12183709993E+00 -0.36291265628E-01  0.53696147020E-02  0.12877151519E+00  0.19797360441E-01 0.  0.
         14    1    1    2    0    0 -0.11987668667E-01 -0.10597398588E-01 -0.17516465112E-01  0.23724156611E-01  0.00000000000E+00 0. -1.
     999901    1    3    3    0    0  0.13382476860E+00  0.46888664216E-01  0.12146850410E-01  0.89143432820E+00  0.88000000000E+00 0.  1.
        -11    1    4    4    0    0 -0.26211099025E-01  0.43717254989E-03  0.83126942779E-03  0.26232898464E-01  0.51100000000E-03 0.  1.
         11    1    4    4    0    0 -0.95626000907E-01 -0.36728438178E-01  0.45383452742E-02  0.10253861672E+00  0.51100000000E-03 0. -1.
</event>
<event>
 8    1  0.1131376E+005  0.1043930E+01  0.7957747E-01            NaN
         13   -1    0    0    0    0  0.00000000000E+00  0.00000000000E+00  0.74505805969E-08  0.10566000000E+00  0.10566000000E+00 0.  1.
     999900   -1    0    0    0    0 -0.00000000000E+00 -0.00000000000E+00 -0.74505805969E-08  0.93827000000E+00  0.93827000000E+00 0.  1.
     999902    2    1    2    0    0  0.16885164796E-01 -0.12951843654E-01  0.99946682013E-02  0.10204193123E+01  0.10201484306E+01 0.  0.
     999903    2    3    3    0    0  0.11126821514E+00  0.57215765958E-01  0.38133552719E-01  0.13214939247E+00  0.18842359564E-01 0.  0.
         14    1    1    2    0    0 -0.16885164796E-01  0.12951843654E-01 -0.99946682013E-02  0.23510687712E-01  0.00000000000E+00 0. -1.
     999901    1    3    3    0    0 -0.94383050339E-01 -0.70167609612E-01 -0.28138884517E-01  0.88826991982E+00  0.88000000000E+00 0.  1.
        -11    1    4    4    0    0  0.34176035369E-01  0.22252511542E-01  0.20634653261E-01  0.45708048522E-01  0.51100000000E-03 0.  1.
         11    1    4    4    0    0  0.77092179766E-01  0.34963254416E-01  0.17498899457E-01  0.86441343949E-01  0.51100000000E-03 0. -1.
</event>
<event>
 8    1  0.1131376E+005  0.1043930E+01  0.7957747E-01            NaN
         13   -1    0    0    0    0  0.00000000000E+00  0.00000000000E+00  0.74505805969E-08  0.10566000000E+00  0.10566000000E+00 0.  1.
     999900   -1    0    0    0    0 -0.00000000000E+00 -0.00000000000E+00 -0.74505805969E-08  0.93827000000E+00  0.93827000000E+00 0.  1.
     999902    2    1    2    0    0 -0.90742349485E-02  0.10176671122E-01 -0.16275201158E-01  0.10226982185E+01  0.10224778029E+01 0.  0.
     999903    2    3    3    0    0 -0.11918043501E+00  0.54660955670E-01 -0.22360742771E-01  0.13470088699E+00  0.21272751959E-01 0.  0.
         14    1    1    2    0    0  0.90742349485E-02 -0.10176671122E-01  0.16275201158E-01  0.21231781549E-01  0.00000000000E+00 0. -1.
     999901    1    3    3    0    0  0.11010620006E+00 -0.44484284548E-01  0.60855416131E-02  0.88799733146E+00  0.88000000000E+00 0.  1.
        -11    1    4    4    0    0 -0.51994919101E-01  0.35395483823E-01 -0.12149703324E-01  0.64063939149E-01  0.51100000000E-03 0.  1.
         11    1    4    4    0    0 -0.67185515905E-01  0.19265471847E-01 -0.10211039447E-01  0.70636947842E-01  0.51100000000E-03 0. -1.
</event>
<event>
 8    1  0.1131376E+005  0.1043930E+01  0.7957747E-01            NaN
         13   -1    0    0    0    0  0.00000000000E+00  0.00000000000E+00  0.74505805969E-08  0.10566000000E+00  0.10566000000E+00 0. -1.
     999900   -1    0    0    0    0 -0.00000000000E+00 -0.00000000000E+00 -0.74505805969E-08  0.93827000000E+00  0.93827000000E+00 0. -1.
     999902    2    1    2    0    0 -0.12484775069E-02  0.11156714438E-01  0.20980274542E-01  0.10201349818E+01  0.10198574303E+01 0.  0.
     999903    2    3    3    0    0  0.12526295040E+00 -0.79814813206E-02  0.31139255265E-01  0.13082366573E+00  0.19765310782E-01 0.  0.
         14    1    1    2    0    0  0.12484775069E-02 -0.11156714438E-01 -0.20980274542E-01  0.23795018239E-01  0.00000000000E+00 0.  1.
     999901    1    3    3    0    0 -0.12651142791E+00  0.19138195759E-01 -0.10158980723E-01  0.88931131603E+00  0.88000000000E+00 0. -1.
        -11    1    4    4    0    0  0.36879563967E-01  0.65306464913E-02  0.77169700007E-02  0.38243487406E-01  0.51100000000E-03 0.  1.
         11    1    4    4    0    0  0.88383386433E-01 -0.14512127812E-01  0.23422285264E-01  0.92580178326E-01  0.51100000000E-03 0. -1.
</event>
<event>
 8    1  0.1131376E+005  0.1043930E+01  0.7957747E-01            NaN
         13   -1    0    0    0    0  0.00000000000E+00  0.00000000000E+00  0.74505805969E-08  0.10566000000E+00  0.10566000000E+00 0. -1.
     999900   -1    0    0    0    0 -0.00000000000E+00 -0.00000000000E+00 -0.74505805969E-08  0.93827000000E+00  0.93827000000E+00 0.  1.
     999902    2    1    2    0    0  0.14761557661E-01 -0.11675555805E-01  0.10378623834E-01  0.10224372566E+01  0.10222113312E+01 0.  0.
     999903    2    3    3    0    0 -0.57305722600E-02 -0.13276896258E+00  0.11903176779E-01  0.13390708554E+00  0.11357158780E-01 0.  0.
         14    1    1    2    0    0 -0.14761557661E-01  0.11675555805E-01 -0.10378623834E-01  0.21492743441E-01  0.00000000000E+00 0.  1.
     999901    1    3    3    0    0  0.20492129921E-01  0.12109340678E+00 -0.15245529458E-02  0.88853017102E+00  0.88000000000E+00 0.  1.
        -11    1    4    4    0    0  0.28120107301E-02 -0.22426839370E-01  0.12437686007E-03  0.22608562959E-01  0.51100000000E-03 0.  1.
         11    1    4    4    0    0 -0.85425829901E-02 -0.11034212321E+00  0.11778799919E-01  0.11129852258E+00  0.51100000000E-03 0. -1.
</event>
<event>
 8    1  0.1131376E+005  0.1043930E+01  0.7957747E-01            NaN
         13   -1    0    0    0    0  0.00000000000E+00  0.00000000000E+00  0.74505805969E-08  0.10566000000E+00  0.10566000000E+00 0. -1.
     999900   -1    0    0    0    0 -0.00000000000E+00 -0.00000000000E+00 -0.74505805969E-08  0.93827000000E+00  0.93827000000E+00 0.  1.
     999902    2    1    2    0    0  0.23129197932E-02  0.17078196844E-02 -0.23771651564E-01  0.10199851119E+01  0.10197040114E+01 0.  0.
     999903    2    3    3    0    0  0.98423811365E-01  0.56612681639E-01  0.58637454990E-01  0.12923087637E+00  0.19236057647E-01 0.  0.
         14    1    1    2    0    0 -0.23129197932E-02 -0.17078196844E-02  0.23771651564E-01  0.23944888059E-01  0.00000000000E+00 0. -1.
     999901    1    3    3    0    0 -0.96110891571E-01 -0.54904861954E-01 -0.82409106555E-01  0.89075423557E+00  0.88000000000E+00 0.  1.
        -11    1    4    4    0    0  0.32050191662E-01  0.10652637805E-01  0.11174330008E-01  0.35578367724E-01  0.51100000000E-03 0. -1.
         11    1    4    4    0    0  0.66373619703E-01  0.45960043833E-01  0.47463124983E-01  0.93652508646E-01  0.51100000000E-03 0.  1.
</event>
<event>
 8    1  0.1131376E+005  0.1043930E+01  0.7957747E-01            NaN
         13   -1    0    0    0    0  0.00000000000E+00  0.00000000000E+00  0.74505805969E-08  0.10566000000E+00  0.10566000000E+00 0. -1.
     999900   -1    0    0    0    0 -0.00000000000E+00 -0.00000000000E+00 -0.74505805969E-08  0.93827000000E+00  0.93827000000E+00 0.  1.
     999902    2    1    2    0    0  0.13479049003E-01 -0.18644591665E-01  0.16108917541E-01  0.10158443669E+01  0.10154560429E+01 0.  0.
     999903    2    3    3    0    0 -0.65455056737E-01 -0.13753553646E-01 -0.10287425899E+00  0.12432234724E+00  0.19985198758E-01 0.  0.
         14    1    1    2    0    0 -0.13479049003E-01  0.18644591665E-01 -0.16108917541E-01  0.28085633066E-01  0.00000000000E+00 0.  1.
     999901    1    3    3    0    0  0.78934105741E-01 -0.48910380187E-02  0.11898317653E+00  0.89152201969E+00  0.88000000000E+00 0. -1.
        -11    1    4    4    0    0 -0.43675950925E-01 -0.12296804896E-02 -0.54912336178E-01  0.70176396237E-01  0.51100000000E-03 0.  1.
         11    1    4    4    0    0 -0.21779105812E-01 -0.12523873157E-01 -0.47961922815E-01  0.54145951002E-01  0.51100000000E-03 0. -1.
</event>
<event>
 8    1  0.1131376E+005  0.1043930E+01  0.7957747E-01            NaN
         13   -1    0    0    0    0  0.00000000000E+00  0.00000000000E+00  0.74505805969E-08  0.10566000000E+00  0.10566000000E+00 0.  1.
     999900   -1    0    0    0    0 -0.00000000000E+00 -0.00000000000E+00 -0.74505805969E-08  0.93827000000E+00  0.93827000000E+00 0.  1.
     999902    2    1    2    0    0  0.21933582277E-01  0.33087117213E-02  0.93091103830E-02  0.10198740415E+01  0.10195902958E+01 0.  0.
     999903    2    3    3    0    0  0.61658051810E-01 -0.93173787146E-01 -0.65389468009E-01  0.13056712950E+00  0.16997729678E-01 0.  0.
         14    1    1    2    0    0 -0.21933582277E-01 -0.33087117213E-02 -0.93091103830E-02  0.24055958532E-01  0.00000000000E+00 0. -1.
     999901    1    3    3    0    0 -0.39724469532E-01  0.96482498867E-01  0.74698578392E-01  0.88930691197E+00  0.88000000000E+00 0. -1.
        -11    1    4    4    0    0  0.39128194486E-01 -0.71506724644E-01 -0.50990474329E-01  0.96148410628E-01  0.51100000000E-03 0. -1.
         11    1    4    4    0    0  0.22529857324E-01 -0.21667062502E-01 -0.14398993680E-01  0.34418718868E-01  0.51100000000E-03 0.  1.
</event>
<event>
 8    1  0.1131376E+005  0.1043930E+01  0.7957747E-01            NaN
         13   -1    0    0    0    0  0.00000000000E+00  0.00000000000E+00  0.74505805969E-08  0.10566000000E+00  0.10566000000E+00 0. -1.
     999900   -1    0    0    0    0 -0.00000000000E+00 -0.00000000000E+00 -0.74505805969E-08  0.93827000000E+00  0.93827000000E+00 0. -1.
     999902    2    1    2    0    0 -0.14161188184E-02 -0.57770188442E-02 -0.22903417359E-01  0.10202668247E+01  0.10199923763E+01 0.  0.
     999903    2    3    3    0    0  0.94516034839E-01 -0.43921764803E-01 -0.79948168779E-01  0.13239740669E+00  0.16581958321E-01 0.  0.
         14    1    1    2    0    0  0.14161188184E-02  0.57770188442E-02  0.22903417359E-01  0.23663175314E-01  0.00000000000E+00 0. -1.
     999901    1    3    3    0    0 -0.95932153658E-01  0.38144745958E-01  0.57044751421E-01  0.88786941800E+00  0.88000000000E+00 0. -1.
        -11    1    4    4    0    0  0.43787210296E-01 -0.16258506052E-01 -0.45037377704E-01  0.64886711398E-01  0.51100000000E-03 0.  1.
         11    1    4    4    0    0  0.50728824543E-01 -0.27663258751E-01 -0.34910791075E-01  0.67510695291E-01  0.51100000000E-03 0. -1.
</event>
<event>
 8    1  0.1131376E+005  0.1043930E+01  0.7957747E-01            NaN
         13   -1    0    0    0    0  0.00000000000E+00  0.00000000000E+00  0.74505805969E-08  0.10566000000E+00  0.10566000000E+00 0. -1.
     999900   -1    0    0    0    0 -0.00000000000E+00 -0.00000000000E+00 -0.74505805969E-08  0.93827000000E+00  0.93827000000E+00 0.  1.
     999902    2    1    2    0    0  0.80862941320E-02  0.13228554517E-01  0.18292245336E-01  0.10199510708E+01  0.10196691609E+01 0.  0.
     999903    2    3    3    0    0  0.77997664437E-01  0.61269800748E-01  0.86780260777E-01  0.13322328318E+00  0.19493726643E-01 0.  0.
         14    1    1    2    0    0 -0.80862941320E-02 -0.13228554517E-01 -0.18292245336E-01  0.23978929227E-01  0.00000000000E+00 0.  1.
     999901    1    3    3    0    0 -0.69911370305E-01 -0.48041246230E-01 -0.68488015441E-01  0.88672778760E+00  0.88000000000E+00 0. -1.
        -11    1    4    4    0    0  0.46858890426E-01  0.26073639246E-01  0.52550570603E-01  0.75082713505E-01  0.51100000000E-03 0.  1.
         11    1    4    4    0    0  0.31138774011E-01  0.35196161501E-01  0.34229690175E-01  0.58140569672E-01  0.51100000000E-03 0. -1.
</event>
<event>
 8    1  0.1131376E+005  0.1043930E+01  0.7957747E-01            NaN
         13   -1    0    0    0    0  0.00000000000E+00  0.00000000000E+00  0.74505805969E-08  0.10566000000E+00  0.10566000000E+00 0.  1.
     999900   -1    0    0    0    0 -0.00000000000E+00 -0.00000000000E+00 -0.74505805969E-08  0.93827000000E+00  0.93827000000E+00 0. -1.
     999902    2    1    2    0    0  0.22002529494E-01 -0.96786991335E-02  0.34013462791E-03  0.10198903616E+01  0.10196070054E+01 0.  0.
     999903    2    3    3    0    0 -0.71711123168E-01  0.52816818771E-01 -0.89991685819E-01  0.12812370144E+00  0.19623399888E-01 0.  0.
         14    1    1    2    0    0 -0.22002529494E-01  0.96786991335E-02 -0.34013462791E-03  0.24039638363E-01  0.00000000000E+00 0. -1.
     999901    1    3    3    0    0  0.93713652662E-01 -0.62495517904E-01  0.90331820447E-01  0.89176666020E+00  0.88000000000E+00 0. -1.
        -11    1    4    4    0    0 -0.62302100312E-01  0.36234370529E-01 -0.69383093461E-01  0.10004377087E+00  0.51100000000E-03 0.  1.
         11    1    4    4    0    0 -0.94090228559E-02  0.16582448241E-01 -0.20608592358E-01  0.28079930569E-01  0.51100000000E-03 0. -1.
</event>
<event>
 8    1  0.1131376E+005  0.1043930E+01  0.7957747E-01            NaN
         13   -1    0    0    0    0  0.00000000000E+00  0.00000000000E+00  0.74505805969E-08  0.10566000000E+00  0.10566000000E+00 0.  1.
     999900   -1    0    0    0    0 -0.00000000000E+00 -0.00000000000E+00 -0.74505805969E-08  0.93827000000E+00  0.93827000000E+00 0. -1.
     999902    2    1    2    0    0  0.18428452627E-02  0.20870062810E-01  0.11055798791E-01  0.10202406292E+01  0.10199655657E+01 0.  0.
     999903    2    3    3    0    0  0.23584232615E-01 -0.10785403675E+00  0.63448865768E-01  0.12906858344E+00  0.21076797538E-01 0.  0.
         14    1    1    2    0    0 -0.18428452627E-02 -0.20870062810E-01 -0.11055798791E-01  0.23689370766E-01  0.00000000000E+00 0. -1.
     999901    1    3    3    0    0 -0.21741387352E-01  0.12872409956E+00 -0.52393066976E-01  0.89117204579E+00  0.88000000000E+00 0.  1.
        -11    1    4    4    0    0  0.18209331605E-01 -0.81518681857E-01  0.57857474653E-01  0.10161015571E+00  0.51100000000E-03 0.  1.
         11    1    4    4    0    0  0.53749010094E-02 -0.26335354890E-01  0.55913911152E-02  0.27458427734E-01  0.51100000000E-03 0. -1.
</event>
<event>
 8    1  0.1131376E+005  0.1043930E+01  0.7957747E-01            NaN
         13   -1    0    0    0    0  0.00000000000E+00  0.00000000000E+00  0.74505805969E-08  0.10566000000E+00  0.10566000000E+00 0. -1.
     999900   -1    0    0    0    0 -0.00000000000E+00 -0.00000000000E+00 -0.74505805969E-08  0.93827000000E+00  0.93827000000E+00 0. -1.
     999902    2    1    2    0    0 -0.17428038340E-01  0.89621732116E-03 -0.16917670920E-01  0.10196247060E+01  0.10193349763E+01 0.  0.
     999903    2    3    3    0    0 -0.96260944423E-01  0.30162935701E-01 -0.84357192795E-01  0.13304743528E+00  0.20236401553E-01 0.  0.
         14    1    1    2    0    0  0.17428038340E-01 -0.89621732116E-03  0.16917670920E-01  0.24305293975E-01  0.00000000000E+00 0. -1.
     999901    1    3    3    0    0  0.78832906083E-01 -0.29266718380E-01  0.67439521875E-01  0.88657727074E+00  0.88000000000E+00 0.  1.
        -11    1    4    4    0    0 -0.75803176715E-01  0.30621290519E-01 -0.73186964700E-01  0.10972865604E+00  0.51100000000E-03 0. -1.
         11    1    4    4    0    0 -0.20457767708E-01 -0.45835481824E-03 -0.11170228095E-01  0.23318779244E-01  0.51100000000E-03 0.  1.
</event>
<event>
 8    1  0.1131376E+005  0.1043930E+01  0.7957747E-01            NaN
         13   -1    0    0    0    0  0.00000000000E+00  0.00000000000E+00  0.74505805969E-08  0.10566000000E+00  0.10566000000E+00 0. -1.
     999900   -1    0    0    0    0 -0.00000000000E+00 -0.00000000000E+00 -0.74505805969E-08  0.93827000000E+00  0.93827000000E+00 0.  1.
     999902    2    1    2    0    0  0.21891835900E-01 -0.92171234042E-02  0.55503167470E-03  0.10201704566E+01  0.10198937418E+01 0.  0.
     999903    2    3    3    0    0  0.42548543789E-01  0.94214248485E-01 -0.76963515008E-01  0.13048856212E+00  0.20424960339E-01 0.  0.
         14    1    1    2    0    0 -0.21891835900E-01  0.92171234042E-02 -0.55503167470E-03  0.23759543411E-01  0.00000000000E+00 0. -1.
     999901    1    3    3    0    0 -0.20656707889E-01 -0.10343137189E+00  0.77518546683E-01  0.88968189447E+00  0.88000000000E+00 0. -1.
        -11    1    4    4    0    0  0.35062121429E-01  0.88395075380E-01 -0.74139291742E-01  0.12058166283E+00  0.51100000000E-03 0. -1.
         11    1    4    4    0    0  0.74864223594E-02  0.58191731049E-02 -0.28242232664E-02  0.99068992842E-02  0.51100000000E-03 0.  1.
</event>
<event>
 8    1  0.1131376E+005  0.1043930E+01  0.7957747E-01            NaN
         13   -1    0    0    0    0  0.00000000000E+00  0.00000000000E+00  0.74505805969E-08  0.10566000000E+00  0.10566000000E+00 0.  1.
     999900   -1    0    0    0    0 -0.00000000000E+00 -0.00000000000E+00 -0.74505805969E-08  0.93827000000E+00  0.93827000000E+00 0. -1.
     999902    2    1    2    0    0  0.23482271449E-02  0.93172536009E-02  0.21723440845E-01  0.10201764052E+01  0.10198998306E+01 0.  0.
     999903    2    3    3    0    0 -0.10917960879E+00  0.43836867058E-01  0.56166683233E-01  0.13179788289E+00  0.19342381948E-01 0.  0.
         14    1    1    2    0    0 -0.23482271449E-02 -0.93172536009E-02 -0.21723440845E-01  0.23753594834E-01  0.00000000000E+00 0. -1.
     999901    1    3    3    0    0  0.11152783593E+00 -0.34519613457E-01 -0.34443242388E-01  0.88837852228E+00  0.88000000000E+00 0.  1.
        -11    1    4    4    0    0 -0.10034889000E+00  0.41216990725E-01  0.56976617398E-01  0.12253708051E+00  0.51100000000E-03 0.  1.
         11    1    4    4    0    0 -0.88307187907E-02  0.26198763332E-02 -0.80993416486E-03  0.92608023795E-02  0.51100000000E-03 0. -1.
</event>
<event>
 8    1  0.1131376E+005  0.1043930E+01  0.7957747E-01            NaN
         13   -1    0    0    0    0  0.00000000000E+00  0.00000000000E+00  0.74505805969E-08  0.10566000000E+00  0.10566000000E+00 0. -1.
     999900   -1    0    0    0    0 -0.00000000000E+00 -0.00000000000E+00 -0.74505805969E-08  0.93827000000E+00  0.93827000000E+00 0.  1.
     999902    2    1    2    0    0 -0.21546212915E-01  0.11180599908E-01 -0.36889440697E-02  0.10193769266E+01  0.10190811867E+01 0.  0.
     999903    2    3    3    0    0 -0.71581736259E-01  0.10751279269E+00  0.13144403908E-01  0.13254728875E+00  0.26703236546E-01 0.  0.
         14    1    1    2    0    0  0.21546212915E-01 -0.11180599908E-01  0.36889440697E-02  0.24553073405E-01  0.00000000000E+00 0. -1.
     999901    1    3    3    0    0  0.50035523343E-01 -0.96332192782E-01 -0.16833347977E-01  0.88682963785E+00  0.88000000000E+00 0.  1.
        -11    1    4    4    0    0 -0.20548136943E-01  0.34935258653E-01  0.16488910238E-01  0.43758924928E-01  0.51100000000E-03 0.  1.
         11    1    4    4    0    0 -0.51033599315E-01  0.72577534037E-01 -0.33445063301E-02  0.88788363819E-01  0.51100000000E-03 0. -1.
</event>
<event>
 8    1  0.1131376E+005  0.1043930E+01  0.7957747E-01            NaN
         13   -1    0    0    0    0  0.00000000000E+00  0.00000000000E+00  0.74505805969E-08  0.10566000000E+00  0.10566000000E+00 0. -1.
     999900   -1    0    0    0    0 -0.00000000000E+00 -0.00000000000E+00 -0.74505805969E-08  0.93827000000E+00  0.93827000000E+00 0.  1.
     999902    2    1    2    0    0  0.64149905874E-02  0.23976683680E-01 -0.13231183076E-02  0.10190747368E+01  0.10187715814E+01 0.  0.
     999903    2    3    3    0    0  0.11139582794E+00 -0.40563767785E-01  0.47208612532E-01  0.12916363174E+00  0.20003522920E-01 0.  0.
         14    1    1    2    0    0 -0.64149905874E-02 -0.23976683680E-01  0.13231183076E-02  0.24855263156E-01  0.00000000000E+00 0.  1.
     999901    1    3    3    0    0 -0.10498083735E+00  0.64540451464E-01 -0.48531730839E-01  0.88991110510E+00  0.88000000000E+00 0.  1.
        -11    1    4    4    0    0  0.43593874131E-01 -0.23867589491E-01  0.26513656921E-01  0.56332253764E-01  0.51100000000E-03 0.  1.
         11    1    4    4    0    0  0.67801953805E-01 -0.16696178293E-01  0.20694955611E-01  0.72831377978E-01  0.51100000000E-03 0. -1.
</event>
<event>
 8    1  0.1131376E+005  0.1043930E+01  0.7957747E-01            NaN
         13   -1    0    0    0    0  0.00000000000E+00  0.00000000000E+00  0.74505805969E-08  0.10566000000E+00  0.10566000000E+00 0.  1.
     999900   -1    0    0    0    0 -0.00000000000E+00 -0.00000000000E+00 -0.74505805969E-08  0.93827000000E+00  0.93827000000E+00 0. -1.
     999902    2    1    2    0    0  0.88380862981E-03 -0.27297187336E-01 -0.10291920040E-01  0.10147436818E+01  0.10143238627E+01 0.  0.
     999903    2    3    3    0    0  0.85160624477E-02 -0.88074176959E-01 -0.91601790523E-01  0.12887496191E+00  0.19704918546E-01 0.  0.
         14    1    1    2    0    0 -0.88380862981E-03  0.27297187336E-01  0.10291920040E-01  0.29186318238E-01  0.00000000000E+00 0. -1.
     999901    1    3    3    0    0 -0.76322538179E-02  0.60776989623E-01  0.81309870483E-01  0.88586871985E+00  0.88000000000E+00 0.  1.
        -11    1    4    4    0    0 -0.13760742888E-02 -0.70211501088E-01 -0.70809336414E-01  0.99728489961E-01  0.51100000000E-03 0. -1.
         11    1    4    4    0    0  0.98921367366E-02 -0.17862675871E-01 -0.20792454109E-01  0.29146471954E-01  0.51100000000E-03 0.  1.
</event>
<event>
 8    1  0.1131376E+005  0.1043930E+01  0.7957747E-01            NaN
         13   -1    0    0    0    0  0.00000000000E+00  0.00000000000E+00  0.74505805969E-08  0.10566000000E+00  0.10566000000E+00 0. -1.
     999900   -1    0    0    0    0 -0.00000000000E+00 -0.00000000000E+00 -0.74505805969E-08  0.93827000000E+00  0.93827000000E+00 0.  1.
     999902    2    1    2    0    0 -0.72842596834E-03  0.19905316033E-01  0.12975112475E-01  0.10201580469E+01  0.10198810396E+01 0.  0.
     999903    2    3    3    0    0 -0.86362683117E-02 -0.21053480587E-01 -0.12483725766E+00  0.12845607518E+00  0.19969681394E-01 0.  0.
         14    1    1    2    0    0  0.72842596834E-03 -0.19905316033E-01 -0.12975112475E-01  0.23771953106E-01  0.00000000000E+00 0.  1.
     999901    1    3    3    0    0  0.79078423434E-02  0.40958796620E-01  0.13781237014E+00  0.89170197171E+00  0.88000000000E+00 0. -1.
        -11    1    4    4    0    0 -0.86680630784E-02 -0.12531837613E-01 -0.11204041825E+00  0.11307297960E+00  0.51100000000E-03 0.  1.
         11    1    4    4    0    0  0.31794766684E-04 -0.85216429744E-02 -0.12796839410E-01  0.15383095585E-01  0.51100000000E-03 0. -1.
</event>
<event>
 8    1  0.1131376E+005  0.1043930E+01  0.7957747E-01            NaN
         13   -1    0    0    0    0  0.00000000000E+00  0.00000000000E+00  0.74505805969E-08  0.10566000000E+00  0.10566000000E+00 0. -1.
     999900   -1    0    0    0    0 -0.00000000000E+00 -0.00000000000E+00 -0.74505805969E-08  0.93827000000E+00  0.93827000000E+00 0. -1.
     999902    2    1    2    0    0 -0.10050672412E-01 -0.15920323495E-01  0.14931398913E-01  0.10199004476E+01  0.10196173319E+01 0.  0.
     999903    2    3    3    0    0 -0.40108496770E-01  0.37075912951E-01 -0.11441076920E+00  0.12836162603E+00  0.20089004280E-01 0.  0.
         14    1    1    2    0    0  0.10050672412E-01  0.15920323495E-01 -0.14931398913E-01  0.24029552423E-01  0.00000000000E+00 0.  1.
     999901    1    3    3    0    0  0.30057824358E-01 -0.52996236446E-01  0.12934216811E+00  0.89153882155E+00  0.88000000000E+00 0.  1.
        -11    1    4    4    0    0 -0.17772429348E-01  0.71020157220E-02 -0.25308935690E-01  0.31734858106E-01  0.51100000000E-03 0. -1.
         11    1    4    4    0    0 -0.22336067422E-01  0.29973897229E-01 -0.89101833508E-01  0.96626767919E-01  0.51100000000E-03 0.  1.
</event>
<event>
 8    1  0.1131376E+005  0.1043930E+01  0.7957747E-01            NaN
         13   -1    0    0    0    0  0.00000000000E+00  0.00000000000E+00  0.74505805969E-08  0.10566000000E+00  0.10566000000E+00 0. -1.
     999900   -1    0    0    0    0 -0.00000000000E+00 -0.00000000000E+00 -0.74505805969E-08  0.93827000000E+00  0.93827000000E+00 0. -1.
     999902    2    1    2    0    0 -0.20367422149E-02  0.20308102349E-01 -0.11979055865E-01  0.10202643050E+01  0.10199897975E+01 0.  0.
     999903    2    3    3    0    0 -0.10718338512E+00  0.18490284199E-02  0.71311172510E-01  0.12990829977E+00  0.17296996058E-01 0.  0.
         14    1    1    2    0    0  0.20367422149E-02 -0.20308102349E-01  0.11979055865E-01  0.23665694988E-01  0.00000000000E+00 0. -1.
     999901    1    3    3    0    0  0.10514664291E+00  0.18459073929E-01 -0.83290228375E-01  0.89035600524E+00  0.88000000000E+00 0. -1.
        -11    1    4    4    0    0 -0.43726259200E-01 -0.10902442750E-02  0.19325493636E-01  0.47821649924E-01  0.51100000000E-03 0.  1.
         11    1    4    4    0    0 -0.63457125921E-01  0.29392726950E-02  0.51985678874E-01  0.82086649847E-01  0.51100000000E-03 0. -1.
</event>
<event>
 8    1  0.1131376E+005  0.1043930E+01  0.7957747E-01            NaN
         13   -1    0    0    0    0  0.00000000000E+00  0.00000000000E+00  0.74505805969E-08  0.10566000000E+00  0.10566000000E+00 0. -1.
     999900   -1    0    0    0    0 -0.00000000000E+00 -0.00000000000E+00 -0.74505805969E-08  0.93827000000E+00  0.93827000000E+00 0. -1.
     999902    2    1    2    0    0 -0.91443762479E-02 -0.11157971737E-01  0.29729536705E-01  0.10108851017E+01  0.10103448538E+01 0.  0.
     999903    2    3    3    0    0  0.41627498550E-01  0.74817928653E-01 -0.79477046267E-01  0.11853107080E+00  0.20060976505E-01 0.  0.
         14    1    1    2    0    0  0.91443762479E-02  0.11157971737E-01 -0.29729536705E-01  0.33044898289E-01  0.00000000000E+00 0.  1.
     999901    1    3    3    0    0 -0.50771874798E-01 -0.85975900389E-01  0.10920658297E+00  0.89235403091E+00  0.88000000000E+00 0.  1.
        -11    1    4    4    0    0  0.11596654764E-01  0.13374477829E-01 -0.74670344143E-02  0.19219177476E-01  0.51100000000E-03 0. -1.
         11    1    4    4    0    0  0.30030843787E-01  0.61443450823E-01 -0.72010011852E-01  0.99311893324E-01  0.51100000000E-03 0.  1.
</event>
<event>
 8    1  0.1131376E+005  0.1043930E+01  0.7957747E-01            NaN
         13   -1    0    0    0    0  0.00000000000E+00  0.00000000000E+00  0.74505805969E-08  0.10566000000E+00  0.10566000000E+00 0.  1.
     999900   -1    0    0    0    0 -0.00000000000E+00 -0.00000000000E+00 -0.74505805969E-08  0.93827000000E+00  0.93827000000E+00 0.  1.
     999902    2    1    2    0    0  0.13324242489E-01 -0.11144069494E-01 -0.15723848810E-01  0.10204999948E+01  0.10202309906E+01 0.  0.
     999903    2    3    3    0    0  0.61927152141E-01 -0.56972075377E-01 -0.10209442334E+00  0.13375182022E+00  0.19633863365E-01 0.  0.
         14    1    1    2    0    0 -0.13324242489E-01  0.11144069494E-01  0.15723848810E-01  0.23430005211E-01  0.00000000000E+00 0.  1.
     999901    1    3    3    0    0 -0.48602909652E-01  0.45828005883E-01  0.86370574532E-01  0.88674817457E+00  0.88000000000E+00 0. -1.
        -11    1    4    4    0    0  0.14859992664E-01 -0.23589447480E-01 -0.24984052031E-01  0.37439890375E-01  0.51100000000E-03 0. -1.
         11    1    4    4    0    0  0.47067159477E-01 -0.33382627897E-01 -0.77110371311E-01  0.96311929849E-01  0.51100000000E-03 0.  1.
</event>
<event>
 8    1  0.1131376E+005  0.1043930E+01  0.7957747E-01            NaN
         13   -1    0    0    0    0  0.00000000000E+00  0.00000000000E+00  0.74505805969E-08  0.10566000000E+00  0.10566000000E+00 0.  1.
     999900   -1    0    0    0    0 -0.00000000000E+00 -0.00000000000E+00 -0.74505805969E-08  0.93827000000E+00  0.93827000000E+00 0. -1.
     999902    2    1    2    0    0  0.47605868204E-02  0.14684670340E-01  0.18282420328E-01  0.10200019908E+01  0.10197212912E+01 0.  0.
     999903    2    3    3    0    0  0.60147783127E-01 -0.10260835946E+00 -0.43318870451E-01  0.12836298575E+00  0.21314322102E-01 0.  0.
         14    1    1    2    0    0 -0.47605868204E-02 -0.14684670340E-01 -0.18282420328E-01  0.23928009172E-01  0.00000000000E+00 0. -1.
     999901    1    3    3    0    0 -0.55387196307E-01  0.11729302980E+00  0.61601290779E-01  0.89163900508E+00  0.88000000000E+00 0.  1.
        -11    1    4    4    0    0  0.15005623349E-01 -0.45634254004E-01 -0.14689729819E-01  0.50236472346E-01  0.51100000000E-03 0. -1.
         11    1    4    4    0    0  0.45142159778E-01 -0.56974105457E-01 -0.28629140632E-01  0.78126513402E-01  0.51100000000E-03 0.  1.
</event>
<event>
 8    1  0.1131376E+005  0.1043930E+01  0.7957747E-01            NaN
         13   -1    0    0    0    0  0.00000000000E+00  0.00000000000E+00  0.74505805969E-08  0.10566000000E+00  0.10566000000E+00 0. -1.
     999900   -1    0    0    0    0 -0.00000000000E+00 -0.00000000000E+00 -0.74505805969E-08  0.93827000000E+00  0.93827000000E+00 0. -1.
     999902    2    1    2    0    0  0.79728975975E-02 -0.21673526370E-01  0.50613657499E-02  0.10202883786E+01  0.10200144358E+01 0.  0.
     999903    2    3    3    0    0  0.64665183875E-01  0.95297208980E-01  0.54752060820E-01  0.12935328921E+00  0.21710394275E-01 0.  0.
         14    1    1    2    0    0 -0.79728975975E-02  0.21673526370E-01 -0.50613657499E-02  0.23641621447E-01  0.00000000000E+00 0. -1.
     999901    1    3    3    0    0 -0.56692286278E-01 -0.11697073535E+00 -0.49690695071E-01  0.89093508935E+00  0.88000000000E+00 0.  1.
        -11    1    4    4    0    0  0.52734673083E-01  0.79837934119E-01  0.35872832113E-01  0.10218690070E+00  0.51100000000E-03 0.  1.
         11    1    4    4    0    0  0.11930510793E-01  0.15459274860E-01  0.18879228708E-01  0.27166388508E-01  0.51100000000E-03 0. -1.
</event>
<event>
 8    1  0.1131376E+005  0.1043930E+01  0.7957747E-01            NaN
         13   -1    0    0    0    0  0.00000000000E+00  0.00000000000E+00  0.74505805969E-08  0.10566000000E+00  0.10566000000E+00 0.  1.
     999900   -1    0    0    0    0 -0.00000000000E+00 -0.00000000000E+00 -0.74505805969E-08  0.93827000000E+00  0.93827000000E+00 0. -1.
     999902    2    1    2    0    0  0.23551867089E-01  0.73009712588E-02 -0.88526618396E-03  0.10192565665E+01  0.10189578843E+01 0.  0.
     999903    2    3    3    0    0  0.82521266956E-01  0.94713015244E-01 -0.36077277488E-01  0.13226348128E+00  0.20291470459E-01 0.  0.
         14    1    1    2    0    0 -0.23551867089E-01 -0.73009712588E-02  0.88526618396E-03  0.24673433505E-01  0.00000000000E+00 0. -1.
     999901    1    3    3    0    0 -0.58969399867E-01 -0.87412043985E-01  0.35192011304E-01  0.88699308521E+00  0.88000000000E+00 0.  1.
        -11    1    4    4    0    0  0.52576186806E-01  0.70572446860E-01 -0.31731451307E-01  0.93551439315E-01  0.51100000000E-03 0. -1.
         11    1    4    4    0    0  0.29945080151E-01  0.24140568384E-01 -0.43458261810E-02  0.38712041968E-01  0.51100000000E-03 0.  1.
</event>
<event>
 8    1  0.1131376E+005  0.1043930E+01  0.7957747E-01            NaN
         13   -1    0    0    0    0  0.00000000000E+00  0.00000000000E+00  0.74505805969E-08  0.10566000000E+00  0.10566000000E+00 0. -1.
     999900   -1    0    0    0    0 -0.00000000000E+00 -0.00000000000E+00 -0.74505805969E-08  0.93827000000E+00  0.93827000000E+00 0.  1.
     999902    2    1    2    0    0  0.11902922594E-01  0.19184235339E-01  0.84626606017E-02  0.10198191917E+01  0.10195341351E+01 0.  0.
     999903    2    3    3    0    0  0.61294360719E-01  0.11570518330E+00 -0.13124134096E-01  0.13290217346E+00  0.18602599713E-01 0.  0.
         14    1    1    2    0    0 -0.11902922594E-01 -0.19184235339E-01 -0.84626606017E-02  0.24110808287E-01  0.00000000000E+00 0. -1.
     999901    1    3    3    0    0 -0.49391438125E-01 -0.96520947965E-01  0.21586794697E-01  0.88691701825E+00  0.88000000000E+00 0. -1.
        -11    1    4    4    0    0  0.64963464893E-02  0.26097093167E-01  0.10188935204E-02  0.26917653213E-01  0.51100000000E-03 0.  1.
         11    1    4    4    0    0  0.54798014230E-01  0.89608090136E-01 -0.14143027616E-01  0.10598452025E+00  0.51100000000E-03 0. -1.
</event>
<event>
 8    1  0.1131376E+005  0.1043930E+01  0.7957747E-01            NaN
         13   -1    0    0    0    0  0.00000000000E+00  0.00000000000E+00  0.74505805969E-08  0.10566000000E+00  0.10566000000E+00 0.  1.
     999900   -1    0    0    0    0 -0.00000000000E+00 -0.00000000000E+00 -0.74505805969E-08  0.93827000000E+00  0.93827000000E+00 0. -1.
     999902    2    1    2    0    0 -0.17334711349E-01 -0.59053318919E-02 -0.14713076665E-01  0.10204387296E+01  0.10201683003E+01 0.  0.
     999903    2    3    3    0    0 -0.10393449307E+00  0.20776430732E-01  0.75157387095E-01  0.13123226370E+00  0.18418340798E-01 0.  0.
         14    1    1    2    0    0  0.17334711349E-01  0.59053318919E-02  0.14713076665E-01  0.23491270448E-01  0.00000000000E+00 0.  1.
     999901    1    3    3    0    0  0.86599781723E-01 -0.26681762624E-01 -0.89870463760E-01  0.88920646585E+00  0.88000000000E+00 0. -1.
        -11    1    4    4    0    0 -0.63459677467E-01  0.19167978802E-01  0.54157149883E-01  0.85602570522E-01  0.51100000000E-03 0.  1.
         11    1    4    4    0    0 -0.40474815605E-01  0.16084519299E-02  0.21000237212E-01  0.45629693181E-01  0.51100000000E-03 0. -1.
</event>
<event>
 8    1  0.1131376E+005  0.1043930E+01  0.7957747E-01            NaN
         13   -1    0    0    0    0  0.00000000000E+00  0.00000000000E+00  0.74505805969E-08  0.10566000000E+00  0.10566000000E+00 0. -1.
     999900   -1    0    0    0    0 -0.00000000000E+00 -0.00000000000E+00 -0.74505805969E-08  0.93827000000E+00  0.93827000000E+00 0.  1.
     999902    2    1    2    0    0 -0.25939680091E-02 -0.19055352663E-01  0.14644206331E-01  0.10197579518E+01  0.10194714279E+01 0.  0.
     999903    2    3    3    0    0 -0.53385558911E-01 -0.11642828221E+00 -0.28106558475E-01  0.13190160024E+00  0.14229923310E-01 0.  0.
         14    1    1    2    0    0  0.25939680091E-02  0.19055352663E-01 -0.14644206331E-01  0.24172048200E-01  0.00000000000E+00 0. -1.
     999901    1    3    3    0    0  0.50791590902E-01  0.97372929549E-01  0.42750764806E-01  0.88785635156E+00  0.88000000000E+00 0.  1.
        -11    1    4    4    0    0 -0.24781197372E-01 -0.55835204433E-01 -0.61964289601E-02  0.61403050821E-01  0.51100000000E-03 0. -1.
         11    1    4    4    0    0 -0.28604361539E-01 -0.60593077778E-01 -0.21910129515E-01  0.70498549418E-01  0.51100000000E-03 0.  1.
</event>
<event>
 8    1  0.1131376E+005  0.1043930E+01  0.7957747E-01            NaN
         13   -1    0    0    0    0  0.00000000000E+00  0.00000000000E+00  0.74505805969E-08  0.10566000000E+00  0.10566000000E+00 0.  1.
     999900   -1    0    0    0    0 -0.00000000000E+00 -0.00000000000E+00 -0.74505805969E-08  0.93827000000E+00  0.93827000000E+00 0.  1.
     999902    2    1    2    0    0  0.15594537743E-01  0.77122402573E-02  0.16867073297E-01  0.10196984829E+01  0.10194105305E+01 0.  0.
     999903    2    3    3    0    0  0.11230983997E+00 -0.59564909989E-01  0.28632445751E-01  0.13176915658E+00  0.19540087486E-01 0.  0.
         14    1    1    2    0    0 -0.15594537743E-01 -0.77122402573E-02 -0.16867073297E-01  0.24231517055E-01  0.00000000000E+00 0. -1.
     999901    1    3    3    0    0 -0.96715302231E-01  0.67277150246E-01 -0.11765372454E-01  0.88792932637E+00  0.88000000000E+00 0. -1.
        -11    1    4    4    0    0  0.46734629451E-01 -0.34018187557E-01  0.18318347580E-01  0.60639802553E-01  0.51100000000E-03 0.  1.
         11    1    4    4    0    0  0.65575210523E-01 -0.25546722432E-01  0.10314098170E-01  0.71129354026E-01  0.51100000000E-03 0. -1.
</event>
<event>
 8    1  0.1131376E+005  0.1043930E+01  0.7957747E-01            NaN
         13   -1    0    0    0    0  0.00000000000E+00  0.00000000000E+00  0.74505805969E-08  0.10566000000E+00  0.10566000000E+00 0. -1.
     999900   -1    0    0    0    0 -0.00000000000E+00 -0.00000000000E+00 -0.74505805969E-08  0.93827000000E+00  0.93827000000E+00 0. -1.
     999902    2    1    2    0    0  0.19671049206E-01 -0.95804955625E-02 -0.72558889085E-02  0.10208782323E+01  0.10206179408E+01 0.  0.
     999903    2    3    3    0    0 -0.90000054817E-01 -0.19114555507E-01 -0.90001040091E-01  0.13016761180E+00  0.19443349629E-01 0.  0.
         14    1    1    2    0    0 -0.19671049206E-01  0.95804955625E-02  0.72558889085E-02  0.23051767740E-01  0.00000000000E+00 0. -1.
     999901    1    3    3    0    0  0.10967110402E+00  0.95340599445E-02  0.82745151182E-01  0.89071062046E+00  0.88000000000E+00 0.  1.
        -11    1    4    4    0    0 -0.21641272474E-01 -0.15079901549E-02 -0.32709132037E-01  0.39252606897E-01  0.51100000000E-03 0. -1.
         11    1    4    4    0    0 -0.68358782343E-01 -0.17606565352E-01 -0.57291908054E-01  0.90915004902E-01  0.51100000000E-03 0.  1.
</event>
<event>
 8    1  0.1131376E+005  0.1043930E+01  0.7957747E-01            NaN
         13   -1    0    0    0    0  0.00000000000E+00  0.00000000000E+00  0.74505805969E-08  0.10566000000E+00  0.10566000000E+00 0.  1.
     999900   -1    0    0    0    0 -0.00000000000E+00 -0.00000000000E+00 -0.74505805969E-08  0.93827000000E+00  0.93827000000E+00 0. -1.
     999902    2    1    2    0    0 -0.53122409196E-02  0.18549402631E-01 -0.11805091851E-01  0.10213100876E+01  0.10210595647E+01 0.  0.
     999903    2    3    3    0    0 -0.10244780503E+00 -0.30608649368E-01  0.72220670701E-01  0.13062935884E+00  0.20390241344E-01 0.  0.
         14    1    1    2    0    0  0.53122409196E-02 -0.18549402631E-01  0.11805091851E-01  0.22619912360E-01  0.00000000000E+00 0.  1.
     999901    1    3    3    0    0  0.97135564109E-01  0.49158052000E-01 -0.84025762552E-01  0.89068072880E+00  0.88000000000E+00 0. -1.
        -11    1    4    4    0    0 -0.10998491044E-01 -0.17926179911E-02  0.10217517381E-02  0.11202025804E-01  0.51100000000E-03 0.  1.
         11    1    4    4    0    0 -0.91449313985E-01 -0.28816031377E-01  0.71198918963E-01  0.11942733303E+00  0.51100000000E-03 0. -1.
</event>
<event>
 8    1  0.1131376E+005  0.1043930E+01  0.7957747E-01            NaN
         13   -1    0    0    0    0  0.00000000000E+00  0.00000000000E+00  0.74505805969E-08  0.10566000000E+00  0.10566000000E+00 0. -1.
     999900   -1    0    0    0    0 -0.00000000000E+00 -0.00000000000E+00 -0.74505805969E-08  0.93827000000E+00  0.93827000000E+00 0. -1.
     999902    2    1    2    0    0 -0.13299076643E-02  0.66759888598E-02 -0.22645514712E-01  0.10202835030E+01  0.10200094459E+01 0.  0.
     999903    2    3    3    0    0  0.56637881690E-01 -0.30139358972E-01  0.10872869631E+00  0.12788515155E+00  0.20407155206E-01 0.  0.
         14    1    1    2    0    0  0.13299076643E-02 -0.66759888598E-02  0.22645514712E-01  0.23646496954E-01  0.00000000000E+00 0. -1.
     999901    1    3    3    0    0 -0.57967789354E-01  0.36815347832E-01 -0.13137421102E+00  0.89239835150E+00  0.88000000000E+00 0. -1.
        -11    1    4    4    0    0  0.27305839956E-02 -0.70589694193E-02  0.21300249504E-01  0.22610769296E-01  0.51100000000E-03 0.  1.
         11    1    4    4    0    0  0.53907297694E-01 -0.23080389553E-01  0.87428446803E-01  0.10527438225E+00  0.51100000000E-03 0. -1.
</event>
<event>
 8    1  0.1131376E+005  0.1043930E+01  0.7957747E-01            NaN
         13   -1    0    0    0    0  0.00000000000E+00  0.00000000000E+00  0.74505805969E-08  0.10566000000E+00  0.10566000000E+00 0. -1.
     999900   -1    0    0    0    0 -0.00000000000E+00 -0.00000000000E+00 -0.74505805969E-08  0.93827000000E+00  0.93827000000E+00 0.  1.
     999902    2    1    2    0    0  0.12825036113E-01  0.13143017016E-01 -0.15797631114E-01  0.10197063422E+01  0.10194185788E+01 0.  0.
     999903    2    3    3    0    0  0.12198586616E-01 -0.66461354057E-01  0.10642803007E+00  0.12769941367E+00  0.20354300956E-01 0.  0.
         14    1    1    2    0    0 -0.12825036113E-01 -0.13143017016E-01  0.15797631114E-01  0.24223657783E-01  0.00000000000E+00 0. -1.
     999901    1    3    3    0    0  0.62644949677E-03  0.79604371073E-01 -0.12222566118E+00  0.89200692855E+00  0.88000000000E+00 0.  1.
        -11    1    4    4    0    0 -0.56698397205E-02 -0.18404023244E-01  0.30801428696E-01  0.36329661225E-01  0.51100000000E-03 0.  1.
         11    1    4    4    0    0  0.17868426337E-01 -0.48057330813E-01  0.75626601374E-01  0.91369752440E-01  0.51100000000E-03 0. -1.
</event>
<event>
 8    1  0.1131376E+005  0.1043930E+01  0.7957747E-01            NaN
         13   -1    0    0    0    0  0.00000000000E+00  0.00000000000E+00  0.74505805969E-08  0.10566000000E+00  0.10566000000E+00 0.  1.
     999900   -1    0    0    0    0 -0.00000000000E+00 -0.00000000000E+00 -0.74505805969E-08  0.93827000000E+00  0.93827000000E+00 0. -1.
     999902    2    1    2    0    0  0.20885570071E-01  0.80526994278E-02  0.67961494445E-02  0.10205368247E+01  0.10202686753E+01 0.  0.
     999903    2    3    3    0    0  0.22825482649E-01  0.12627701115E+00  0.25806162213E-01  0.13242527101E+00  0.20090002272E-01 0.  0.
         14    1    1    2    0    0 -0.20885570071E-01 -0.80526994278E-02 -0.67961494445E-02  0.23393175341E-01  0.00000000000E+00 0.  1.
     999901    1    3    3    0    0 -0.19399125782E-02 -0.11822431172E+00 -0.19010012768E-01  0.88811155365E+00  0.88000000000E+00 0.  1.
        -11    1    4    4    0    0  0.20906627061E-01  0.73974613305E-01  0.87196106204E-02  0.77366809415E-01  0.51100000000E-03 0.  1.
         11    1    4    4    0    0  0.19188555884E-02  0.52302397841E-01  0.17086551592E-01  0.55058461593E-01  0.51100000000E-03 0. -1.
</event>
<event>
 8    1  0.1131376E+005  0.1043930E+01  0.7957747E-01            NaN
         13   -1    0    0    0    0  0.00000000000E+00  0.00000000000E+00  0.74505805969E-08  0.10566000000E+00  0.10566000000E+00 0.  1.
     999900   -1    0    0    0    0 -0.00000000000E+00 -0.00000000000E+00 -0.74505805969E-08  0.93827000000E+00  0.93827000000E+00 0. -1.
     999902    2    1    2    0    0  0.14632070888E-01  0.16652491798E-01  0.84581657360E-02  0.10202035686E+01  0.10199276336E+01 0.  0.
     999903    2    3    3    0    0  0.29204496745E-01 -0.67399689379E-01 -0.10368790608E+00  0.12899435284E+00  0.22197757520E-01 0.  0.
         14    1    1    2    0    0 -0.14632070888E-01 -0.16652491798E-01 -0.84581657360E-02  0.23726431446E-01  0.00000000000E+00 0. -1.
     999901    1    3    3    0    0 -0.14572425857E-01  0.84052181177E-01  0.11214607181E+00  0.89120921572E+00  0.88000000000E+00 0. -1.
        -11    1    4    4    0    0  0.29576627640E-01 -0.60660858814E-01 -0.81601959168E-01  0.10589455867E+00  0.51100000000E-03 0. -1.
         11    1    4    4    0    0 -0.37213089506E-03 -0.67388305648E-02 -0.22085946908E-01  0.23099794168E-01  0.51100000000E-03 0.  1.
</event>
<event>
 8    1  0.1131376E+005  0.1043930E+01  0.7957747E-01            NaN
         13   -1    0    0    0    0  0.00000000000E+00  0.00000000000E+00  0.74505805969E-08  0.10566000000E+00  0.10566000000E+00 0.  1.
     999900   -1    0    0    0    0 -0.00000000000E+00 -0.00000000000E+00 -0.74505805969E-08  0.93827000000E+00  0.93827000000E+00 0.  1.
     999902    2    1    2    0    0 -0.19726887546E-01 -0.10284950844E-01  0.27143832434E-02  0.10215179902E+01  0.10212721019E+01 0.  0.
     999903    2    3    3    0    0 -0.12413767466E+00 -0.36304317561E-01  0.30927339013E-01  0.13451483871E+00  0.20237978948E-01 0.  0.
         14    1    1    2    0    0  0.19726887546E-01  0.10284950844E-01 -0.27143832434E-02  0.22412009783E-01  0.00000000000E+00 0. -1.
     999901    1    3    3    0    0  0.10441078711E+00  0.26019366717E-01 -0.28212955770E-01  0.88700315151E+00  0.88000000000E+00 0. -1.
        -11    1    4    4    0    0 -0.11156072036E+00 -0.29575617346E-01  0.33121682699E-01  0.12007422061E+00  0.51100000000E-03 0.  1.
         11    1    4    4    0    0 -0.12576954293E-01 -0.67287002153E-02 -0.21943436854E-02  0.14440618099E-01  0.51100000000E-03 0. -1.
</event>
<event>
 8    1  0.1131376E+005  0.1043930E+01  0.7957747E-01            NaN
         13   -1    0    0    0    0  0.00000000000E+00  0.00000000000E+00  0.74505805969E-08  0.10566000000E+00  0.10566000000E+00 0.  1.
     999900   -1    0    0    0    0 -0.00000000000E+00 -0.00000000000E+00 -0.74505805969E-08  0.93827000000E+00  0.93827000000E+00 0.  1.
     999902    2    1    2    0    0 -0.22447104676E-01  0.88148424878E-02  0.23429935706E-02  0.10197006051E+01  0.10194127037E+01 0.  0.
     999903    2    3    3    0    0 -0.11672539579E+00 -0.58449176337E-01  0.48420494317E-02  0.13210886921E+00  0.19702376649E-01 0.  0.
         14    1    1    2    0    0  0.22447104676E-01 -0.88148424878E-02 -0.23429935706E-02  0.24229394860E-01  0.00000000000E+00 0.  1.
     999901    1    3    3    0    0  0.94278291113E-01  0.67264018825E-01 -0.24990558612E-02  0.88759173593E+00  0.88000000000E+00 0.  1.
        -11    1    4    4    0    0 -0.67598066618E-01 -0.43646835501E-01  0.68574719469E-02  0.80757853502E-01  0.51100000000E-03 0.  1.
         11    1    4    4    0    0 -0.49127329171E-01 -0.14802340836E-01 -0.20154225152E-02  0.51351015712E-01  0.51100000000E-03 0. -1.
</event>
<event>
 8    1  0.1131376E+005  0.1043930E+01  0.7957747E-01            NaN
         13   -1    0    0    0    0  0.00000000000E+00  0.00000000000E+00  0.74505805969E-08  0.10566000000E+00  0.10566000000E+00 0.  1.
     999900   -1    0    0    0    0 -0.00000000000E+00 -0.00000000000E+00 -0.74505805969E-08  0.93827000000E+00  0.93827000000E+00 0.  1.
     999902    2    1    2    0    0  0.11108642644E-01 -0.19103511517E-01  0.73482775569E-02  0.10206417352E+01  0.10203760132E+01 0.  0.
     999903    2    3    3    0    0  0.30129663822E-01 -0.12673988937E+00  0.22747382741E-01  0.13374573143E+00  0.19992024766E-01 0.  0.
         14    1    1    2    0    0 -0.11108642644E-01  0.19103511517E-01 -0.73482775569E-02  0.23288264786E-01  0.00000000000E+00 0. -1.
     999901    1    3    3    0    0 -0.19021021178E-01  0.10763637786E+00 -0.15399105184E-01  0.88689600378E+00  0.88000000000E+00 0.  1.
        -11    1    4    4    0    0  0.12209339691E-02 -0.26426534650E-01  0.11126524313E-01  0.28703886107E-01  0.51100000000E-03 0.  1.
         11    1    4    4    0    0  0.28908729853E-01 -0.10031335472E+00  0.11620858427E-01  0.10504184532E+00  0.51100000000E-03 0. -1.
</event>
<event>
 8    1  0.1131376E+005  0.1043930E+01  0.7957747E-01            NaN
         13   -1    0    0    0    0  0.00000000000E+00  0.00000000000E+00  0.74505805969E-08  0.10566000000E+00  0.10566000000E+00 0. -1.
     999900   -1    0    0    0    0 -0.00000000000E+00 -0.00000000000E+00 -0.74505805969E-08  0.93827000000E+00  0.93827000000E+00 0.  1.
     999902    2    1    2    0    0  0.51637173298E-02 -0.21767331557E-01 -0.39801941405E-02  0.10212072659E+01  0.10209544345E+01 0.  0.
     999903    2    3    3    0    0 -0.11506575503E+00 -0.39652250044E-01 -0.48076926515E-01  0.13175826897E+00  0.15376009330E-01 0.  0.
         14    1    1    2    0    0 -0.51637173298E-02  0.21767331557E-01  0.39801941405E-02  0.22722734104E-01  0.00000000000E+00 0. -1.
     999901    1    3    3    0    0  0.12022947236E+00  0.17884918487E-01  0.44096732374E-01  0.88944899693E+00  0.88000000000E+00 0.  1.
        -11    1    4    4    0    0 -0.17814959848E-01 -0.35404370549E-02 -0.21183852228E-02  0.18293609974E-01  0.51100000000E-03 0.  1.
         11    1    4    4    0    0 -0.97250795185E-01 -0.36111812989E-01 -0.45958541292E-01  0.11346465899E+00  0.51100000000E-03 0. -1.
</event>
<event>
 8    1  0.1131376E+005  0.1043930E+01  0.7957747E-01            NaN
         13   -1    0    0    0    0  0.00000000000E+00  0.00000000000E+00  0.74505805969E-08  0.10566000000E+00  0.10566000000E+00 0. -1.
     999900   -1    0    0    0    0 -0.00000000000E+00 -0.00000000000E+00 -0.74505805969E-08  0.93827000000E+00  0.93827000000E+00 0.  1.
     999902    2    1    2    0    0  0.50455546488E-03 -0.44008294058E-02 -0.22125127600E-01  0.10213657994E+01  0.10211165228E+01 0.  0.
     999903    2    3    3    0    0 -0.35784254296E-01  0.12397325458E+00  0.12658380745E-01  0.13063201451E+00  0.15956437790E-01 0.  0.
         14    1    1    2    0    0 -0.50455546488E-03  0.44008294058E-02  0.22125127600E-01  0.22564200562E-01  0.00000000000E+00 0. -1.
     999901    1    3    3    0    0  0.36288809761E-01 -0.12837408398E+00 -0.34783508346E-01  0.89073378492E+00  0.88000000000E+00 0.  1.
        -11    1    4    4    0    0 -0.11012186181E-01  0.65882301394E-01  0.85648676361E-02  0.67345110885E-01  0.51100000000E-03 0.  1.
         11    1    4    4    0    0 -0.24772068115E-01  0.58090953183E-01  0.40935131094E-02  0.63286903629E-01  0.51100000000E-03 0. -1.
</event>
<event>
 8    1  0.1131376E+005  0.1043930E+01  0.7957747E-01            NaN
         13   -1    0    0    0    0  0.00000000000E+00  0.00000000000E+00  0.74505805969E-08  0.10566000000E+00  0.10566000000E+00 0. -1.
     999900   -1    0    0    0    0 -0.00000000000E+00 -0.00000000000E+00 -0.74505805969E-08  0.93827000000E+00  0.93827000000E+00 0. -1.
     999902    2    1    2    0    0 -0.14164849559E-02  0.24466060968E-02  0.23677377887E-01  0.10200844441E+01  0.10198056985E+01 0.  0.
     999903    2    3    3    0    0 -0.68455173176E-01  0.39419867193E-01  0.10514088927E+00  0.13301200547E+00  0.19938664407E-01 0.  0.
         14    1    1    2    0    0  0.14164849559E-02 -0.24466060968E-02 -0.23677377887E-01  0.23845555867E-01  0.00000000000E+00 0.  1.
     999901    1    3    3    0    0  0.67038688220E-01 -0.36973261096E-01 -0.81463511380E-01  0.88707243867E+00  0.88000000000E+00 0. -1.
        -11    1    4    4    0    0 -0.80663232781E-03  0.58388770270E-02  0.85805369078E-02  0.10422565676E-01  0.51100000000E-03 0. -1.
         11    1    4    4    0    0 -0.67648540848E-01  0.33580990166E-01  0.96560352359E-01  0.12258943979E+00  0.51100000000E-03 0.  1.
</event>
<event>
 8    1  0.1131376E+005  0.1043930E+01  0.7957747E-01            NaN
         13   -1    0    0    0    0  0.00000000000E+00  0.00000000000E+00  0.74505805969E-08  0.10566000000E+00  0.10566000000E+00 0. -1.
     999900   -1    0    0    0    0 -0.00000000000E+00 -0.00000000000E+00 -0.74505805969E-08  0.93827000000E+00  0.93827000000E+00 0. -1.
     999902    2    1    2    0    0 -0.16161258646E-01  0.13537229724E-01 -0.91271527802E-02  0.10209572381E+01  0.10206987481E+01 0.  0.
     999903    2    3    3    0    0  0.89308464258E-02 -0.90491590953E-02 -0.12992913931E+00  0.13206304947E+00  0.19935408086E-01 0.  0.
         14    1    1    2    0    0  0.16161258646E-01 -0.13537229724E-01  0.91271527802E-02  0.22972761860E-01  0.00000000000E+00 0.  1.
     999901    1    3    3    0    0 -0.25092105071E-01  0.22586388819E-01  0.12080198653E+00  0.88889418867E+00  0.88000000000E+00 0.  1.
        -11    1    4    4    0    0 -0.58414629013E-02 -0.63059117834E-02 -0.47521605715E-01  0.48295458824E-01  0.51100000000E-03 0.  1.
         11    1    4    4    0    0  0.14772309327E-01 -0.27432473119E-02 -0.82407533596E-01  0.83767590649E-01  0.51100000000E-03 0. -1.
</event>
<event>
 8    1  0.1131376E+005  0.1043930E+01  0.7957747E-01            NaN
         13   -1    0    0    0    0  0.00000000000E+00  0.00000000000E+00  0.74505805969E-08  0.10566000000E+00  0.10566000000E+00 0. -1.
     999900   -1    0    0    0    0 -0.00000000000E+00 -0.00000000000E+00 -0.74505805969E-08  0.93827000000E+00  0.93827000000E+00 0.  1.
     999902    2    1    2    0    0  0.20952846330E-01 -0.75482351203E-04 -0.11391055206E-01  0.10200808154E+01  0.10198019839E+01 0.  0.
     999903    2    3    3    0    0  0.12187926186E+00  0.17484845371E-01 -0.47425365729E-01  0.13340557723E+00  0.19687773671E-01 0.  0.
         14    1    1    2    0    0 -0.20952846330E-01  0.75482351203E-04  0.11391055206E-01  0.23849184591E-01  0.00000000000E+00 0. -1.
     999901    1    3    3    0    0 -0.10092641553E+00 -0.17560327723E-01  0.36034310523E-01  0.88667523818E+00  0.88000000000E+00 0. -1.
        -11    1    4    4    0    0  0.37004609071E-01  0.57099532823E-02 -0.24339555752E-01  0.44661166064E-01  0.51100000000E-03 0.  1.
         11    1    4    4    0    0  0.84874652792E-01  0.11774892089E-01 -0.23085809977E-01  0.88744411168E-01  0.51100000000E-03 0. -1.
</event>
<event>
 8    1  0.1131376E+005  0.1043930E+01  0.7957747E-01            NaN
         13   -1    0    0    0    0  0.00000000000E+00  0.00000000000E+00  0.74505805969E-08  0.10566000000E+00  0.10566000000E+00 0. -1.
     999900   -1    0    0    0    0 -0.00000000000E+00 -0.00000000000E+00 -0.74505805969E-08  0.93827000000E+00  0.93827000000E+00 0. -1.
     999902    2    1    2    0    0 -0.19104225579E-01  0.12835709770E-04 -0.20210479811E-01  0.10161192989E+01  0.10157386448E+01 0.  0.
     999903    2    3    3    0    0  0.77840680541E-01  0.88214646879E-01  0.35969773292E-01  0.12464069843E+00  0.20012087420E-01 0.  0.
         14    1    1    2    0    0  0.19104225579E-01 -0.12835709770E-04  0.20210479811E-01  0.27810701069E-01  0.00000000000E+00 0. -1.
     999901    1    3    3    0    0 -0.96944906120E-01 -0.88201811169E-01 -0.56180253104E-01  0.89147860050E+00  0.88000000000E+00 0. -1.
        -11    1    4    4    0    0  0.30165819730E-01  0.22072029813E-01  0.16209863901E-01  0.40745208169E-01  0.51100000000E-03 0.  1.
         11    1    4    4    0    0  0.47674860812E-01  0.66142617066E-01  0.19759909391E-01  0.83895490259E-01  0.51100000000E-03 0. -1.
</event>
<event>
 8    1  0.1131376E+005  0.1043930E+01  0.7957747E-01            NaN
         13   -1    0    0    0    0  0.00000000000E+00  0.00000000000E+00  0.74505805969E-08  0.10566000000E+00  0.10566000000E+00 0.  1.
     999900   -1    0    0    0    0 -0.00000000000E+00 -0.00000000000E+00 -0.74505805969E-08  0.93827000000E+00  0.93827000000E+00 0.  1.
     999902    2    1    2    0    0  0.10601924442E-01  0.24459470437E-01  0.53763780768E-02  0.10167349281E+01  0.10163711635E+01 0.  0.
     999903    2    3    3    0    0  0.57139879447E-01 -0.26729718736E-01  0.10934742334E+00  0.12791768443E+00  0.20655055333E-01 0.  0.
         14    1    1    2    0    0 -0.10601924442E-01 -0.24459470437E-01 -0.53763780768E-02  0.27195071928E-01  0.00000000000E+00 0. -1.
     999901    1    3    3    0    0 -0.46537955005E-01  0.51189189174E-01 -0.10397104527E+00  0.88881724364E+00  0.88000000000E+00 0.  1.
        -11    1    4    4    0    0  0.15647517866E-01 -0.11671658406E-01  0.18434857095E-01  0.26854748229E-01  0.51100000000E-03 0. -1.
         11    1    4    4    0    0  0.41492361581E-01 -0.15058060330E-01  0.90912566248E-01  0.10106293620E+00  0.51100000000E-03 0.  1.
</event>
<event>
 8    1  0.1131376E+005  0.1043930E+01  0.7957747E-01            NaN
         13   -1    0    0    0    0  0.00000000000E+00  0.00000000000E+00  0.74505805969E-08  0.10566000000E+00  0.10566000000E+00 0. -1.
     999900   -1    0    0    0    0 -0.00000000000E+00 -0.00000000000E+00 -0.74505805969E-08  0.93827000000E+00  0.93827000000E+00 0.  1.
     999902    2    1    2    0    0 -0.13776324091E-01  0.16926437872E-01  0.10067572310E-01  0.10198957033E+01  0.10196124745E+01 0.  0.
     999903    2    3    3    0    0 -0.43699766228E-01  0.46557354758E-01 -0.11194658146E+00  0.13047968292E+00  0.20387587000E-01 0.  0.
         14    1    1    2    0    0  0.13776324091E-01 -0.16926437872E-01 -0.10067572310E-01  0.24034296677E-01  0.00000000000E+00 0.  1.
     999901    1    3    3    0    0  0.29923442137E-01 -0.29630916885E-01  0.12201415377E+00  0.88941602040E+00  0.88000000000E+00 0. -1.
        -11    1    4    4    0    0 -0.32260889389E-01  0.21146272646E-01 -0.56378752751E-01  0.68313649542E-01  0.51100000000E-03 0. -1.
         11    1    4    4    0    0 -0.11438876839E-01  0.25411082112E-01 -0.55567828713E-01  0.62166033381E-01  0.51100000000E-03 0.  1.
</event>
<event>
 8    1  0.1131376E+005  0.1043930E+01  0.7957747E-01            NaN
         13   -1    0    0    0    0  0.00000000000E+00  0.00000000000E+00  0.74505805969E-08  0.10566000000E+00  0.10566000000E+00 0. -1.
     999900   -1    0    0    0    0 -0.00000000000E+00 -0.00000000000E+00 -0.74505805969E-08  0.93827000000E+00  0.93827000000E+00 0.  1.
     999902    2    1    2    0    0  0.16899664624E-01  0.71953483262E-02  0.13554902045E-01  0.10211022303E+01  0.10208470295E+01 0.  0.
     999903    2    3    3    0    0  0.75332908172E-01 -0.10592870013E+00 -0.69376297113E-02  0.13170274850E+00  0.20038630005E-01 0.  0.
         14    1    1    2    0    0 -0.16899664624E-01 -0.71953483262E-02 -0.13554902045E-01  0.22827769742E-01  0.00000000000E+00 0.  1.
     999901    1    3    3    0    0 -0.58433243548E-01  0.11312404845E+00  0.20492531757E-01  0.88939948176E+00  0.88000000000E+00 0.  1.
        -11    1    4    4    0    0  0.42011943277E-01 -0.68371323129E-01  0.38696318341E-02  0.80342245275E-01  0.51100000000E-03 0. -1.
         11    1    4    4    0    0  0.33320964895E-01 -0.37557376999E-01 -0.10807261545E-01  0.51360503226E-01  0.51100000000E-03 0.  1.
</event>
<event>
 8    1  0.1131376E+005  0.1043930E+01  0.7957747E-01            NaN
         13   -1    0    0    0    0  0.00000000000E+00  0.00000000000E+00  0.74505805969E-08  0.10566000000E+00  0.10566000000E+00 0.  1.
     999900   -1    0    0    0    0 -0.00000000000E+00 -0.00000000000E+00 -0.74505805969E-08  0.93827000000E+00  0.93827000000E+00 0.  1.
     999902    2    1    2    0    0 -0.17211895154E-01  0.15611638182E-01 -0.49826159773E-02  0.10201644989E+01  0.10198876437E+01 0.  0.
     999903    2    3    3    0    0  0.10538069557E+00 -0.48058836628E-01 -0.51208643380E-01  0.12818932082E+00  0.19885523344E-01 0.  0.
         14    1    1    2    0    0  0.17211895154E-01 -0.15611638182E-01  0.49826159773E-02  0.23765501120E-01  0.00000000000E+00 0. -1.
     999901    1    3    3    0    0 -0.12259259073E+00  0.63670474810E-01  0.46226027403E-01  0.89197517806E+00  0.88000000000E+00 0. -1.
        -11    1    4    4    0    0  0.65904764452E-01 -0.20835036727E-01 -0.35645766421E-01  0.77771579112E-01  0.51100000000E-03 0.  1.
         11    1    4    4    0    0  0.39475931119E-01 -0.27223799901E-01 -0.15562876960E-01  0.50417741709E-01  0.51100000000E-03 0. -1.
</event>
<event>
 8    1  0.1131376E+005  0.1043930E+01  0.7957747E-01            NaN
         13   -1    0    0    0    0  0.00000000000E+00  0.00000000000E+00  0.74505805969E-08  0.10566000000E+00  0.10566000000E+00 0.  1.
     999900   -1    0    0    0    0 -0.00000000000E+00 -0.00000000000E+00 -0.74505805969E-08  0.93827000000E+00  0.93827000000E+00 0.  1.
     999902    2    1    2    0    0 -0.10601729589E-01  0.16682041118E-02 -0.22527367640E-01  0.10189768065E+01  0.10186712277E+01 0.  0.
     999903    2    3    3    0    0 -0.10241210984E+00 -0.13835083322E-01 -0.79755541389E-01  0.13221609369E+00  0.20988074614E-01 0.  0.
         14    1    1    2    0    0  0.10601729589E-01 -0.16682041118E-02  0.22527367640E-01  0.24953193543E-01  0.00000000000E+00 0.  1.
     999901    1    3    3    0    0  0.91810380246E-01  0.15503287434E-01  0.57228173749E-01  0.88676071277E+00  0.88000000000E+00 0. -1.
        -11    1    4    4    0    0 -0.43353994936E-01  0.40988691408E-02 -0.29228474394E-01  0.52449351202E-01  0.51100000000E-03 0. -1.
         11    1    4    4    0    0 -0.59058114899E-01 -0.17933952463E-01 -0.50527066995E-01  0.79766742484E-01  0.51100000000E-03 0.  1.
</event>
<event>
 8    1  0.1131376E+005  0.1043930E+01  0.7957747E-01            NaN
         13   -1    0    0    0    0  0.00000000000E+00  0.00000000000E+00  0.74505805969E-08  0.10566000000E+00  0.10566000000E+00 0. -1.
     999900   -1    0    0    0    0 -0.00000000000E+00 -0.00000000000E+00 -0.74505805969E-08  0.93827000000E+00  0.93827000000E+00 0. -1.
     999902    2    1    2    0    0  0.69774815062E-03  0.21692591059E-01 -0.86255369803E-02  0.10205750166E+01  0.10203077523E+01 0.  0.
     999903    2    3    3    0    0  0.13936369547E-01 -0.12409402715E+00  0.19615114519E-01  0.12803564298E+00  0.20367208580E-01 0.  0.
         14    1    1    2    0    0 -0.69774815062E-03 -0.21692591059E-01  0.86255369803E-02  0.23354983355E-01  0.00000000000E+00 0. -1.
     999901    1    3    3    0    0 -0.13238621396E-01  0.14578661821E+00 -0.28240651499E-01  0.89253937366E+00  0.88000000000E+00 0. -1.
        -11    1    4    4    0    0  0.99570385776E-02 -0.43711048913E-01  0.15536354258E-01  0.47449318635E-01  0.51100000000E-03 0. -1.
         11    1    4    4    0    0  0.39793309692E-02 -0.80382978236E-01  0.40787602611E-02  0.80586324345E-01  0.51100000000E-03 0.  1.
</event>
<event>
 8    1  0.1131376E+005  0.1043930E+01  0.7957747E-01            NaN
         13   -1    0    0    0    0  0.00000000000E+00  0.00000000000E+00  0.74505805969E-08  0.10566000000E+00  0.10566000000E+00 0.  1.
     999900   -1    0    0    0    0 -0.00000000000E+00 -0.00000000000E+00 -0.74505805969E-08  0.93827000000E+00  0.93827000000E+00 0. -1.
     999902    2    1    2    0    0  0.12526746546E-01 -0.15139617611E-01 -0.13713771616E-01  0.10199676351E+01  0.10196861192E+01 0.  0.
     999903    2    3    3    0    0  0.11436468051E+00 -0.61598712419E-01  0.16184588635E-01  0.13237351375E+00  0.19675485067E-01 0.  0.
         14    1    1    2    0    0 -0.12526746546E-01  0.15139617611E-01  0.13713771616E-01  0.23962364916E-01  0.00000000000E+00 0.  1.
     999901    1    3    3    0    0 -0.10183793396E+00  0.46459094808E-01 -0.29898360251E-01  0.88759412134E+00  0.88000000000E+00 0. -1.
        -11    1    4    4    0    0  0.39038176758E-01 -0.28310262177E-01  0.13041220928E-01  0.49957829751E-01  0.51100000000E-03 0. -1.
         11    1    4    4    0    0  0.75326503753E-01 -0.33288450243E-01  0.31433677068E-02  0.82415683997E-01  0.51100000000E-03 0.  1.
</event>
<event>
 8    1  0.1131376E+005  0.1043930E+01  0.7957747E-01            NaN
         13   -1    0    0    0    0  0.00000000000E+00  0.00000000000E+00  0.74505805969E-08  0.10566000000E+00  0.10566000000E+00 0.  1.
     999900   -1    0    0    0    0 -0.00000000000E+00 -0.00000000000E+00 -0.74505805969E-08  0.93827000000E+00  0.93827000000E+00 0.  1.
     999902    2    1    2    0    0  0.16653748184E-01 -0.15709251152E-01  0.81955895906E-02  0.10196134297E+01  0.10193234278E+01 0.  0.
     999903    2    3    3    0    0 -0.11569789112E+00  0.39095963933E-01  0.30679841761E-01  0.12774678634E+00  0.21528871853E-01 0.  0.
         14    1    1    2    0    0 -0.16653748184E-01  0.15709251152E-01 -0.81955895906E-02  0.24316570257E-01  0.00000000000E+00 0. -1.
     999901    1    3    3    0    0  0.13235163930E+00 -0.54805215085E-01 -0.22484252171E-01  0.89186664341E+00  0.88000000000E+00 0. -1.
        -11    1    4    4    0    0 -0.87851284763E-01  0.27648339034E-01  0.13518125761E-01  0.93087484287E-01  0.51100000000E-03 0.  1.
         11    1    4    4    0    0 -0.27846606356E-01  0.11447624899E-01  0.17161716001E-01  0.34659302049E-01  0.51100000000E-03 0. -1.
</event>
<event>
 8    1  0.1131376E+005  0.1043930E+01  0.7957747E-01            NaN
         13   -1    0    0    0    0  0.00000000000E+00  0.00000000000E+00  0.74505805969E-08  0.10566000000E+00  0.10566000000E+00 0. -1.
     999900   -1    0    0    0    0 -0.00000000000E+00 -0.00000000000E+00 -0.74505805969E-08  0.93827000000E+00  0.93827000000E+00 0. -1.
     999902    2    1    2    0    0 -0.96531098983E-02 -0.23987232698E-01 -0.25069690434E-02  0.10179520332E+01  0.10176205026E+01 0.  0.
     999903    2    3    3    0    0  0.14940452118E-01 -0.89943567823E-01  0.90744998713E-01  0.13022966058E+00  0.20298945793E-01 0.  0.
         14    1    1    2    0    0  0.96531098983E-02  0.23987232698E-01  0.25069690434E-02  0.25977966760E-01  0.00000000000E+00 0.  1.
     999901    1    3    3    0    0 -0.24593562016E-01  0.65956335126E-01 -0.93251967756E-01  0.88772237266E+00  0.88000000000E+00 0. -1.
        -11    1    4    4    0    0  0.12954873890E-01 -0.26267334088E-01  0.23087341416E-01  0.37297292828E-01  0.51100000000E-03 0. -1.
         11    1    4    4    0    0  0.19855782277E-02 -0.63676233735E-01  0.67657657297E-01  0.92932367749E-01  0.51100000000E-03 0.  1.
</event>
<event>
 8    1  0.1131376E+005  0.1043930E+01  0.7957747E-01            NaN
         13   -1    0    0    0    0  0.00000000000E+00  0.00000000000E+00  0.74505805969E-08  0.10566000000E+00  0.10566000000E+00 0.  1.
     999900   -1    0    0    0    0 -0.00000000000E+00 -0.00000000000E+00 -0.74505805969E-08  0.93827000000E+00  0.93827000000E+00 0.  1.
     999902    2    1    2    0    0  0.16166280668E-01 -0.74983230180E-02 -0.15609749364E-01  0.10202395430E+01  0.10199644539E+01 0.  0.
     999903    2    3    3    0    0  0.43731079951E-01  0.67975114568E-01 -0.10283810228E+00  0.13228411420E+00  0.19758239661E-01 0.  0.
         14    1    1    2    0    0 -0.16166280668E-01  0.74983230180E-02  0.15609749364E-01  0.23690457022E-01  0.00000000000E+00 0.  1.
     999901    1    3    3    0    0 -0.27564799284E-01 -0.75473437586E-01  0.87228352920E-01  0.88795542878E+00  0.88000000000E+00 0. -1.
        -11    1    4    4    0    0  0.66634205576E-02  0.11413605538E-02 -0.82311673671E-02  0.10663822704E-01  0.51100000000E-03 0. -1.
         11    1    4    4    0    0  0.37067659394E-01  0.66833754014E-01 -0.94606934917E-01  0.12162029150E+00  0.51100000000E-03 0.  1.
</event>
<event>
 8    1  0.1131376E+005  0.1043930E+01  0.7957747E-01            NaN
         13   -1    0    0    0    0  0.00000000000E+00  0.00000000000E+00  0.74505805969E-08  0.10566000000E+00  0.10566000000E+00 0.  1.
     999900   -1    0    0    0    0 -0.00000000000E+00 -0.00000000000E+00 -0.74505805969E-08  0.93827000000E+00  0.93827000000E+00 0.  1.
     999902    2    1    2    0    0 -0.12771775361E-01 -0.16194978173E-01 -0.12214148061E-01  0.10199595812E+01  0.10196778738E+01 0.  0.
     999903    2    3    3    0    0 -0.16798175463E-01  0.94662420527E-01 -0.85203984894E-01  0.12999717132E+00  0.19909619546E-01 0.  0.
         14    1    1    2    0    0  0.12771775361E-01  0.16194978173E-01  0.12214148061E-01  0.23970418786E-01  0.00000000000E+00 0.  1.
     999901    1    3    3    0    0  0.40264001026E-02 -0.11085739870E+00  0.72989836833E-01  0.88996240989E+00  0.88000000000E+00 0. -1.
        -11    1    4    4    0    0 -0.95787078913E-02  0.16410461610E-01 -0.11264438110E-01  0.22095329417E-01  0.51100000000E-03 0. -1.
         11    1    4    4    0    0 -0.72194675720E-02  0.78251958917E-01 -0.73939546785E-01  0.10790184190E+00  0.51100000000E-03 0.  1.
</event>
<event>
 8    1  0.1131376E+005  0.1043930E+01  0.7957747E-01            NaN
         13   -1    0    0    0    0  0.00000000000E+00  0.00000000000E+00  0.74505805969E-08  0.10566000000E+00  0.10566000000E+00 0.  1.
     999900   -1    0    0    0    0 -0.00000000000E+00 -0.00000000000E+00 -0.74505805969E-08  0.93827000000E+00  0.93827000000E+00 0.  1.
     999902    2    1    2    0    0 -0.16436754793E-01 -0.53482271261E-02 -0.16155028145E-01  0.10202708501E+01  0.10199964961E+01 0.  0.
     999903    2    3    3    0    0 -0.28199727884E-01  0.25185962902E-01 -0.12579637427E+00  0.13286343006E+00  0.19960107403E-01 0.  0.
         14    1    1    2    0    0  0.16436754793E-01  0.53482271261E-02  0.16155028145E-01  0.23659149940E-01  0.00000000000E+00 0.  1.
     999901    1    3    3    0    0  0.11762973091E-01 -0.30534190028E-01  0.10964134612E+00  0.88740742000E+00  0.88000000000E+00 0. -1.
        -11    1    4    4    0    0 -0.12415549011E-01  0.24612885362E-02 -0.62674886748E-01  0.63942211006E-01  0.51100000000E-03 0.  1.
         11    1    4    4    0    0 -0.15784178873E-01  0.22724674365E-01 -0.63121487520E-01  0.68921219051E-01  0.51100000000E-03 0. -1.
</event>
<event>
 8    1  0.1131376E+005  0.1043930E+01  0.7957747E-01            NaN
         13   -1    0    0    0    0  0.00000000000E+00  0.00000000000E+00  0.74505805969E-08  0.10566000000E+00  0.10566000000E+00 0.  1.
     999900   -1    0    0    0    0 -0.00000000000E+00 -0.00000000000E+00 -0.74505805969E-08  0.93827000000E+00  0.93827000000E+00 0. -1.
     999902    2    1    2    0    0  0.10279229509E-01  0.11950771014E-01 -0.17410321856E-01  0.10204437744E+01  0.10201734626E+01 0.  0.
     999903    2    3    3    0    0  0.12029224599E+00  0.50619043565E-01 -0.12780370196E-01  0.13273913005E+00  0.20587053376E-01 0.  0.
         14    1    1    2    0    0 -0.10279229509E-01 -0.11950771014E-01  0.17410321856E-01  0.23486225628E-01  0.00000000000E+00 0.  1.
     999901    1    3    3    0    0 -0.11001301648E+00 -0.38668272551E-01 -0.46299516595E-02  0.88770464432E+00  0.88000000000E+00 0.  1.
        -11    1    4    4    0    0  0.27502238790E-01  0.48940490696E-02 -0.85060568365E-02  0.29205119049E-01  0.51100000000E-03 0. -1.
         11    1    4    4    0    0  0.92790007203E-01  0.45724994495E-01 -0.42743133600E-02  0.10353401100E+00  0.51100000000E-03 0.  1.
</event>
<event>
 8    1  0.1131376E+005  0.1043930E+01  0.7957747E-01            NaN
         13   -1    0    0    0    0  0.00000000000E+00  0.00000000000E+00  0.74505805969E-08  0.10566000000E+00  0.10566000000E+00 0.  1.
     999900   -1    0    0    0    0 -0.00000000000E+00 -0.00000000000E+00 -0.74505805969E-08  0.93827000000E+00  0.93827000000E+00 0.  1.
     999902    2    1    2    0    0  0.23891615089E-01  0.17174190211E-03  0.44268821429E-02  0.10196311101E+01  0.10193415348E+01 0.  0.
     999903    2    3    3    0    0  0.11331121461E+00  0.32409333148E-01 -0.56836314548E-01  0.13239477946E+00  0.20204324935E-01 0.  0.
         14    1    1    2    0    0 -0.23891615089E-01 -0.17174190211E-03 -0.44268821429E-02  0.24298889941E-01  0.00000000000E+00 0.  1.
     999901    1    3    3    0    0 -0.89419599517E-01 -0.32237591246E-01  0.61263196690E-01  0.88723633060E+00  0.88000000000E+00 0. -1.
        -11    1    4    4    0    0  0.46465836756E-01  0.13271798039E-01 -0.12457168876E-01  0.49906480401E-01  0.51100000000E-03 0.  1.
         11    1    4    4    0    0  0.66845377850E-01  0.19137535109E-01 -0.44379145671E-01  0.82488299058E-01  0.51100000000E-03 0. -1.
</event>
<event>
 8    1  0.1131376E+005  0.1043930E+01  0.7957747E-01            NaN
         13   -1    0    0    0    0  0.00000000000E+00  0.00000000000E+00  0.74505805969E-08  0.10566000000E+00  0.10566000000E+00 0.  1.
     999900   -1    0    0    0    0 -0.00000000000E+00 -0.00000000000E+00 -0.74505805969E-08  0.93827000000E+00  0.93827000000E+00 0.  1.
     999902    2    1    2    0    0 -0.16943077036E-01 -0.11980120903E-01  0.10057413415E-01  0.10208704527E+01  0.10206099835E+01 0.  0.
     999903    2    3    3    0    0 -0.12834385505E+00  0.14683379917E-01 -0.22962857237E-01  0.13283249526E+00  0.20722746192E-01 0.  0.
         14    1    1    2    0    0  0.16943077036E-01  0.11980120903E-01 -0.10057413415E-01  0.23059547283E-01  0.00000000000E+00 0.  1.
     999901    1    3    3    0    0  0.11140077801E+00 -0.26663500820E-01  0.33020270652E-01  0.88803795746E+00  0.88000000000E+00 0. -1.
        -11    1    4    4    0    0 -0.37477302737E-01  0.44217882522E-02 -0.16405323538E-01  0.41152110434E-01  0.51100000000E-03 0. -1.
         11    1    4    4    0    0 -0.90866552309E-01  0.10261591665E-01 -0.65575336993E-02  0.91680384823E-01  0.51100000000E-03 0.  1.
</event>
<event>
 8    1  0.1131376E+005  0.1043930E+01  0.7957747E-01            NaN
         13   -1    0    0    0    0  0.00000000000E+00  0.00000000000E+00  0.74505805969E-08  0.10566000000E+00  0.10566000000E+00 0.  1.
     999900   -1    0    0    0    0 -0.00000000000E+00 -0.00000000000E+00 -0.74505805969E-08  0.93827000000E+00  0.93827000000E+00 0.  1.
     999902    2    1    2    0    0 -0.11972530099E-01  0.20966505727E-01 -0.33682336543E-02  0.10195521240E+01  0.10192606402E+01 0.  0.
     999903    2    3    3    0    0 -0.87152923398E-01  0.89951423345E-01 -0.41366404797E-01  0.13284198457E+00  0.15777287458E-01 0.  0.
         14    1    1    2    0    0  0.11972530099E-01 -0.20966505727E-01  0.33682336543E-02  0.24377875980E-01  0.00000000000E+00 0.  1.
     999901    1    3    3    0    0  0.75180393299E-01 -0.68984917618E-01  0.37998171143E-01  0.88671013945E+00  0.88000000000E+00 0. -1.
        -11    1    4    4    0    0 -0.37344346290E-01  0.31384508211E-01 -0.99593053429E-02  0.49789923071E-01  0.51100000000E-03 0. -1.
         11    1    4    4    0    0 -0.49808577109E-01  0.58566915134E-01 -0.31407099454E-01  0.83052061498E-01  0.51100000000E-03 0.  1.
</event>
<event>
 8    1  0.1131376E+005  0.1043930E+01  0.7957747E-01            NaN
         13   -1    0    0    0    0  0.00000000000E+00  0.00000000000E+00  0.74505805969E-08  0.10566000000E+00  0.10566000000E+00 0. -1.
     999900   -1    0    0    0    0 -0.00000000000E+00 -0.00000000000E+00 -0.74505805969E-08  0.93827000000E+00  0.93827000000E+00 0. -1.
     999902    2    1    2    0    0 -0.76922778961E-02 -0.12725299954E-01  0.17927861922E-01  0.10206380994E+01  0.10203722935E+01 0.  0.
     999903    2    3    3    0    0  0.83135048045E-01  0.77590567062E-01  0.60784613495E-01  0.13033294944E+00  0.18978307680E-01 0.  0.
         14    1    1    2    0    0  0.76922778961E-02  0.12725299954E-01 -0.17927861922E-01  0.23291900550E-01  0.00000000000E+00 0.  1.
     999901    1    3    3    0    0 -0.90827325941E-01 -0.90315867016E-01 -0.42856751573E-01  0.89030515001E+00  0.88000000000E+00 0. -1.
        -11    1    4    4    0    0  0.41878029255E-01  0.26260434901E-01  0.26112051020E-01  0.55905993462E-01  0.51100000000E-03 0. -1.
         11    1    4    4    0    0  0.41257018790E-01  0.51330132161E-01  0.34672562475E-01  0.74426955981E-01  0.51100000000E-03 0.  1.
</event>
<event>
 8    1  0.1131376E+005  0.1043930E+01  0.7957747E-01            NaN
         13   -1    0    0    0    0  0.00000000000E+00  0.00000000000E+00  0.74505805969E-08  0.10566000000E+00  0.10566000000E+00 0.  1.
     999900   -1    0    0    0    0 -0.00000000000E+00 -0.00000000000E+00 -0.74505805969E-08  0.93827000000E+00  0.93827000000E+00 0.  1.
     999902    2    1    2    0    0  0.73425293040E-02  0.23321066085E-03 -0.22479254822E-01  0.10202808135E+01  0.10200066933E+01 0.  0.
     999903    2    3    3    0    0  0.89201789098E-01 -0.45236298740E-01 -0.85280027791E-01  0.13308728797E+00  0.20886866120E-01 0.  0.
         14    1    1    2    0    0 -0.73425293040E-02 -0.23321066085E-03  0.22479254822E-01  0.23649186479E-01  0.00000000000E+00 0.  1.
     999901    1    3    3    0    0 -0.81859259794E-01  0.45469509401E-01  0.62800772969E-01  0.88719352555E+00  0.88000000000E+00 0. -1.
        -11    1    4    4    0    0  0.37029413413E-01 -0.17535978928E-01 -0.21951532747E-01  0.46484609556E-01  0.51100000000E-03 0.  1.
         11    1    4    4    0    0  0.52172375685E-01 -0.27700319812E-01 -0.63328495044E-01  0.86602678410E-01  0.51100000000E-03 0. -1.
</event>
<event>
 8    1  0.1131376E+005  0.1043930E+01  0.7957747E-01            NaN
         13   -1    0    0    0    0  0.00000000000E+00  0.00000000000E+00  0.74505805969E-08  0.10566000000E+00  0.10566000000E+00 0. -1.
     999900   -1    0    0    0    0 -0.00000000000E+00 -0.00000000000E+00 -0.74505805969E-08  0.93827000000E+00  0.93827000000E+00 0.  1.
     999902    2    1    2    0    0  0.23837209352E-01 -0.35858026241E-02  0.70938720641E-02  0.10188024543E+01  0.10184925367E+01 0.  0.
     999903    2    3    3    0    0  0.79175237129E-01  0.86588090596E-01 -0.53100839001E-01  0.13042357594E+00  0.20600836192E-01 0.  0.
         14    1    1    2    0    0 -0.23837209352E-01  0.35858026241E-02 -0.70938720641E-02  0.25127545662E-01  0.00000000000E+00 0.  1.
     999901    1    3    3    0    0 -0.55338027777E-01 -0.90173893220E-01  0.60194711065E-01  0.88837887839E+00  0.88000000000E+00 0. -1.
        -11    1    4    4    0    0  0.27026163272E-01  0.16399834621E-01 -0.16017700871E-01  0.35442854555E-01  0.51100000000E-03 0.  1.
         11    1    4    4    0    0  0.52149073857E-01  0.70188255975E-01 -0.37083138130E-01  0.94980721389E-01  0.51100000000E-03 0. -1.
</event>
<event>
 8    1  0.1131376E+005  0.1043930E+01  0.7957747E-01            NaN
         13   -1    0    0    0    0  0.00000000000E+00  0.00000000000E+00  0.74505805969E-08  0.10566000000E+00  0.10566000000E+00 0. -1.
     999900   -1    0    0    0    0 -0.00000000000E+00 -0.00000000000E+00 -0.74505805969E-08  0.93827000000E+00  0.93827000000E+00 0. -1.
     999902    2    1    2    0    0  0.53126708066E-02 -0.40562588292E-02 -0.23785392615E-01  0.10192232679E+01  0.10189237691E+01 0.  0.
     999903    2    3    3    0    0 -0.21842846564E-01 -0.10078717209E+00 -0.79549316240E-01  0.13175275752E+00  0.19887971160E-01 0.  0.
         14    1    1    2    0    0 -0.53126708066E-02  0.40562588292E-02  0.23785392615E-01  0.24706732051E-01  0.00000000000E+00 0. -1.
     999901    1    3    3    0    0  0.27155517371E-01  0.96730913256E-01  0.55763923626E-01  0.88747051043E+00  0.88000000000E+00 0.  1.
        -11    1    4    4    0    0 -0.12772133538E-01 -0.45963040688E-01 -0.48781039681E-01  0.68231806789E-01  0.51100000000E-03 0.  1.
         11    1    4    4    0    0 -0.90707130258E-02 -0.54824131398E-01 -0.30768276559E-01  0.63520950731E-01  0.51100000000E-03 0. -1.
</event>
<event>
 8    1  0.1131376E+005  0.1043930E+01  0.7957747E-01            NaN
         13   -1    0    0    0    0  0.00000000000E+00  0.00000000000E+00  0.74505805969E-08  0.10566000000E+00  0.10566000000E+00 0. -1.
     999900   -1    0    0    0    0 -0.00000000000E+00 -0.00000000000E+00 -0.74505805969E-08  0.93827000000E+00  0.93827000000E+00 0. -1.
     999902    2    1    2    0    0 -0.73312727252E-03 -0.13436904917E-01 -0.19471537940E-01  0.10202608496E+01  0.10199862610E+01 0.  0.
     999903    2    3    3    0    0 -0.62019058933E-01  0.89317054922E-01  0.64869211365E-01  0.12816909220E+00  0.19884708750E-01 0.  0.
         14    1    1    2    0    0  0.73312727252E-03  0.13436904917E-01  0.19471537940E-01  0.23669150367E-01  0.00000000000E+00 0. -1.
     999901    1    3    3    0    0  0.61285931660E-01 -0.10275395984E+00 -0.84340749305E-01  0.89209175743E+00  0.88000000000E+00 0. -1.
        -11    1    4    4    0    0 -0.36955655310E-01  0.35979839107E-01  0.31662992336E-01  0.60523346621E-01  0.51100000000E-03 0.  1.
         11    1    4    4    0    0 -0.25063403622E-01  0.53337215815E-01  0.33206219030E-01  0.67645745581E-01  0.51100000000E-03 0. -1.
</event>
<event>
 8    1  0.1131376E+005  0.1043930E+01  0.7957747E-01            NaN
         13   -1    0    0    0    0  0.00000000000E+00  0.00000000000E+00  0.74505805969E-08  0.10566000000E+00  0.10566000000E+00 0. -1.
     999900   -1    0    0    0    0 -0.00000000000E+00 -0.00000000000E+00 -0.74505805969E-08  0.93827000000E+00  0.93827000000E+00 0.  1.
     999902    2    1    2    0    0  0.95675171307E-02 -0.20745304398E-01  0.84824486556E-02  0.10195608192E+01  0.10192695458E+01 0.  0.
     999903    2    3    3    0    0  0.61816055782E-01 -0.11225842489E+00 -0.27211617241E-01  0.13255539228E+00  0.20181209039E-01 0.  0.
         14    1    1    2    0    0 -0.95675171307E-02  0.20745304398E-01 -0.84824486556E-02  0.24369180819E-01  0.00000000000E+00 0.  1.
     999901    1    3    3    0    0 -0.52248538651E-01  0.91513120491E-01  0.35694065897E-01  0.88700542690E+00  0.88000000000E+00 0.  1.
        -11    1    4    4    0    0  0.62185345060E-02 -0.20172850829E-01 -0.10879046877E-01  0.23753502140E-01  0.51100000000E-03 0.  1.
         11    1    4    4    0    0  0.55597521276E-01 -0.92085574061E-01 -0.16332570364E-01  0.10880189014E+00  0.51100000000E-03 0. -1.
</event>
<event>
 8    1  0.1131376E+005  0.1043930E+01  0.7957747E-01            NaN
         13   -1    0    0    0    0  0.00000000000E+00  0.00000000000E+00  0.74505805969E-08  0.10566000000E+00  0.10566000000E+00 0. -1.
     999900   -1    0    0    0    0 -0.00000000000E+00 -0.00000000000E+00 -0.74505805969E-08  0.93827000000E+00  0.93827000000E+00 0.  1.
     999902    2    1    2    0    0  0.11956703037E-01  0.11567102733E-01 -0.13687009746E-01  0.10223871393E+01  0.10221601478E+01 0.  0.
     999903    2    3    3    0    0  0.57091721175E-01 -0.11668855229E+00  0.80301017532E-02  0.13168050077E+00  0.19989719544E-01 0.  0.
         14    1    1    2    0    0 -0.11956703037E-01 -0.11567102733E-01  0.13687009746E-01  0.21542860742E-01  0.00000000000E+00 0. -1.
     999901    1    3    3    0    0 -0.45135018138E-01  0.12825565502E+00 -0.21717111499E-01  0.89070663848E+00  0.88000000000E+00 0. -1.
        -11    1    4    4    0    0  0.18344675125E-01 -0.21055496295E-01  0.54810513060E-02  0.28463381283E-01  0.51100000000E-03 0. -1.
         11    1    4    4    0    0  0.38747046050E-01 -0.95633055996E-01  0.25490504472E-02  0.10321711949E+00  0.51100000000E-03 0.  1.
</event>
<event>
 8    1  0.1131376E+005  0.1043930E+01  0.7957747E-01            NaN
         13   -1    0    0    0    0  0.00000000000E+00  0.00000000000E+00  0.74505805969E-08  0.10566000000E+00  0.10566000000E+00 0.  1.
     999900   -1    0    0    0    0 -0.00000000000E+00 -0.00000000000E+00 -0.74505805969E-08  0.93827000000E+00  0.93827000000E+00 0.  1.
     999902    2    1    2    0    0 -0.14416012996E-01  0.16335907721E-01  0.10232927252E-01  0.10198593517E+01  0.10195752552E+01 0.  0.
     999903    2    3    3    0    0 -0.17216045049E-03  0.11423988448E+00 -0.60862466863E-01  0.13146606540E+00  0.22984900126E-01 0.  0.
         14    1    1    2    0    0  0.14416012996E-01 -0.16335907721E-01 -0.10232927252E-01  0.24070648348E-01  0.00000000000E+00 0. -1.
     999901    1    3    3    0    0 -0.14243852546E-01 -0.97903976755E-01  0.71095394115E-01  0.88839328626E+00  0.88000000000E+00 0. -1.
        -11    1    4    4    0    0  0.61721464224E-02  0.74740404150E-01 -0.49555162655E-01  0.89889925302E-01  0.51100000000E-03 0. -1.
         11    1    4    4    0    0 -0.63443068729E-02  0.39499480326E-01 -0.11307304209E-01  0.41576140094E-01  0.51100000000E-03 0.  1.
</event>
<event>
 8    1  0.1131376E+005  0.1043930E+01  0.7957747E-01            NaN
         13   -1    0    0    0    0  0.00000000000E+00  0.00000000000E+00  0.74505805969E-08  0.10566000000E+00  0.10566000000E+00 0.  1.
     999900   -1    0    0    0    0 -0.00000000000E+00 -0.00000000000E+00 -0.74505805969E-08  0.93827000000E+00  0.93827000000E+00 0. -1.
     999902    2    1    2    0    0 -0.76197077990E-02  0.76396235617E-02  0.20872194593E-01  0.10204337811E+01  0.10201632366E+01 0.  0.
     999903    2    3    3    0    0  0.45993917928E-01  0.90579085470E-01  0.82888047652E-01  0.13274051131E+00  0.20726883258E-01 0.  0.
         14    1    1    2    0    0  0.76197077990E-02 -0.76396235617E-02 -0.20872194593E-01  0.23496218893E-01  0.00000000000E+00 0. -1.
     999901    1    3    3    0    0 -0.53613625727E-01 -0.82939461908E-01 -0.62015853059E-01  0.88769326979E+00  0.88000000000E+00 0. -1.
        -11    1    4    4    0    0  0.10683335460E-01  0.19094718163E-01  0.78492975702E-02  0.23251118503E-01  0.51100000000E-03 0.  1.
         11    1    4    4    0    0  0.35310582468E-01  0.71484367306E-01  0.75038750082E-01  0.10948939281E+00  0.51100000000E-03 0. -1.
</event>
<event>
 8    1  0.1131376E+005  0.1043930E+01  0.7957747E-01            NaN
         13   -1    0    0    0    0  0.00000000000E+00  0.00000000000E+00  0.74505805969E-08  0.10566000000E+00  0.10566000000E+00 0.  1.
     999900   -1    0    0    0    0 -0.00000000000E+00 -0.00000000000E+00 -0.74505805969E-08  0.93827000000E+00  0.93827000000E+00 0. -1.
     999902    2    1    2    0    0  0.95241244003E-02  0.52354851840E-02  0.20185601472E-01  0.10210045173E+01  0.10207471022E+01 0.  0.
     999903    2    3    3    0    0 -0.16322122427E-01 -0.10350543823E+00 -0.72793306247E-01  0.12907531933E+00  0.19539324461E-01 0.  0.
         14    1    1    2    0    0 -0.95241244003E-02 -0.52354851840E-02 -0.20185601472E-01  0.22925482710E-01  0.00000000000E+00 0. -1.
     999901    1    3    3    0    0  0.25846246827E-01  0.10874092342E+00  0.92978907719E-01  0.89192919796E+00  0.88000000000E+00 0.  1.
        -11    1    4    4    0    0 -0.19853745252E-01 -0.80320601935E-01 -0.51961096739E-01  0.97702543422E-01  0.51100000000E-03 0.  1.
         11    1    4    4    0    0  0.35316228259E-02 -0.23184836298E-01 -0.20832209508E-01  0.31372775904E-01  0.51100000000E-03 0. -1.
</event>
<event>
 7    1  0.1131376E+005  0.1043930E+01  0.7957747E-01            NaN
         13   -1    0    0    0    0  0.00000000000E+00  0.00000000000E+00  0.74505805969E-08  0.10566000000E+00  0.10566000000E+00 0. -1.
     999900   -1    0    0    0    0 -0.00000000000E+00 -0.00000000000E+00 -0.74505805969E-08  0.93827000000E+00  0.93827000000E+00 0.  1.
     999902    2    1    2    0    0 -0.20806831422E-01  0.77043541485E-02  0.93339858271E-02  0.10198591754E+01  0.10195750747E+01 0.  0.
         14    1    1    2    0    0  0.20806831422E-01 -0.77043541485E-02 -0.93339858271E-02  0.24070824624E-01  0.00000000000E+00 0. -1.
     999901    1    3    3    0    0  0.14749784453E-01  0.50006742185E-01 -0.10992689543E+00  0.88837050421E+00  0.88000000000E+00 0.  1.
        -11    1    3    3    0    0 -0.20512333338E-01 -0.23366062442E-01  0.63429904114E-01  0.70642356628E-01  0.51100000000E-03 0.  1.
         11    1    3    3    0    0 -0.15044282537E-01 -0.18936325594E-01  0.55830977139E-01  0.60846314542E-01  0.51100000000E-03 0. -1.
</event>
<event>
 8    1  0.1131376E+005  0.1043930E+01  0.7957747E-01            NaN
         13   -1    0    0    0    0  0.00000000000E+00  0.00000000000E+00  0.74505805969E-08  0.10566000000E+00  0.10566000000E+00 0.  1.
     999900   -1    0    0    0    0 -0.00000000000E+00 -0.00000000000E+00 -0.74505805969E-08  0.93827000000E+00  0.93827000000E+00 0.  1.
     999902    2    1    2    0    0 -0.17732349366E-01 -0.11859715825E-02 -0.15528776758E-01  0.10203294566E+01  0.10200564760E+01 0.  0.
     999903    2    3    3    0    0 -0.61550099922E-01  0.92713740392E-01 -0.69100993096E-01  0.13263179771E+00  0.20784466799E-01 0.  0.
         14    1    1    2    0    0  0.17732349366E-01  0.11859715825E-02  0.15528776758E-01  0.23600543431E-01  0.00000000000E+00 0.  1.
     999901    1    3    3    0    0  0.43817750556E-01 -0.93899711975E-01  0.53572216338E-01  0.88769765885E+00  0.88000000000E+00 0. -1.
        -11    1    4    4    0    0 -0.59208752699E-01  0.76423454426E-01 -0.60614478017E-01  0.11410782992E+00  0.51100000000E-03 0.  1.
         11    1    4    4    0    0 -0.23413472228E-02  0.16290285966E-01 -0.84865150792E-02  0.18523967795E-01  0.51100000000E-03 0. -1.
</event>
<event>
 8    1  0.1131376E+005  0.1043930E+01  0.7957747E-01            NaN
         13   -1    0    0    0    0  0.00000000000E+00  0.00000000000E+00  0.74505805969E-08  0.10566000000E+00  0.10566000000E+00 0.  1.
     999900   -1    0    0    0    0 -0.00000000000E+00 -0.00000000000E+00 -0.74505805969E-08  0.93827000000E+00  0.93827000000E+00 0.  1.
     999902    2    1    2    0    0 -0.89681377368E-02  0.19745186350E-01 -0.39874450260E-02  0.10218800658E+01  0.10216421435E+01 0.  0.
     999903    2    3    3    0    0 -0.99192391539E-02 -0.11676001746E+00 -0.52546397157E-01  0.13003223852E+00  0.20395249878E-01 0.  0.
         14    1    1    2    0    0  0.89681377368E-02 -0.19745186350E-01  0.39874450260E-02  0.22049934157E-01  0.00000000000E+00 0. -1.
     999901    1    3    3    0    0  0.95110141713E-03  0.13650520381E+00  0.48558952131E-01  0.89184782732E+00  0.88000000000E+00 0.  1.
        -11    1    4    4    0    0 -0.75866277493E-02 -0.90564651884E-01 -0.30983218706E-01  0.96019446227E-01  0.51100000000E-03 0.  1.
         11    1    4    4    0    0 -0.23326114045E-02 -0.26195365581E-01 -0.21563178451E-01  0.34012792296E-01  0.51100000000E-03 0. -1.
</event>
<event>
 8    1  0.1131376E+005  0.1043930E+01  0.7957747E-01            NaN
         13   -1    0    0    0    0  0.00000000000E+00  0.00000000000E+00  0.74505805969E-08  0.10566000000E+00  0.10566000000E+00 0.  1.
     999900   -1    0    0    0    0 -0.00000000000E+00 -0.00000000000E+00 -0.74505805969E-08  0.93827000000E+00  0.93827000000E+00 0.  1.
     999902    2    1    2    0    0 -0.14354466720E-01 -0.14558946245E-01  0.11715504868E-01  0.10203659026E+01  0.10200937744E+01 0.  0.
     999903    2    3    3    0    0  0.79513791211E-01 -0.85704035826E-01 -0.53540706523E-01  0.13012366214E+00  0.19948319360E-01 0.  0.
         14    1    1    2    0    0  0.14354466720E-01  0.14558946245E-01 -0.11715504868E-01  0.23564097370E-01  0.00000000000E+00 0. -1.
     999901    1    3    3    0    0 -0.93868257932E-01  0.71145089581E-01  0.65256211391E-01  0.89024224049E+00  0.88000000000E+00 0. -1.
        -11    1    4    4    0    0  0.43161991281E-01 -0.60148873767E-01 -0.36339356044E-01  0.82472143330E-01  0.51100000000E-03 0. -1.
         11    1    4    4    0    0  0.36351799930E-01 -0.25555162059E-01 -0.17201350479E-01  0.47651518815E-01  0.51100000000E-03 0.  1.
</event>
<event>
 8    1  0.1131376E+005  0.1043930E+01  0.7957747E-01            NaN
         13   -1    0    0    0    0  0.00000000000E+00  0.00000000000E+00  0.74505805969E-08  0.10566000000E+00  0.10566000000E+00 0.  1.
     999900   -1    0    0    0    0 -0.00000000000E+00 -0.00000000000E+00 -0.74505805969E-08  0.93827000000E+00  0.93827000000E+00 0. -1.
     999902    2    1    2    0    0  0.15783172275E-02 -0.23762077229E-01 -0.44011226121E-02  0.10197122941E+01  0.10194246737E+01 0.  0.
     999903    2    3    3    0    0 -0.77313275495E-01 -0.54489388238E-01  0.88013399521E-01  0.13083182127E+00  0.20595411249E-01 0.  0.
         14    1    1    2    0    0 -0.15783172275E-02  0.23762077229E-01  0.44011226121E-02  0.24217705914E-01  0.00000000000E+00 0.  1.
     999901    1    3    3    0    0  0.78891592723E-01  0.30727311009E-01 -0.92414522133E-01  0.88888047281E+00  0.88000000000E+00 0. -1.
        -11    1    4    4    0    0 -0.75852061985E-01 -0.48593087737E-01  0.85623983678E-01  0.12428415500E+00  0.51100000000E-03 0. -1.
         11    1    4    4    0    0 -0.14612135099E-02 -0.58963005008E-02  0.23894158427E-02  0.65476662702E-02  0.51100000000E-03 0.  1.
</event>
<event>
 8    1  0.1131376E+005  0.1043930E+01  0.7957747E-01            NaN
         13   -1    0    0    0    0  0.00000000000E+00  0.00000000000E+00  0.74505805969E-08  0.10566000000E+00  0.10566000000E+00 0.  1.
     999900   -1    0    0    0    0 -0.00000000000E+00 -0.00000000000E+00 -0.74505805969E-08  0.93827000000E+00  0.93827000000E+00 0.  1.
     999902    2    1    2    0    0 -0.19035162598E-01  0.11162705003E-01  0.75045870901E-02  0.10206220137E+01  0.10203558363E+01 0.  0.
     999903    2    3    3    0    0 -0.40821007583E-01 -0.11237010854E+00 -0.46668555045E-01  0.13007740033E+00  0.21184430474E-01 0.  0.
         14    1    1    2    0    0  0.19035162598E-01 -0.11162705003E-01 -0.75045870901E-02  0.23307986304E-01  0.00000000000E+00 0. -1.
     999901    1    3    3    0    0  0.21785844985E-01  0.12353281354E+00  0.54173142135E-01  0.89054461336E+00  0.88000000000E+00 0. -1.
        -11    1    4    4    0    0 -0.13503228869E-01 -0.67832301119E-01 -0.26267318363E-01  0.73985075522E-01  0.51100000000E-03 0.  1.
         11    1    4    4    0    0 -0.27317778715E-01 -0.44537807418E-01 -0.20401236682E-01  0.56092324811E-01  0.51100000000E-03 0. -1.
</event>
<event>
 8    1  0.1131376E+005  0.1043930E+01  0.7957747E-01            NaN
         13   -1    0    0    0    0  0.00000000000E+00  0.00000000000E+00  0.74505805969E-08  0.10566000000E+00  0.10566000000E+00 0.  1.
     999900   -1    0    0    0    0 -0.00000000000E+00 -0.00000000000E+00 -0.74505805969E-08  0.93827000000E+00  0.93827000000E+00 0. -1.
     999902    2    1    2    0    0  0.55355707694E-03 -0.22663435657E-01 -0.18654112837E-02  0.10211831870E+01  0.10209298134E+01 0.  0.
     999903    2    3    3    0    0 -0.12371193824E+00  0.40623237053E-02  0.37760367971E-01  0.13116836585E+00  0.21404407772E-01 0.  0.
         14    1    1    2    0    0 -0.55355707694E-03  0.22663435657E-01  0.18654112837E-02  0.22746812974E-01  0.00000000000E+00 0. -1.
     999901    1    3    3    0    0  0.12426549532E+00 -0.26725759362E-01 -0.39625779254E-01  0.89001482118E+00  0.88000000000E+00 0. -1.
        -11    1    4    4    0    0 -0.24371299543E-01  0.90169651132E-02  0.51724973240E-02  0.26500599066E-01  0.51100000000E-03 0.  1.
         11    1    4    4    0    0 -0.99340638698E-01 -0.49546414079E-02  0.32587870647E-01  0.10466776678E+00  0.51100000000E-03 0. -1.
</event>
<event>
 8    1  0.1131376E+005  0.1043930E+01  0.7957747E-01            NaN
         13   -1    0    0    0    0  0.00000000000E+00  0.00000000000E+00  0.74505805969E-08  0.10566000000E+00  0.10566000000E+00 0.  1.
     999900   -1    0    0    0    0 -0.00000000000E+00 -0.00000000000E+00 -0.74505805969E-08  0.93827000000E+00  0.93827000000E+00 0. -1.
     999902    2    1    2    0    0 -0.14305722026E-02  0.11853964079E-01 -0.20618802312E-01  0.10201035859E+01  0.10198252928E+01 0.  0.
     999903    2    3    3    0    0 -0.10809363971E+00 -0.18045388146E-01  0.65093065306E-01  0.12902698676E+00  0.20024614424E-01 0.  0.
         14    1    1    2    0    0  0.14305722026E-02 -0.11853964079E-01  0.20618802312E-01  0.23826414124E-01  0.00000000000E+00 0.  1.
     999901    1    3    3    0    0  0.10666306751E+00  0.29899352225E-01 -0.85711867617E-01  0.89107659911E+00  0.88000000000E+00 0. -1.
        -11    1    4    4    0    0 -0.10836878653E-01  0.40579792965E-02  0.83323497752E-02  0.14268647752E-01  0.51100000000E-03 0.  1.
         11    1    4    4    0    0 -0.97256761061E-01 -0.22103367442E-01  0.56760715530E-01  0.11475833901E+00  0.51100000000E-03 0. -1.
</event>
<event>
 8    1  0.1409471E+005  0.1043930E+01  0.7957747E-01            NaN
         13   -1    0    0    0    0  0.00000000000E+00  0.00000000000E+00  0.74505805969E-08  0.10566000000E+00  0.10566000000E+00 0. -1.
     999900   -1    0    0    0    0 -0.00000000000E+00 -0.00000000000E+00 -0.74505805969E-08  0.93827000000E+00  0.93827000000E+00 0.  1.
     999902    2    1    2    0    0 -0.50208195808E-02 -0.65710121111E-02 -0.20903927051E-01  0.10214497643E+01  0.10212023600E+01 0.  0.
     999903    2    3    3    0    0  0.36875183279E-01  0.11855754153E+00 -0.38450067113E-01  0.13143836159E+00  0.19543936134E-01 0.  0.
         14    1    1    2    0    0  0.50208195808E-02  0.65710121111E-02  0.20903927051E-01  0.22480235666E-01  0.00000000000E+00 0. -1.
     999901    1    3    3    0    0 -0.41896002860E-01 -0.12512855364E+00  0.17546140062E-01  0.89001140275E+00  0.88000000000E+00 0. -1.
        -11    1    4    4    0    0  0.25001604311E-01  0.75022217123E-01 -0.14674894705E-01  0.80430261318E-01  0.51100000000E-03 0.  1.
         11    1    4    4    0    0  0.11873578968E-01  0.43535324407E-01 -0.23775172409E-01  0.51008100267E-01  0.51100000000E-03 0. -1.
</event>
<event>
 8    1  0.1131376E+005  0.1043930E+01  0.7957747E-01            NaN
         13   -1    0    0    0    0  0.00000000000E+00  0.00000000000E+00  0.74505805969E-08  0.10566000000E+00  0.10566000000E+00 0.  1.
     999900   -1    0    0    0    0 -0.00000000000E+00 -0.00000000000E+00 -0.74505805969E-08  0.93827000000E+00  0.93827000000E+00 0. -1.
     999902    2    1    2    0    0  0.98695745324E-02 -0.28825541829E-02  0.21104954072E-01  0.10204536990E+01  0.10201836184E+01 0.  0.
     999903    2    3    3    0    0  0.29032697399E-01 -0.98599358500E-01 -0.76683672717E-01  0.12967227387E+00  0.19229714894E-01 0.  0.
         14    1    1    2    0    0 -0.98695745324E-02  0.28825541829E-02 -0.21104954072E-01  0.23476300954E-01  0.00000000000E+00 0. -1.
     999901    1    3    3    0    0 -0.19163122866E-01  0.95716804317E-01  0.97788626789E-01  0.89078142517E+00  0.88000000000E+00 0.  1.
        -11    1    4    4    0    0  0.43102795589E-03 -0.27017195365E-01 -0.14754215725E-01  0.30790625735E-01  0.51100000000E-03 0. -1.
         11    1    4    4    0    0  0.28601669443E-01 -0.71582163136E-01 -0.61929456992E-01  0.98881648137E-01  0.51100000000E-03 0.  1.
</event>
<event>
 8    1  0.1131376E+005  0.1043930E+01  0.7957747E-01            NaN
         13   -1    0    0    0    0  0.00000000000E+00  0.00000000000E+00  0.74505805969E-08  0.10566000000E+00  0.10566000000E+00 0.  1.
     999900   -1    0    0    0    0 -0.00000000000E+00 -0.00000000000E+00 -0.74505805969E-08  0.93827000000E+00  0.93827000000E+00 0.  1.
     999902    2    1    2    0    0  0.12326190869E-02 -0.20568542663E-03 -0.22899268433E-01  0.10209966585E+01  0.10207390649E+01 0.  0.
     999903    2    3    3    0    0 -0.50494761943E-02  0.70775265895E-01  0.10560239322E+00  0.12881369679E+00  0.20161040509E-01 0.  0.
         14    1    1    2    0    0 -0.12326190869E-02  0.20568542663E-03  0.22899268433E-01  0.22933341472E-01  0.00000000000E+00 0.  1.
     999901    1    3    3    0    0  0.62820952812E-02 -0.70980951321E-01 -0.12850166165E+00  0.89218296174E+00  0.88000000000E+00 0.  1.
        -11    1    4    4    0    0  0.63712580536E-02  0.45936176975E-01  0.64332991177E-01  0.79307755983E-01  0.51100000000E-03 0. -1.
         11    1    4    4    0    0 -0.11420734248E-01  0.24839088919E-01  0.41269402041E-01  0.49505940805E-01  0.51100000000E-03 0.  1.
</event>
<event>
 8    1  0.1131376E+005  0.1043930E+01  0.7957747E-01            NaN
         13   -1    0    0    0    0  0.00000000000E+00  0.00000000000E+00  0.74505805969E-08  0.10566000000E+00  0.10566000000E+00 0.  1.
     999900   -1    0    0    0    0 -0.00000000000E+00 -0.00000000000E+00 -0.74505805969E-08  0.93827000000E+00  0.93827000000E+00 0.  1.
     999902    2    1    2    0    0  0.13197974898E-01 -0.20800042362E-02  0.18498150673E-01  0.10211112678E+01  0.10208562714E+01 0.  0.
     999903    2    3    3    0    0  0.57222269631E-01  0.33235166129E-01  0.11501178685E+00  0.13403732405E+00  0.18955967756E-01 0.  0.
         14    1    1    2    0    0 -0.13197974898E-01  0.20800042362E-02 -0.18498150673E-01  0.22818732159E-01  0.00000000000E+00 0. -1.
     999901    1    3    3    0    0 -0.44024294733E-01 -0.35315170365E-01 -0.96513636182E-01  0.88707394379E+00  0.88000000000E+00 0.  1.
        -11    1    4    4    0    0  0.13589951555E-01  0.96341953706E-03  0.15156417143E-01  0.20386099727E-01  0.51100000000E-03 0.  1.
         11    1    4    4    0    0  0.43632318076E-01  0.32271746592E-01  0.99855369712E-01  0.11365122432E+00  0.51100000000E-03 0. -1.
</event>
<event>
 8    1  0.1131376E+005  0.1043930E+01  0.7957747E-01            NaN
         13   -1    0    0    0    0  0.00000000000E+00  0.00000000000E+00  0.74505805969E-08  0.10566000000E+00  0.10566000000E+00 0.  1.
     999900   -1    0    0    0    0 -0.00000000000E+00 -0.00000000000E+00 -0.74505805969E-08  0.93827000000E+00  0.93827000000E+00 0.  1.
     999902    2    1    2    0    0  0.41849727119E-02 -0.21447279514E-01 -0.88194828315E-02  0.10203655549E+01  0.10200934185E+01 0.  0.
     999903    2    3    3    0    0 -0.62157780420E-01  0.18559665101E-02  0.11157187177E+00  0.12938941581E+00  0.20647132404E-01 0.  0.
         14    1    1    2    0    0 -0.41849727119E-02  0.21447279514E-01  0.88194828315E-02  0.23564445094E-01  0.00000000000E+00 0.  1.
     999901    1    3    3    0    0  0.66342753132E-01 -0.23303246024E-01 -0.12039135460E+00  0.89097613909E+00  0.88000000000E+00 0.  1.
        -11    1    4    4    0    0 -0.37399528630E-01 -0.68807201625E-02  0.53328789912E-01  0.65500305390E-01  0.51100000000E-03 0. -1.
         11    1    4    4    0    0 -0.24758251790E-01  0.87366866726E-02  0.58243081857E-01  0.63889110425E-01  0.51100000000E-03 0.  1.
</event>
<event>
 8    1  0.1131376E+005  0.1043930E+01  0.7957747E-01            NaN
         13   -1    0    0    0    0  0.00000000000E+00  0.00000000000E+00  0.74505805969E-08  0.10566000000E+00  0.10566000000E+00 0.  1.
     999900   -1    0    0    0    0 -0.00000000000E+00 -0.00000000000E+00 -0.74505805969E-08  0.93827000000E+00  0.93827000000E+00 0.  1.
     999902    2    1    2    0    0  0.63330188900E-02  0.21959306708E-01  0.54269031923E-03  0.10210692740E+01  0.10208133275E+01 0.  0.
     999903    2    3    3    0    0  0.87203385086E-01 -0.43089136509E-01 -0.85159236299E-01  0.13083552027E+00  0.20117996474E-01 0.  0.
         14    1    1    2    0    0 -0.63330188900E-02 -0.21959306708E-01 -0.54269031923E-03  0.22860725976E-01  0.00000000000E+00 0. -1.
     999901    1    3    3    0    0 -0.80870366196E-01  0.65048443217E-01  0.85701926618E-01  0.89023375375E+00  0.88000000000E+00 0. -1.
        -11    1    4    4    0    0  0.44362726744E-01 -0.20911029501E-01 -0.29738263099E-01  0.57358069111E-01  0.51100000000E-03 0.  1.
         11    1    4    4    0    0  0.42840658342E-01 -0.22178107009E-01 -0.55420973201E-01  0.73477451161E-01  0.51100000000E-03 0. -1.
</event>
<event>
 8    1  0.1131376E+005  0.1043930E+01  0.7957747E-01            NaN
         13   -1    0    0    0    0  0.00000000000E+00  0.00000000000E+00  0.74505805969E-08  0.10566000000E+00  0.10566000000E+00 0. -1.
     999900   -1    0    0    0    0 -0.00000000000E+00 -0.00000000000E+00 -0.74505805969E-08  0.93827000000E+00  0.93827000000E+00 0.  1.
     999902    2    1    2    0    0  0.17807044997E-02 -0.21678166548E-01 -0.81047476647E-02  0.10207179181E+01  0.10204539517E+01 0.  0.
     999903    2    3    3    0    0 -0.16901507888E-01  0.92255328861E-01 -0.86913452176E-01  0.12968442916E+00  0.21619350696E-01 0.  0.
         14    1    1    2    0    0 -0.17807044997E-02  0.21678166548E-01  0.81047476647E-02  0.23212081942E-01  0.00000000000E+00 0. -1.
     999901    1    3    3    0    0  0.18682212387E-01 -0.11393349541E+00  0.78808704511E-01  0.89103348890E+00  0.88000000000E+00 0. -1.
        -11    1    4    4    0    0 -0.84808227188E-02  0.70020760674E-01 -0.75448280403E-01  0.10328376163E+00  0.51100000000E-03 0.  1.
         11    1    4    4    0    0 -0.84206851688E-02  0.22234568187E-01 -0.11465171773E-01  0.26400667529E-01  0.51100000000E-03 0. -1.
</event>
<event>
 8    1  0.1131376E+005  0.1043930E+01  0.7957747E-01            NaN
         13   -1    0    0    0    0  0.00000000000E+00  0.00000000000E+00  0.74505805969E-08  0.10566000000E+00  0.10566000000E+00 0. -1.
     999900   -1    0    0    0    0 -0.00000000000E+00 -0.00000000000E+00 -0.74505805969E-08  0.93827000000E+00  0.93827000000E+00 0. -1.
     999902    2    1    2    0    0  0.18481580276E-01 -0.12665037121E-02  0.12706691566E-01  0.10214659654E+01  0.10212189215E+01 0.  0.
     999903    2    3    3    0    0  0.99787232024E-01 -0.38889500177E-01 -0.75515706348E-01  0.13252879641E+00  0.19783201805E-01 0.  0.
         14    1    1    2    0    0 -0.18481580276E-01  0.12665037121E-02 -0.12706691566E-01  0.22464034627E-01  0.00000000000E+00 0.  1.
     999901    1    3    3    0    0 -0.81305651748E-01  0.37622996465E-01  0.88222397914E-01  0.88893716896E+00  0.88000000000E+00 0.  1.
        -11    1    4    4    0    0  0.69365132168E-01 -0.22314329313E-01 -0.40944779686E-01  0.83583413174E-01  0.51100000000E-03 0. -1.
         11    1    4    4    0    0  0.30422099857E-01 -0.16575170864E-01 -0.34570926662E-01  0.48945383236E-01  0.51100000000E-03 0.  1.
</event>
<event>
 8    1  0.1131376E+005  0.1043930E+01  0.7957747E-01            NaN
         13   -1    0    0    0    0  0.00000000000E+00  0.00000000000E+00  0.74505805969E-08  0.10566000000E+00  0.10566000000E+00 0. -1.
     999900   -1    0    0    0    0 -0.00000000000E+00 -0.00000000000E+00 -0.74505805969E-08  0.93827000000E+00  0.93827000000E+00 0.  1.
     999902    2    1    2    0    0 -0.18102870341E-01  0.14439634858E-01  0.21326598771E-02  0.10206756411E+01  0.10204107012E+01 0.  0.
     999903    2    3    3    0    0  0.59072809035E-01 -0.91402454919E-01  0.65440832787E-01  0.12873026261E+00  0.21094368552E-01 0.  0.
         14    1    1    2    0    0  0.18102870341E-01 -0.14439634858E-01 -0.21326598771E-02  0.23254358894E-01  0.00000000000E+00 0. -1.
     999901    1    3    3    0    0 -0.77175679376E-01  0.10584208978E+00 -0.63308172910E-01  0.89194537849E+00  0.88000000000E+00 0.  1.
        -11    1    4    4    0    0  0.38034790362E-01 -0.42345691943E-01  0.40184636036E-01  0.69676889988E-01  0.51100000000E-03 0. -1.
         11    1    4    4    0    0  0.21038018673E-01 -0.49056762975E-01  0.25256196751E-01  0.59053372627E-01  0.51100000000E-03 0.  1.
</event>
<event>
 8    1  0.1131376E+005  0.1043930E+01  0.7957747E-01            NaN
         13   -1    0    0    0    0  0.00000000000E+00  0.00000000000E+00  0.74505805969E-08  0.10566000000E+00  0.10566000000E+00 0. -1.
     999900   -1    0    0    0    0 -0.00000000000E+00 -0.00000000000E+00 -0.74505805969E-08  0.93827000000E+00  0.93827000000E+00 0. -1.
     999902    2    1    2    0    0 -0.17767800145E-01 -0.11999795232E-01 -0.11002548372E-01  0.10198313304E+01  0.10195465642E+01 0.  0.
     999903    2    3    3    0    0  0.27516660211E-01 -0.61481350107E-01  0.10845160904E+00  0.12923130659E+00  0.20046348771E-01 0.  0.
         14    1    1    2    0    0  0.17767800145E-01  0.11999795232E-01  0.11002548372E-01  0.24098669637E-01  0.00000000000E+00 0.  1.
     999901    1    3    3    0    0 -0.45284460356E-01  0.49481554875E-01 -0.11945415741E+00  0.89060002377E+00  0.88000000000E+00 0. -1.
        -11    1    4    4    0    0  0.76250070754E-02 -0.79900266257E-02  0.31791289206E-01  0.33659002492E-01  0.51100000000E-03 0. -1.
         11    1    4    4    0    0  0.19891653136E-01 -0.53491323481E-01  0.76660319835E-01  0.95572304098E-01  0.51100000000E-03 0.  1.
</event>
<event>
 8    1  0.1131376E+005  0.1043930E+01  0.7957747E-01            NaN
         13   -1    0    0    0    0  0.00000000000E+00  0.00000000000E+00  0.74505805969E-08  0.10566000000E+00  0.10566000000E+00 0.  1.
     999900   -1    0    0    0    0 -0.00000000000E+00 -0.00000000000E+00 -0.74505805969E-08  0.93827000000E+00  0.93827000000E+00 0.  1.
     999902    2    1    2    0    0 -0.17619696565E-01 -0.12554558173E-01  0.82131047705E-02  0.10207885712E+01  0.10205262276E+01 0.  0.
     999903    2    3    3    0    0  0.74804943510E-01  0.10128656883E+00 -0.14516315280E-01  0.12836560933E+00  0.20304128946E-01 0.  0.
         14    1    1    2    0    0  0.17619696565E-01  0.12554558173E-01 -0.82131047705E-02  0.23141428822E-01  0.00000000000E+00 0. -1.
     999901    1    3    3    0    0 -0.92424640076E-01 -0.11384112700E+00  0.22729420051E-01  0.89242296184E+00  0.88000000000E+00 0. -1.
        -11    1    4    4    0    0  0.59733305047E-01  0.69007288358E-01 -0.16202008520E-01  0.92697571594E-01  0.51100000000E-03 0.  1.
         11    1    4    4    0    0  0.15071638463E-01  0.32279280469E-01  0.16856932399E-02  0.35668037740E-01  0.51100000000E-03 0. -1.
</event>
<event>
 8    1  0.1131376E+005  0.1043930E+01  0.7957747E-01            NaN
         13   -1    0    0    0    0  0.00000000000E+00  0.00000000000E+00  0.74505805969E-08  0.10566000000E+00  0.10566000000E+00 0. -1.
     999900   -1    0    0    0    0 -0.00000000000E+00 -0.00000000000E+00 -0.74505805969E-08  0.93827000000E+00  0.93827000000E+00 0. -1.
     999902    2    1    2    0    0  0.20442994287E-01 -0.92436015545E-02 -0.19364906784E-02  0.10214108930E+01  0.10211626228E+01 0.  0.
     999903    2    3    3    0    0 -0.85232102524E-01  0.83223157716E-01  0.45535441621E-01  0.12901472982E+00  0.19512016452E-01 0.  0.
         14    1    1    2    0    0 -0.20442994287E-01  0.92436015545E-02  0.19364906784E-02  0.22519107026E-01  0.00000000000E+00 0. -1.
     999901    1    3    3    0    0  0.10567509681E+00 -0.92466759270E-01 -0.47471932299E-01  0.89239616315E+00  0.88000000000E+00 0. -1.
        -11    1    4    4    0    0 -0.55568708460E-01  0.66439987186E-01  0.31954017503E-01  0.92322660343E-01  0.51100000000E-03 0.  1.
         11    1    4    4    0    0 -0.29663394064E-01  0.16783170530E-01  0.13581424118E-01  0.36692069477E-01  0.51100000000E-03 0. -1.
</event>
<event>
 8    1  0.1131376E+005  0.1043930E+01  0.7957747E-01            NaN
         13   -1    0    0    0    0  0.00000000000E+00  0.00000000000E+00  0.74505805969E-08  0.10566000000E+00  0.10566000000E+00 0.  1.
     999900   -1    0    0    0    0 -0.00000000000E+00 -0.00000000000E+00 -0.74505805969E-08  0.93827000000E+00  0.93827000000E+00 0. -1.
     999902    2    1    2    0    0 -0.95627081361E-02  0.10838371809E-01 -0.18078886595E-01  0.10207834704E+01  0.10205210099E+01 0.  0.
     999903    2    3    3    0    0  0.92819712341E-01 -0.72719861353E-01  0.47838686743E-01  0.12847788106E+00  0.17729882645E-01 0.  0.
         14    1    1    2    0    0  0.95627081361E-02 -0.10838371809E-01  0.18078886595E-01  0.23146529564E-01  0.00000000000E+00 0.  1.
     999901    1    3    3    0    0 -0.10238242048E+00  0.83558233162E-01 -0.65917573338E-01  0.89230558937E+00  0.88000000000E+00 0.  1.
        -11    1    4    4    0    0  0.45451974476E-01 -0.46561945910E-01  0.24154253458E-01  0.69408831368E-01  0.51100000000E-03 0.  1.
         11    1    4    4    0    0  0.47367737865E-01 -0.26157915443E-01  0.23684433286E-01  0.59069049695E-01  0.51100000000E-03 0. -1.
</event>
<event>
 8    1  0.1131376E+005  0.1043930E+01  0.7957747E-01            NaN
         13   -1    0    0    0    0  0.00000000000E+00  0.00000000000E+00  0.74505805969E-08  0.10566000000E+00  0.10566000000E+00 0.  1.
     999900   -1    0    0    0    0 -0.00000000000E+00 -0.00000000000E+00 -0.74505805969E-08  0.93827000000E+00  0.93827000000E+00 0. -1.
     999902    2    1    2    0    0 -0.26786772937E-01 -0.15474284083E-02 -0.18565274329E-03  0.10170979258E+01  0.10167439355E+01 0.  0.
     999903    2    3    3    0    0  0.39846089708E-01 -0.10440922800E+00 -0.56743353081E-01  0.12680625355E+00  0.19261881109E-01 0.  0.
         14    1    1    2    0    0  0.26786772937E-01  0.15474284083E-02  0.18565274329E-03  0.26832074203E-01  0.00000000000E+00 0. -1.
     999901    1    3    3    0    0 -0.66632862645E-01  0.10286179960E+00  0.56557700338E-01  0.89029167224E+00  0.88000000000E+00 0.  1.
        -11    1    4    4    0    0  0.29773099182E-02 -0.31769571879E-01 -0.17221645372E-01  0.36263152952E-01  0.51100000000E-03 0.  1.
         11    1    4    4    0    0  0.36868779790E-01 -0.72639656125E-01 -0.39521707709E-01  0.90543100601E-01  0.51100000000E-03 0. -1.
</event>
<event>
 8    1  0.1352619E+005  0.1043930E+01  0.7957747E-01            NaN
         13   -1    0    0    0    0  0.00000000000E+00  0.00000000000E+00  0.74505805969E-08  0.10566000000E+00  0.10566000000E+00 0. -1.
     999900   -1    0    0    0    0 -0.00000000000E+00 -0.00000000000E+00 -0.74505805969E-08  0.93827000000E+00  0.93827000000E+00 0.  1.
     999902    2    1    2    0    0  0.25683638985E-02 -0.21293149978E-01  0.87314521054E-02  0.10207732950E+01  0.10205106011E+01 0.  0.
     999903    2    3    3    0    0  0.11050460379E+00 -0.44191726923E-01  0.55315053574E-01  0.13266034690E+00  0.19360689575E-01 0.  0.
         14    1    1    2    0    0 -0.25683638985E-02  0.21293149978E-01 -0.87314521054E-02  0.23156704968E-01  0.00000000000E+00 0.  1.
     999901    1    3    3    0    0 -0.10793623989E+00  0.22898576946E-01 -0.46583601469E-01  0.88811294813E+00  0.88000000000E+00 0. -1.
        -11    1    4    4    0    0  0.74328552807E-01 -0.24248201846E-01  0.44472964963E-01  0.89948956574E-01  0.51100000000E-03 0.  1.
         11    1    4    4    0    0  0.36176050985E-01 -0.19943525078E-01  0.10842088611E-01  0.42711390329E-01  0.51100000000E-03 0. -1.
</event>
<event>
 8    1  0.1131376E+005  0.1043930E+01  0.7957747E-01            NaN
         13   -1    0    0    0    0  0.00000000000E+00  0.00000000000E+00  0.74505805969E-08  0.10566000000E+00  0.10566000000E+00 0. -1.
     999900   -1    0    0    0    0 -0.00000000000E+00 -0.00000000000E+00 -0.74505805969E-08  0.93827000000E+00  0.93827000000E+00 0. -1.
     999902    2    1    2    0    0  0.12656184875E-01  0.32842885338E-02 -0.21489418923E-01  0.10187752650E+01  0.10184646680E+01 0.  0.
     999903    2    3    3    0    0  0.12549731040E+00 -0.30576115055E-01 -0.57855120675E-02  0.13078525424E+00  0.19668168354E-01 0.  0.
         14    1    1    2    0    0 -0.12656184875E-01 -0.32842885338E-02  0.21489418923E-01  0.25154734990E-01  0.00000000000E+00 0. -1.
     999901    1    3    3    0    0 -0.11284112553E+00  0.33860403588E-01 -0.15703906855E-01  0.88799001077E+00  0.88000000000E+00 0. -1.
        -11    1    4    4    0    0  0.10020344136E+00 -0.25237987090E-01 -0.12457145395E-01  0.10408230995E+00  0.51100000000E-03 0. -1.
         11    1    4    4    0    0  0.25293869045E-01 -0.53381279648E-02  0.66716333272E-02  0.26702944288E-01  0.51100000000E-03 0.  1.
</event>
<event>
 8    1  0.1131376E+005  0.1043930E+01  0.7957747E-01            NaN
         13   -1    0    0    0    0  0.00000000000E+00  0.00000000000E+00  0.74505805969E-08  0.10566000000E+00  0.10566000000E+00 0. -1.
     999900   -1    0    0    0    0 -0.00000000000E+00 -0.00000000000E+00 -0.74505805969E-08  0.93827000000E+00  0.93827000000E+00 0. -1.
     999902    2    1    2    0    0 -0.17851157161E-01 -0.23750719084E-01  0.46784225026E-02  0.10138526313E+01  0.10134063893E+01 0.  0.
     999903    2    3    3    0    0 -0.88625859156E-01 -0.83819811192E-01 -0.32955930516E-01  0.12817001391E+00  0.21474530277E-01 0.  0.
         14    1    1    2    0    0  0.17851157161E-01  0.23750719084E-01 -0.46784225026E-02  0.30077368670E-01  0.00000000000E+00 0.  1.
     999901    1    3    3    0    0  0.70774701995E-01  0.60069092108E-01  0.37634353019E-01  0.88568261742E+00  0.88000000000E+00 0. -1.
        -11    1    4    4    0    0 -0.10406073754E-01 -0.42030925048E-02 -0.80260638121E-02  0.13806925034E-01  0.51100000000E-03 0.  1.
         11    1    4    4    0    0 -0.78219785401E-01 -0.79616718688E-01 -0.24929866704E-01  0.11436308888E+00  0.51100000000E-03 0. -1.
</event>
<event>
 8    1  0.1131376E+005  0.1043930E+01  0.7957747E-01            NaN
         13   -1    0    0    0    0  0.00000000000E+00  0.00000000000E+00  0.74505805969E-08  0.10566000000E+00  0.10566000000E+00 0.  1.
     999900   -1    0    0    0    0 -0.00000000000E+00 -0.00000000000E+00 -0.74505805969E-08  0.93827000000E+00  0.93827000000E+00 0. -1.
     999902    2    1    2    0    0 -0.16518833690E-01 -0.21828575075E-02 -0.17209209081E-01  0.10199760105E+01  0.10196946938E+01 0.  0.
     999903    2    3    3    0    0 -0.32746380496E-01 -0.12440701187E+00 -0.17656540915E-01  0.13138033349E+00  0.19990211453E-01 0.  0.
         14    1    1    2    0    0  0.16518833690E-01  0.21828575075E-02  0.17209209081E-01  0.23953989450E-01  0.00000000000E+00 0.  1.
     999901    1    3    3    0    0  0.16227546806E-01  0.12222415436E+00  0.44733183452E-03  0.88859567706E+00  0.88000000000E+00 0. -1.
        -11    1    4    4    0    0 -0.69657216584E-02 -0.32878871624E-01 -0.13427504104E-01  0.36195309985E-01  0.51100000000E-03 0. -1.
         11    1    4    4    0    0 -0.25780658838E-01 -0.91528140242E-01 -0.42290368115E-02  0.95185023505E-01  0.51100000000E-03 0.  1.
</event>
<event>
 8    1  0.1131376E+005  0.1043930E+01  0.7957747E-01            NaN
         13   -1    0    0    0    0  0.00000000000E+00  0.00000000000E+00  0.74505805969E-08  0.10566000000E+00  0.10566000000E+00 0. -1.
     999900   -1    0    0    0    0 -0.00000000000E+00 -0.00000000000E+00 -0.74505805969E-08  0.93827000000E+00  0.93827000000E+00 0.  1.
     999902    2    1    2    0    0 -0.77998336692E-02 -0.13365280733E-02 -0.22991525844E-01  0.10196146967E+01  0.10193247254E+01 0.  0.
     999903    2    3    3    0    0 -0.16475247074E-01 -0.10755663669E+00 -0.71734610586E-01  0.13184565999E+00  0.19938902708E-01 0.  0.
         14    1    1    2    0    0  0.77998336692E-02  0.13365280733E-02  0.22991525844E-01  0.24315303272E-01  0.00000000000E+00 0. -1.
     999901    1    3    3    0    0  0.86754134051E-02  0.10622010862E+00  0.48743084742E-01  0.88776903673E+00  0.88000000000E+00 0. -1.
        -11    1    4    4    0    0 -0.16316869557E-01 -0.71361655060E-01 -0.38536903813E-01  0.82728955762E-01  0.51100000000E-03 0.  1.
         11    1    4    4    0    0 -0.15837751711E-03 -0.36194981631E-01 -0.33197706773E-01  0.49116704232E-01  0.51100000000E-03 0. -1.
</event>
<event>
 8    1  0.1131376E+005  0.1043930E+01  0.7957747E-01            NaN
         13   -1    0    0    0    0  0.00000000000E+00  0.00000000000E+00  0.74505805969E-08  0.10566000000E+00  0.10566000000E+00 0. -1.
     999900   -1    0    0    0    0 -0.00000000000E+00 -0.00000000000E+00 -0.74505805969E-08  0.93827000000E+00  0.93827000000E+00 0.  1.
     999902    2    1    2    0    0  0.13444992110E-01 -0.59398917315E-02 -0.18761075302E-01  0.10200966605E+01  0.10198182037E+01 0.  0.
     999903    2    3    3    0    0  0.54005849309E-01 -0.10898213983E+00 -0.49001673696E-01  0.13264109436E+00  0.19968908963E-01 0.  0.
         14    1    1    2    0    0 -0.13444992110E-01  0.59398917315E-02  0.18761075302E-01  0.23833339530E-01  0.00000000000E+00 0. -1.
     999901    1    3    3    0    0 -0.40560857198E-01  0.10304224810E+00  0.30240598394E-01  0.88745556611E+00  0.88000000000E+00 0. -1.
        -11    1    4    4    0    0  0.13286283036E-01 -0.11511574083E-01 -0.58923273590E-02  0.18547838081E-01  0.51100000000E-03 0.  1.
         11    1    4    4    0    0  0.40719566273E-01 -0.97470565752E-01 -0.43109346337E-01  0.11409325628E+00  0.51100000000E-03 0. -1.
</event>
<event>
 8    1  0.1131376E+005  0.1043930E+01  0.7957747E-01            NaN
         13   -1    0    0    0    0  0.00000000000E+00  0.00000000000E+00  0.74505805969E-08  0.10566000000E+00  0.10566000000E+00 0.  1.
     999900   -1    0    0    0    0 -0.00000000000E+00 -0.00000000000E+00 -0.74505805969E-08  0.93827000000E+00  0.93827000000E+00 0.  1.
     999902    2    1    2    0    0  0.83155705981E-02  0.69029328388E-02 -0.21140186064E-01  0.10201874925E+01  0.10199111791E+01 0.  0.
     999903    2    3    3    0    0  0.10756445472E+00 -0.61082348099E-01 -0.40967977635E-01  0.13178134621E+00  0.19666795593E-01 0.  0.
         14    1    1    2    0    0 -0.83155705981E-02 -0.69029328388E-02  0.21140186064E-01  0.23742507512E-01  0.00000000000E+00 0.  1.
     999901    1    3    3    0    0 -0.99248884123E-01  0.67985280938E-01  0.19827791571E-01  0.88840614628E+00  0.88000000000E+00 0. -1.
        -11    1    4    4    0    0  0.18514242086E-01 -0.10177228524E-01 -0.15164456883E-01  0.26011055611E-01  0.51100000000E-03 0.  1.
         11    1    4    4    0    0  0.89050212636E-01 -0.50905119575E-01 -0.25803520752E-01  0.10577029060E+00  0.51100000000E-03 0. -1.
</event>
<event>
 8    1  0.1131376E+005  0.1043930E+01  0.7957747E-01            NaN
         13   -1    0    0    0    0  0.00000000000E+00  0.00000000000E+00  0.74505805969E-08  0.10566000000E+00  0.10566000000E+00 0.  1.
     999900   -1    0    0    0    0 -0.00000000000E+00 -0.00000000000E+00 -0.74505805969E-08  0.93827000000E+00  0.93827000000E+00 0.  1.
     999902    2    1    2    0    0  0.45767708312E-02  0.76255766395E-02 -0.22077008688E-01  0.10201289378E+01  0.10198512436E+01 0.  0.
     999903    2    3    3    0    0  0.12748993947E+00 -0.13767145300E-01  0.13758217371E-01  0.13060689814E+00  0.20631392116E-01 0.  0.
         14    1    1    2    0    0 -0.45767708312E-02 -0.76255766395E-02  0.22077008688E-01  0.23801062222E-01  0.00000000000E+00 0.  1.
     999901    1    3    3    0    0 -0.12291316864E+00  0.21392721939E-01 -0.35835226059E-01  0.88952203964E+00  0.88000000000E+00 0.  1.
        -11    1    4    4    0    0  0.80149643176E-01 -0.87906851898E-02 -0.14120002343E-02  0.80644257780E-01  0.51100000000E-03 0.  1.
         11    1    4    4    0    0  0.47340296293E-01 -0.49764601098E-02  0.15170217606E-01  0.49962640358E-01  0.51100000000E-03 0. -1.
</event>
<event>
 8    1  0.1131376E+005  0.1043930E+01  0.7957747E-01            NaN
         13   -1    0    0    0    0  0.00000000000E+00  0.00000000000E+00  0.74505805969E-08  0.10566000000E+00  0.10566000000E+00 0.  1.
     999900   -1    0    0    0    0 -0.00000000000E+00 -0.00000000000E+00 -0.74505805969E-08  0.93827000000E+00  0.93827000000E+00 0.  1.
     999902    2    1    2    0    0 -0.68238908729E-02 -0.54910935921E-03  0.22192801391E-01  0.10207052838E+01  0.10204410267E+01 0.  0.
     999903    2    3    3    0    0  0.76722470823E-01 -0.42648405313E-01 -0.92601377740E-01  0.12833201617E+00  0.13742896679E-01 0.  0.
         14    1    1    2    0    0  0.68238908729E-02  0.54910935921E-03 -0.22192801391E-01  0.23224716173E-01  0.00000000000E+00 0. -1.
     999901    1    3    3    0    0 -0.83546361696E-01  0.42099295953E-01  0.11479417913E+00  0.89237326766E+00  0.88000000000E+00 0. -1.
        -11    1    4    4    0    0  0.27034733242E-01 -0.16230325263E-01 -0.24176954071E-01  0.39737721233E-01  0.51100000000E-03 0.  1.
         11    1    4    4    0    0  0.49687737581E-01 -0.26418080050E-01 -0.68424423669E-01  0.88594294934E-01  0.51100000000E-03 0. -1.
</event>
<event>
 8    1  0.1131376E+005  0.1043930E+01  0.7957747E-01            NaN
         13   -1    0    0    0    0  0.00000000000E+00  0.00000000000E+00  0.74505805969E-08  0.10566000000E+00  0.10566000000E+00 0.  1.
     999900   -1    0    0    0    0 -0.00000000000E+00 -0.00000000000E+00 -0.74505805969E-08  0.93827000000E+00  0.93827000000E+00 0.  1.
     999902    2    1    2    0    0 -0.23173432538E-01  0.43848934616E-02 -0.69328768794E-02  0.10193474849E+01  0.10190510267E+01 0.  0.
     999903    2    3    3    0    0  0.65397460709E-01 -0.69860945729E-01  0.81758585129E-01  0.12737023004E+00  0.19527663812E-01 0.  0.
         14    1    1    2    0    0  0.23173432538E-01 -0.43848934616E-02  0.69328768794E-02  0.24582515088E-01  0.00000000000E+00 0. -1.
     999901    1    3    3    0    0 -0.88570893247E-01  0.74245839190E-01 -0.88691462008E-01  0.89197725487E+00  0.88000000000E+00 0.  1.
        -11    1    4    4    0    0  0.39398634295E-01 -0.53488208063E-01  0.61756611498E-01  0.90704911503E-01  0.51100000000E-03 0. -1.
         11    1    4    4    0    0  0.25998826414E-01 -0.16372737665E-01  0.20001973631E-01  0.36665318541E-01  0.51100000000E-03 0.  1.
</event>
<event>
 8    1  0.1131376E+005  0.1043930E+01  0.7957747E-01            NaN
         13   -1    0    0    0    0  0.00000000000E+00  0.00000000000E+00  0.74505805969E-08  0.10566000000E+00  0.10566000000E+00 0. -1.
     999900   -1    0    0    0    0 -0.00000000000E+00 -0.00000000000E+00 -0.74505805969E-08  0.93827000000E+00  0.93827000000E+00 0. -1.
     999902    2    1    2    0    0 -0.21925893048E-01  0.68953707160E-02  0.18187172458E-02  0.10208735767E+01  0.10206131789E+01 0.  0.
     999903    2    3    3    0    0 -0.60430941477E-02 -0.11871005377E-01  0.12893996972E+00  0.13139943260E+00  0.21514073127E-01 0.  0.
         14    1    1    2    0    0  0.21925893048E-01 -0.68953707160E-02 -0.18187172458E-02  0.23056423307E-01  0.00000000000E+00 0. -1.
     999901    1    3    3    0    0 -0.15882798901E-01  0.18766376093E-01 -0.12712125247E+00  0.88947414409E+00  0.88000000000E+00 0. -1.
        -11    1    4    4    0    0  0.75316877414E-02 -0.77638434544E-02  0.46278677743E-01  0.47528735729E-01  0.51100000000E-03 0. -1.
         11    1    4    4    0    0 -0.13574781889E-01 -0.41071619230E-02  0.82661291975E-01  0.83870696875E-01  0.51100000000E-03 0.  1.
</event>
<event>
 8    1  0.1131376E+005  0.1043930E+01  0.7957747E-01            NaN
         13   -1    0    0    0    0  0.00000000000E+00  0.00000000000E+00  0.74505805969E-08  0.10566000000E+00  0.10566000000E+00 0.  1.
     999900   -1    0    0    0    0 -0.00000000000E+00 -0.00000000000E+00 -0.74505805969E-08  0.93827000000E+00  0.93827000000E+00 0.  1.
     999902    2    1    2    0    0  0.17708524340E-01 -0.12935214423E-02  0.16162084179E-01  0.10199200438E+01  0.10196373952E+01 0.  0.
     999903    2    3    3    0    0  0.26602819725E-01 -0.54589019828E-01 -0.11198570404E+00  0.12899840063E+00  0.20300698294E-01 0.  0.
         14    1    1    2    0    0 -0.17708524340E-01  0.12935214423E-02 -0.16162084179E-01  0.24009956206E-01  0.00000000000E+00 0. -1.
     999901    1    3    3    0    0 -0.88942953847E-02  0.53295498386E-01  0.12814778822E+00  0.89092164317E+00  0.88000000000E+00 0. -1.
        -11    1    4    4    0    0  0.93793731354E-02 -0.31386555620E-01 -0.41902236748E-01  0.53189727200E-01  0.51100000000E-03 0. -1.
         11    1    4    4    0    0  0.17223446589E-01 -0.23202464209E-01 -0.70083467294E-01  0.75808673426E-01  0.51100000000E-03 0.  1.
</event>
<event>
 8    1  0.1131376E+005  0.1043930E+01  0.7957747E-01            NaN
         13   -1    0    0    0    0  0.00000000000E+00  0.00000000000E+00  0.74505805969E-08  0.10566000000E+00  0.10566000000E+00 0. -1.
     999900   -1    0    0    0    0 -0.00000000000E+00 -0.00000000000E+00 -0.74505805969E-08  0.93827000000E+00  0.93827000000E+00 0.  1.
     999902    2    1    2    0    0  0.68578129584E-02  0.25062842437E-02 -0.22070320505E-01  0.10206832775E+01  0.10204185136E+01 0.  0.
     999903    2    3    3    0    0 -0.47191391506E-01 -0.11365627555E+00 -0.40405217752E-01  0.13121645674E+00  0.20985721193E-01 0.  0.
         14    1    1    2    0    0 -0.68578129584E-02 -0.25062842437E-02  0.22070320505E-01  0.23246722489E-01  0.00000000000E+00 0. -1.
     999901    1    3    3    0    0  0.54049204464E-01  0.11616255979E+00  0.18334897248E-01  0.88946682077E+00  0.88000000000E+00 0.  1.
        -11    1    4    4    0    0 -0.23180701592E-01 -0.30788326313E-01 -0.11388552969E-01  0.40189877123E-01  0.51100000000E-03 0. -1.
         11    1    4    4    0    0 -0.24010689914E-01 -0.82867949233E-01 -0.29016664784E-01  0.91026579615E-01  0.51100000000E-03 0.  1.
</event>
<event>
 8    1  0.1131376E+005  0.1043930E+01  0.7957747E-01            NaN
         13   -1    0    0    0    0  0.00000000000E+00  0.00000000000E+00  0.74505805969E-08  0.10566000000E+00  0.10566000000E+00 0.  1.
     999900   -1    0    0    0    0 -0.00000000000E+00 -0.00000000000E+00 -0.74505805969E-08  0.93827000000E+00  0.93827000000E+00 0. -1.
     999902    2    1    2    0    0  0.19355428836E-01 -0.11309260153E-01  0.84134228599E-02  0.10199859470E+01  0.10197048663E+01 0.  0.
     999903    2    3    3    0    0 -0.12383980494E+00 -0.11746041049E-01 -0.21538652359E-01  0.12790848815E+00  0.20552397121E-01 0.  0.
         14    1    1    2    0    0 -0.19355428836E-01  0.11309260153E-01 -0.84134228599E-02  0.23944053016E-01  0.00000000000E+00 0.  1.
     999901    1    3    3    0    0  0.14319523377E+00  0.43678089660E-03  0.29952075219E-01  0.89207745884E+00  0.88000000000E+00 0. -1.
        -11    1    4    4    0    0 -0.12201372879E+00 -0.91708197265E-02 -0.22810186536E-01  0.12446694211E+00  0.51100000000E-03 0. -1.
         11    1    4    4    0    0 -0.18260761476E-02 -0.25752213229E-02  0.12715341767E-02  0.34415460365E-02  0.51100000000E-03 0.  1.
</event>
<event>
 8    1  0.1131376E+005  0.1043930E+01  0.7957747E-01            NaN
         13   -1    0    0    0    0  0.00000000000E+00  0.00000000000E+00  0.74505805969E-08  0.10566000000E+00  0.10566000000E+00 0. -1.
     999900   -1    0    0    0    0 -0.00000000000E+00 -0.00000000000E+00 -0.74505805969E-08  0.93827000000E+00  0.93827000000E+00 0.  1.
     999902    2    1    2    0    0 -0.69988632752E-02 -0.19194135058E-01 -0.82723582011E-02  0.10218884298E+01  0.10216506899E+01 0.  0.
     999903    2    3    3    0    0  0.83752155935E-01  0.96909675873E-01  0.56515194481E-02  0.12952655432E+00  0.18419546682E-01 0.  0.
         14    1    1    2    0    0  0.69988632752E-02  0.19194135058E-01  0.82723582011E-02  0.22041570224E-01  0.00000000000E+00 0.  1.
     999901    1    3    3    0    0 -0.90751019210E-01 -0.11610381093E+00 -0.13923877649E-01  0.89236187546E+00  0.88000000000E+00 0. -1.
        -11    1    4    4    0    0  0.64773763568E-01  0.85392412227E-01  0.54640312475E-02  0.10732018110E+00  0.51100000000E-03 0. -1.
         11    1    4    4    0    0  0.18978392367E-01  0.11517263646E-01  0.18748820066E-03  0.22206373220E-01  0.51100000000E-03 0.  1.
</event>
<event>
 7    1  0.1131376E+005  0.1043930E+01  0.7957747E-01            NaN
         13   -1    0    0    0    0  0.00000000000E+00  0.00000000000E+00  0.74505805969E-08  0.10566000000E+00  0.10566000000E+00 0. -1.
     999900   -1    0    0    0    0 -0.00000000000E+00 -0.00000000000E+00 -0.74505805969E-08  0.93827000000E+00  0.93827000000E+00 0. -1.
     999903    2    1    2    0    0 -0.62833155602E-01 -0.43954274061E-01  0.82443484252E-01  0.11419406349E+00  0.19062329074E-01 0.  0.
         14    1    1    2    0    0  0.38071145951E-01  0.23016709340E-02 -0.26864587453E-01  0.46652072860E-01  0.00000000000E+00 0.  1.
     999901    1    1    2    0    0  0.24762009651E-01  0.41652603127E-01 -0.55578896799E-01  0.88308386365E+00  0.88000000000E+00 0. -1.
        -11    1    3    3    0    0 -0.24923750543E-01 -0.15423844090E-01  0.18858721700E-01  0.34856861775E-01  0.51100000000E-03 0. -1.
         11    1    3    3    0    0 -0.37909405059E-01 -0.28530429971E-01  0.63584762552E-01  0.79337201716E-01  0.51100000000E-03 0.  1.
</event>
<event>
 8    1  0.1131376E+005  0.1043930E+01  0.7957747E-01            NaN
         13   -1    0    0    0    0  0.00000000000E+00  0.00000000000E+00  0.74505805969E-08  0.10566000000E+00  0.10566000000E+00 0. -1.
     999900   -1    0    0    0    0 -0.00000000000E+00 -0.00000000000E+00 -0.74505805969E-08  0.93827000000E+00  0.93827000000E+00 0. -1.
     999902    2    1    2    0    0 -0.20969977583E-01 -0.86552440167E-02 -0.60556478271E-02  0.10204497087E+01  0.10201795351E+01 0.  0.
     999903    2    3    3    0    0 -0.70488181313E-01  0.10708166957E+00 -0.20741372309E-01  0.13136998440E+00  0.19819198077E-01 0.  0.
         14    1    1    2    0    0  0.20969977583E-01  0.86552440167E-02  0.60556478271E-02  0.23480291297E-01  0.00000000000E+00 0.  1.
     999901    1    3    3    0    0  0.49518203731E-01 -0.11573691359E+00  0.14685724482E-01  0.88907972431E+00  0.88000000000E+00 0. -1.
        -11    1    4    4    0    0 -0.61278279834E-01  0.92603483978E-01 -0.24688765355E-01  0.11375512771E+00  0.51100000000E-03 0.  1.
         11    1    4    4    0    0 -0.92099014796E-02  0.14478185592E-01  0.39473930451E-02  0.17614856688E-01  0.51100000000E-03 0. -1.
</event>
<event>
 8    1  0.1131376E+005  0.1043930E+01  0.7957747E-01            NaN
         13   -1    0    0    0    0  0.00000000000E+00  0.00000000000E+00  0.74505805969E-08  0.10566000000E+00  0.10566000000E+00 0. -1.
     999900   -1    0    0    0    0 -0.00000000000E+00 -0.00000000000E+00 -0.74505805969E-08  0.93827000000E+00  0.93827000000E+00 0. -1.
     999902    2    1    2    0    0 -0.15816379293E-01  0.17209909533E-01 -0.41899910300E-03  0.10205523525E+01  0.10202845632E+01 0.  0.
     999903    2    3    3    0    0  0.33845111897E-01 -0.57498394606E-02  0.12391424309E+00  0.13012988602E+00  0.20012379738E-01 0.  0.
         14    1    1    2    0    0  0.15816379293E-01 -0.17209909533E-01  0.41899910300E-03  0.23377647451E-01  0.00000000000E+00 0.  1.
     999901    1    3    3    0    0 -0.49661491190E-01  0.22959748994E-01 -0.12433324219E+00  0.89042246653E+00  0.88000000000E+00 0. -1.
        -11    1    4    4    0    0 -0.12640706318E-02  0.32026134859E-02  0.12088169070E-01  0.12579330673E-01  0.51100000000E-03 0. -1.
         11    1    4    4    0    0  0.35109182529E-01 -0.89524529466E-02  0.11182607402E+00  0.11755055535E+00  0.51100000000E-03 0.  1.
</event>
<event>
 8    1  0.1131376E+005  0.1043930E+01  0.7957747E-01            NaN
         13   -1    0    0    0    0  0.00000000000E+00  0.00000000000E+00  0.74505805969E-08  0.10566000000E+00  0.10566000000E+00 0. -1.
     999900   -1    0    0    0    0 -0.00000000000E+00 -0.00000000000E+00 -0.74505805969E-08  0.93827000000E+00  0.93827000000E+00 0. -1.
     999902    2    1    2    0    0  0.10391450499E-01  0.64582512471E-02 -0.15949735652E-01  0.10238281265E+01  0.10236307670E+01 0.  0.
     999903    2    3    3    0    0 -0.51350880595E-01  0.11635129457E+00 -0.38852782007E-01  0.13455137204E+00  0.20493812776E-01 0.  0.
         14    1    1    2    0    0 -0.10391450499E-01 -0.64582512471E-02  0.15949735652E-01  0.20101873544E-01  0.00000000000E+00 0. -1.
     999901    1    3    3    0    0  0.61742331094E-01 -0.10989304332E+00  0.22903046355E-01  0.88927675442E+00  0.88000000000E+00 0.  1.
        -11    1    4    4    0    0 -0.33349131425E-01  0.62867328164E-01 -0.12456935705E-01  0.72248888472E-01  0.51100000000E-03 0. -1.
         11    1    4    4    0    0 -0.18001749170E-01  0.53483966402E-01 -0.26395846302E-01  0.62302483564E-01  0.51100000000E-03 0.  1.
</event>
<event>
 8    1  0.1131376E+005  0.1043930E+01  0.7957747E-01            NaN
         13   -1    0    0    0    0  0.00000000000E+00  0.00000000000E+00  0.74505805969E-08  0.10566000000E+00  0.10566000000E+00 0.  1.
     999900   -1    0    0    0    0 -0.00000000000E+00 -0.00000000000E+00 -0.74505805969E-08  0.93827000000E+00  0.93827000000E+00 0. -1.
     999902    2    1    2    0    0  0.20263980149E-01  0.47631483942E-02  0.16606884422E-01  0.10173009729E+01  0.10169523904E+01 0.  0.
     999903    2    3    3    0    0 -0.50156453948E-01  0.84089198118E-01  0.80523937224E-01  0.12862946478E+00  0.21789254949E-01 0.  0.
         14    1    1    2    0    0 -0.20263980149E-01 -0.47631483942E-02 -0.16606884422E-01  0.26629027100E-01  0.00000000000E+00 0.  1.
     999901    1    3    3    0    0  0.70420434097E-01 -0.79326049723E-01 -0.63917052801E-01  0.88867150812E+00  0.88000000000E+00 0. -1.
        -11    1    4    4    0    0 -0.21098871786E-02  0.19843759007E-01  0.18600311021E-01  0.27284777560E-01  0.51100000000E-03 0.  1.
         11    1    4    4    0    0 -0.48046566769E-01  0.64245439110E-01  0.61923626203E-01  0.10134468722E+00  0.51100000000E-03 0. -1.
</event>
<event>
 8    1  0.1131376E+005  0.1043930E+01  0.7957747E-01            NaN
         13   -1    0    0    0    0  0.00000000000E+00  0.00000000000E+00  0.74505805969E-08  0.10566000000E+00  0.10566000000E+00 0.  1.
     999900   -1    0    0    0    0 -0.00000000000E+00 -0.00000000000E+00 -0.74505805969E-08  0.93827000000E+00  0.93827000000E+00 0. -1.
     999902    2    1    2    0    0 -0.95220382815E-02  0.10900563958E-01 -0.16857700303E-01  0.10217112339E+01  0.10214696138E+01 0.  0.
     999903    2    3    3    0    0  0.79074343906E-01 -0.20318685740E-02  0.10062343611E+00  0.12940053455E+00  0.19040538178E-01 0.  0.
         14    1    1    2    0    0  0.95220382815E-02 -0.10900563958E-01  0.16857700303E-01  0.22218766103E-01  0.00000000000E+00 0.  1.
     999901    1    3    3    0    0 -0.88596382187E-01  0.12932432532E-01 -0.11748113641E+00  0.89231069934E+00  0.88000000000E+00 0.  1.
        -11    1    4    4    0    0  0.65401297957E-01 -0.84065433739E-03  0.69809452085E-01  0.95664294257E-01  0.51100000000E-03 0.  1.
         11    1    4    4    0    0  0.13673045949E-01 -0.11912142366E-02  0.30813984026E-01  0.33736240298E-01  0.51100000000E-03 0. -1.
</event>
<event>
 8    1  0.1131376E+005  0.1043930E+01  0.7957747E-01            NaN
         13   -1    0    0    0    0  0.00000000000E+00  0.00000000000E+00  0.74505805969E-08  0.10566000000E+00  0.10566000000E+00 0.  1.
     999900   -1    0    0    0    0 -0.00000000000E+00 -0.00000000000E+00 -0.74505805969E-08  0.93827000000E+00  0.93827000000E+00 0.  1.
     999902    2    1    2    0    0 -0.93159068795E-02 -0.24302671190E-01  0.53923810956E-02  0.10173502385E+01  0.10170029617E+01 0.  0.
     999903    2    3    3    0    0  0.29865178896E-01  0.29115810477E-01  0.11890189799E+00  0.12759010110E+00  0.20047773490E-01 0.  0.
         14    1    1    2    0    0  0.93159068795E-02  0.24302671190E-01 -0.53923810956E-02  0.26579761508E-01  0.00000000000E+00 0.  1.
     999901    1    3    3    0    0 -0.39181085775E-01 -0.53418481668E-01 -0.11350951690E+00  0.88976013739E+00  0.88000000000E+00 0.  1.
        -11    1    4    4    0    0  0.11633760944E-01  0.24703651401E-01  0.64534161362E-01  0.70075201676E-01  0.51100000000E-03 0.  1.
         11    1    4    4    0    0  0.18231417952E-01  0.44121590762E-02  0.54367736631E-01  0.57514899423E-01  0.51100000000E-03 0. -1.
</event>
<event>
 8    1  0.1131376E+005  0.1043930E+01  0.7957747E-01            NaN
         13   -1    0    0    0    0  0.00000000000E+00  0.00000000000E+00  0.74505805969E-08  0.10566000000E+00  0.10566000000E+00 0.  1.
     999900   -1    0    0    0    0 -0.00000000000E+00 -0.00000000000E+00 -0.74505805969E-08  0.93827000000E+00  0.93827000000E+00 0. -1.
     999902    2    1    2    0    0  0.20785440218E-01 -0.28256979178E-02 -0.75202534162E-02  0.10216460752E+01  0.10214030202E+01 0.  0.
     999903    2    3    3    0    0 -0.26024693575E-01  0.63433455059E-01 -0.11069374658E+00  0.13191227585E+00  0.21134216154E-01 0.  0.
         14    1    1    2    0    0 -0.20785440218E-01  0.28256979178E-02  0.75202534162E-02  0.22283924816E-01  0.00000000000E+00 0.  1.
     999901    1    3    3    0    0  0.46810133793E-01 -0.66259152977E-01  0.10317349316E+00  0.88973379933E+00  0.88000000000E+00 0.  1.
        -11    1    4    4    0    0 -0.21237381921E-01  0.24182402757E-01 -0.50987792791E-01  0.60297853433E-01  0.51100000000E-03 0. -1.
         11    1    4    4    0    0 -0.47873116542E-02  0.39251052302E-01 -0.59705953789E-01  0.71614422420E-01  0.51100000000E-03 0.  1.
</event>
<event>
 8    1  0.1131376E+005  0.1043930E+01  0.7957747E-01            NaN
         13   -1    0    0    0    0  0.00000000000E+00  0.00000000000E+00  0.74505805969E-08  0.10566000000E+00  0.10566000000E+00 0. -1.
     999900   -1    0    0    0    0 -0.00000000000E+00 -0.00000000000E+00 -0.74505805969E-08  0.93827000000E+00  0.93827000000E+00 0. -1.
     999902    2    1    2    0    0  0.13028755010E-01  0.10783776456E-01  0.17941146465E-01  0.10192739048E+01  0.10189756474E+01 0.  0.
     999903    2    3    3    0    0  0.13414096194E-01  0.72098803221E-01 -0.10381155201E+00  0.12877775068E+00  0.20704959249E-01 0.  0.
         14    1    1    2    0    0 -0.13028755010E-01 -0.10783776456E-01 -0.17941146465E-01  0.24656095154E-01  0.00000000000E+00 0.  1.
     999901    1    3    3    0    0 -0.38534118471E-03 -0.61315026764E-01  0.12175269847E+00  0.89049615416E+00  0.88000000000E+00 0.  1.
        -11    1    4    4    0    0 -0.45448657195E-02  0.16976090722E-01 -0.31710398281E-01  0.36258156886E-01  0.51100000000E-03 0.  1.
         11    1    4    4    0    0  0.17958961914E-01  0.55122712498E-01 -0.72101153729E-01  0.92519593796E-01  0.51100000000E-03 0. -1.
</event>
<event>
 8    1  0.1131376E+005  0.1043930E+01  0.7957747E-01            NaN
         13   -1    0    0    0    0  0.00000000000E+00  0.00000000000E+00  0.74505805969E-08  0.10566000000E+00  0.10566000000E+00 0. -1.
     999900   -1    0    0    0    0 -0.00000000000E+00 -0.00000000000E+00 -0.74505805969E-08  0.93827000000E+00  0.93827000000E+00 0. -1.
     999902    2    1    2    0    0  0.18364454643E-01 -0.13739232390E-01  0.72251281606E-02  0.10198837492E+01  0.10196002352E+01 0.  0.
     999903    2    3    3    0    0 -0.97405373558E-01 -0.81728632615E-01  0.15768685226E-01  0.12966006717E+00  0.19892345205E-01 0.  0.
         14    1    1    2    0    0 -0.18364454643E-01  0.13739232390E-01 -0.72251281606E-02  0.24046250808E-01  0.00000000000E+00 0.  1.
     999901    1    3    3    0    0  0.11576982820E+00  0.67989400224E-01 -0.85435570657E-02  0.89022368202E+00  0.88000000000E+00 0. -1.
        -11    1    4    4    0    0 -0.64418090143E-01 -0.45792503573E-01  0.23821924086E-02  0.79073255168E-01  0.51100000000E-03 0.  1.
         11    1    4    4    0    0 -0.32987283415E-01 -0.35936129041E-01  0.13386492818E-01  0.50586812002E-01  0.51100000000E-03 0. -1.
</event>
<event>
 8    1  0.1131376E+005  0.1043930E+01  0.7957747E-01            NaN
         13   -1    0    0    0    0  0.00000000000E+00  0.00000000000E+00  0.74505805969E-08  0.10566000000E+00  0.10566000000E+00 0. -1.
     999900   -1    0    0    0    0 -0.00000000000E+00 -0.00000000000E+00 -0.74505805969E-08  0.93827000000E+00  0.93827000000E+00 0.  1.
     999902    2    1    2    0    0  0.70518692187E-02 -0.70653251482E-02  0.21804243229E-01  0.10199493265E+01  0.10196673751E+01 0.  0.
     999903    2    3    3    0    0 -0.97649794014E-01  0.51075570440E-01 -0.61149685362E-01  0.12797166069E+00  0.22209586983E-01 0.  0.
         14    1    1    2    0    0 -0.70518692187E-02  0.70653251482E-02 -0.21804243229E-01  0.23980673504E-01  0.00000000000E+00 0.  1.
     999901    1    3    3    0    0  0.10470166323E+00 -0.58140895588E-01  0.82953928590E-01  0.89197766580E+00  0.88000000000E+00 0. -1.
        -11    1    4    4    0    0 -0.68882244987E-01  0.38789024767E-01 -0.32246106000E-01  0.85378127117E-01  0.51100000000E-03 0. -1.
         11    1    4    4    0    0 -0.28767549027E-01  0.12286545673E-01 -0.28903579361E-01  0.42593533576E-01  0.51100000000E-03 0.  1.
</event>
<event>
 8    1  0.1131376E+005  0.1043930E+01  0.7957747E-01            NaN
         13   -1    0    0    0    0  0.00000000000E+00  0.00000000000E+00  0.74505805969E-08  0.10566000000E+00  0.10566000000E+00 0.  1.
     999900   -1    0    0    0    0 -0.00000000000E+00 -0.00000000000E+00 -0.74505805969E-08  0.93827000000E+00  0.93827000000E+00 0. -1.
     999902    2    1    2    0    0 -0.20721072122E-01  0.25695643441E-02  0.30586547259E-02  0.10228273732E+01  0.10226096589E+01 0.  0.
     999903    2    3    3    0    0 -0.18796029895E-01  0.56418622418E-01  0.11816562467E+00  0.13369687578E+00  0.19374933411E-01 0.  0.
         14    1    1    2    0    0  0.20721072122E-01 -0.25695643441E-02 -0.30586547259E-02  0.21102626840E-01  0.00000000000E+00 0. -1.
     999901    1    3    3    0    0 -0.19250422273E-02 -0.53849058073E-01 -0.11510696994E+00  0.88913049738E+00  0.88000000000E+00 0. -1.
        -11    1    4    4    0    0 -0.80300206849E-02  0.24649510416E-01  0.31717356366E-01  0.40967443316E-01  0.51100000000E-03 0. -1.
         11    1    4    4    0    0 -0.10766009210E-01  0.31769112001E-01  0.86448268302E-01  0.92729432464E-01  0.51100000000E-03 0.  1.
</event>
<event>
 8    1  0.1131376E+005  0.1043930E+01  0.7957747E-01            NaN
         13   -1    0    0    0    0  0.00000000000E+00  0.00000000000E+00  0.74505805969E-08  0.10566000000E+00  0.10566000000E+00 0.  1.
     999900   -1    0    0    0    0 -0.00000000000E+00 -0.00000000000E+00 -0.74505805969E-08  0.93827000000E+00  0.93827000000E+00 0.  1.
     999902    2    1    2    0    0  0.18538848094E-01 -0.37763113522E-02  0.16129671134E-01  0.10190680671E+01  0.10187647470E+01 0.  0.
     999903    2    3    3    0    0 -0.12136714390E+00  0.15700845282E-02 -0.30114232645E-01  0.12680085983E+00  0.20955721488E-01 0.  0.
         14    1    1    2    0    0 -0.18538848094E-01  0.37763113522E-02 -0.16129671134E-01  0.24861932889E-01  0.00000000000E+00 0. -1.
     999901    1    3    3    0    0  0.13990599199E+00 -0.53463958804E-02  0.46243903779E-01  0.89226720728E+00  0.88000000000E+00 0.  1.
        -11    1    4    4    0    0 -0.19897987180E-01 -0.75161169324E-02 -0.43372504661E-02  0.21713930325E-01  0.51100000000E-03 0.  1.
         11    1    4    4    0    0 -0.10146915672E+00  0.90862014606E-02 -0.25776982179E-01  0.10508692951E+00  0.51100000000E-03 0. -1.
</event>
<event>
 8    1  0.1131376E+005  0.1043930E+01  0.7957747E-01            NaN
         13   -1    0    0    0    0  0.00000000000E+00  0.00000000000E+00  0.74505805969E-08  0.10566000000E+00  0.10566000000E+00 0.  1.
     999900   -1    0    0    0    0 -0.00000000000E+00 -0.00000000000E+00 -0.74505805969E-08  0.93827000000E+00  0.93827000000E+00 0. -1.
     999902    2    1    2    0    0 -0.20705006184E-01  0.28816459896E-02 -0.10884371728E-01  0.10203615738E+01  0.10200893444E+01 0.  0.
     999903    2    3    3    0    0  0.54593530240E-01 -0.34290399860E-01  0.10909585346E+00  0.12825906569E+00  0.19803979940E-01 0.  0.
         14    1    1    2    0    0  0.20705006184E-01 -0.28816459896E-02  0.10884371728E-01  0.23568426180E-01  0.00000000000E+00 0.  1.
     999901    1    3    3    0    0 -0.75298536424E-01  0.37172045850E-01 -0.11998022519E+00  0.89210250813E+00  0.88000000000E+00 0.  1.
        -11    1    4    4    0    0  0.36642612347E-01 -0.12504467778E-01  0.70577583646E-01  0.80501547738E-01  0.51100000000E-03 0. -1.
         11    1    4    4    0    0  0.17950917893E-01 -0.21785932082E-01  0.38518269817E-01  0.47757517949E-01  0.51100000000E-03 0.  1.
</event>
<event>
 8    1  0.1131376E+005  0.1043930E+01  0.7957747E-01            NaN
         13   -1    0    0    0    0  0.00000000000E+00  0.00000000000E+00  0.74505805969E-08  0.10566000000E+00  0.10566000000E+00 0. -1.
     999900   -1    0    0    0    0 -0.00000000000E+00 -0.00000000000E+00 -0.74505805969E-08  0.93827000000E+00  0.93827000000E+00 0.  1.
     999902    2    1    2    0    0  0.38913560627E-02  0.76018151019E-02 -0.23125027988E-01  0.10192784856E+01  0.10189803403E+01 0.  0.
     999903    2    3    3    0    0  0.74206351888E-01  0.14337011599E-01 -0.10693205575E+00  0.13247908354E+00  0.20102499032E-01 0.  0.
         14    1    1    2    0    0 -0.38913560627E-02 -0.76018151019E-02  0.23125027988E-01  0.24651514442E-01  0.00000000000E+00 0. -1.
     999901    1    3    3    0    0 -0.70314995825E-01 -0.67351964969E-02  0.83807027763E-01  0.88679940201E+00  0.88000000000E+00 0.  1.
        -11    1    4    4    0    0  0.54251110711E-02 -0.26495561075E-02 -0.31767632502E-02  0.68414123869E-02  0.51100000000E-03 0. -1.
         11    1    4    4    0    0  0.68781240817E-01  0.16986567706E-01 -0.10375529250E+00  0.12563767116E+00  0.51100000000E-03 0.  1.
</event>
<event>
 8    1  0.1131376E+005  0.1043930E+01  0.7957747E-01            NaN
         13   -1    0    0    0    0  0.00000000000E+00  0.00000000000E+00  0.74505805969E-08  0.10566000000E+00  0.10566000000E+00 0.  1.
     999900   -1    0    0    0    0 -0.00000000000E+00 -0.00000000000E+00 -0.74505805969E-08  0.93827000000E+00  0.93827000000E+00 0. -1.
     999902    2    1    2    0    0 -0.60095889936E-02  0.16931749421E-01 -0.15219658337E-01  0.10203835077E+01  0.10201117907E+01 0.  0.
     999903    2    3    3    0    0  0.10092829578E+00 -0.13299719062E-01  0.76252587482E-01  0.12869027313E+00  0.19578709967E-01 0.  0.
         14    1    1    2    0    0  0.60095889936E-02 -0.16931749421E-01  0.15219658337E-01  0.23546492270E-01  0.00000000000E+00 0.  1.
     999901    1    3    3    0    0 -0.10693788477E+00  0.30231468483E-01 -0.91472245819E-01  0.89169323461E+00  0.88000000000E+00 0. -1.
        -11    1    4    4    0    0  0.59693362861E-01  0.17691621123E-02  0.45699518716E-01  0.75200629226E-01  0.51100000000E-03 0.  1.
         11    1    4    4    0    0  0.41234932915E-01 -0.15068881175E-01  0.30553068766E-01  0.53489643899E-01  0.51100000000E-03 0. -1.
</event>
<event>
 8    1  0.1131376E+005  0.1043930E+01  0.7957747E-01            NaN
         13   -1    0    0    0    0  0.00000000000E+00  0.00000000000E+00  0.74505805969E-08  0.10566000000E+00  0.10566000000E+00 0.  1.
     999900   -1    0    0    0    0 -0.00000000000E+00 -0.00000000000E+00 -0.74505805969E-08  0.93827000000E+00  0.93827000000E+00 0.  1.
     999902    2    1    2    0    0  0.21965313220E-01  0.11088845223E-01 -0.98096109230E-05  0.10193243590E+01  0.10190273359E+01 0.  0.
     999903    2    3    3    0    0 -0.56070465433E-01  0.46660903203E-02 -0.11439163533E+00  0.12847418271E+00  0.15953052870E-01 0.  0.
         14    1    1    2    0    0 -0.21965313220E-01 -0.11088845223E-01  0.98096109230E-05  0.24605641009E-01  0.00000000000E+00 0. -1.
     999901    1    3    3    0    0  0.78035778653E-01  0.64227549024E-02  0.11438182572E+00  0.89085017628E+00  0.88000000000E+00 0. -1.
        -11    1    4    4    0    0 -0.38349435149E-01 -0.37209735219E-02 -0.69077080966E-01  0.79097591974E-01  0.51100000000E-03 0.  1.
         11    1    4    4    0    0 -0.17721030284E-01  0.83870638422E-02 -0.45314554364E-01  0.49376590733E-01  0.51100000000E-03 0. -1.
</event>
<event>
 8    1  0.1131376E+005  0.1043930E+01  0.7957747E-01            NaN
         13   -1    0    0    0    0  0.00000000000E+00  0.00000000000E+00  0.74505805969E-08  0.10566000000E+00  0.10566000000E+00 0.  1.
     999900   -1    0    0    0    0 -0.00000000000E+00 -0.00000000000E+00 -0.74505805969E-08  0.93827000000E+00  0.93827000000E+00 0.  1.
     999902    2    1    2    0    0 -0.21340144094E-02 -0.15003616520E-01  0.19709497194E-01  0.10190678439E+01  0.10187645183E+01 0.  0.
     999903    2    3    3    0    0  0.11963974251E+00 -0.27241852107E-01 -0.34614686259E-01  0.12893878630E+00  0.19267786905E-01 0.  0.
         14    1    1    2    0    0  0.21340144094E-02  0.15003616520E-01 -0.19709497194E-01  0.24862156097E-01  0.00000000000E+00 0. -1.
     999901    1    3    3    0    0 -0.12177375692E+00  0.12238235587E-01  0.54324183452E-01  0.89012905761E+00  0.88000000000E+00 0. -1.
        -11    1    4    4    0    0  0.12445301826E-01 -0.43929439177E-02  0.20482755581E-02  0.13365629337E-01  0.51100000000E-03 0. -1.
         11    1    4    4    0    0  0.10719444069E+00 -0.22848908189E-01 -0.36662961817E-01  0.11557315696E+00  0.51100000000E-03 0.  1.
</event>
<event>
 8    1  0.1131376E+005  0.1043930E+01  0.7957747E-01            NaN
         13   -1    0    0    0    0  0.00000000000E+00  0.00000000000E+00  0.74505805969E-08  0.10566000000E+00  0.10566000000E+00 0.  1.
     999900   -1    0    0    0    0 -0.00000000000E+00 -0.00000000000E+00 -0.74505805969E-08  0.93827000000E+00  0.93827000000E+00 0. -1.
     999902    2    1    2    0    0  0.40335019861E-02 -0.16035137814E-01  0.17240717765E-01  0.10200419877E+01  0.10197622368E+01 0.  0.
     999903    2    3    3    0    0  0.49152824926E-01 -0.38728930544E-01  0.11544767421E+00  0.13313986918E+00  0.21957436635E-01 0.  0.
         14    1    1    2    0    0 -0.40335019861E-02  0.16035137814E-01 -0.17240717765E-01  0.23888012309E-01  0.00000000000E+00 0. -1.
     999901    1    3    3    0    0 -0.45119322940E-01  0.22693792729E-01 -0.98206956449E-01  0.88690211851E+00  0.88000000000E+00 0. -1.
        -11    1    4    4    0    0  0.29551292083E-01 -0.31323817339E-01  0.59944858413E-01  0.73811297019E-01  0.51100000000E-03 0. -1.
         11    1    4    4    0    0  0.19601532843E-01 -0.74051132043E-02  0.55502815802E-01  0.59328572158E-01  0.51100000000E-03 0.  1.
</event>
<event>
 8    1  0.1131376E+005  0.1043930E+01  0.7957747E-01            NaN
         13   -1    0    0    0    0  0.00000000000E+00  0.00000000000E+00  0.74505805969E-08  0.10566000000E+00  0.10566000000E+00 0. -1.
     999900   -1    0    0    0    0 -0.00000000000E+00 -0.00000000000E+00 -0.74505805969E-08  0.93827000000E+00  0.93827000000E+00 0. -1.
     999902    2    1    2    0    0 -0.73057959840E-02  0.12003239546E-01  0.19712259209E-01  0.10197220348E+01  0.10194346486E+01 0.  0.
     999903    2    3    3    0    0  0.11138120726E+00 -0.34392648116E-01 -0.48622387215E-01  0.12792115625E+00  0.20274567888E-01 0.  0.
         14    1    1    2    0    0  0.73057959840E-02 -0.12003239546E-01 -0.19712259209E-01  0.24207965171E-01  0.00000000000E+00 0.  1.
     999901    1    3    3    0    0 -0.11868700324E+00  0.46395887663E-01  0.68334646425E-01  0.89180087858E+00  0.88000000000E+00 0.  1.
        -11    1    4    4    0    0  0.76270463371E-01 -0.32576133602E-01 -0.37685960112E-01  0.91098193033E-01  0.51100000000E-03 0.  1.
         11    1    4    4    0    0  0.35110743888E-01 -0.18165145143E-02 -0.10936427103E-01  0.36822963218E-01  0.51100000000E-03 0. -1.
</event>
<event>
 8    1  0.1131376E+005  0.1043930E+01  0.7957747E-01            NaN
         13   -1    0    0    0    0  0.00000000000E+00  0.00000000000E+00  0.74505805969E-08  0.10566000000E+00  0.10566000000E+00 0.  1.
     999900   -1    0    0    0    0 -0.00000000000E+00 -0.00000000000E+00 -0.74505805969E-08  0.93827000000E+00  0.93827000000E+00 0.  1.
     999902    2    1    2    0    0  0.19604983591E-01  0.66501243284E-02  0.12463682100E-01  0.10197655032E+01  0.10194791604E+01 0.  0.
     999903    2    3    3    0    0 -0.77493558044E-01 -0.70927268283E-03  0.10218964794E+00  0.12985930786E+00  0.20370593670E-01 0.  0.
         14    1    1    2    0    0 -0.19604983591E-01 -0.66501243284E-02 -0.12463682100E-01  0.24164496822E-01  0.00000000000E+00 0.  1.
     999901    1    3    3    0    0  0.97098541635E-01  0.73593970112E-02 -0.89725965841E-01  0.88990619531E+00  0.88000000000E+00 0.  1.
        -11    1    4    4    0    0 -0.38661427444E-01 -0.77452188479E-02  0.62400118966E-01  0.73815515679E-01  0.51100000000E-03 0. -1.
         11    1    4    4    0    0 -0.38832130600E-01  0.70359461650E-02  0.39789528975E-01  0.56043792184E-01  0.51100000000E-03 0.  1.
</event>
<event>
 8    1  0.1131376E+005  0.1043930E+01  0.7957747E-01            NaN
         13   -1    0    0    0    0  0.00000000000E+00  0.00000000000E+00  0.74505805969E-08  0.10566000000E+00  0.10566000000E+00 0. -1.
     999900   -1    0    0    0    0 -0.00000000000E+00 -0.00000000000E+00 -0.74505805969E-08  0.93827000000E+00  0.93827000000E+00 0.  1.
     999902    2    1    2    0    0 -0.21483308430E-02 -0.23906788250E-01  0.20193310645E-02  0.10198420871E+01  0.10195575781E+01 0.  0.
     999903    2    3    3    0    0  0.10102638066E-01  0.72132539406E-01 -0.10396645065E+00  0.12821064720E+00  0.17993906091E-01 0.  0.
         14    1    1    2    0    0  0.21483308430E-02  0.23906788250E-01 -0.20193310645E-02  0.24087912898E-01  0.00000000000E+00 0.  1.
     999901    1    3    3    0    0 -0.12250968909E-01 -0.96039327656E-01  0.10598578172E+00  0.89163143990E+00  0.88000000000E+00 0. -1.
        -11    1    4    4    0    0  0.83996749398E-02  0.14427215839E-01 -0.30504602624E-01  0.34777737106E-01  0.51100000000E-03 0. -1.
         11    1    4    4    0    0  0.17029631261E-02  0.57705323567E-01 -0.73461848030E-01  0.93432910093E-01  0.51100000000E-03 0.  1.
</event>
<event>
 8    1  0.1131376E+005  0.1043930E+01  0.7957747E-01            NaN
         13   -1    0    0    0    0  0.00000000000E+00  0.00000000000E+00  0.74505805969E-08  0.10566000000E+00  0.10566000000E+00 0. -1.
     999900   -1    0    0    0    0 -0.00000000000E+00 -0.00000000000E+00 -0.74505805969E-08  0.93827000000E+00  0.93827000000E+00 0.  1.
     999902    2    1    2    0    0 -0.12191956946E-02 -0.11869970676E-01  0.24166731293E-01  0.10169779399E+01  0.10166207340E+01 0.  0.
     999903    2    3    3    0    0 -0.36760292954E-01 -0.60370728468E-01 -0.10228886566E+00  0.12590750997E+00  0.19843009734E-01 0.  0.
         14    1    1    2    0    0  0.12191956946E-02  0.11869970676E-01 -0.24166731293E-01  0.26952060095E-01  0.00000000000E+00 0.  1.
     999901    1    3    3    0    0  0.35541097259E-01  0.48500757792E-01  0.12645559695E+00  0.89107042993E+00  0.88000000000E+00 0. -1.
        -11    1    4    4    0    0 -0.21510444601E-02 -0.16229720634E-01 -0.32283861749E-01  0.36201376694E-01  0.51100000000E-03 0. -1.
         11    1    4    4    0    0 -0.34609248494E-01 -0.44141007835E-01 -0.70005003911E-01  0.89706133277E-01  0.51100000000E-03 0.  1.
</event>
<event>
 8    1  0.1131376E+005  0.1043930E+01  0.7957747E-01            NaN
         13   -1    0    0    0    0  0.00000000000E+00  0.00000000000E+00  0.74505805969E-08  0.10566000000E+00  0.10566000000E+00 0.  1.
     999900   -1    0    0    0    0 -0.00000000000E+00 -0.00000000000E+00 -0.74505805969E-08  0.93827000000E+00  0.93827000000E+00 0. -1.
     999902    2    1    2    0    0  0.23616481103E-01 -0.51873223828E-02  0.29636851001E-02  0.10195695829E+01  0.10192785215E+01 0.  0.
     999903    2    3    3    0    0  0.41888888279E-01  0.65837110875E-01 -0.10209625152E+00  0.13029125678E+00  0.21516572390E-01 0.  0.
         14    1    1    2    0    0 -0.23616481103E-01  0.51873223828E-02 -0.29636851001E-02  0.24360417126E-01  0.00000000000E+00 0.  1.
     999901    1    3    3    0    0 -0.18272407177E-01 -0.71024433257E-01  0.10505993662E+00  0.88927832610E+00  0.88000000000E+00 0.  1.
        -11    1    4    4    0    0  0.44100518823E-01  0.64946201320E-01 -0.98887659774E-01  0.12626121813E+00  0.51100000000E-03 0.  1.
         11    1    4    4    0    0 -0.22116305434E-02  0.89090955465E-03 -0.32085917508E-02  0.40300386497E-02  0.51100000000E-03 0. -1.
</event>
<event>
 8    1  0.1131376E+005  0.1043930E+01  0.7957747E-01            NaN
         13   -1    0    0    0    0  0.00000000000E+00  0.00000000000E+00  0.74505805969E-08  0.10566000000E+00  0.10566000000E+00 0.  1.
     999900   -1    0    0    0    0 -0.00000000000E+00 -0.00000000000E+00 -0.74505805969E-08  0.93827000000E+00  0.93827000000E+00 0. -1.
     999902    2    1    2    0    0 -0.15611557305E-01  0.96274633836E-02 -0.14744346081E-01  0.10203969485E+01  0.10201255452E+01 0.  0.
     999903    2    3    3    0    0  0.11868082579E+00 -0.42604174392E-01 -0.15745697769E-01  0.12867749100E+00  0.20241432856E-01 0.  0.
         14    1    1    2    0    0  0.15611557305E-01 -0.96274633836E-02  0.14744346081E-01  0.23533051524E-01  0.00000000000E+00 0. -1.
     999901    1    3    3    0    0 -0.13429238310E+00  0.52231637775E-01  0.10013516882E-02  0.89171945748E+00  0.88000000000E+00 0.  1.
        -11    1    4    4    0    0  0.45925024705E-01 -0.71999187756E-02 -0.14597913484E-02  0.46511706444E-01  0.51100000000E-03 0. -1.
         11    1    4    4    0    0  0.72755801089E-01 -0.35404255616E-01 -0.14285906421E-01  0.82165784552E-01  0.51100000000E-03 0.  1.
</event>
<event>
 8    1  0.1131376E+005  0.1043930E+01  0.7957747E-01            NaN
         13   -1    0    0    0    0  0.00000000000E+00  0.00000000000E+00  0.74505805969E-08  0.10566000000E+00  0.10566000000E+00 0.  1.
     999900   -1    0    0    0    0 -0.00000000000E+00 -0.00000000000E+00 -0.74505805969E-08  0.93827000000E+00  0.93827000000E+00 0. -1.
     999902    2    1    2    0    0  0.24010569478E-02  0.19462523695E-01 -0.11564071542E-01  0.10211641779E+01  0.10209103759E+01 0.  0.
     999903    2    3    3    0    0 -0.82945182871E-01 -0.75531347978E-01 -0.63276018494E-01  0.13044427710E+00  0.20663180381E-01 0.  0.
         14    1    1    2    0    0 -0.24010569478E-02 -0.19462523695E-01  0.11564071542E-01  0.22765822051E-01  0.00000000000E+00 0.  1.
     999901    1    3    3    0    0  0.85346239819E-01  0.94993871673E-01  0.51711946952E-01  0.89071990085E+00  0.88000000000E+00 0. -1.
        -11    1    4    4    0    0 -0.53245412130E-01 -0.44120444597E-01 -0.49601374522E-01  0.85101380834E-01  0.51100000000E-03 0. -1.
         11    1    4    4    0    0 -0.29699770741E-01 -0.31410903381E-01 -0.13674643972E-01  0.45342896269E-01  0.51100000000E-03 0.  1.
</event>
<event>
 8    1  0.1131376E+005  0.1043930E+01  0.7957747E-01            NaN
         13   -1    0    0    0    0  0.00000000000E+00  0.00000000000E+00  0.74505805969E-08  0.10566000000E+00  0.10566000000E+00 0. -1.
     999900   -1    0    0    0    0 -0.00000000000E+00 -0.00000000000E+00 -0.74505805969E-08  0.93827000000E+00  0.93827000000E+00 0.  1.
     999902    2    1    2    0    0 -0.21460918631E-01  0.21576273693E-02  0.14949673169E-01  0.10176865415E+01  0.10173481104E+01 0.  0.
     999903    2    3    3    0    0 -0.11080859248E+00 -0.18310854724E-01 -0.60748827801E-01  0.12969316958E+00  0.22717099066E-01 0.  0.
         14    1    1    2    0    0  0.21460918631E-01 -0.21576273693E-02 -0.14949673169E-01  0.26243458465E-01  0.00000000000E+00 0.  1.
     999901    1    3    3    0    0  0.89347673845E-01  0.20468482093E-01  0.75698500970E-01  0.88799337195E+00  0.88000000000E+00 0. -1.
        -11    1    4    4    0    0 -0.12849511791E-01 -0.99540280076E-02 -0.81065700810E-02  0.18170586846E-01  0.51100000000E-03 0.  1.
         11    1    4    4    0    0 -0.97959080686E-01 -0.83568267161E-02 -0.52642257720E-01  0.11152258274E+00  0.51100000000E-03 0. -1.
</event>
<event>
 8    1  0.1131376E+005  0.1043930E+01  0.7957747E-01            NaN
         13   -1    0    0    0    0  0.00000000000E+00  0.00000000000E+00  0.74505805969E-08  0.10566000000E+00  0.10566000000E+00 0.  1.
     999900   -1    0    0    0    0 -0.00000000000E+00 -0.00000000000E+00 -0.74505805969E-08  0.93827000000E+00  0.93827000000E+00 0. -1.
     999902    2    1    2    0    0 -0.11593517069E-01  0.19631149276E-01  0.55355250749E-02  0.10204686766E+01  0.10201989444E+01 0.  0.
     999903    2    3    3    0    0 -0.10090483521E+00  0.27577577274E-01 -0.77449641351E-01  0.13202836055E+00  0.22152483079E-01 0.  0.
         14    1    1    2    0    0  0.11593517069E-01 -0.19631149276E-01 -0.55355250749E-02  0.23461323445E-01  0.00000000000E+00 0. -1.
     999901    1    3    3    0    0  0.89311318137E-01 -0.79464279978E-02  0.82985166425E-01  0.88844031601E+00  0.88000000000E+00 0. -1.
        -11    1    4    4    0    0 -0.95389369081E-01  0.30967647816E-01 -0.74270387935E-01  0.12479775074E+00  0.51100000000E-03 0. -1.
         11    1    4    4    0    0 -0.55154661259E-02 -0.33900705422E-02 -0.31792534150E-02  0.72306098045E-02  0.51100000000E-03 0.  1.
</event>
<event>
 8    1  0.1131376E+005  0.1043930E+01  0.7957747E-01            NaN
         13   -1    0    0    0    0  0.00000000000E+00  0.00000000000E+00  0.74505805969E-08  0.10566000000E+00  0.10566000000E+00 0.  1.
     999900   -1    0    0    0    0 -0.00000000000E+00 -0.00000000000E+00 -0.74505805969E-08  0.93827000000E+00  0.93827000000E+00 0. -1.
     999902    2    1    2    0    0  0.22600366453E-01 -0.30544150702E-02  0.61547969891E-02  0.10203082401E+01  0.10200347628E+01 0.  0.
     999903    2    3    3    0    0  0.55833181594E-01 -0.35611136757E-01  0.11341562500E+00  0.13257559714E+00  0.18102147252E-01 0.  0.
         14    1    1    2    0    0 -0.22600366453E-01  0.30544150702E-02 -0.61547969891E-02  0.23621759909E-01  0.00000000000E+00 0.  1.
     999901    1    3    3    0    0 -0.33232815141E-01  0.32556721687E-01 -0.10726082801E+00  0.88773264295E+00  0.88000000000E+00 0. -1.
        -11    1    4    4    0    0  0.86735965165E-03 -0.60530002560E-02  0.12394788201E-01  0.13830510490E-01  0.51100000000E-03 0.  1.
         11    1    4    4    0    0  0.54965821942E-01 -0.29558136501E-01  0.10102083680E+00  0.11874508665E+00  0.51100000000E-03 0. -1.
</event>
<event>
 8    1  0.1131376E+005  0.1043930E+01  0.7957747E-01            NaN
         13   -1    0    0    0    0  0.00000000000E+00  0.00000000000E+00  0.74505805969E-08  0.10566000000E+00  0.10566000000E+00 0.  1.
     999900   -1    0    0    0    0 -0.00000000000E+00 -0.00000000000E+00 -0.74505805969E-08  0.93827000000E+00  0.93827000000E+00 0. -1.
     999902    2    1    2    0    0  0.13825709076E-01 -0.13639406023E-01  0.12321424066E-01  0.10209299757E+01  0.10206708647E+01 0.  0.
     999903    2    3    3    0    0  0.11788126536E+00  0.23565865112E-01  0.52347239785E-01  0.13311588651E+00  0.22983972789E-01 0.  0.
         14    1    1    2    0    0 -0.13825709076E-01  0.13639406023E-01 -0.12321424066E-01  0.23000024329E-01  0.00000000000E+00 0. -1.
     999901    1    3    3    0    0 -0.10405555629E+00 -0.37205271135E-01 -0.40025815719E-01  0.88781408916E+00  0.88000000000E+00 0. -1.
        -11    1    4    4    0    0  0.17802122809E-01 -0.25180448236E-02  0.14070735484E-01  0.22836436769E-01  0.51100000000E-03 0.  1.
         11    1    4    4    0    0  0.10007914255E+00  0.26083909935E-01  0.38276504302E-01  0.11027944974E+00  0.51100000000E-03 0. -1.
</event>
<event>
 8    1  0.1131376E+005  0.1043930E+01  0.7957747E-01            NaN
         13   -1    0    0    0    0  0.00000000000E+00  0.00000000000E+00  0.74505805969E-08  0.10566000000E+00  0.10566000000E+00 0.  1.
     999900   -1    0    0    0    0 -0.00000000000E+00 -0.00000000000E+00 -0.74505805969E-08  0.93827000000E+00  0.93827000000E+00 0.  1.
     999902    2    1    2    0    0  0.12377524823E-01  0.73441722980E-02  0.19269892897E-01  0.10198786225E+01  0.10195949862E+01 0.  0.
     999903    2    3    3    0    0  0.52773102005E-01  0.10193903602E+00  0.63755199800E-01  0.13277156389E+00  0.19672196535E-01 0.  0.
         14    1    1    2    0    0 -0.12377524823E-01 -0.73441722980E-02 -0.19269892897E-01  0.24051377502E-01  0.00000000000E+00 0. -1.
     999901    1    3    3    0    0 -0.40395577182E-01 -0.94594863724E-01 -0.44485306903E-01  0.88710705861E+00  0.88000000000E+00 0.  1.
        -11    1    4    4    0    0  0.27865155291E-01  0.35270409348E-01  0.19792204893E-01  0.49116811282E-01  0.51100000000E-03 0. -1.
         11    1    4    4    0    0  0.24907946714E-01  0.66668626673E-01  0.43962994907E-01  0.83654752610E-01  0.51100000000E-03 0.  1.
</event>
<event>
 8    1  0.1131376E+005  0.1043930E+01  0.7957747E-01            NaN
         13   -1    0    0    0    0  0.00000000000E+00  0.00000000000E+00  0.74505805969E-08  0.10566000000E+00  0.10566000000E+00 0. -1.
     999900   -1    0    0    0    0 -0.00000000000E+00 -0.00000000000E+00 -0.74505805969E-08  0.93827000000E+00  0.93827000000E+00 0. -1.
     999902    2    1    2    0    0 -0.17127409339E-01 -0.11867801192E-01 -0.12711940093E-01  0.10195212664E+01  0.10192290353E+01 0.  0.
     999903    2    3    3    0    0  0.11622521243E+00 -0.46055318099E-01 -0.22980689367E-01  0.12875914592E+00  0.20528352176E-01 0.  0.
         14    1    1    2    0    0  0.17127409339E-01  0.11867801192E-01  0.12711940093E-01  0.24408733616E-01  0.00000000000E+00 0. -1.
     999901    1    3    3    0    0 -0.13335262177E+00  0.34187516907E-01  0.10268749274E-01  0.89076212047E+00  0.88000000000E+00 0. -1.
        -11    1    4    4    0    0  0.64694423078E-01 -0.22391687067E-01 -0.22454045771E-01  0.72049991808E-01  0.51100000000E-03 0. -1.
         11    1    4    4    0    0  0.51530789356E-01 -0.23663631033E-01 -0.52664359595E-03  0.56709154109E-01  0.51100000000E-03 0.  1.
</event>
<event>
 8    1  0.1131376E+005  0.1043930E+01  0.7957747E-01            NaN
         13   -1    0    0    0    0  0.00000000000E+00  0.00000000000E+00  0.74505805969E-08  0.10566000000E+00  0.10566000000E+00 0.  1.
     999900   -1    0    0    0    0 -0.00000000000E+00 -0.00000000000E+00 -0.74505805969E-08  0.93827000000E+00  0.93827000000E+00 0. -1.
     999902    2    1    2    0    0 -0.19377789766E-01  0.45758980000E-02 -0.12350568478E-01  0.10204998032E+01  0.10202307946E+01 0.  0.
     999903    2    3    3    0    0  0.92073538823E-01 -0.87379333239E-01 -0.66294412115E-02  0.12869831496E+00  0.20164879212E-01 0.  0.
         14    1    1    2    0    0  0.19377789766E-01 -0.45758980000E-02  0.12350568478E-01  0.23430196765E-01  0.00000000000E+00 0.  1.
     999901    1    3    3    0    0 -0.11145132859E+00  0.91955231239E-01 -0.57211272663E-02  0.89180148828E+00  0.88000000000E+00 0.  1.
        -11    1    4    4    0    0  0.54416688468E-01 -0.51093950241E-01 -0.13804856118E-01  0.75911810073E-01  0.51100000000E-03 0.  1.
         11    1    4    4    0    0  0.37656850354E-01 -0.36285382999E-01  0.71754149063E-02  0.52786504885E-01  0.51100000000E-03 0. -1.
</event>
<event>
 8    1  0.1131376E+005  0.1043930E+01  0.7957747E-01            NaN
         13   -1    0    0    0    0  0.00000000000E+00  0.00000000000E+00  0.74505805969E-08  0.10566000000E+00  0.10566000000E+00 0. -1.
     999900   -1    0    0    0    0 -0.00000000000E+00 -0.00000000000E+00 -0.74505805969E-08  0.93827000000E+00  0.93827000000E+00 0.  1.
     999902    2    1    2    0    0  0.44664540196E-02  0.21159109708E-01 -0.12347715325E-01  0.10190277268E+01  0.10187234094E+01 0.  0.
     999903    2    3    3    0    0 -0.42414368810E-01  0.11528874708E+00  0.40286894226E-01  0.13120533339E+00  0.22390439425E-01 0.  0.
         14    1    1    2    0    0 -0.44664540196E-02 -0.21159109708E-01  0.12347715325E-01  0.24902273167E-01  0.00000000000E+00 0. -1.
     999901    1    3    3    0    0  0.46880822830E-01 -0.94129637374E-01 -0.52634609551E-01  0.88782239345E+00  0.88000000000E+00 0.  1.
        -11    1    4    4    0    0 -0.16385774180E-01  0.75217249159E-01  0.27381530304E-01  0.81707634217E-01  0.51100000000E-03 0.  1.
         11    1    4    4    0    0 -0.26028594631E-01  0.40071497923E-01  0.12905363922E-01  0.49497699171E-01  0.51100000000E-03 0. -1.
</event>
<event>
 8    1  0.1131376E+005  0.1043930E+01  0.7957747E-01            NaN
         13   -1    0    0    0    0  0.00000000000E+00  0.00000000000E+00  0.74505805969E-08  0.10566000000E+00  0.10566000000E+00 0. -1.
     999900   -1    0    0    0    0 -0.00000000000E+00 -0.00000000000E+00 -0.74505805969E-08  0.93827000000E+00  0.93827000000E+00 0. -1.
     999902    2    1    2    0    0  0.76508344590E-02  0.21976696228E-01  0.68828549455E-02  0.10196630649E+01  0.10193742600E+01 0.  0.
     999903    2    3    3    0    0  0.11122439725E+00 -0.57551769078E-01 -0.25445930101E-01  0.12943982887E+00  0.20593719226E-01 0.  0.
         14    1    1    2    0    0 -0.76508344590E-02 -0.21976696228E-01 -0.68828549455E-02  0.24266935060E-01  0.00000000000E+00 0. -1.
     999901    1    3    3    0    0 -0.10357356279E+00  0.79528465306E-01  0.32328785047E-01  0.89022323607E+00  0.88000000000E+00 0. -1.
        -11    1    4    4    0    0  0.92524232343E-01 -0.43282304368E-01 -0.13451006112E-01  0.10303049126E+00  0.51100000000E-03 0.  1.
         11    1    4    4    0    0  0.18700164902E-01 -0.14269464710E-01 -0.11994923989E-01  0.26409337610E-01  0.51100000000E-03 0. -1.
</event>
<event>
 8    1  0.1131376E+005  0.1043930E+01  0.7957747E-01            NaN
         13   -1    0    0    0    0  0.00000000000E+00  0.00000000000E+00  0.74505805969E-08  0.10566000000E+00  0.10566000000E+00 0.  1.
     999900   -1    0    0    0    0 -0.00000000000E+00 -0.00000000000E+00 -0.74505805969E-08  0.93827000000E+00  0.93827000000E+00 0.  1.
     999902    2    1    2    0    0  0.14240780037E-01  0.71690017459E-02 -0.16623300637E-01  0.10208967951E+01  0.10206369275E+01 0.  0.
     999903    2    3    3    0    0 -0.81675499317E-01  0.47172117057E-01 -0.89859513399E-01  0.13176029002E+00  0.19747051954E-01 0.  0.
         14    1    1    2    0    0 -0.14240780037E-01 -0.71690017459E-02  0.16623300637E-01  0.23033204861E-01  0.00000000000E+00 0.  1.
     999901    1    3    3    0    0  0.95916279354E-01 -0.40003115311E-01  0.73236212762E-01  0.88913650512E+00  0.88000000000E+00 0. -1.
        -11    1    4    4    0    0 -0.72261063806E-01  0.33809564539E-01 -0.71013655003E-01  0.10680799743E+00  0.51100000000E-03 0.  1.
         11    1    4    4    0    0 -0.94144355105E-02  0.13362552518E-01 -0.18845858397E-01  0.24952292589E-01  0.51100000000E-03 0. -1.
</event>
<event>
 8    1  0.1131376E+005  0.1043930E+01  0.7957747E-01            NaN
         13   -1    0    0    0    0  0.00000000000E+00  0.00000000000E+00  0.74505805969E-08  0.10566000000E+00  0.10566000000E+00 0.  1.
     999900   -1    0    0    0    0 -0.00000000000E+00 -0.00000000000E+00 -0.74505805969E-08  0.93827000000E+00  0.93827000000E+00 0.  1.
     999902    2    1    2    0    0 -0.91289188786E-02 -0.10619574675E-01 -0.18908374667E-01  0.10204004620E+01  0.10201291407E+01 0.  0.
     999903    2    3    3    0    0  0.15312775154E-01  0.87186197341E-01 -0.94995005292E-01  0.13138272269E+00  0.20036334496E-01 0.  0.
         14    1    1    2    0    0  0.91289188786E-02  0.10619574675E-01  0.18908374667E-01  0.23529538005E-01  0.00000000000E+00 0. -1.
     999901    1    3    3    0    0 -0.24441694033E-01 -0.97805772016E-01  0.76086630625E-01  0.88901773931E+00  0.88000000000E+00 0. -1.
        -11    1    4    4    0    0  0.50674595467E-02  0.75008491222E-02 -0.17740848779E-01  0.19923371206E-01  0.51100000000E-03 0.  1.
         11    1    4    4    0    0  0.10245315608E-01  0.79685348219E-01 -0.77254156513E-01  0.11145935148E+00  0.51100000000E-03 0. -1.
</event>
<event>
 8    1  0.1131376E+005  0.1043930E+01  0.7957747E-01            NaN
         13   -1    0    0    0    0  0.00000000000E+00  0.00000000000E+00  0.74505805969E-08  0.10566000000E+00  0.10566000000E+00 0. -1.
     999900   -1    0    0    0    0 -0.00000000000E+00 -0.00000000000E+00 -0.74505805969E-08  0.93827000000E+00  0.93827000000E+00 0.  1.
     999902    2    1    2    0    0 -0.19672487812E-01  0.11459322010E-01  0.29525569460E-02  0.10209726389E+01  0.10207144992E+01 0.  0.
     999903    2    3    3    0    0 -0.24566194106E-01 -0.71980047873E-01  0.10524604631E+00  0.13111307985E+00  0.18146191289E-01 0.  0.
         14    1    1    2    0    0  0.19672487812E-01 -0.11459322010E-01 -0.29525569460E-02  0.22957361132E-01  0.00000000000E+00 0.  1.
     999901    1    3    3    0    0  0.48937062942E-02  0.83439369883E-01 -0.10229348937E+00  0.88985955902E+00  0.88000000000E+00 0. -1.
        -11    1    4    4    0    0 -0.11402428426E-01 -0.56959609664E-01  0.75055888845E-01  0.94910800642E-01  0.51100000000E-03 0.  1.
         11    1    4    4    0    0 -0.13163765680E-01 -0.15020438209E-01  0.30190157469E-01  0.36202279208E-01  0.51100000000E-03 0. -1.
</event>
<event>
 8    1  0.1131376E+005  0.1043930E+01  0.7957747E-01            NaN
         13   -1    0    0    0    0  0.00000000000E+00  0.00000000000E+00  0.74505805969E-08  0.10566000000E+00  0.10566000000E+00 0. -1.
     999900   -1    0    0    0    0 -0.00000000000E+00 -0.00000000000E+00 -0.74505805969E-08  0.93827000000E+00  0.93827000000E+00 0. -1.
     999902    2    1    2    0    0  0.14269521079E-02  0.13530105860E-02  0.94905500649E-02  0.10342378707E+01  0.10341924559E+01 0.  0.
     999903    2    3    3    0    0 -0.10378662153E-01  0.13101298656E+00 -0.50486886263E-01  0.14263909615E+00  0.22909971401E-01 0.  0.
         14    1    1    2    0    0 -0.14269521079E-02 -0.13530105860E-02 -0.94905500649E-02  0.96921293067E-02  0.00000000000E+00 0.  1.
     999901    1    3    3    0    0  0.11805614261E-01 -0.12965997598E+00  0.59977436328E-01  0.89159877454E+00  0.88000000000E+00 0.  1.
        -11    1    4    4    0    0  0.11872568287E-02  0.63958928661E-01 -0.14227004592E-01  0.65534898450E-01  0.51100000000E-03 0.  1.
         11    1    4    4    0    0 -0.11565918982E-01  0.67054057902E-01 -0.36259881671E-01  0.77104197700E-01  0.51100000000E-03 0. -1.
</event>
<event>
 8    1  0.1131376E+005  0.1043930E+01  0.7957747E-01            NaN
         13   -1    0    0    0    0  0.00000000000E+00  0.00000000000E+00  0.74505805969E-08  0.10566000000E+00  0.10566000000E+00 0.  1.
     999900   -1    0    0    0    0 -0.00000000000E+00 -0.00000000000E+00 -0.74505805969E-08  0.93827000000E+00  0.93827000000E+00 0.  1.
     999902    2    1    2    0    0 -0.53221889847E-02  0.25229334043E-02  0.23625485885E-01  0.10195813969E+01  0.10192906212E+01 0.  0.
     999903    2    3    3    0    0 -0.86737090519E-01 -0.74036548841E-03  0.98354467064E-01  0.13266344359E+00  0.20052856686E-01 0.  0.
         14    1    1    2    0    0  0.53221889847E-02 -0.25229334043E-02 -0.23625485885E-01  0.24348603078E-01  0.00000000000E+00 0. -1.
     999901    1    3    3    0    0  0.81414901535E-01  0.32632988927E-02 -0.74728981179E-01  0.88691795333E+00  0.88000000000E+00 0.  1.
        -11    1    4    4    0    0 -0.33471570990E-01  0.47297491052E-02  0.50954411787E-01  0.61150059629E-01  0.51100000000E-03 0.  1.
         11    1    4    4    0    0 -0.53265519530E-01 -0.54701145936E-02  0.47400055277E-01  0.71513383962E-01  0.51100000000E-03 0. -1.
</event>
<event>
 8    1  0.1131376E+005  0.1043930E+01  0.7957747E-01            NaN
         13   -1    0    0    0    0  0.00000000000E+00  0.00000000000E+00  0.74505805969E-08  0.10566000000E+00  0.10566000000E+00 0.  1.
     999900   -1    0    0    0    0 -0.00000000000E+00 -0.00000000000E+00 -0.74505805969E-08  0.93827000000E+00  0.93827000000E+00 0.  1.
     999902    2    1    2    0    0 -0.20374543471E-01  0.95823623743E-02  0.56830402388E-02  0.10207084446E+01  0.10204442602E+01 0.  0.
     999903    2    3    3    0    0  0.56739181209E-01  0.77741311512E-01 -0.85528801000E-01  0.13002793571E+00  0.18139516644E-01 0.  0.
         14    1    1    2    0    0  0.20374543471E-01 -0.95823623743E-02 -0.56830402388E-02  0.23221555432E-01  0.00000000000E+00 0. -1.
     999901    1    3    3    0    0 -0.77113724680E-01 -0.68158949137E-01  0.91211841239E-01  0.89068050886E+00  0.88000000000E+00 0.  1.
        -11    1    4    4    0    0  0.17622923433E-01  0.16261709848E-01 -0.13296394720E-01  0.27423819410E-01  0.51100000000E-03 0. -1.
         11    1    4    4    0    0  0.39116257776E-01  0.61479601664E-01 -0.72232406280E-01  0.10260411630E+00  0.51100000000E-03 0.  1.
</event>
<event>
 8    1  0.1131376E+005  0.1043930E+01  0.7957747E-01            NaN
         13   -1    0    0    0    0  0.00000000000E+00  0.00000000000E+00  0.74505805969E-08  0.10566000000E+00  0.10566000000E+00 0.  1.
     999900   -1    0    0    0    0 -0.00000000000E+00 -0.00000000000E+00 -0.74505805969E-08  0.93827000000E+00  0.93827000000E+00 0.  1.
     999902    2    1    2    0    0 -0.19921112437E-01 -0.80390569865E-02 -0.70426033096E-02  0.10213230228E+01  0.10210727895E+01 0.  0.
     999903    2    3    3    0    0  0.10931635907E+00 -0.27842618967E-01  0.60145986531E-01  0.12912976360E+00  0.18212038858E-01 0.  0.
         14    1    1    2    0    0  0.19921112437E-01  0.80390569865E-02  0.70426033096E-02  0.22606977227E-01  0.00000000000E+00 0.  1.
     999901    1    3    3    0    0 -0.12923747151E+00  0.19803561981E-01 -0.67188589841E-01  0.89219325917E+00  0.88000000000E+00 0. -1.
        -11    1    4    4    0    0  0.53398973876E-01 -0.15689525868E-01  0.39681011616E-01  0.68355361435E-01  0.51100000000E-03 0.  1.
         11    1    4    4    0    0  0.55917385198E-01 -0.12153093099E-01  0.20464974915E-01  0.60774402165E-01  0.51100000000E-03 0. -1.
</event>
<event>
 8    1  0.1131376E+005  0.1043930E+01  0.7957747E-01            NaN
         13   -1    0    0    0    0  0.00000000000E+00  0.00000000000E+00  0.74505805969E-08  0.10566000000E+00  0.10566000000E+00 0.  1.
     999900   -1    0    0    0    0 -0.00000000000E+00 -0.00000000000E+00 -0.74505805969E-08  0.93827000000E+00  0.93827000000E+00 0. -1.
     999902    2    1    2    0    0 -0.13287806836E-01 -0.82728371869E-02  0.17239156083E-01  0.10206449372E+01  0.10203792892E+01 0.  0.
     999903    2    3    3    0    0 -0.91915413752E-01 -0.33560922156E-01 -0.84468160101E-01  0.13094489453E+00  0.20902548950E-01 0.  0.
         14    1    1    2    0    0  0.13287806836E-01  0.82728371869E-02 -0.17239156083E-01  0.23285062768E-01  0.00000000000E+00 0. -1.
     999901    1    3    3    0    0  0.78627606916E-01  0.25288084969E-01  0.10170731618E+00  0.88970004270E+00  0.88000000000E+00 0.  1.
        -11    1    4    4    0    0 -0.69117462642E-01 -0.23295522873E-01 -0.50295100911E-01  0.88598890087E-01  0.51100000000E-03 0.  1.
         11    1    4    4    0    0 -0.22797951110E-01 -0.10265399283E-01 -0.34173059190E-01  0.42346004448E-01  0.51100000000E-03 0. -1.
</event>
<event>
 8    1  0.1131376E+005  0.1043930E+01  0.7957747E-01            NaN
         13   -1    0    0    0    0  0.00000000000E+00  0.00000000000E+00  0.74505805969E-08  0.10566000000E+00  0.10566000000E+00 0.  1.
     999900   -1    0    0    0    0 -0.00000000000E+00 -0.00000000000E+00 -0.74505805969E-08  0.93827000000E+00  0.93827000000E+00 0. -1.
     999902    2    1    2    0    0  0.80108344930E-02 -0.22253198056E-01  0.45842198636E-02  0.10198386454E+01  0.10195540542E+01 0.  0.
     999903    2    3    3    0    0 -0.66793942334E-01 -0.29051118294E-01 -0.10544566334E+00  0.12981137532E+00  0.20659308747E-01 0.  0.
         14    1    1    2    0    0 -0.80108344930E-02  0.22253198056E-01 -0.45842198636E-02  0.24091354564E-01  0.00000000000E+00 0. -1.
     999901    1    3    3    0    0  0.74804776827E-01  0.67979202380E-02  0.11002988320E+00  0.89002727012E+00  0.88000000000E+00 0.  1.
        -11    1    4    4    0    0 -0.38444293524E-01 -0.10237144614E-01 -0.42241062737E-01  0.58028711313E-01  0.51100000000E-03 0.  1.
         11    1    4    4    0    0 -0.28349648810E-01 -0.18813973680E-01 -0.63204600603E-01  0.71782664005E-01  0.51100000000E-03 0. -1.
</event>
<event>
 8    1  0.1131376E+005  0.1043930E+01  0.7957747E-01            NaN
         13   -1    0    0    0    0  0.00000000000E+00  0.00000000000E+00  0.74505805969E-08  0.10566000000E+00  0.10566000000E+00 0. -1.
     999900   -1    0    0    0    0 -0.00000000000E+00 -0.00000000000E+00 -0.74505805969E-08  0.93827000000E+00  0.93827000000E+00 0.  1.
     999902    2    1    2    0    0  0.14089167995E-01  0.61066149363E-02 -0.17670945628E-01  0.10205193674E+01  0.10202508130E+01 0.  0.
     999903    2    3    3    0    0 -0.12573915920E+00 -0.20349334455E-01 -0.71520377467E-05  0.12891189323E+00  0.19845518288E-01 0.  0.
         14    1    1    2    0    0 -0.14089167995E-01 -0.61066149363E-02  0.17670945628E-01  0.23410632631E-01  0.00000000000E+00 0. -1.
     999901    1    3    3    0    0  0.13982832719E+00  0.26455949391E-01 -0.17663793591E-01  0.89160747414E+00  0.88000000000E+00 0. -1.
        -11    1    4    4    0    0 -0.82492604429E-01 -0.16659590485E-01 -0.88171461400E-02  0.84620180380E-01  0.51100000000E-03 0. -1.
         11    1    4    4    0    0 -0.43246554767E-01 -0.36897439703E-02  0.88099941023E-02  0.44291712846E-01  0.51100000000E-03 0.  1.
</event>
<event>
 8    1  0.1131376E+005  0.1043930E+01  0.7957747E-01            NaN
         13   -1    0    0    0    0  0.00000000000E+00  0.00000000000E+00  0.74505805969E-08  0.10566000000E+00  0.10566000000E+00 0.  1.
     999900   -1    0    0    0    0 -0.00000000000E+00 -0.00000000000E+00 -0.74505805969E-08  0.93827000000E+00  0.93827000000E+00 0.  1.
     999902    2    1    2    0    0  0.86804267006E-03  0.11261167722E-01  0.20614696655E-01  0.10204239771E+01  0.10201532041E+01 0.  0.
     999903    2    3    3    0    0  0.23898136332E-02 -0.26599501578E-01  0.12870432440E+00  0.13300124031E+00  0.20280091496E-01 0.  0.
         14    1    1    2    0    0 -0.86804267006E-03 -0.11261167722E-01 -0.20614696655E-01  0.23506022946E-01  0.00000000000E+00 0. -1.
     999901    1    3    3    0    0 -0.15217709632E-02  0.37860669300E-01 -0.10808962774E+00  0.88742273675E+00  0.88000000000E+00 0.  1.
        -11    1    4    4    0    0  0.23189592542E-02 -0.12344952091E-02  0.54766671216E-01  0.54832024836E-01  0.51100000000E-03 0.  1.
         11    1    4    4    0    0  0.70854379035E-04 -0.25365006368E-01  0.73937653183E-01  0.78169215473E-01  0.51100000000E-03 0. -1.
</event>
<event>
 8    1  0.1131376E+005  0.1043930E+01  0.7957747E-01            NaN
         13   -1    0    0    0    0  0.00000000000E+00  0.00000000000E+00  0.74505805969E-08  0.10566000000E+00  0.10566000000E+00 0.  1.
     999900   -1    0    0    0    0 -0.00000000000E+00 -0.00000000000E+00 -0.74505805969E-08  0.93827000000E+00  0.93827000000E+00 0. -1.
     999902    2    1    2    0    0 -0.86584670708E-02  0.64212279965E-02  0.19471769906E-01  0.10216735168E+01  0.10214310666E+01 0.  0.
     999903    2    3    3    0    0 -0.16946552783E-01 -0.99453031635E-01 -0.79210708411E-01  0.12981238258E+00  0.19970658243E-01 0.  0.
         14    1    1    2    0    0  0.86584670708E-02 -0.64212279965E-02 -0.19471769906E-01  0.22256483196E-01  0.00000000000E+00 0. -1.
     999901    1    3    3    0    0  0.82880857117E-02  0.10587425963E+00  0.98682478317E-01  0.89186113423E+00  0.88000000000E+00 0. -1.
        -11    1    4    4    0    0 -0.12930232248E-02 -0.34618483410E-01 -0.16952418940E-01  0.38571452288E-01  0.51100000000E-03 0.  1.
         11    1    4    4    0    0 -0.15653529558E-01 -0.64834548225E-01 -0.62258289471E-01  0.91240930289E-01  0.51100000000E-03 0. -1.
</event>
<event>
 8    1  0.1131376E+005  0.1043930E+01  0.7957747E-01            NaN
         13   -1    0    0    0    0  0.00000000000E+00  0.00000000000E+00  0.74505805969E-08  0.10566000000E+00  0.10566000000E+00 0. -1.
     999900   -1    0    0    0    0 -0.00000000000E+00 -0.00000000000E+00 -0.74505805969E-08  0.93827000000E+00  0.93827000000E+00 0.  1.
     999902    2    1    2    0    0  0.15982786171E-01 -0.10593007724E-01 -0.14266880665E-01  0.10200301015E+01  0.10197500688E+01 0.  0.
     999903    2    3    3    0    0  0.49205269278E-01  0.10472338944E-01 -0.12130147271E+00  0.13267228969E+00  0.18896051483E-01 0.  0.
         14    1    1    2    0    0 -0.15982786171E-01  0.10593007724E-01  0.14266880665E-01  0.23899898543E-01  0.00000000000E+00 0.  1.
     999901    1    3    3    0    0 -0.33222483107E-01 -0.21065346668E-01  0.10703459204E+00  0.88735781177E+00  0.88000000000E+00 0. -1.
        -11    1    4    4    0    0  0.46488531936E-01  0.39630478746E-02 -0.10605748262E+00  0.11586776985E+00  0.51100000000E-03 0. -1.
         11    1    4    4    0    0  0.27167373422E-02  0.65092910692E-02 -0.15243990089E-01  0.16804519834E-01  0.51100000000E-03 0.  1.
</event>
<event>
 8    1  0.1131376E+005  0.1043930E+01  0.7957747E-01            NaN
         13   -1    0    0    0    0  0.00000000000E+00  0.00000000000E+00  0.74505805969E-08  0.10566000000E+00  0.10566000000E+00 0.  1.
     999900   -1    0    0    0    0 -0.00000000000E+00 -0.00000000000E+00 -0.74505805969E-08  0.93827000000E+00  0.93827000000E+00 0.  1.
     999902    2    1    2    0    0 -0.11757693802E-01  0.18468928128E-02 -0.20872465680E-01  0.10199026364E+01  0.10196195730E+01 0.  0.
     999903    2    3    3    0    0 -0.26504793110E-01  0.12148525254E+00  0.34054128366E-01  0.12998817718E+00  0.16615411648E-01 0.  0.
         14    1    1    2    0    0  0.11757693802E-01 -0.18468928128E-02  0.20872465680E-01  0.24027363571E-01  0.00000000000E+00 0. -1.
     999901    1    3    3    0    0  0.14747099308E-01 -0.11963835973E+00 -0.54926594046E-01  0.88991445925E+00  0.88000000000E+00 0.  1.
        -11    1    4    4    0    0 -0.16103454298E-01  0.61363206070E-01  0.25492355782E-01  0.68373135249E-01  0.51100000000E-03 0.  1.
         11    1    4    4    0    0 -0.10401338812E-01  0.60122046469E-01  0.85617725839E-02  0.61615041926E-01  0.51100000000E-03 0. -1.
</event>
<event>
 8    1  0.1131376E+005  0.1043930E+01  0.7957747E-01            NaN
         13   -1    0    0    0    0  0.00000000000E+00  0.00000000000E+00  0.74505805969E-08  0.10566000000E+00  0.10566000000E+00 0. -1.
     999900   -1    0    0    0    0 -0.00000000000E+00 -0.00000000000E+00 -0.74505805969E-08  0.93827000000E+00  0.93827000000E+00 0. -1.
     999902    2    1    2    0    0  0.48324945913E-02 -0.22006897712E-03  0.23539860878E-01  0.10198982193E+01  0.10196150505E+01 0.  0.
     999903    2    3    3    0    0 -0.98464469895E-01 -0.69763025720E-01  0.46282222743E-01  0.13084045922E+00  0.20372776869E-01 0.  0.
         14    1    1    2    0    0 -0.48324945913E-02  0.22006897712E-03 -0.23539860878E-01  0.24031780718E-01  0.00000000000E+00 0.  1.
     999901    1    3    3    0    0  0.10329696449E+00  0.69542956743E-01 -0.22742361865E-01  0.88905776006E+00  0.88000000000E+00 0.  1.
        -11    1    4    4    0    0 -0.74869700379E-01 -0.62744982233E-01  0.35135744983E-01  0.10381322905E+00  0.51100000000E-03 0.  1.
         11    1    4    4    0    0 -0.23594769516E-01 -0.70180434866E-02  0.11146477760E-01  0.27027230165E-01  0.51100000000E-03 0. -1.
</event>
<event>
 8    1  0.1131376E+005  0.1043930E+01  0.7957747E-01            NaN
         13   -1    0    0    0    0  0.00000000000E+00  0.00000000000E+00  0.74505805969E-08  0.10566000000E+00  0.10566000000E+00 0.  1.
     999900   -1    0    0    0    0 -0.00000000000E+00 -0.00000000000E+00 -0.74505805969E-08  0.93827000000E+00  0.93827000000E+00 0.  1.
     999902    2    1    2    0    0  0.21308145825E-01 -0.85790221090E-02 -0.99084749803E-03  0.10209382955E+01  0.10206793741E+01 0.  0.
     999903    2    3    3    0    0 -0.17200303962E-01  0.30276948142E-01 -0.12434675876E+00  0.13065217967E+00  0.19882947283E-01 0.  0.
         14    1    1    2    0    0 -0.21308145825E-01  0.85790221090E-02  0.99084749803E-03  0.22991704539E-01  0.00000000000E+00 0.  1.
     999901    1    3    3    0    0  0.38508449786E-01 -0.38855970251E-01  0.12335591126E+00  0.89028611579E+00  0.88000000000E+00 0. -1.
        -11    1    4    4    0    0 -0.16097748034E-01  0.20403428458E-01 -0.57932795313E-01  0.63497301347E-01  0.51100000000E-03 0.  1.
         11    1    4    4    0    0 -0.11025559281E-02  0.98735196841E-02 -0.66413963448E-01  0.67154878322E-01  0.51100000000E-03 0. -1.
</event>
<event>
 8    1  0.1131376E+005  0.1043930E+01  0.7957747E-01            NaN
         13   -1    0    0    0    0  0.00000000000E+00  0.00000000000E+00  0.74505805969E-08  0.10566000000E+00  0.10566000000E+00 0. -1.
     999900   -1    0    0    0    0 -0.00000000000E+00 -0.00000000000E+00 -0.74505805969E-08  0.93827000000E+00  0.93827000000E+00 0.  1.
     999902    2    1    2    0    0 -0.73871661457E-02 -0.21737293846E-01 -0.40596063098E-02  0.10206156145E+01  0.10203492892E+01 0.  0.
     999903    2    3    3    0    0 -0.83693740033E-01 -0.51880619578E-01 -0.86939949096E-01  0.13292171202E+00  0.20331895335E-01 0.  0.
         14    1    1    2    0    0  0.73871661457E-02  0.21737293846E-01  0.40596063098E-02  0.23314385490E-01  0.00000000000E+00 0.  1.
     999901    1    3    3    0    0  0.76306573887E-01  0.30143325732E-01  0.82880342787E-01  0.88769390249E+00  0.88000000000E+00 0. -1.
        -11    1    4    4    0    0 -0.42980344551E-01 -0.19946779263E-01 -0.30511974282E-01  0.56359788114E-01  0.51100000000E-03 0. -1.
         11    1    4    4    0    0 -0.40713395482E-01 -0.31933840314E-01 -0.56427974814E-01  0.76561923902E-01  0.51100000000E-03 0.  1.
</event>
<event>
 8    1  0.1131376E+005  0.1043930E+01  0.7957747E-01            NaN
         13   -1    0    0    0    0  0.00000000000E+00  0.00000000000E+00  0.74505805969E-08  0.10566000000E+00  0.10566000000E+00 0.  1.
     999900   -1    0    0    0    0 -0.00000000000E+00 -0.00000000000E+00 -0.74505805969E-08  0.93827000000E+00  0.93827000000E+00 0. -1.
     999902    2    1    2    0    0 -0.17506681377E-01 -0.38763745419E-02  0.15391091006E-01  0.10202995989E+01  0.10200259191E+01 0.  0.
     999903    2    3    3    0    0 -0.25283063583E-01  0.62899592627E-01 -0.10808091361E+00  0.12914033267E+00  0.20003739121E-01 0.  0.
         14    1    1    2    0    0  0.17506681377E-01  0.38763745419E-02 -0.15391091006E-01  0.23630401071E-01  0.00000000000E+00 0. -1.
     999901    1    3    3    0    0  0.77763822066E-02 -0.66775967169E-01  0.12347200462E+00  0.89115926626E+00  0.88000000000E+00 0.  1.
        -11    1    4    4    0    0  0.11665171211E-02  0.21085173981E-01 -0.35139678496E-01  0.41000042071E-01  0.51100000000E-03 0. -1.
         11    1    4    4    0    0 -0.26449580704E-01  0.41814418646E-01 -0.72941235115E-01  0.88140290601E-01  0.51100000000E-03 0.  1.
</event>
<event>
 8    1  0.1131376E+005  0.1043930E+01  0.7957747E-01            NaN
         13   -1    0    0    0    0  0.00000000000E+00  0.00000000000E+00  0.74505805969E-08  0.10566000000E+00  0.10566000000E+00 0. -1.
     999900   -1    0    0    0    0 -0.00000000000E+00 -0.00000000000E+00 -0.74505805969E-08  0.93827000000E+00  0.93827000000E+00 0.  1.
     999902    2    1    2    0    0  0.12822025609E-01  0.15283706479E-01  0.12865680897E-01  0.10201913865E+01  0.10199151648E+01 0.  0.
     999903    2    3    3    0    0 -0.23153759158E-01 -0.85165486917E-01  0.93514894311E-01  0.13008544162E+00  0.19695937102E-01 0.  0.
         14    1    1    2    0    0 -0.12822025609E-01 -0.15283706479E-01 -0.12865680897E-01  0.23738613469E-01  0.00000000000E+00 0.  1.
     999901    1    3    3    0    0  0.35975784767E-01  0.10044919340E+00 -0.80649213414E-01  0.89010594491E+00  0.88000000000E+00 0.  1.
        -11    1    4    4    0    0 -0.24067435364E-01 -0.54265200596E-01  0.57951811081E-01  0.82961599365E-01  0.51100000000E-03 0. -1.
         11    1    4    4    0    0  0.91367620585E-03 -0.30900286321E-01  0.35563083230E-01  0.47123842254E-01  0.51100000000E-03 0.  1.
</event>
<event>
 8    1  0.1131376E+005  0.1043930E+01  0.7957747E-01            NaN
         13   -1    0    0    0    0  0.00000000000E+00  0.00000000000E+00  0.74505805969E-08  0.10566000000E+00  0.10566000000E+00 0. -1.
     999900   -1    0    0    0    0 -0.00000000000E+00 -0.00000000000E+00 -0.74505805969E-08  0.93827000000E+00  0.93827000000E+00 0.  1.
     999902    2    1    2    0    0  0.22565632366E-01 -0.12697948237E-01  0.12066249666E-02  0.10180089353E+01  0.10176788740E+01 0.  0.
     999903    2    3    3    0    0  0.87511705443E-01 -0.91147157723E-01 -0.27791541746E-01  0.13166071670E+00  0.24414577153E-01 0.  0.
         14    1    1    2    0    0 -0.22565632366E-01  0.12697948237E-01 -0.12066249666E-02  0.25921064741E-01  0.00000000000E+00 0.  1.
     999901    1    3    3    0    0 -0.64946073077E-01  0.78449209486E-01  0.28998166713E-01  0.88634821856E+00  0.88000000000E+00 0. -1.
        -11    1    4    4    0    0  0.44109481357E-01 -0.33503604496E-01 -0.20780785226E-01  0.59162826297E-01  0.51100000000E-03 0. -1.
         11    1    4    4    0    0  0.43402224086E-01 -0.57643553227E-01 -0.70107565204E-02  0.72497890399E-01  0.51100000000E-03 0.  1.
</event>
<event>
 8    1  0.1131376E+005  0.1043930E+01  0.7957747E-01            NaN
         13   -1    0    0    0    0  0.00000000000E+00  0.00000000000E+00  0.74505805969E-08  0.10566000000E+00  0.10566000000E+00 0. -1.
     999900   -1    0    0    0    0 -0.00000000000E+00 -0.00000000000E+00 -0.74505805969E-08  0.93827000000E+00  0.93827000000E+00 0. -1.
     999902    2    1    2    0    0 -0.11374909481E-01 -0.21068984132E-01 -0.59932200287E-02  0.10192478335E+01  0.10189489372E+01 0.  0.
     999903    2    3    3    0    0 -0.12221746994E+00  0.39780100593E-01  0.22831987504E-02  0.13017124317E+00  0.20488367165E-01 0.  0.
         14    1    1    2    0    0  0.11374909481E-01  0.21068984132E-01  0.59932200287E-02  0.24682166525E-01  0.00000000000E+00 0. -1.
     999901    1    3    3    0    0  0.11084256046E+00 -0.60849084725E-01 -0.82764187791E-02  0.88907659031E+00  0.88000000000E+00 0.  1.
        -11    1    4    4    0    0 -0.77217176731E-01  0.25420698145E-01 -0.84351154201E-02  0.81731980091E-01  0.51100000000E-03 0. -1.
         11    1    4    4    0    0 -0.45000293213E-01  0.14359402449E-01  0.10718314170E-01  0.48439263078E-01  0.51100000000E-03 0.  1.
</event>
<event>
 8    1  0.1131376E+005  0.1043930E+01  0.7957747E-01            NaN
         13   -1    0    0    0    0  0.00000000000E+00  0.00000000000E+00  0.74505805969E-08  0.10566000000E+00  0.10566000000E+00 0.  1.
     999900   -1    0    0    0    0 -0.00000000000E+00 -0.00000000000E+00 -0.74505805969E-08  0.93827000000E+00  0.93827000000E+00 0.  1.
     999902    2    1    2    0    0  0.17482408605E-01  0.15038115852E-01  0.52735467926E-02  0.10202743488E+01  0.10200000769E+01 0.  0.
     999903    2    3    3    0    0  0.40212006966E-01 -0.48617021734E-01 -0.11128717808E+00  0.13001875977E+00  0.23225451131E-01 0.  0.
         14    1    1    2    0    0 -0.17482408605E-01 -0.15038115852E-01 -0.52735467926E-02  0.23655651223E-01  0.00000000000E+00 0.  1.
     999901    1    3    3    0    0 -0.22729598361E-01  0.63655137587E-01  0.11656072487E+00  0.89025558901E+00  0.88000000000E+00 0. -1.
        -11    1    4    4    0    0  0.34873256038E-01 -0.24752586597E-01 -0.71449577900E-01  0.83271470703E-01  0.51100000000E-03 0. -1.
         11    1    4    4    0    0  0.53387509281E-02 -0.23864435138E-01 -0.39837600176E-01  0.46747289063E-01  0.51100000000E-03 0.  1.
</event>
<event>
 8    1  0.1131376E+005  0.1043930E+01  0.7957747E-01            NaN
         13   -1    0    0    0    0  0.00000000000E+00  0.00000000000E+00  0.74505805969E-08  0.10566000000E+00  0.10566000000E+00 0.  1.
     999900   -1    0    0    0    0 -0.00000000000E+00 -0.00000000000E+00 -0.74505805969E-08  0.93827000000E+00  0.93827000000E+00 0. -1.
     999902    2    1    2    0    0  0.78313502001E-02 -0.18724263965E-01 -0.69764435289E-02  0.10224684327E+01  0.10222431692E+01 0.  0.
     999903    2    3    3    0    0  0.60279914260E-01  0.79620429350E-01 -0.84101148961E-01  0.13209168616E+00  0.20053165912E-01 0.  0.
         14    1    1    2    0    0 -0.78313502001E-02  0.18724263965E-01  0.69764435289E-02  0.21461567308E-01  0.00000000000E+00 0.  1.
     999901    1    3    3    0    0 -0.52448564060E-01 -0.98344693315E-01  0.77124705433E-01  0.89037674653E+00  0.88000000000E+00 0.  1.
        -11    1    4    4    0    0  0.30580844392E-01  0.29578042649E-01 -0.45301010640E-01  0.62148944775E-01  0.51100000000E-03 0. -1.
         11    1    4    4    0    0  0.29699069868E-01  0.50042386701E-01 -0.38800138321E-01  0.69942741386E-01  0.51100000000E-03 0.  1.
</event>
<event>
 8    1  0.1131376E+005  0.1043930E+01  0.7957747E-01            NaN
         13   -1    0    0    0    0  0.00000000000E+00  0.00000000000E+00  0.74505805969E-08  0.10566000000E+00  0.10566000000E+00 0. -1.
     999900   -1    0    0    0    0 -0.00000000000E+00 -0.00000000000E+00 -0.74505805969E-08  0.93827000000E+00  0.93827000000E+00 0.  1.
     999902    2    1    2    0    0 -0.19558337952E-01  0.10775994653E-02 -0.12557785980E-01  0.10206622585E+01  0.10203970101E+01 0.  0.
     999903    2    3    3    0    0  0.11857651856E+00 -0.31224641691E-01  0.31318831115E-01  0.12822187908E+00  0.20606117726E-01 0.  0.
         14    1    1    2    0    0  0.19558337952E-01 -0.10775994653E-02  0.12557785980E-01  0.23267741462E-01  0.00000000000E+00 0. -1.
     999901    1    3    3    0    0 -0.13813485651E+00  0.32302241157E-01 -0.43876617095E-01  0.89244037946E+00  0.88000000000E+00 0.  1.
        -11    1    4    4    0    0  0.39268189560E-01 -0.35444605339E-02  0.17296762620E-01  0.43058019345E-01  0.51100000000E-03 0. -1.
         11    1    4    4    0    0  0.79308329004E-01 -0.27680181157E-01  0.14022068496E-01  0.85163859730E-01  0.51100000000E-03 0.  1.
</event>
<event>
 8    1  0.1131376E+005  0.1043930E+01  0.7957747E-01            NaN
         13   -1    0    0    0    0  0.00000000000E+00  0.00000000000E+00  0.74505805969E-08  0.10566000000E+00  0.10566000000E+00 0. -1.
     999900   -1    0    0    0    0 -0.00000000000E+00 -0.00000000000E+00 -0.74505805969E-08  0.93827000000E+00  0.93827000000E+00 0. -1.
     999902    2    1    2    0    0  0.40909261306E-02  0.65148695335E-02  0.19545256310E-01  0.10229253280E+01  0.10227096511E+01 0.  0.
     999903    2    3    3    0    0 -0.12494335938E+00  0.87397509399E-02 -0.35850954016E-01  0.13178923455E+00  0.19896862571E-01 0.  0.
         14    1    1    2    0    0 -0.40909261306E-02 -0.65148695335E-02 -0.19545256310E-01  0.21004672001E-01  0.00000000000E+00 0.  1.
     999901    1    3    3    0    0  0.12903428551E+00 -0.22248814064E-02  0.55396210326E-01  0.89113609345E+00  0.88000000000E+00 0.  1.
        -11    1    4    4    0    0 -0.35265030352E-01  0.38203674671E-02 -0.19556613329E-01  0.40508515392E-01  0.51100000000E-03 0. -1.
         11    1    4    4    0    0 -0.89678329024E-01  0.49193834729E-02 -0.16294340687E-01  0.91280719156E-01  0.51100000000E-03 0.  1.
</event>
<event>
 8    1  0.1131376E+005  0.1043930E+01  0.7957747E-01            NaN
         13   -1    0    0    0    0  0.00000000000E+00  0.00000000000E+00  0.74505805969E-08  0.10566000000E+00  0.10566000000E+00 0.  1.
     999900   -1    0    0    0    0 -0.00000000000E+00 -0.00000000000E+00 -0.74505805969E-08  0.93827000000E+00  0.93827000000E+00 0. -1.
     999902    2    1    2    0    0 -0.50868128843E-02  0.19096113740E-01  0.13209685797E-01  0.10201595767E+01  0.10198826054E+01 0.  0.
     999903    2    3    3    0    0 -0.75372644307E-01 -0.35270682391E-01 -0.96358991700E-01  0.12892383812E+00  0.20279156992E-01 0.  0.
         14    1    1    2    0    0  0.50868128843E-02 -0.19096113740E-01 -0.13209685797E-01  0.23770423306E-01  0.00000000000E+00 0. -1.
     999901    1    3    3    0    0  0.70285831423E-01  0.54366796131E-01  0.10956867750E+00  0.89123573857E+00  0.88000000000E+00 0.  1.
        -11    1    4    4    0    0 -0.52173752974E-01 -0.34162902429E-01 -0.68111231783E-01  0.92350448931E-01  0.51100000000E-03 0.  1.
         11    1    4    4    0    0 -0.23198891333E-01 -0.11077799620E-02 -0.28247759917E-01  0.36573389190E-01  0.51100000000E-03 0. -1.
</event>
<event>
 8    1  0.1131376E+005  0.1043930E+01  0.7957747E-01            NaN
         13   -1    0    0    0    0  0.00000000000E+00  0.00000000000E+00  0.74505805969E-08  0.10566000000E+00  0.10566000000E+00 0. -1.
     999900   -1    0    0    0    0 -0.00000000000E+00 -0.00000000000E+00 -0.74505805969E-08  0.93827000000E+00  0.93827000000E+00 0.  1.
     999902    2    1    2    0    0  0.49285127907E-02 -0.11463966382E-01  0.20195121896E-01  0.10201906716E+01  0.10199144331E+01 0.  0.
     999903    2    3    3    0    0 -0.74914213864E-01  0.13342916512E-02  0.10700139774E+00  0.13223009483E+00  0.20532391182E-01 0.  0.
         14    1    1    2    0    0 -0.49285127907E-02  0.11463966382E-01 -0.20195121896E-01  0.23739328380E-01  0.00000000000E+00 0.  1.
     999901    1    3    3    0    0  0.79842726655E-01 -0.12798258033E-01 -0.86806275842E-01  0.88796057679E+00  0.88000000000E+00 0.  1.
        -11    1    4    4    0    0 -0.14926667719E-02 -0.36896876321E-02  0.69713983261E-02  0.80438401609E-02  0.51100000000E-03 0. -1.
         11    1    4    4    0    0 -0.73421547092E-01  0.50239792832E-02  0.10002999941E+00  0.12418625467E+00  0.51100000000E-03 0.  1.
</event>
<event>
 8    1  0.1131376E+005  0.1043930E+01  0.7957747E-01            NaN
         13   -1    0    0    0    0  0.00000000000E+00  0.00000000000E+00  0.74505805969E-08  0.10566000000E+00  0.10566000000E+00 0.  1.
     999900   -1    0    0    0    0 -0.00000000000E+00 -0.00000000000E+00 -0.74505805969E-08  0.93827000000E+00  0.93827000000E+00 0. -1.
     999902    2    1    2    0    0  0.61870123353E-02  0.21044645840E-01  0.90677552384E-02  0.10201943638E+01  0.10199182122E+01 0.  0.
     999903    2    3    3    0    0  0.11786111751E+00 -0.31500442909E-01  0.43159095219E-01  0.13092819917E+00  0.19898867170E-01 0.  0.
         14    1    1    2    0    0 -0.61870123353E-02 -0.21044645840E-01 -0.90677552384E-02  0.23735636188E-01  0.00000000000E+00 0. -1.
     999901    1    3    3    0    0 -0.11167410517E+00  0.52545088749E-01 -0.34091339980E-01  0.88926616464E+00  0.88000000000E+00 0. -1.
        -11    1    4    4    0    0  0.54232291232E-01 -0.23342210466E-01  0.15342723630E-01  0.61005413621E-01  0.51100000000E-03 0. -1.
         11    1    4    4    0    0  0.63628826273E-01 -0.81582324430E-02  0.27816371589E-01  0.69922785548E-01  0.51100000000E-03 0.  1.
</event>
<event>
 8    1  0.1131376E+005  0.1043930E+01  0.7957747E-01            NaN
         13   -1    0    0    0    0  0.00000000000E+00  0.00000000000E+00  0.74505805969E-08  0.10566000000E+00  0.10566000000E+00 0. -1.
     999900   -1    0    0    0    0 -0.00000000000E+00 -0.00000000000E+00 -0.74505805969E-08  0.93827000000E+00  0.93827000000E+00 0.  1.
     999902    2    1    2    0    0  0.72520596275E-02  0.22179840516E-01 -0.25640176020E-02  0.10204542278E+01  0.10201841594E+01 0.  0.
     999903    2    3    3    0    0 -0.69570558758E-01 -0.12706457778E-01 -0.10756293353E+00  0.13020508242E+00  0.19546408939E-01 0.  0.
         14    1    1    2    0    0 -0.72520596275E-02 -0.22179840516E-01  0.25640176020E-02  0.23475772201E-01  0.00000000000E+00 0. -1.
     999901    1    3    3    0    0  0.76822618385E-01  0.34886298294E-01  0.10499891593E+00  0.89024914538E+00  0.88000000000E+00 0. -1.
        -11    1    4    4    0    0 -0.26346162289E-01  0.24835171803E-02 -0.50573941524E-01  0.57081282460E-01  0.51100000000E-03 0. -1.
         11    1    4    4    0    0 -0.43224396469E-01 -0.15189974959E-01 -0.56988992008E-01  0.73123799959E-01  0.51100000000E-03 0.  1.
</event>
<event>
 8    1  0.1131376E+005  0.1043930E+01  0.7957747E-01            NaN
         13   -1    0    0    0    0  0.00000000000E+00  0.00000000000E+00  0.74505805969E-08  0.10566000000E+00  0.10566000000E+00 0. -1.
     999900   -1    0    0    0    0 -0.00000000000E+00 -0.00000000000E+00 -0.74505805969E-08  0.93827000000E+00  0.93827000000E+00 0.  1.
     999902    2    1    2    0    0  0.16034675396E-01 -0.19806377588E-01  0.40500753547E-02  0.10181267731E+01  0.10177997443E+01 0.  0.
     999903    2    3    3    0    0  0.52496058415E-01  0.11381824737E+00  0.92103781929E-02  0.12727796349E+00  0.20110180038E-01 0.  0.
         14    1    1    2    0    0 -0.16034675396E-01  0.19806377588E-01 -0.40500753547E-02  0.25803226902E-01  0.00000000000E+00 0. -1.
     999901    1    3    3    0    0 -0.36461383019E-01 -0.13362462496E+00 -0.51603028382E-02  0.89084880960E+00  0.88000000000E+00 0.  1.
        -11    1    4    4    0    0  0.18657939399E-01  0.51010926783E-01  0.12931318047E-01  0.55836488619E-01  0.51100000000E-03 0.  1.
         11    1    4    4    0    0  0.33838119016E-01  0.62807320587E-01 -0.37209398542E-02  0.71441474875E-01  0.51100000000E-03 0. -1.
</event>
<event>
 8    1  0.1131376E+005  0.1043930E+01  0.7957747E-01            NaN
         13   -1    0    0    0    0  0.00000000000E+00  0.00000000000E+00  0.74505805969E-08  0.10566000000E+00  0.10566000000E+00 0. -1.
     999900   -1    0    0    0    0 -0.00000000000E+00 -0.00000000000E+00 -0.74505805969E-08  0.93827000000E+00  0.93827000000E+00 0. -1.
     999902    2    1    2    0    0 -0.18951591976E-02 -0.24131656265E-01 -0.99641316122E-02  0.10177534383E+01  0.10174167528E+01 0.  0.
     999903    2    3    3    0    0  0.69601943316E-01  0.98285923286E-01 -0.31620563209E-01  0.12614427480E+00  0.20198138957E-01 0.  0.
         14    1    1    2    0    0  0.18951591976E-02  0.24131656265E-01  0.99641316122E-02  0.26176561678E-01  0.00000000000E+00 0. -1.
     999901    1    3    3    0    0 -0.71497102513E-01 -0.12241757955E+00  0.21656431597E-01  0.89160916352E+00  0.88000000000E+00 0.  1.
        -11    1    4    4    0    0  0.16468344830E-01  0.25539373453E-01  0.79599373156E-03  0.30403300887E-01  0.51100000000E-03 0.  1.
         11    1    4    4    0    0  0.53133598486E-01  0.72746549833E-01 -0.32416556940E-01  0.95740973912E-01  0.51100000000E-03 0. -1.
</event>
<event>
 8    1  0.1131376E+005  0.1043930E+01  0.7957747E-01            NaN
         13   -1    0    0    0    0  0.00000000000E+00  0.00000000000E+00  0.74505805969E-08  0.10566000000E+00  0.10566000000E+00 0.  1.
     999900   -1    0    0    0    0 -0.00000000000E+00 -0.00000000000E+00 -0.74505805969E-08  0.93827000000E+00  0.93827000000E+00 0. -1.
     999902    2    1    2    0    0 -0.43027084462E-02  0.22628571116E-01  0.68439108052E-02  0.10199007544E+01  0.10196176460E+01 0.  0.
     999903    2    3    3    0    0  0.83679461194E-01 -0.21047261534E-01 -0.93450792134E-01  0.12877367702E+00  0.20108950736E-01 0.  0.
         14    1    1    2    0    0  0.43027084462E-02 -0.22628571116E-01 -0.68439108052E-02  0.24029245636E-01  0.00000000000E+00 0.  1.
     999901    1    3    3    0    0 -0.87982169641E-01  0.43675832650E-01  0.10029470294E+00  0.89112707734E+00  0.88000000000E+00 0.  1.
        -11    1    4    4    0    0  0.28343238570E-01 -0.90400303365E-02 -0.46548795732E-01  0.55245930404E-01  0.51100000000E-03 0. -1.
         11    1    4    4    0    0  0.55336222625E-01 -0.12007231198E-01 -0.46901996402E-01  0.73527746619E-01  0.51100000000E-03 0.  1.
</event>
<event>
 8    1  0.1131376E+005  0.1043930E+01  0.7957747E-01            NaN
         13   -1    0    0    0    0  0.00000000000E+00  0.00000000000E+00  0.74505805969E-08  0.10566000000E+00  0.10566000000E+00 0.  1.
     999900   -1    0    0    0    0 -0.00000000000E+00 -0.00000000000E+00 -0.74505805969E-08  0.93827000000E+00  0.93827000000E+00 0.  1.
     999902    2    1    2    0    0  0.12823846035E-01  0.23636869757E-01  0.23113493165E-02  0.10169393539E+01  0.10165811107E+01 0.  0.
     999903    2    3    3    0    0 -0.12425491083E+00 -0.92611636329E-03  0.56782185701E-02  0.12598185682E+00  0.19976123841E-01 0.  0.
         14    1    1    2    0    0 -0.12823846035E-01 -0.23636869757E-01 -0.23113493165E-02  0.26990646060E-01  0.00000000000E+00 0.  1.
     999901    1    3    3    0    0  0.13707875687E+00  0.24562986120E-01 -0.33668692536E-02  0.89095749712E+00  0.88000000000E+00 0. -1.
        -11    1    4    4    0    0 -0.81981310760E-01 -0.43959055290E-02  0.12406350479E-01  0.83032752288E-01  0.51100000000E-03 0.  1.
         11    1    4    4    0    0 -0.42273600072E-01  0.34697891658E-02 -0.67281319086E-02  0.42949104529E-01  0.51100000000E-03 0. -1.
</event>
<event>
 8    1  0.1131376E+005  0.1043930E+01  0.7957747E-01            NaN
         13   -1    0    0    0    0  0.00000000000E+00  0.00000000000E+00  0.74505805969E-08  0.10566000000E+00  0.10566000000E+00 0.  1.
     999900   -1    0    0    0    0 -0.00000000000E+00 -0.00000000000E+00 -0.74505805969E-08  0.93827000000E+00  0.93827000000E+00 0.  1.
     999902    2    1    2    0    0  0.35613480631E-02 -0.21583926447E-01  0.10566755757E-01  0.10196358565E+01  0.10193463957E+01 0.  0.
     999903    2    3    3    0    0 -0.12207542494E+00 -0.22684644039E-01 -0.31630258906E-01  0.12971091677E+00  0.20185296682E-01 0.  0.
         14    1    1    2    0    0 -0.35613480631E-02  0.21583926447E-01 -0.10566755757E-01  0.24294143494E-01  0.00000000000E+00 0. -1.
     999901    1    3    3    0    0  0.12563677300E+00  0.11007175918E-02  0.42197014663E-01  0.88992493973E+00  0.88000000000E+00 0.  1.
        -11    1    4    4    0    0 -0.71193280026E-02 -0.65799648804E-02 -0.28236003535E-02  0.10110124084E-01  0.51100000000E-03 0. -1.
         11    1    4    4    0    0 -0.11495609694E+00 -0.16104679159E-01 -0.28806658553E-01  0.11960079269E+00  0.51100000000E-03 0.  1.
</event>
<event>
 8    1  0.1131376E+005  0.1043930E+01  0.7957747E-01            NaN
         13   -1    0    0    0    0  0.00000000000E+00  0.00000000000E+00  0.74505805969E-08  0.10566000000E+00  0.10566000000E+00 0. -1.
     999900   -1    0    0    0    0 -0.00000000000E+00 -0.00000000000E+00 -0.74505805969E-08  0.93827000000E+00  0.93827000000E+00 0.  1.
     999902    2    1    2    0    0 -0.15047773054E-01 -0.12720964577E-01  0.12611935766E-01  0.10205351429E+01  0.10202669546E+01 0.  0.
     999903    2    3    3    0    0 -0.15168301767E-01 -0.26742472837E-01  0.12781362897E+00  0.13291582850E+00  0.19622856211E-01 0.  0.
         14    1    1    2    0    0  0.15047773054E-01  0.12720964577E-01 -0.12611935766E-01  0.23394857072E-01  0.00000000000E+00 0.  1.
     999901    1    3    3    0    0  0.12052871327E-03  0.14021508260E-01 -0.11520169320E+00  0.88761931442E+00  0.88000000000E+00 0.  1.
        -11    1    4    4    0    0 -0.34309587267E-02 -0.16104238364E-01  0.95660930163E-01  0.97069009739E-01  0.51100000000E-03 0.  1.
         11    1    4    4    0    0 -0.11737343040E-01 -0.10638234473E-01  0.32152698803E-01  0.35846818766E-01  0.51100000000E-03 0. -1.
</event>
<event>
 8    1  0.1131376E+005  0.1043930E+01  0.7957747E-01            NaN
         13   -1    0    0    0    0  0.00000000000E+00  0.00000000000E+00  0.74505805969E-08  0.10566000000E+00  0.10566000000E+00 0. -1.
     999900   -1    0    0    0    0 -0.00000000000E+00 -0.00000000000E+00 -0.74505805969E-08  0.93827000000E+00  0.93827000000E+00 0.  1.
     999902    2    1    2    0    0 -0.87025520084E-02  0.18546600873E-01  0.12408794745E-01  0.10199781942E+01  0.10196969293E+01 0.  0.
     999903    2    3    3    0    0  0.94209435444E-02 -0.33906062831E-01  0.12472163026E+00  0.13110592211E+00  0.19872153487E-01 0.  0.
         14    1    1    2    0    0  0.87025520084E-02 -0.18546600873E-01 -0.12408794745E-01  0.23951805828E-01  0.00000000000E+00 0.  1.
     999901    1    3    3    0    0 -0.18123495553E-01  0.52452663703E-01 -0.11231283551E+00  0.88887227206E+00  0.88000000000E+00 0.  1.
        -11    1    4    4    0    0  0.16136769416E-02 -0.32403213901E-02  0.47641579397E-01  0.47781637105E-01  0.51100000000E-03 0.  1.
         11    1    4    4    0    0  0.78072666028E-02 -0.30665741441E-01  0.77080050860E-01  0.83324285005E-01  0.51100000000E-03 0. -1.
</event>
<event>
 8    1  0.1131376E+005  0.1043930E+01  0.7957747E-01            NaN
         13   -1    0    0    0    0  0.00000000000E+00  0.00000000000E+00  0.74505805969E-08  0.10566000000E+00  0.10566000000E+00 0.  1.
     999900   -1    0    0    0    0 -0.00000000000E+00 -0.00000000000E+00 -0.74505805969E-08  0.93827000000E+00  0.93827000000E+00 0.  1.
     999902    2    1    2    0    0 -0.19890811758E-01  0.36118282333E-02 -0.13618321220E-01  0.10195548412E+01  0.10192634231E+01 0.  0.
     999903    2    3    3    0    0 -0.24759676227E-01  0.11764578336E+00 -0.48883199540E-01  0.13148330102E+00  0.21088369781E-01 0.  0.
         14    1    1    2    0    0  0.19890811758E-01 -0.36118282333E-02  0.13618321220E-01  0.24375158839E-01  0.00000000000E+00 0. -1.
     999901    1    3    3    0    0  0.48688644689E-02 -0.11403395513E+00  0.35264878320E-01  0.88807154014E+00  0.88000000000E+00 0. -1.
        -11    1    4    4    0    0 -0.19499521444E-01  0.97386692610E-01 -0.31282219410E-01  0.10413086769E+00  0.51100000000E-03 0.  1.
         11    1    4    4    0    0 -0.52601547826E-02  0.20259090754E-01 -0.17600980129E-01  0.27352433329E-01  0.51100000000E-03 0. -1.
</event>
<event>
 8    1  0.1131376E+005  0.1043930E+01  0.7957747E-01            NaN
         13   -1    0    0    0    0  0.00000000000E+00  0.00000000000E+00  0.74505805969E-08  0.10566000000E+00  0.10566000000E+00 0. -1.
     999900   -1    0    0    0    0 -0.00000000000E+00 -0.00000000000E+00 -0.74505805969E-08  0.93827000000E+00  0.93827000000E+00 0.  1.
     999902    2    1    2    0    0  0.65340229298E-02 -0.19362504521E-01 -0.12049653891E-01  0.10202067162E+01  0.10199308553E+01 0.  0.
     999903    2    3    3    0    0 -0.29645349425E-01  0.10753661769E+00  0.58624762744E-01  0.12756613488E+00  0.19831416346E-01 0.  0.
         14    1    1    2    0    0 -0.65340229298E-02  0.19362504521E-01  0.12049653891E-01  0.23723283834E-01  0.00000000000E+00 0. -1.
     999901    1    3    3    0    0  0.36179372355E-01 -0.12689912221E+00 -0.70674416635E-01  0.89264058129E+00  0.88000000000E+00 0.  1.
        -11    1    4    4    0    0 -0.13974925601E-01  0.21688167942E-01  0.16802347391E-01  0.30793752176E-01  0.51100000000E-03 0.  1.
         11    1    4    4    0    0 -0.15670423825E-01  0.85848449744E-01  0.41822415353E-01  0.96772382699E-01  0.51100000000E-03 0. -1.
</event>
<event>
 8    1  0.1131376E+005  0.1043930E+01  0.7957747E-01            NaN
         13   -1    0    0    0    0  0.00000000000E+00  0.00000000000E+00  0.74505805969E-08  0.10566000000E+00  0.10566000000E+00 0.  1.
     999900   -1    0    0    0    0 -0.00000000000E+00 -0.00000000000E+00 -0.74505805969E-08  0.93827000000E+00  0.93827000000E+00 0. -1.
     999902    2    1    2    0    0 -0.12105224650E-01  0.20143698049E-01 -0.22884199085E-02  0.10203176748E+01  0.10200444185E+01 0.  0.
     999903    2    3    3    0    0 -0.39681499360E-01  0.11639183389E+00 -0.47777742674E-01  0.13347302491E+00  0.20264631671E-01 0.  0.
         14    1    1    2    0    0  0.12105224650E-01 -0.20143698049E-01  0.22884199085E-02  0.23612325183E-01  0.00000000000E+00 0. -1.
     999901    1    3    3    0    0  0.27576274710E-01 -0.96248135839E-01  0.45489322766E-01  0.88684464991E+00  0.88000000000E+00 0.  1.
        -11    1    4    4    0    0 -0.23815426300E-01  0.75280070261E-01 -0.20258275349E-01  0.81516393133E-01  0.51100000000E-03 0. -1.
         11    1    4    4    0    0 -0.15866073060E-01  0.41111763627E-01 -0.27519467326E-01  0.51956631778E-01  0.51100000000E-03 0.  1.
</event>
<event>
 8    1  0.1131376E+005  0.1043930E+01  0.7957747E-01            NaN
         13   -1    0    0    0    0  0.00000000000E+00  0.00000000000E+00  0.74505805969E-08  0.10566000000E+00  0.10566000000E+00 0. -1.
     999900   -1    0    0    0    0 -0.00000000000E+00 -0.00000000000E+00 -0.74505805969E-08  0.93827000000E+00  0.93827000000E+00 0.  1.
     999902    2    1    2    0    0  0.18632458531E-01 -0.11852646836E-01  0.99225153516E-02  0.10197202900E+01  0.10194328618E+01 0.  0.
     999903    2    3    3    0    0  0.34938761867E-01  0.10744277625E-01 -0.12260849418E+00  0.12936025887E+00  0.19106992115E-01 0.  0.
         14    1    1    2    0    0 -0.18632458531E-01  0.11852646836E-01 -0.99225153516E-02  0.24209710011E-01  0.00000000000E+00 0.  1.
     999901    1    3    3    0    0 -0.16306303336E-01 -0.22596924461E-01  0.13253100953E+00  0.89036003112E+00  0.88000000000E+00 0. -1.
        -11    1    4    4    0    0  0.11537215649E-01 -0.45268871307E-02 -0.51105773974E-01  0.52589555109E-01  0.51100000000E-03 0. -1.
         11    1    4    4    0    0  0.23401546218E-01  0.15271164756E-01 -0.71502720206E-01  0.76770703763E-01  0.51100000000E-03 0.  1.
</event>
<event>
 8    1  0.1131376E+005  0.1043930E+01  0.7957747E-01            NaN
         13   -1    0    0    0    0  0.00000000000E+00  0.00000000000E+00  0.74505805969E-08  0.10566000000E+00  0.10566000000E+00 0. -1.
     999900   -1    0    0    0    0 -0.00000000000E+00 -0.00000000000E+00 -0.74505805969E-08  0.93827000000E+00  0.93827000000E+00 0.  1.
     999902    2    1    2    0    0 -0.11298366687E-01  0.48721232059E-02  0.19777253238E-01  0.10206377176E+01  0.10203719029E+01 0.  0.
     999903    2    3    3    0    0 -0.32287043306E-01 -0.11041733303E+00 -0.56153047042E-01  0.12962840576E+00  0.20394074809E-01 0.  0.
         14    1    1    2    0    0  0.11298366687E-01 -0.48721232059E-02 -0.19777253238E-01  0.23292282412E-01  0.00000000000E+00 0.  1.
     999901    1    3    3    0    0  0.20988676619E-01  0.11528945624E+00  0.75930300280E-01  0.89100931183E+00  0.88000000000E+00 0. -1.
        -11    1    4    4    0    0 -0.16981476347E-01 -0.74490955809E-01 -0.46346711160E-01  0.89361914665E-01  0.51100000000E-03 0.  1.
         11    1    4    4    0    0 -0.15305566958E-01 -0.35926377226E-01 -0.98063358818E-02  0.40266491093E-01  0.51100000000E-03 0. -1.
</event>
<event>
 8    1  0.1131376E+005  0.1043930E+01  0.7957747E-01            NaN
         13   -1    0    0    0    0  0.00000000000E+00  0.00000000000E+00  0.74505805969E-08  0.10566000000E+00  0.10566000000E+00 0.  1.
     999900   -1    0    0    0    0 -0.00000000000E+00 -0.00000000000E+00 -0.74505805969E-08  0.93827000000E+00  0.93827000000E+00 0. -1.
     999902    2    1    2    0    0  0.67379546469E-02  0.11859256722E-01 -0.23665333879E-01  0.10166153514E+01  0.10162483371E+01 0.  0.
     999903    2    3    3    0    0 -0.94382613917E-01  0.56930484508E-02  0.79123916023E-01  0.12485920677E+00  0.19716460596E-01 0.  0.
         14    1    1    2    0    0 -0.67379546469E-02 -0.11859256722E-01  0.23665333879E-01  0.27314648642E-01  0.00000000000E+00 0.  1.
     999901    1    3    3    0    0  0.10112056856E+00  0.61662082711E-02 -0.10278924990E+00  0.89175614459E+00  0.88000000000E+00 0.  1.
        -11    1    4    4    0    0 -0.75429827815E-01  0.94909184194E-02  0.70512960809E-01  0.10369221388E+00  0.51100000000E-03 0.  1.
         11    1    4    4    0    0 -0.18952786102E-01 -0.37978699686E-02  0.86109552149E-02  0.21166992891E-01  0.51100000000E-03 0. -1.
</event>
<event>
 8    1  0.1131376E+005  0.1043930E+01  0.7957747E-01            NaN
         13   -1    0    0    0    0  0.00000000000E+00  0.00000000000E+00  0.74505805969E-08  0.10566000000E+00  0.10566000000E+00 0.  1.
     999900   -1    0    0    0    0 -0.00000000000E+00 -0.00000000000E+00 -0.74505805969E-08  0.93827000000E+00  0.93827000000E+00 0. -1.
     999902    2    1    2    0    0  0.12052007977E-01  0.24465799677E-02 -0.20155415316E-01  0.10203190403E+01  0.10200458160E+01 0.  0.
     999903    2    3    3    0    0 -0.54399801084E-01  0.11251317223E+00 -0.33441253332E-01  0.13087707418E+00  0.19797445286E-01 0.  0.
         14    1    1    2    0    0 -0.12052007977E-01 -0.24465799677E-02  0.20155415316E-01  0.23610959667E-01  0.00000000000E+00 0.  1.
     999901    1    3    3    0    0  0.66451809061E-01 -0.11006659226E+00  0.13285838016E-01  0.88944196615E+00  0.88000000000E+00 0. -1.
        -11    1    4    4    0    0 -0.50225439408E-01  0.85511867138E-01 -0.24973300299E-01  0.10226827971E+00  0.51100000000E-03 0.  1.
         11    1    4    4    0    0 -0.41743616763E-02  0.27001305088E-01 -0.84679530327E-02  0.28608794477E-01  0.51100000000E-03 0. -1.
</event>
<event>
 8    1  0.1131376E+005  0.1043930E+01  0.7957747E-01            NaN
         13   -1    0    0    0    0  0.00000000000E+00  0.00000000000E+00  0.74505805969E-08  0.10566000000E+00  0.10566000000E+00 0.  1.
     999900   -1    0    0    0    0 -0.00000000000E+00 -0.00000000000E+00 -0.74505805969E-08  0.93827000000E+00  0.93827000000E+00 0. -1.
     999902    2    1    2    0    0 -0.15128059144E-01  0.15968928913E-01 -0.94965502410E-02  0.10199706734E+01  0.10196892298E+01 0.  0.
     999903    2    3    3    0    0  0.65694119143E-02 -0.72619715187E-01  0.10335555735E+00  0.12808821126E+00  0.20185103935E-01 0.  0.
         14    1    1    2    0    0  0.15128059144E-01 -0.15968928913E-01  0.94965502410E-02  0.23959326589E-01  0.00000000000E+00 0. -1.
     999901    1    3    3    0    0 -0.21697471059E-01  0.88588644100E-01 -0.11285210759E+00  0.89188246216E+00  0.88000000000E+00 0. -1.
        -11    1    4    4    0    0 -0.67425857819E-02 -0.29742416688E-01  0.47065323848E-01  0.56084575806E-01  0.51100000000E-03 0.  1.
         11    1    4    4    0    0  0.13311997696E-01 -0.42877298499E-01  0.56290233501E-01  0.72003635449E-01  0.51100000000E-03 0. -1.
</event>
<event>
 8    1  0.1131376E+005  0.1043930E+01  0.7957747E-01            NaN
         13   -1    0    0    0    0  0.00000000000E+00  0.00000000000E+00  0.74505805969E-08  0.10566000000E+00  0.10566000000E+00 0. -1.
     999900   -1    0    0    0    0 -0.00000000000E+00 -0.00000000000E+00 -0.74505805969E-08  0.93827000000E+00  0.93827000000E+00 0. -1.
     999902    2    1    2    0    0 -0.14578051935E-01 -0.16491532844E-01  0.96017347746E-02  0.10199157633E+01  0.10196330127E+01 0.  0.
     999903    2    3    3    0    0 -0.12108094564E+00 -0.51791755591E-01  0.61281877660E-02  0.13278497383E+00  0.15852862335E-01 0.  0.
         14    1    1    2    0    0  0.14578051935E-01  0.16491532844E-01 -0.96017347746E-02  0.24014236704E-01  0.00000000000E+00 0.  1.
     999901    1    3    3    0    0  0.10650289371E+00  0.35300222747E-01  0.34735470086E-02  0.88713078947E+00  0.88000000000E+00 0. -1.
        -11    1    4    4    0    0 -0.71395923208E-01 -0.24743609247E-01  0.92410268942E-02  0.76126747916E-01  0.51100000000E-03 0.  1.
         11    1    4    4    0    0 -0.49685022435E-01 -0.27048146343E-01 -0.31128391282E-02  0.56658225912E-01  0.51100000000E-03 0. -1.
</event>
<event>
 8    1  0.1131376E+005  0.1043930E+01  0.7957747E-01            NaN
         13   -1    0    0    0    0  0.00000000000E+00  0.00000000000E+00  0.74505805969E-08  0.10566000000E+00  0.10566000000E+00 0. -1.
     999900   -1    0    0    0    0 -0.00000000000E+00 -0.00000000000E+00 -0.74505805969E-08  0.93827000000E+00  0.93827000000E+00 0.  1.
     999902    2    1    2    0    0  0.22954906975E-02 -0.22558348778E-01  0.74789626301E-03  0.10212428290E+01  0.10209907973E+01 0.  0.
     999903    2    3    3    0    0 -0.41740801619E-01 -0.12320040070E+00  0.26262925922E-01  0.13404553735E+00  0.18916436026E-01 0.  0.
         14    1    1    2    0    0 -0.22954906975E-02  0.22558348778E-01 -0.74789626301E-03  0.22687170955E-01  0.00000000000E+00 0.  1.
     999901    1    3    3    0    0  0.44036292316E-01  0.10064205192E+00 -0.25515029658E-01  0.88719729170E+00  0.88000000000E+00 0. -1.
        -11    1    4    4    0    0 -0.31975887622E-01 -0.80767033931E-01  0.25347465486E-01  0.90490476221E-01  0.51100000000E-03 0. -1.
         11    1    4    4    0    0 -0.97649139964E-02 -0.42433366772E-01  0.91546043598E-03  0.43555061127E-01  0.51100000000E-03 0.  1.
</event>
<event>
 8    1  0.1131376E+005  0.1043930E+01  0.7957747E-01            NaN
         13   -1    0    0    0    0  0.00000000000E+00  0.00000000000E+00  0.74505805969E-08  0.10566000000E+00  0.10566000000E+00 0.  1.
     999900   -1    0    0    0    0 -0.00000000000E+00 -0.00000000000E+00 -0.74505805969E-08  0.93827000000E+00  0.93827000000E+00 0. -1.
     999902    2    1    2    0    0  0.13546290864E-01  0.17858341333E-01  0.98087255300E-02  0.10194630131E+01  0.10191693685E+01 0.  0.
     999903    2    3    3    0    0  0.11449292394E+00  0.40918787029E-01 -0.46364667394E-01  0.13161310633E+00  0.19731969284E-01 0.  0.
         14    1    1    2    0    0 -0.13546290864E-01 -0.17858341333E-01 -0.98087255300E-02  0.24466986898E-01  0.00000000000E+00 0.  1.
     999901    1    3    3    0    0 -0.10094663307E+00 -0.23060445696E-01  0.56173392924E-01  0.88784990677E+00  0.88000000000E+00 0.  1.
        -11    1    4    4    0    0  0.59134133072E-01  0.10764015817E-01 -0.24008172835E-01  0.64725290378E-01  0.51100000000E-03 0.  1.
         11    1    4    4    0    0  0.55358790864E-01  0.30154771211E-01 -0.22356494558E-01  0.66887815951E-01  0.51100000000E-03 0. -1.
</event>
<event>
 8    1  0.1131376E+005  0.1043930E+01  0.7957747E-01            NaN
         13   -1    0    0    0    0  0.00000000000E+00  0.00000000000E+00  0.74505805969E-08  0.10566000000E+00  0.10566000000E+00 0. -1.
     999900   -1    0    0    0    0 -0.00000000000E+00 -0.00000000000E+00 -0.74505805969E-08  0.93827000000E+00  0.93827000000E+00 0. -1.
     999902    2    1    2    0    0  0.50383614779E-02  0.39860624737E-02 -0.22864792633E-01  0.10201797890E+01  0.10199032941E+01 0.  0.
     999903    2    3    3    0    0  0.74380304223E-01 -0.10463812803E+00 -0.14304082866E-01  0.13075255446E+00  0.20249844867E-01 0.  0.
         14    1    1    2    0    0 -0.50383614779E-02 -0.39860624737E-02  0.22864792633E-01  0.23750211000E-01  0.00000000000E+00 0. -1.
     999901    1    3    3    0    0 -0.69341942745E-01  0.10862419051E+00 -0.85607097670E-02  0.88942723454E+00  0.88000000000E+00 0. -1.
        -11    1    4    4    0    0  0.28832296061E-01 -0.28201680695E-01 -0.10558673207E-01  0.41693917915E-01  0.51100000000E-03 0. -1.
         11    1    4    4    0    0  0.45548008162E-01 -0.76436447337E-01 -0.37454096585E-02  0.89058636547E-01  0.51100000000E-03 0.  1.
</event>
<event>
 8    1  0.1131376E+005  0.1043930E+01  0.7957747E-01            NaN
         13   -1    0    0    0    0  0.00000000000E+00  0.00000000000E+00  0.74505805969E-08  0.10566000000E+00  0.10566000000E+00 0.  1.
     999900   -1    0    0    0    0 -0.00000000000E+00 -0.00000000000E+00 -0.74505805969E-08  0.93827000000E+00  0.93827000000E+00 0.  1.
     999902    2    1    2    0    0  0.21221393624E-01  0.68687913060E-02  0.11555437239E-01  0.10188091726E+01  0.10184994227E+01 0.  0.
     999903    2    3    3    0    0  0.55220449066E-02  0.73837734357E-01 -0.10344161230E+00  0.12866557163E+00  0.19291401492E-01 0.  0.
         14    1    1    2    0    0 -0.21221393624E-01 -0.68687913060E-02 -0.11555437239E-01  0.25120827438E-01  0.00000000000E+00 0.  1.
     999901    1    3    3    0    0  0.15699348718E-01 -0.66968943052E-01  0.11499704954E+00  0.89014360094E+00  0.88000000000E+00 0. -1.
        -11    1    4    4    0    0  0.25172042552E-02 -0.28446159020E-04 -0.29923796122E-02  0.39436763546E-02  0.51100000000E-03 0. -1.
         11    1    4    4    0    0  0.30048406514E-02  0.73866180517E-01 -0.10044923269E+00  0.12472189527E+00  0.51100000000E-03 0.  1.
</event>
<event>
 8    1  0.1131376E+005  0.1043930E+01  0.7957747E-01            NaN
         13   -1    0    0    0    0  0.00000000000E+00  0.00000000000E+00  0.74505805969E-08  0.10566000000E+00  0.10566000000E+00 0. -1.
     999900   -1    0    0    0    0 -0.00000000000E+00 -0.00000000000E+00 -0.74505805969E-08  0.93827000000E+00  0.93827000000E+00 0. -1.
     999902    2    1    2    0    0  0.21446685338E-01 -0.48878114479E-02 -0.37822157339E-02  0.10216105876E+01  0.10213667493E+01 0.  0.
     999903    2    3    3    0    0 -0.72737851190E-01  0.90061580604E-01  0.55350143418E-01  0.12954402628E+00  0.17780131399E-01 0.  0.
         14    1    1    2    0    0 -0.21446685338E-01  0.48878114479E-02  0.37822157339E-02  0.22319412372E-01  0.00000000000E+00 0.  1.
     999901    1    3    3    0    0  0.94184536529E-01 -0.94949392051E-01 -0.59132359152E-01  0.89206656135E+00  0.88000000000E+00 0. -1.
        -11    1    4    4    0    0 -0.30210702977E-01  0.51479308692E-01  0.27389863507E-01  0.65675501839E-01  0.51100000000E-03 0.  1.
         11    1    4    4    0    0 -0.42527148213E-01  0.38582271911E-01  0.27960279911E-01  0.63868524444E-01  0.51100000000E-03 0. -1.
</event>
<event>
 8    1  0.1131376E+005  0.1043930E+01  0.7957747E-01            NaN
         13   -1    0    0    0    0  0.00000000000E+00  0.00000000000E+00  0.74505805969E-08  0.10566000000E+00  0.10566000000E+00 0. -1.
     999900   -1    0    0    0    0 -0.00000000000E+00 -0.00000000000E+00 -0.74505805969E-08  0.93827000000E+00  0.93827000000E+00 0. -1.
     999902    2    1    2    0    0 -0.11519626830E-01  0.12733675511E-01  0.17194956498E-01  0.10196294892E+01  0.10193398749E+01 0.  0.
     999903    2    3    3    0    0  0.38658720993E-01  0.49929319351E-01 -0.10987967661E+00  0.12831060977E+00  0.20065782035E-01 0.  0.
         14    1    1    2    0    0  0.11519626830E-01 -0.12733675511E-01 -0.17194956498E-01  0.24300510762E-01  0.00000000000E+00 0.  1.
     999901    1    3    3    0    0 -0.50178347823E-01 -0.37195643840E-01  0.12707463311E+00  0.89131887946E+00  0.88000000000E+00 0.  1.
        -11    1    4    4    0    0  0.76156956135E-02  0.25225166557E-01 -0.49122220888E-01  0.55745507025E-01  0.51100000000E-03 0.  1.
         11    1    4    4    0    0  0.31043025379E-01  0.24704152794E-01 -0.60757455723E-01  0.72565102748E-01  0.51100000000E-03 0. -1.
</event>
<event>
 8    1  0.1131376E+005  0.1043930E+01  0.7957747E-01            NaN
         13   -1    0    0    0    0  0.00000000000E+00  0.00000000000E+00  0.74505805969E-08  0.10566000000E+00  0.10566000000E+00 0.  1.
     999900   -1    0    0    0    0 -0.00000000000E+00 -0.00000000000E+00 -0.74505805969E-08  0.93827000000E+00  0.93827000000E+00 0.  1.
     999902    2    1    2    0    0  0.17350959094E-01  0.10396433971E-01  0.11115849761E-01  0.10208496244E+01  0.10205886791E+01 0.  0.
     999903    2    3    3    0    0  0.10240382125E-01 -0.54750740191E-01 -0.11508825056E+00  0.12943379018E+00  0.20131856472E-01 0.  0.
         14    1    1    2    0    0 -0.17350959094E-01 -0.10396433971E-01 -0.11115849761E-01  0.23080375576E-01  0.00000000000E+00 0. -1.
     999901    1    3    3    0    0  0.71105769696E-02  0.65147174162E-01  0.12620410032E+00  0.89141583425E+00  0.88000000000E+00 0. -1.
        -11    1    4    4    0    0  0.79549208020E-02 -0.49730805242E-01 -0.84688083694E-01  0.98533072598E-01  0.51100000000E-03 0. -1.
         11    1    4    4    0    0  0.22854613227E-02 -0.50199349496E-02 -0.30400166868E-01  0.30900717580E-01  0.51100000000E-03 0.  1.
</event>
<event>
 8    1  0.1131376E+005  0.1043930E+01  0.7957747E-01            NaN
         13   -1    0    0    0    0  0.00000000000E+00  0.00000000000E+00  0.74505805969E-08  0.10566000000E+00  0.10566000000E+00 0.  1.
     999900   -1    0    0    0    0 -0.00000000000E+00 -0.00000000000E+00 -0.74505805969E-08  0.93827000000E+00  0.93827000000E+00 0.  1.
     999902    2    1    2    0    0 -0.76868843579E-02 -0.13232626401E-01 -0.20426662690E-01  0.10184066942E+01  0.10180868114E+01 0.  0.
     999903    2    3    3    0    0  0.14589563944E-01 -0.73576795572E-01  0.10141591607E+00  0.12768604608E+00  0.19802477375E-01 0.  0.
         14    1    1    2    0    0  0.76868843579E-02  0.13232626401E-01  0.20426662690E-01  0.25523305845E-01  0.00000000000E+00 0.  1.
     999901    1    3    3    0    0 -0.22276448301E-01  0.60344169170E-01 -0.12184257876E+00  0.89072064807E+00  0.88000000000E+00 0.  1.
        -11    1    4    4    0    0  0.93722044923E-02 -0.33736603240E-01  0.31785092862E-01  0.47292175510E-01  0.51100000000E-03 0. -1.
         11    1    4    4    0    0  0.52173594513E-02 -0.39840192332E-01  0.69630823205E-01  0.80393870574E-01  0.51100000000E-03 0.  1.
</event>
<event>
 8    1  0.1131376E+005  0.1043930E+01  0.7957747E-01            NaN
         13   -1    0    0    0    0  0.00000000000E+00  0.00000000000E+00  0.74505805969E-08  0.10566000000E+00  0.10566000000E+00 0.  1.
     999900   -1    0    0    0    0 -0.00000000000E+00 -0.00000000000E+00 -0.74505805969E-08  0.93827000000E+00  0.93827000000E+00 0. -1.
     999902    2    1    2    0    0 -0.13755290134E-01  0.20791255275E-01 -0.11426991501E-01  0.10165062797E+01  0.10161362882E+01 0.  0.
     999903    2    3    3    0    0 -0.35140962257E-01 -0.37838061180E-01 -0.11594453242E+00  0.12812648471E+00  0.17511578502E-01 0.  0.
         14    1    1    2    0    0  0.13755290134E-01 -0.20791255275E-01  0.11426991501E-01  0.27423720341E-01  0.00000000000E+00 0.  1.
     999901    1    3    3    0    0  0.21385672123E-01  0.58629316455E-01  0.10451754092E+00  0.88837979495E+00  0.88000000000E+00 0.  1.
        -11    1    4    4    0    0 -0.18340198208E-01 -0.10073898172E-01 -0.58717457514E-01  0.62336564171E-01  0.51100000000E-03 0.  1.
         11    1    4    4    0    0 -0.16800764049E-01 -0.27764163008E-01 -0.57227074910E-01  0.65789920535E-01  0.51100000000E-03 0. -1.
</event>
<event>
 8    1  0.1131376E+005  0.1043930E+01  0.7957747E-01            NaN
         13   -1    0    0    0    0  0.00000000000E+00  0.00000000000E+00  0.74505805969E-08  0.10566000000E+00  0.10566000000E+00 0.  1.
     999900   -1    0    0    0    0 -0.00000000000E+00 -0.00000000000E+00 -0.74505805969E-08  0.93827000000E+00  0.93827000000E+00 0. -1.
     999902    2    1    2    0    0 -0.26441492463E-03 -0.23533627553E-01 -0.26702371013E-03  0.10203933723E+01  0.10201218856E+01 0.  0.
     999903    2    3    3    0    0  0.65276088529E-01  0.77935516552E-02  0.11081055959E+00  0.13044102569E+00  0.20351262492E-01 0.  0.
         14    1    1    2    0    0  0.26441492463E-03  0.23533627553E-01  0.26702371013E-03  0.23536627683E-01  0.00000000000E+00 0.  1.
     999901    1    3    3    0    0 -0.65540503454E-01 -0.31327179208E-01 -0.11107758330E+00  0.88995234662E+00  0.88000000000E+00 0. -1.
        -11    1    4    4    0    0  0.54617699723E-01  0.73787583063E-02  0.75013022924E-01  0.93084659995E-01  0.51100000000E-03 0. -1.
         11    1    4    4    0    0  0.10658388806E-01  0.41479334897E-03  0.35797536670E-01  0.37356365697E-01  0.51100000000E-03 0.  1.
</event>
<event>
 8    1  0.1131376E+005  0.1043930E+01  0.7957747E-01            NaN
         13   -1    0    0    0    0  0.00000000000E+00  0.00000000000E+00  0.74505805969E-08  0.10566000000E+00  0.10566000000E+00 0.  1.
     999900   -1    0    0    0    0 -0.00000000000E+00 -0.00000000000E+00 -0.74505805969E-08  0.93827000000E+00  0.93827000000E+00 0.  1.
     999902    2    1    2    0    0 -0.12528760252E-01 -0.19057442607E-01  0.18747180529E-02  0.10210461515E+01  0.10207896811E+01 0.  0.
     999903    2    3    3    0    0 -0.12117676440E-01 -0.13176017525E+00 -0.28199061825E-02  0.13384599689E+00  0.19980419087E-01 0.  0.
         14    1    1    2    0    0  0.12528760252E-01  0.19057442607E-01 -0.18747180529E-02  0.22883848451E-01  0.00000000000E+00 0. -1.
     999901    1    3    3    0    0 -0.41108381207E-03  0.11270273265E+00  0.46946242354E-02  0.88720015466E+00  0.88000000000E+00 0. -1.
        -11    1    4    4    0    0 -0.12882411531E-01 -0.71443709989E-01  0.61567870658E-02  0.72858269070E-01  0.51100000000E-03 0.  1.
         11    1    4    4    0    0  0.76473509085E-03 -0.60316465263E-01 -0.89766932482E-02  0.60987727817E-01  0.51100000000E-03 0. -1.
</event>
<event>
 8    1  0.1131376E+005  0.1043930E+01  0.7957747E-01            NaN
         13   -1    0    0    0    0  0.00000000000E+00  0.00000000000E+00  0.74505805969E-08  0.10566000000E+00  0.10566000000E+00 0. -1.
     999900   -1    0    0    0    0 -0.00000000000E+00 -0.00000000000E+00 -0.74505805969E-08  0.93827000000E+00  0.93827000000E+00 0. -1.
     999902    2    1    2    0    0 -0.56745620846E-02 -0.16329500302E-01  0.16226282570E-01  0.10202203926E+01  0.10199448535E+01 0.  0.
     999903    2    3    3    0    0 -0.44567397946E-01 -0.12029611941E+00 -0.25255833705E-01  0.13227755859E+00  0.20052083857E-01 0.  0.
         14    1    1    2    0    0  0.56745620846E-02  0.16329500302E-01 -0.16226282570E-01  0.23709607356E-01  0.00000000000E+00 0.  1.
     999901    1    3    3    0    0  0.38892835861E-01  0.10396661911E+00  0.41482116275E-01  0.88794283405E+00  0.88000000000E+00 0.  1.
        -11    1    4    4    0    0 -0.20987957544E-01 -0.39756951020E-01 -0.11970471545E-02  0.44975588480E-01  0.51100000000E-03 0.  1.
         11    1    4    4    0    0 -0.23579440402E-01 -0.80539168389E-01 -0.24058786551E-01  0.87301970114E-01  0.51100000000E-03 0. -1.
</event>
<event>
 8    1  0.1131376E+005  0.1043930E+01  0.7957747E-01            NaN
         13   -1    0    0    0    0  0.00000000000E+00  0.00000000000E+00  0.74505805969E-08  0.10566000000E+00  0.10566000000E+00 0.  1.
     999900   -1    0    0    0    0 -0.00000000000E+00 -0.00000000000E+00 -0.74505805969E-08  0.93827000000E+00  0.93827000000E+00 0.  1.
     999902    2    1    2    0    0 -0.13976510067E-01  0.16999229943E-01  0.11100351708E-01  0.10192817859E+01  0.10189837214E+01 0.  0.
     999903    2    3    3    0    0  0.98686805858E-01  0.39802898641E-01  0.71639079534E-01  0.12974372168E+00  0.19440144228E-01 0.  0.
         14    1    1    2    0    0  0.13976510067E-01 -0.16999229943E-01 -0.11100351708E-01  0.24648214141E-01  0.00000000000E+00 0. -1.
     999901    1    3    3    0    0 -0.11266331592E+00 -0.22803668699E-01 -0.60538727826E-01  0.88953806418E+00  0.88000000000E+00 0.  1.
        -11    1    4    4    0    0  0.31184107179E-01  0.10086510910E-01  0.12048519556E-01  0.34922975065E-01  0.51100000000E-03 0. -1.
         11    1    4    4    0    0  0.67502698679E-01  0.29716387731E-01  0.59590559978E-01  0.94820746613E-01  0.51100000000E-03 0.  1.
</event>
<event>
 8    1  0.1131376E+005  0.1043930E+01  0.7957747E-01            NaN
         13   -1    0    0    0    0  0.00000000000E+00  0.00000000000E+00  0.74505805969E-08  0.10566000000E+00  0.10566000000E+00 0.  1.
     999900   -1    0    0    0    0 -0.00000000000E+00 -0.00000000000E+00 -0.74505805969E-08  0.93827000000E+00  0.93827000000E+00 0.  1.
     999902    2    1    2    0    0  0.18037877635E-01 -0.53537104756E-02  0.13756791904E-01  0.10206217060E+01  0.10203555215E+01 0.  0.
     999903    2    3    3    0    0 -0.11111757487E+00 -0.56437801655E-01  0.29289193093E-01  0.12959310334E+00  0.20104096638E-01 0.  0.
         14    1    1    2    0    0 -0.18037877635E-01  0.53537104756E-02 -0.13756791904E-01  0.23308293994E-01  0.00000000000E+00 0.  1.
     999901    1    3    3    0    0  0.12915545250E+00  0.51084091180E-01 -0.15532401189E-01  0.89102860267E+00  0.88000000000E+00 0.  1.
        -11    1    4    4    0    0 -0.46759573409E-01 -0.22501152912E-01  0.22353650626E-01  0.56504038838E-01  0.51100000000E-03 0.  1.
         11    1    4    4    0    0 -0.64358001456E-01 -0.33936648744E-01  0.69355424670E-02  0.73089064502E-01  0.51100000000E-03 0. -1.
</event>
<event>
 8    1  0.1131376E+005  0.1043930E+01  0.7957747E-01            NaN
         13   -1    0    0    0    0  0.00000000000E+00  0.00000000000E+00  0.74505805969E-08  0.10566000000E+00  0.10566000000E+00 0. -1.
     999900   -1    0    0    0    0 -0.00000000000E+00 -0.00000000000E+00 -0.74505805969E-08  0.93827000000E+00  0.93827000000E+00 0.  1.
     999902    2    1    2    0    0  0.15427443086E-01  0.92815081498E-02  0.15016896557E-01  0.10204851802E+01  0.10202158318E+01 0.  0.
     999903    2    3    3    0    0 -0.10817763013E+00  0.67085056892E-01  0.49771626133E-02  0.12991218451E+00  0.25487232455E-01 0.  0.
         14    1    1    2    0    0 -0.15427443086E-01 -0.92815081498E-02 -0.15016896557E-01  0.23444819810E-01  0.00000000000E+00 0.  1.
     999901    1    3    3    0    0  0.12360507322E+00 -0.57803548743E-01  0.10039733944E-01  0.89057299568E+00  0.88000000000E+00 0.  1.
        -11    1    4    4    0    0 -0.72018209802E-01  0.54247129263E-01 -0.48660481733E-02  0.90295698249E-01  0.51100000000E-03 0. -1.
         11    1    4    4    0    0 -0.36159420328E-01  0.12837927629E-01  0.98432107866E-02  0.39616486264E-01  0.51100000000E-03 0.  1.
</event>
<event>
 8    1  0.1131376E+005  0.1043930E+01  0.7957747E-01            NaN
         13   -1    0    0    0    0  0.00000000000E+00  0.00000000000E+00  0.74505805969E-08  0.10566000000E+00  0.10566000000E+00 0. -1.
     999900   -1    0    0    0    0 -0.00000000000E+00 -0.00000000000E+00 -0.74505805969E-08  0.93827000000E+00  0.93827000000E+00 0. -1.
     999902    2    1    2    0    0 -0.16031294798E-01 -0.13527647124E-02 -0.17124227812E-01  0.10204337968E+01  0.10201632527E+01 0.  0.
     999903    2    3    3    0    0  0.58258315821E-01 -0.85299990153E-01  0.74085996058E-01  0.12864604863E+00  0.19772489304E-01 0.  0.
         14    1    1    2    0    0  0.16031294798E-01  0.13527647124E-02  0.17124227812E-01  0.23496203170E-01  0.00000000000E+00 0. -1.
     999901    1    3    3    0    0 -0.74289610619E-01  0.83947225440E-01 -0.91210223870E-01  0.89178774820E+00  0.88000000000E+00 0. -1.
        -11    1    4    4    0    0  0.23382348574E-01 -0.21003925915E-01  0.28673739979E-01  0.42548132909E-01  0.51100000000E-03 0. -1.
         11    1    4    4    0    0  0.34875967247E-01 -0.64296064238E-01  0.45412256079E-01  0.86097915718E-01  0.51100000000E-03 0.  1.
</event>
<event>
 8    1  0.1131376E+005  0.1043930E+01  0.7957747E-01            NaN
         13   -1    0    0    0    0  0.00000000000E+00  0.00000000000E+00  0.74505805969E-08  0.10566000000E+00  0.10566000000E+00 0. -1.
     999900   -1    0    0    0    0 -0.00000000000E+00 -0.00000000000E+00 -0.74505805969E-08  0.93827000000E+00  0.93827000000E+00 0.  1.
     999902    2    1    2    0    0 -0.41352886741E-02 -0.15495193239E-01 -0.31997713203E-01  0.10081381675E+01  0.10075026101E+01 0.  0.
     999903    2    3    3    0    0  0.30570017220E-01  0.10710568820E+00  0.29209183732E-01  0.11685722488E+00  0.19906787623E-01 0.  0.
         14    1    1    2    0    0  0.41352886741E-02  0.15495193239E-01  0.31997713203E-01  0.35791832534E-01  0.00000000000E+00 0. -1.
     999901    1    3    3    0    0 -0.34705305894E-01 -0.12260088144E+00 -0.61206896935E-01  0.89128094259E+00  0.88000000000E+00 0.  1.
        -11    1    4    4    0    0  0.36567764734E-02  0.48573626336E-01  0.11845238192E-01  0.50133222303E-01  0.51100000000E-03 0.  1.
         11    1    4    4    0    0  0.26913240746E-01  0.58532061868E-01  0.17363945541E-01  0.66724002575E-01  0.51100000000E-03 0. -1.
</event>
<event>
 8    1  0.1131376E+005  0.1043930E+01  0.7957747E-01            NaN
         13   -1    0    0    0    0  0.00000000000E+00  0.00000000000E+00  0.74505805969E-08  0.10566000000E+00  0.10566000000E+00 0.  1.
     999900   -1    0    0    0    0 -0.00000000000E+00 -0.00000000000E+00 -0.74505805969E-08  0.93827000000E+00  0.93827000000E+00 0. -1.
     999902    2    1    2    0    0  0.16598100061E-01 -0.15784206036E-01  0.46412636044E-02  0.10205595183E+01  0.10202918950E+01 0.  0.
     999903    2    3    3    0    0  0.87296359489E-01  0.61398874169E-01 -0.73166806761E-01  0.13094748627E+00  0.20084482090E-01 0.  0.
         14    1    1    2    0    0 -0.16598100061E-01  0.15784206036E-01 -0.46412636044E-02  0.23370481674E-01  0.00000000000E+00 0.  1.
     999901    1    3    3    0    0 -0.70698259428E-01 -0.77183080205E-01  0.77808070366E-01  0.88961203205E+00  0.88000000000E+00 0.  1.
        -11    1    4    4    0    0  0.38781387820E-01  0.21171358231E-01 -0.40591406788E-01  0.60001215626E-01  0.51100000000E-03 0.  1.
         11    1    4    4    0    0  0.48514971669E-01  0.40227515937E-01 -0.32575399974E-01  0.70946270649E-01  0.51100000000E-03 0. -1.
</event>
<event>
 8    1  0.1131376E+005  0.1043930E+01  0.7957747E-01            NaN
         13   -1    0    0    0    0  0.00000000000E+00  0.00000000000E+00  0.74505805969E-08  0.10566000000E+00  0.10566000000E+00 0.  1.
     999900   -1    0    0    0    0 -0.00000000000E+00 -0.00000000000E+00 -0.74505805969E-08  0.93827000000E+00  0.93827000000E+00 0. -1.
     999902    2    1    2    0    0 -0.85377622978E-02 -0.17089487138E-01 -0.13202662980E-01  0.10207081511E+01  0.10204439600E+01 0.  0.
     999903    2    3    3    0    0 -0.67956317960E-01 -0.42080690557E-01 -0.10523005018E+00  0.13356432682E+00  0.19422159212E-01 0.  0.
         14    1    1    2    0    0  0.85377622978E-02  0.17089487138E-01  0.13202662980E-01  0.23221848881E-01  0.00000000000E+00 0.  1.
     999901    1    3    3    0    0  0.59418555662E-01  0.24991203419E-01  0.92027387199E-01  0.88714382430E+00  0.88000000000E+00 0.  1.
        -11    1    4    4    0    0 -0.29135606206E-01 -0.24630758351E-01 -0.37021578359E-01  0.53164049800E-01  0.51100000000E-03 0. -1.
         11    1    4    4    0    0 -0.38820711754E-01 -0.17449932206E-01 -0.68208471820E-01  0.80400277016E-01  0.51100000000E-03 0.  1.
</event>
<event>
 8    1  0.1131376E+005  0.1043930E+01  0.7957747E-01            NaN
         13   -1    0    0    0    0  0.00000000000E+00  0.00000000000E+00  0.74505805969E-08  0.10566000000E+00  0.10566000000E+00 0.  1.
     999900   -1    0    0    0    0 -0.00000000000E+00 -0.00000000000E+00 -0.74505805969E-08  0.93827000000E+00  0.93827000000E+00 0.  1.
     999902    2    1    2    0    0 -0.19035872479E-01 -0.12977567861E-01 -0.39296174444E-02  0.10205585730E+01  0.10202909277E+01 0.  0.
     999903    2    3    3    0    0 -0.61902626472E-01 -0.87067790025E-01  0.75988890691E-01  0.13280078642E+00  0.21189670635E-01 0.  0.
         14    1    1    2    0    0  0.19035872479E-01  0.12977567861E-01  0.39296174444E-02  0.23371427040E-01  0.00000000000E+00 0.  1.
     999901    1    3    3    0    0  0.42866753993E-01  0.74090222164E-01 -0.79918508136E-01  0.88775778654E+00  0.88000000000E+00 0.  1.
        -11    1    4    4    0    0 -0.35235730569E-01 -0.32775376828E-01  0.38555049456E-01  0.61664698122E-01  0.51100000000E-03 0. -1.
         11    1    4    4    0    0 -0.26666895903E-01 -0.54292413197E-01  0.37433841235E-01  0.71136088299E-01  0.51100000000E-03 0.  1.
</event>
<event>
 8    1  0.1131376E+005  0.1043930E+01  0.7957747E-01            NaN
         13   -1    0    0    0    0  0.00000000000E+00  0.00000000000E+00  0.74505805969E-08  0.10566000000E+00  0.10566000000E+00 0. -1.
     999900   -1    0    0    0    0 -0.00000000000E+00 -0.00000000000E+00 -0.74505805969E-08  0.93827000000E+00  0.93827000000E+00 0.  1.
     999902    2    1    2    0    0 -0.17483345207E-01 -0.10546602574E-01 -0.99397402744E-02  0.10212210453E+01  0.10209685239E+01 0.  0.
     999903    2    3    3    0    0 -0.99613686958E-01  0.34758279300E-01 -0.74681824782E-01  0.13387136067E+00  0.34830182974E-01 0.  0.
         14    1    1    2    0    0  0.17483345207E-01  0.10546602574E-01  0.99397402744E-02  0.22708954670E-01  0.00000000000E+00 0. -1.
     999901    1    3    3    0    0  0.82130341751E-01 -0.45304881874E-01  0.64742084507E-01  0.88734968466E+00  0.88000000000E+00 0. -1.
        -11    1    4    4    0    0 -0.77996669833E-01  0.10784576725E-01 -0.55240234686E-01  0.96184885763E-01  0.51100000000E-03 0.  1.
         11    1    4    4    0    0 -0.21617017125E-01  0.23973702575E-01 -0.19441590096E-01  0.37686474908E-01  0.51100000000E-03 0. -1.
</event>
<event>
 8    1  0.1131376E+005  0.1043930E+01  0.7957747E-01            NaN
         13   -1    0    0    0    0  0.00000000000E+00  0.00000000000E+00  0.74505805969E-08  0.10566000000E+00  0.10566000000E+00 0. -1.
     999900   -1    0    0    0    0 -0.00000000000E+00 -0.00000000000E+00 -0.74505805969E-08  0.93827000000E+00  0.93827000000E+00 0. -1.
     999902    2    1    2    0    0  0.15326780858E-01 -0.58218357014E-02 -0.14316609756E-01  0.10221637579E+01  0.10219319833E+01 0.  0.
     999903    2    3    3    0    0 -0.43200904857E-01  0.64843705590E-01  0.10185673288E+00  0.12979872365E+00  0.20047201664E-01 0.  0.
         14    1    1    2    0    0 -0.15326780858E-01  0.58218357014E-02  0.14316609756E-01  0.21766242149E-01  0.00000000000E+00 0. -1.
     999901    1    3    3    0    0  0.58527685715E-01 -0.70665541292E-01 -0.11617334263E+00  0.89236503420E+00  0.88000000000E+00 0. -1.
        -11    1    4    4    0    0 -0.29353210873E-01  0.57736707804E-01  0.79354994272E-01  0.10243346452E+00  0.51100000000E-03 0. -1.
         11    1    4    4    0    0 -0.13847693984E-01  0.71069977859E-02  0.22501738604E-01  0.27365259133E-01  0.51100000000E-03 0.  1.
</event>
<event>
 8    1  0.1131376E+005  0.1043930E+01  0.7957747E-01            NaN
         13   -1    0    0    0    0  0.00000000000E+00  0.00000000000E+00  0.74505805969E-08  0.10566000000E+00  0.10566000000E+00 0. -1.
     999900   -1    0    0    0    0 -0.00000000000E+00 -0.00000000000E+00 -0.74505805969E-08  0.93827000000E+00  0.93827000000E+00 0.  1.
     999902    2    1    2    0    0  0.16703490905E-01 -0.15168208985E-01 -0.54959445876E-02  0.10207074554E+01  0.10204432482E+01 0.  0.
     999903    2    3    3    0    0  0.56817315642E-01  0.25522547717E-01 -0.11472561822E+00  0.13211532271E+00  0.20319528040E-01 0.  0.
         14    1    1    2    0    0 -0.16703490905E-01  0.15168208985E-01  0.54959445876E-02  0.23222544631E-01  0.00000000000E+00 0.  1.
     999901    1    3    3    0    0 -0.40113824737E-01 -0.40690756702E-01  0.10922967364E+00  0.88859213266E+00  0.88000000000E+00 0. -1.
        -11    1    4    4    0    0  0.39294328704E-01  0.10139986247E-01 -0.58066097985E-01  0.70843464381E-01  0.51100000000E-03 0. -1.
         11    1    4    4    0    0  0.17522986939E-01  0.15382561470E-01 -0.56659520239E-01  0.61271858331E-01  0.51100000000E-03 0.  1.
</event>
<event>
 8    1  0.1131376E+005  0.1043930E+01  0.7957747E-01            NaN
         13   -1    0    0    0    0  0.00000000000E+00  0.00000000000E+00  0.74505805969E-08  0.10566000000E+00  0.10566000000E+00 0. -1.
     999900   -1    0    0    0    0 -0.00000000000E+00 -0.00000000000E+00 -0.74505805969E-08  0.93827000000E+00  0.93827000000E+00 0.  1.
     999902    2    1    2    0    0 -0.11741852958E-01 -0.20144403710E-01 -0.47060447039E-02  0.10201431345E+01  0.10198657755E+01 0.  0.
     999903    2    3    3    0    0  0.55445986719E-02  0.11356538406E+00 -0.57076578010E-01  0.12833609178E+00  0.16869429894E-01 0.  0.
         14    1    1    2    0    0  0.11741852958E-01  0.20144403710E-01  0.47060447039E-02  0.23786865461E-01  0.00000000000E+00 0.  1.
     999901    1    3    3    0    0 -0.17286451630E-01 -0.13370978777E+00  0.52370533306E-01  0.89180704276E+00  0.88000000000E+00 0. -1.
        -11    1    4    4    0    0  0.28221695688E-02  0.72312782511E-01 -0.45173677732E-01  0.85311344125E-01  0.51100000000E-03 0.  1.
         11    1    4    4    0    0  0.27224291031E-02  0.41252601548E-01 -0.11902900278E-01  0.43024747655E-01  0.51100000000E-03 0. -1.
</event>
<event>
 8    1  0.1131376E+005  0.1043930E+01  0.7957747E-01            NaN
         13   -1    0    0    0    0  0.00000000000E+00  0.00000000000E+00  0.74505805969E-08  0.10566000000E+00  0.10566000000E+00 0.  1.
     999900   -1    0    0    0    0 -0.00000000000E+00 -0.00000000000E+00 -0.74505805969E-08  0.93827000000E+00  0.93827000000E+00 0.  1.
     999902    2    1    2    0    0 -0.16255487284E-01 -0.10411685528E-01  0.15860894417E-01  0.10189457643E+01  0.10186394154E+01 0.  0.
     999903    2    3    3    0    0  0.10888981256E+00 -0.64156159669E-01 -0.87721085384E-02  0.12812782587E+00  0.19151651885E-01 0.  0.
         14    1    1    2    0    0  0.16255487284E-01  0.10411685528E-01 -0.15860894417E-01  0.24984235711E-01  0.00000000000E+00 0. -1.
     999901    1    3    3    0    0 -0.12514529985E+00  0.53744474141E-01  0.24633002955E-01  0.89081793842E+00  0.88000000000E+00 0.  1.
        -11    1    4    4    0    0  0.48437529495E-01 -0.17655149455E-01 -0.35852462049E-02  0.51681850559E-01  0.51100000000E-03 0. -1.
         11    1    4    4    0    0  0.60452283070E-01 -0.46501010214E-01 -0.51868623335E-02  0.76445975311E-01  0.51100000000E-03 0.  1.
</event>
<event>
 8    1  0.1131376E+005  0.1043930E+01  0.7957747E-01            NaN
         13   -1    0    0    0    0  0.00000000000E+00  0.00000000000E+00  0.74505805969E-08  0.10566000000E+00  0.10566000000E+00 0.  1.
     999900   -1    0    0    0    0 -0.00000000000E+00 -0.00000000000E+00 -0.74505805969E-08  0.93827000000E+00  0.93827000000E+00 0.  1.
     999902    2    1    2    0    0 -0.92341190037E-02  0.23007524767E-01 -0.27387576171E-02  0.10189877478E+01  0.10186824404E+01 0.  0.
     999903    2    3    3    0    0  0.10036945833E+00  0.37085839750E-01 -0.67478203328E-01  0.12971706973E+00  0.28702309646E-01 0.  0.
         14    1    1    2    0    0  0.92341190037E-02 -0.23007524767E-01  0.27387576171E-02  0.24942252163E-01  0.00000000000E+00 0.  1.
     999901    1    3    3    0    0 -0.10960357733E+00 -0.14078314983E-01  0.64739445710E-01  0.88927067811E+00  0.88000000000E+00 0.  1.
        -11    1    4    4    0    0  0.10639658350E-01  0.87022170011E-02 -0.20087205671E-01  0.24345181519E-01  0.51100000000E-03 0.  1.
         11    1    4    4    0    0  0.89729799978E-01  0.28383622749E-01 -0.47390997657E-01  0.10537188821E+00  0.51100000000E-03 0. -1.
</event>
<event>
 8    1  0.1131376E+005  0.1043930E+01  0.7957747E-01            NaN
         13   -1    0    0    0    0  0.00000000000E+00  0.00000000000E+00  0.74505805969E-08  0.10566000000E+00  0.10566000000E+00 0. -1.
     999900   -1    0    0    0    0 -0.00000000000E+00 -0.00000000000E+00 -0.74505805969E-08  0.93827000000E+00  0.93827000000E+00 0. -1.
     999902    2    1    2    0    0  0.23486515485E-01  0.37946245079E-02  0.83222165199E-02  0.10187253403E+01  0.10184134936E+01 0.  0.
     999903    2    3    3    0    0  0.60253972616E-01 -0.11344906903E+00 -0.54504545727E-02  0.13008164561E+00  0.19755874768E-01 0.  0.
         14    1    1    2    0    0 -0.23486515485E-01 -0.37946245079E-02 -0.83222165199E-02  0.25204659740E-01  0.00000000000E+00 0.  1.
     999901    1    3    3    0    0 -0.36767457131E-01  0.11724369354E+00  0.13772671093E-01  0.88864369465E+00  0.88000000000E+00 0.  1.
        -11    1    4    4    0    0  0.15403229445E-01 -0.35116123591E-01  0.69316298545E-02  0.38970632877E-01  0.51100000000E-03 0. -1.
         11    1    4    4    0    0  0.44850743171E-01 -0.78332945443E-01 -0.12382084427E-01  0.91111012729E-01  0.51100000000E-03 0.  1.
</event>
<event>
 8    1  0.1131376E+005  0.1043930E+01  0.7957747E-01            NaN
         13   -1    0    0    0    0  0.00000000000E+00  0.00000000000E+00  0.74505805969E-08  0.10566000000E+00  0.10566000000E+00 0. -1.
     999900   -1    0    0    0    0 -0.00000000000E+00 -0.00000000000E+00 -0.74505805969E-08  0.93827000000E+00  0.93827000000E+00 0. -1.
     999902    2    1    2    0    0 -0.11920442345E-01  0.83799458559E-02 -0.18699433349E-01  0.10202236876E+01  0.10199482259E+01 0.  0.
     999903    2    3    3    0    0 -0.24494364962E-01 -0.21159179206E-01  0.12268833845E+00  0.12835981604E+00  0.19394050752E-01 0.  0.
         14    1    1    2    0    0  0.11920442345E-01 -0.83799458559E-02  0.18699433349E-01  0.23706312362E-01  0.00000000000E+00 0. -1.
     999901    1    3    3    0    0  0.12573922617E-01  0.29539125062E-01 -0.14138777180E+00  0.89186387159E+00  0.88000000000E+00 0. -1.
        -11    1    4    4    0    0 -0.11598505332E-01 -0.20347899614E-01  0.94275479858E-01  0.97142624877E-01  0.51100000000E-03 0.  1.
         11    1    4    4    0    0 -0.12895859629E-01 -0.81127959201E-03  0.28412858589E-01  0.31217191167E-01  0.51100000000E-03 0. -1.
</event>
<event>
 8    1  0.1131376E+005  0.1043930E+01  0.7957747E-01            NaN
         13   -1    0    0    0    0  0.00000000000E+00  0.00000000000E+00  0.74505805969E-08  0.10566000000E+00  0.10566000000E+00 0.  1.
     999900   -1    0    0    0    0 -0.00000000000E+00 -0.00000000000E+00 -0.74505805969E-08  0.93827000000E+00  0.93827000000E+00 0. -1.
     999902    2    1    2    0    0 -0.70230324191E-02 -0.20419537630E-01 -0.85600640101E-02  0.10207016725E+01  0.10204373323E+01 0.  0.
     999903    2    3    3    0    0 -0.94287449149E-01  0.77022496239E-01  0.40036818052E-01  0.12970689962E+00  0.19958582523E-01 0.  0.
         14    1    1    2    0    0  0.70230324191E-02  0.20419537630E-01  0.85600640101E-02  0.23228327474E-01  0.00000000000E+00 0. -1.
     999901    1    3    3    0    0  0.87264416730E-01 -0.97442033870E-01 -0.48596882062E-01  0.89099477290E+00  0.88000000000E+00 0. -1.
        -11    1    4    4    0    0 -0.54274266428E-01  0.33813021821E-01  0.14819443462E-01  0.65642162262E-01  0.51100000000E-03 0.  1.
         11    1    4    4    0    0 -0.40013182721E-01  0.43209474419E-01  0.25217374590E-01  0.64064737362E-01  0.51100000000E-03 0. -1.
</event>
<event>
 8    1  0.1131376E+005  0.1043930E+01  0.7957747E-01            NaN
         13   -1    0    0    0    0  0.00000000000E+00  0.00000000000E+00  0.74505805969E-08  0.10566000000E+00  0.10566000000E+00 0.  1.
     999900   -1    0    0    0    0 -0.00000000000E+00 -0.00000000000E+00 -0.74505805969E-08  0.93827000000E+00  0.93827000000E+00 0.  1.
     999902    2    1    2    0    0 -0.60208680421E-02  0.80482897599E-02 -0.21553044360E-01  0.10201485042E+01  0.10198712718E+01 0.  0.
     999903    2    3    3    0    0 -0.20957726233E-01 -0.11915251160E+00 -0.44724371898E-01  0.13057553700E+00  0.20326192787E-01 0.  0.
         14    1    1    2    0    0  0.60208680421E-02 -0.80482897599E-02  0.21553044360E-01  0.23781495773E-01  0.00000000000E+00 0.  1.
     999901    1    3    3    0    0  0.14936858191E-01  0.12720080135E+00  0.23171327538E-01  0.88957296723E+00  0.88000000000E+00 0. -1.
        -11    1    4    4    0    0 -0.23904376461E-01 -0.82917576327E-01 -0.32619436193E-01  0.92255256850E-01  0.51100000000E-03 0. -1.
         11    1    4    4    0    0  0.29466502277E-02 -0.36234935268E-01 -0.12104935706E-01  0.38320280152E-01  0.51100000000E-03 0.  1.
</event>
<event>
 8    1  0.1131376E+005  0.1043930E+01  0.7957747E-01            NaN
         13   -1    0    0    0    0  0.00000000000E+00  0.00000000000E+00  0.74505805969E-08  0.10566000000E+00  0.10566000000E+00 0.  1.
     999900   -1    0    0    0    0 -0.00000000000E+00 -0.00000000000E+00 -0.74505805969E-08  0.93827000000E+00  0.93827000000E+00 0. -1.
     999902    2    1    2    0    0 -0.62606520547E-02  0.14295261126E-01 -0.16208997654E-01  0.10214292920E+01  0.10211814318E+01 0.  0.
     999903    2    3    3    0    0  0.60239212609E-01 -0.85070256222E-01  0.72967028881E-01  0.12887783594E+00  0.20484092924E-01 0.  0.
         14    1    1    2    0    0  0.62606520547E-02 -0.14295261126E-01  0.16208997654E-01  0.22500707984E-01  0.00000000000E+00 0.  1.
     999901    1    3    3    0    0 -0.66499864664E-01  0.99365517348E-01 -0.89176026535E-01  0.89255145608E+00  0.88000000000E+00 0. -1.
        -11    1    4    4    0    0  0.27731818144E-01 -0.51796095606E-01  0.32075760581E-01  0.66940307704E-01  0.51100000000E-03 0. -1.
         11    1    4    4    0    0  0.32507394465E-01 -0.33274160616E-01  0.40891268300E-01  0.61937528235E-01  0.51100000000E-03 0.  1.
</event>
<event>
 8    1  0.1131376E+005  0.1043930E+01  0.7957747E-01            NaN
         13   -1    0    0    0    0  0.00000000000E+00  0.00000000000E+00  0.74505805969E-08  0.10566000000E+00  0.10566000000E+00 0.  1.
     999900   -1    0    0    0    0 -0.00000000000E+00 -0.00000000000E+00 -0.74505805969E-08  0.93827000000E+00  0.93827000000E+00 0. -1.
     999902    2    1    2    0    0  0.21216551094E-01 -0.57179544777E-04  0.83110932765E-02  0.10211436097E+01  0.10208893437E+01 0.  0.
     999903    2    3    3    0    0 -0.10569949714E+00  0.60424011183E-01 -0.37008174192E-01  0.12883228865E+00  0.20117376068E-01 0.  0.
         14    1    1    2    0    0 -0.21216551094E-01  0.57179544777E-04 -0.83110932765E-02  0.22786390264E-01  0.00000000000E+00 0.  1.
     999901    1    3    3    0    0  0.12691604823E+00 -0.60481190728E-01  0.45319267469E-01  0.89231132108E+00  0.88000000000E+00 0. -1.
        -11    1    4    4    0    0 -0.33708931789E-01  0.14907094627E-01 -0.25436031234E-02  0.36949216371E-01  0.51100000000E-03 0. -1.
         11    1    4    4    0    0 -0.71990565348E-01  0.45516916556E-01 -0.34464571069E-01  0.91883072281E-01  0.51100000000E-03 0.  1.
</event>
<event>
 8    1  0.1131376E+005  0.1043930E+01  0.7957747E-01            NaN
         13   -1    0    0    0    0  0.00000000000E+00  0.00000000000E+00  0.74505805969E-08  0.10566000000E+00  0.10566000000E+00 0. -1.
     999900   -1    0    0    0    0 -0.00000000000E+00 -0.00000000000E+00 -0.74505805969E-08  0.93827000000E+00  0.93827000000E+00 0. -1.
     999902    2    1    2    0    0 -0.18329771192E-01  0.98207190058E-02  0.19449431193E-01  0.10154570759E+01  0.10150578139E+01 0.  0.
     999903    2    3    3    0    0 -0.10180878322E-02 -0.95035954035E-01 -0.76924013529E-01  0.12383918850E+00  0.19646162190E-01 0.  0.
         14    1    1    2    0    0  0.18329771192E-01 -0.98207190058E-02 -0.19449431193E-01  0.28472924112E-01  0.00000000000E+00 0.  1.
     999901    1    3    3    0    0 -0.17311683360E-01  0.10485667304E+00  0.96373444723E-01  0.89161788739E+00  0.88000000000E+00 0.  1.
        -11    1    4    4    0    0  0.88825834712E-02 -0.46361927739E-01 -0.33831097825E-01  0.58078678823E-01  0.51100000000E-03 0.  1.
         11    1    4    4    0    0 -0.99006713034E-02 -0.48674026296E-01 -0.43092915704E-01  0.65760509677E-01  0.51100000000E-03 0. -1.
</event>
<event>
 8    1  0.1131376E+005  0.1043930E+01  0.7957747E-01            NaN
         13   -1    0    0    0    0  0.00000000000E+00  0.00000000000E+00  0.74505805969E-08  0.10566000000E+00  0.10566000000E+00 0. -1.
     999900   -1    0    0    0    0 -0.00000000000E+00 -0.00000000000E+00 -0.74505805969E-08  0.93827000000E+00  0.93827000000E+00 0.  1.
     999902    2    1    2    0    0  0.21363709694E-01  0.23168129146E-02 -0.91111070525E-02  0.10205893062E+01  0.10203223726E+01 0.  0.
     999903    2    3    3    0    0 -0.31220728277E-01  0.12513748657E+00 -0.10225191744E-02  0.13046826601E+00  0.19667192710E-01 0.  0.
         14    1    1    2    0    0 -0.21363709694E-01 -0.23168129146E-02  0.91111070525E-02  0.23340693771E-01  0.00000000000E+00 0. -1.
     999901    1    3    3    0    0  0.52584437971E-01 -0.12282067366E+00 -0.80885878780E-02  0.89012104022E+00  0.88000000000E+00 0.  1.
        -11    1    4    4    0    0 -0.31330118410E-01  0.10397795174E+00  0.41623599124E-02  0.10867647919E+00  0.51100000000E-03 0.  1.
         11    1    4    4    0    0  0.10939013378E-03  0.21159534836E-01 -0.51848790869E-02  0.21791786820E-01  0.51100000000E-03 0. -1.
</event>
<event>
 8    1  0.1131376E+005  0.1043930E+01  0.7957747E-01            NaN
         13   -1    0    0    0    0  0.00000000000E+00  0.00000000000E+00  0.74505805969E-08  0.10566000000E+00  0.10566000000E+00 0. -1.
     999900   -1    0    0    0    0 -0.00000000000E+00 -0.00000000000E+00 -0.74505805969E-08  0.93827000000E+00  0.93827000000E+00 0. -1.
     999902    2    1    2    0    0 -0.17284992932E-01 -0.16430323870E-01 -0.16580331096E-02  0.10200244442E+01  0.10197442774E+01 0.  0.
     999903    2    3    3    0    0  0.12224374892E+00  0.23131562418E-01 -0.22376851757E-01  0.12791308229E+00  0.19555812370E-01 0.  0.
         14    1    1    2    0    0  0.17284992932E-01  0.16430323870E-01  0.16580331096E-02  0.23905555775E-01  0.00000000000E+00 0. -1.
     999901    1    3    3    0    0 -0.13952874185E+00 -0.39561886288E-01  0.20718818648E-01  0.89211136194E+00  0.88000000000E+00 0.  1.
        -11    1    4    4    0    0  0.76172789836E-01  0.51943879231E-02 -0.10558996578E-01  0.77078071505E-01  0.51100000000E-03 0.  1.
         11    1    4    4    0    0  0.46070959080E-01  0.17937174495E-01 -0.11817855179E-01  0.50835010784E-01  0.51100000000E-03 0. -1.
</event>
<event>
 8    1  0.1131376E+005  0.1043930E+01  0.7957747E-01            NaN
         13   -1    0    0    0    0  0.00000000000E+00  0.00000000000E+00  0.74505805969E-08  0.10566000000E+00  0.10566000000E+00 0. -1.
     999900   -1    0    0    0    0 -0.00000000000E+00 -0.00000000000E+00 -0.74505805969E-08  0.93827000000E+00  0.93827000000E+00 0.  1.
     999902    2    1    2    0    0 -0.14891918194E-01  0.70997927577E-02 -0.17730933012E-01  0.10197109523E+01  0.10194232997E+01 0.  0.
     999903    2    3    3    0    0  0.27937074033E-02  0.84361645835E-01  0.95289300434E-01  0.12894962152E+00  0.20573332828E-01 0.  0.
         14    1    1    2    0    0  0.14891918194E-01 -0.70997927577E-02  0.17730933012E-01  0.24219047673E-01  0.00000000000E+00 0. -1.
     999901    1    3    3    0    0 -0.17685625597E-01 -0.77261853078E-01 -0.11302023345E+00  0.89076133081E+00  0.88000000000E+00 0.  1.
        -11    1    4    4    0    0 -0.18807585237E-02  0.64084113288E-01  0.59081345946E-01  0.87184731395E-01  0.51100000000E-03 0.  1.
         11    1    4    4    0    0  0.46744659270E-02  0.20277532547E-01  0.36207954489E-01  0.41764890125E-01  0.51100000000E-03 0. -1.
</event>
<event>
 8    1  0.1131376E+005  0.1043930E+01  0.7957747E-01            NaN
         13   -1    0    0    0    0  0.00000000000E+00  0.00000000000E+00  0.74505805969E-08  0.10566000000E+00  0.10566000000E+00 0.  1.
     999900   -1    0    0    0    0 -0.00000000000E+00 -0.00000000000E+00 -0.74505805969E-08  0.93827000000E+00  0.93827000000E+00 0. -1.
     999902    2    1    2    0    0  0.20505873218E-01  0.11897395552E-01  0.34527715803E-02  0.10199725275E+01  0.10196911279E+01 0.  0.
     999903    2    3    3    0    0  0.10777449015E-01  0.12884171466E+00 -0.17171767933E-01  0.13194325566E+00  0.19945231411E-01 0.  0.
         14    1    1    2    0    0 -0.20505873218E-01 -0.11897395552E-01 -0.34527715803E-02  0.23957472507E-01  0.00000000000E+00 0.  1.
     999901    1    3    3    0    0  0.97284242029E-02 -0.11694431911E+00  0.20624539513E-01  0.88802927184E+00  0.88000000000E+00 0.  1.
        -11    1    4    4    0    0  0.11654024423E-01  0.50842443848E-01 -0.45108338909E-03  0.52165457718E-01  0.51100000000E-03 0. -1.
         11    1    4    4    0    0 -0.87657540812E-03  0.77999270810E-01 -0.16720684544E-01  0.79777797938E-01  0.51100000000E-03 0.  1.
</event>
<event>
 8    1  0.1131376E+005  0.1043930E+01  0.7957747E-01            NaN
         13   -1    0    0    0    0  0.00000000000E+00  0.00000000000E+00  0.74505805969E-08  0.10566000000E+00  0.10566000000E+00 0.  1.
     999900   -1    0    0    0    0 -0.00000000000E+00 -0.00000000000E+00 -0.74505805969E-08  0.93827000000E+00  0.93827000000E+00 0. -1.
     999902    2    1    2    0    0  0.22268357105E-01 -0.26549828970E-02 -0.63750156084E-02  0.10206154233E+01  0.10203490936E+01 0.  0.
     999903    2    3    3    0    0 -0.11810272971E+00 -0.15431042100E-02 -0.46677183607E-01  0.12857868470E+00  0.20076920919E-01 0.  0.
         14    1    1    2    0    0 -0.22268357105E-01  0.26549828970E-02  0.63750156084E-02  0.23314576692E-01  0.00000000000E+00 0.  1.
     999901    1    3    3    0    0  0.14037108681E+00 -0.11118786870E-02  0.40302167998E-01  0.89203673861E+00  0.88000000000E+00 0. -1.
        -11    1    4    4    0    0 -0.58007599689E-01 -0.79867593463E-02 -0.30427712644E-01  0.65990732412E-01  0.51100000000E-03 0.  1.
         11    1    4    4    0    0 -0.60095130019E-01  0.64436551364E-02 -0.16249470963E-01  0.62587952284E-01  0.51100000000E-03 0. -1.
</event>
<event>
 8    1  0.1131376E+005  0.1043930E+01  0.7957747E-01            NaN
         13   -1    0    0    0    0  0.00000000000E+00  0.00000000000E+00  0.74505805969E-08  0.10566000000E+00  0.10566000000E+00 0.  1.
     999900   -1    0    0    0    0 -0.00000000000E+00 -0.00000000000E+00 -0.74505805969E-08  0.93827000000E+00  0.93827000000E+00 0.  1.
     999902    2    1    2    0    0 -0.21275800061E-01  0.53970254813E-02  0.89122000426E-02  0.10202400261E+01  0.10199649484E+01 0.  0.
     999903    2    3    3    0    0 -0.11731641175E+00  0.49019852314E-01 -0.33679731432E-01  0.13291774942E+00  0.19149867284E-01 0.  0.
         14    1    1    2    0    0  0.21275800061E-01 -0.53970254813E-02 -0.89122000426E-02  0.23689973868E-01  0.00000000000E+00 0. -1.
     999901    1    3    3    0    0  0.96040611685E-01 -0.43622826833E-01  0.42591931475E-01  0.88732227671E+00  0.88000000000E+00 0. -1.
        -11    1    4    4    0    0 -0.36240328423E-01  0.24495669073E-01 -0.86594790770E-02  0.44594247459E-01  0.51100000000E-03 0.  1.
         11    1    4    4    0    0 -0.81076083323E-01  0.24524183241E-01 -0.25020252355E-01  0.88323501966E-01  0.51100000000E-03 0. -1.
</event>
<event>
 8    1  0.1131376E+005  0.1043930E+01  0.7957747E-01            NaN
         13   -1    0    0    0    0  0.00000000000E+00  0.00000000000E+00  0.74505805969E-08  0.10566000000E+00  0.10566000000E+00 0.  1.
     999900   -1    0    0    0    0 -0.00000000000E+00 -0.00000000000E+00 -0.74505805969E-08  0.93827000000E+00  0.93827000000E+00 0. -1.
     999902    2    1    2    0    0  0.10025472004E-01  0.21071205336E-01  0.34868079295E-02  0.10203362802E+01  0.10200634594E+01 0.  0.
     999903    2    3    3    0    0  0.50680191490E-01  0.31603903765E-01 -0.11527080483E+00  0.13136658753E+00  0.20063233299E-01 0.  0.
         14    1    1    2    0    0 -0.10025472004E-01 -0.21071205336E-01 -0.34868079295E-02  0.23593719774E-01  0.00000000000E+00 0.  1.
     999901    1    3    3    0    0 -0.40654719487E-01 -0.10532698429E-01  0.11875761275E+00  0.88896969270E+00  0.88000000000E+00 0.  1.
        -11    1    4    4    0    0  0.45924777255E-01  0.19442715146E-01 -0.93692260788E-01  0.10613955526E+00  0.51100000000E-03 0.  1.
         11    1    4    4    0    0  0.47554142349E-02  0.12161188619E-01 -0.21578544038E-01  0.25227032266E-01  0.51100000000E-03 0. -1.
</event>
<event>
 8    1  0.1131376E+005  0.1043930E+01  0.7957747E-01            NaN
         13   -1    0    0    0    0  0.00000000000E+00  0.00000000000E+00  0.74505805969E-08  0.10566000000E+00  0.10566000000E+00 0.  1.
     999900   -1    0    0    0    0 -0.00000000000E+00 -0.00000000000E+00 -0.74505805969E-08  0.93827000000E+00  0.93827000000E+00 0.  1.
     999902    2    1    2    0    0  0.11756075716E-01  0.17079056185E-02  0.20654964790E-01  0.10201024985E+01  0.10198241797E+01 0.  0.
     999903    2    3    3    0    0  0.89122947341E-01 -0.37565334168E-01 -0.83928142491E-01  0.12967246389E+00  0.20419615934E-01 0.  0.
         14    1    1    2    0    0 -0.11756075716E-01 -0.17079056185E-02 -0.20654964790E-01  0.23827501513E-01  0.00000000000E+00 0. -1.
     999901    1    3    3    0    0 -0.77366871624E-01  0.39273239787E-01  0.10458310728E+00  0.89043003460E+00  0.88000000000E+00 0. -1.
        -11    1    4    4    0    0  0.52220458706E-01 -0.21126406457E-01 -0.61741401161E-01  0.83579681117E-01  0.51100000000E-03 0. -1.
         11    1    4    4    0    0  0.36902488635E-01 -0.16438927711E-01 -0.22186741330E-01  0.46092782771E-01  0.51100000000E-03 0.  1.
</event>
<event>
 8    1  0.1131376E+005  0.1043930E+01  0.7957747E-01            NaN
         13   -1    0    0    0    0  0.00000000000E+00  0.00000000000E+00  0.74505805969E-08  0.10566000000E+00  0.10566000000E+00 0. -1.
     999900   -1    0    0    0    0 -0.00000000000E+00 -0.00000000000E+00 -0.74505805969E-08  0.93827000000E+00  0.93827000000E+00 0.  1.
     999902    2    1    2    0    0 -0.41808561832E-03  0.14358978688E-01  0.17739418975E-01  0.10211036545E+01  0.10208484859E+01 0.  0.
     999903    2    3    3    0    0  0.64172057404E-01 -0.21429362940E-02  0.11498299564E+00  0.13324076361E+00  0.20232811775E-01 0.  0.
         14    1    1    2    0    0  0.41808561832E-03 -0.14358978688E-01 -0.17739418975E-01  0.22826345527E-01  0.00000000000E+00 0.  1.
     999901    1    3    3    0    0 -0.64590143022E-01  0.16501914982E-01 -0.97243576667E-01  0.88786289087E+00  0.88000000000E+00 0.  1.
        -11    1    4    4    0    0  0.39103192793E-01  0.75445137508E-02  0.77244544336E-01  0.86907767921E-01  0.51100000000E-03 0.  1.
         11    1    4    4    0    0  0.25068864611E-01 -0.96874500447E-02  0.37738451306E-01  0.46332995686E-01  0.51100000000E-03 0. -1.
</event>
<event>
 8    1  0.1131376E+005  0.1043930E+01  0.7957747E-01            NaN
         13   -1    0    0    0    0  0.00000000000E+00  0.00000000000E+00  0.74505805969E-08  0.10566000000E+00  0.10566000000E+00 0.  1.
     999900   -1    0    0    0    0 -0.00000000000E+00 -0.00000000000E+00 -0.74505805969E-08  0.93827000000E+00  0.93827000000E+00 0. -1.
     999902    2    1    2    0    0  0.20263723272E-01  0.10027783749E-01  0.66954569642E-02  0.10203502614E+01  0.10200777676E+01 0.  0.
     999903    2    3    3    0    0  0.12221455171E+00  0.30500873474E-01 -0.38126517547E-01  0.13309487077E+00  0.19847250555E-01 0.  0.
         14    1    1    2    0    0 -0.20263723272E-01 -0.10027783749E-01 -0.66954569642E-02  0.23579738585E-01  0.00000000000E+00 0. -1.
     999901    1    3    3    0    0 -0.10195082844E+00 -0.20473089725E-01  0.44821974511E-01  0.88725539064E+00  0.88000000000E+00 0. -1.
        -11    1    4    4    0    0  0.60272769266E-01  0.20790617620E-01 -0.10670366614E-01  0.64646533864E-01  0.51100000000E-03 0.  1.
         11    1    4    4    0    0  0.61941782442E-01  0.97102558542E-02 -0.27456150932E-01  0.68448336911E-01  0.51100000000E-03 0. -1.
</event>
<event>
 8    1  0.1131376E+005  0.1043930E+01  0.7957747E-01            NaN
         13   -1    0    0    0    0  0.00000000000E+00  0.00000000000E+00  0.74505805969E-08  0.10566000000E+00  0.10566000000E+00 0. -1.
     999900   -1    0    0    0    0 -0.00000000000E+00 -0.00000000000E+00 -0.74505805969E-08  0.93827000000E+00  0.93827000000E+00 0.  1.
     999902    2    1    2    0    0 -0.21510859848E-01  0.87204614781E-02  0.35681986753E-02  0.10204460569E+01  0.10201757984E+01 0.  0.
     999903    2    3    3    0    0 -0.36970442071E-01  0.12088237291E+00  0.34946933131E-01  0.13263756519E+00  0.19800855964E-01 0.  0.
         14    1    1    2    0    0  0.21510859848E-01 -0.87204614781E-02 -0.35681986753E-02  0.23483943058E-01  0.00000000000E+00 0.  1.
     999901    1    3    3    0    0  0.15459582223E-01 -0.11216191143E+00 -0.31378734455E-01  0.88780849176E+00  0.88000000000E+00 0.  1.
        -11    1    4    4    0    0 -0.36868496002E-01  0.97346450895E-01  0.24841387090E-01  0.10701856443E+00  0.51100000000E-03 0.  1.
         11    1    4    4    0    0 -0.10194606888E-03  0.23535922011E-01  0.10105546040E-01  0.25619000755E-01  0.51100000000E-03 0. -1.
</event>
<event>
 8    1  0.1131376E+005  0.1043930E+01  0.7957747E-01            NaN
         13   -1    0    0    0    0  0.00000000000E+00  0.00000000000E+00  0.74505805969E-08  0.10566000000E+00  0.10566000000E+00 0.  1.
     999900   -1    0    0    0    0 -0.00000000000E+00 -0.00000000000E+00 -0.74505805969E-08  0.93827000000E+00  0.93827000000E+00 0.  1.
     999902    2    1    2    0    0 -0.15455835142E-01  0.17438890740E-01 -0.53748528011E-02  0.10200158453E+01  0.10197354745E+01 0.  0.
     999903    2    3    3    0    0  0.83999315673E-01  0.96917572561E-01  0.10816439795E-01  0.13070693060E+00  0.22768518459E-01 0.  0.
         14    1    1    2    0    0  0.15455835142E-01 -0.17438890740E-01  0.53748528011E-02  0.23914154654E-01  0.00000000000E+00 0.  1.
     999901    1    3    3    0    0 -0.99455150815E-01 -0.79478681821E-01 -0.16191292596E-01  0.88930891474E+00  0.88000000000E+00 0.  1.
        -11    1    4    4    0    0  0.69326408306E-01  0.73987048921E-01 -0.44256968710E-04  0.10139278760E+00  0.51100000000E-03 0.  1.
         11    1    4    4    0    0  0.14672907367E-01  0.22930523640E-01  0.10860696764E-01  0.29314143007E-01  0.51100000000E-03 0. -1.
</event>
<event>
 8    1  0.1131376E+005  0.1043930E+01  0.7957747E-01            NaN
         13   -1    0    0    0    0  0.00000000000E+00  0.00000000000E+00  0.74505805969E-08  0.10566000000E+00  0.10566000000E+00 0.  1.
     999900   -1    0    0    0    0 -0.00000000000E+00 -0.00000000000E+00 -0.74505805969E-08  0.93827000000E+00  0.93827000000E+00 0.  1.
     999902    2    1    2    0    0 -0.70161293662E-02  0.53212590872E-02 -0.21217039189E-01  0.10209581777E+01  0.10206997090E+01 0.  0.
     999903    2    3    3    0    0 -0.96021584849E-01 -0.15040279201E-01 -0.89503453409E-01  0.13360278228E+00  0.19811120753E-01 0.  0.
         14    1    1    2    0    0  0.70161293662E-02 -0.53212590872E-02  0.21217039189E-01  0.22971822337E-01  0.00000000000E+00 0.  1.
     999901    1    3    3    0    0  0.89005455483E-01  0.20361538288E-01  0.68286414220E-01  0.88735539538E+00  0.88000000000E+00 0. -1.
        -11    1    4    4    0    0 -0.27298230066E-01  0.12067538707E-02 -0.15985033911E-01  0.31661207332E-01  0.51100000000E-03 0. -1.
         11    1    4    4    0    0 -0.68723354784E-01 -0.16247033071E-01 -0.73518419498E-01  0.10194157495E+00  0.51100000000E-03 0.  1.
</event>
<event>
 8    1  0.1131376E+005  0.1043930E+01  0.7957747E-01            NaN
         13   -1    0    0    0    0  0.00000000000E+00  0.00000000000E+00  0.74505805969E-08  0.10566000000E+00  0.10566000000E+00 0.  1.
     999900   -1    0    0    0    0 -0.00000000000E+00 -0.00000000000E+00 -0.74505805969E-08  0.93827000000E+00  0.93827000000E+00 0. -1.
     999902    2    1    2    0    0  0.18306928480E-01 -0.12370150094E-01 -0.10012194788E-01  0.10196728714E+01  0.10193843026E+01 0.  0.
     999903    2    3    3    0    0  0.27076090812E-01  0.10231455233E+00  0.69861630801E-01  0.12860087251E+00  0.21357777072E-01 0.  0.
         14    1    1    2    0    0 -0.18306928480E-01  0.12370150094E-01  0.10012194788E-01  0.24257128606E-01  0.00000000000E+00 0.  1.
     999901    1    3    3    0    0 -0.87691623317E-02 -0.11468470242E+00 -0.79873825589E-01  0.89107199888E+00  0.88000000000E+00 0.  1.
        -11    1    4    4    0    0  0.14022451626E-01  0.33726792124E-01  0.34878172160E-01  0.50506174581E-01  0.51100000000E-03 0.  1.
         11    1    4    4    0    0  0.13053639186E-01  0.68587760202E-01  0.34983458641E-01  0.78094697931E-01  0.51100000000E-03 0. -1.
</event>
<event>
 8    1  0.1131376E+005  0.1043930E+01  0.7957747E-01            NaN
         13   -1    0    0    0    0  0.00000000000E+00  0.00000000000E+00  0.74505805969E-08  0.10566000000E+00  0.10566000000E+00 0.  1.
     999900   -1    0    0    0    0 -0.00000000000E+00 -0.00000000000E+00 -0.74505805969E-08  0.93827000000E+00  0.93827000000E+00 0.  1.
     999902    2    1    2    0    0  0.16786102788E-01 -0.15317778534E-01 -0.39518348822E-02  0.10208643419E+01  0.10206037331E+01 0.  0.
     999903    2    3    3    0    0 -0.61094542170E-01  0.10825602658E+00 -0.26207541870E-01  0.12854646316E+00  0.19632818626E-01 0.  0.
         14    1    1    2    0    0 -0.16786102788E-01  0.15317778534E-01  0.39518348822E-02  0.23065658130E-01  0.00000000000E+00 0. -1.
     999901    1    3    3    0    0  0.77880644958E-01 -0.12357380511E+00  0.22255706988E-01  0.89231787871E+00  0.88000000000E+00 0. -1.
        -11    1    4    4    0    0 -0.36944074508E-01  0.48093940177E-01 -0.77580781709E-02  0.61141971026E-01  0.51100000000E-03 0. -1.
         11    1    4    4    0    0 -0.24150467662E-01  0.60162086400E-01 -0.18449463699E-01  0.67404492136E-01  0.51100000000E-03 0.  1.
</event>
<event>
 8    1  0.1131376E+005  0.1043930E+01  0.7957747E-01            NaN
         13   -1    0    0    0    0  0.00000000000E+00  0.00000000000E+00  0.74505805969E-08  0.10566000000E+00  0.10566000000E+00 0.  1.
     999900   -1    0    0    0    0 -0.00000000000E+00 -0.00000000000E+00 -0.74505805969E-08  0.93827000000E+00  0.93827000000E+00 0. -1.
     999902    2    1    2    0    0 -0.11195634359E-01  0.83866120632E-02  0.20249923432E-01  0.10193182774E+01  0.10190211056E+01 0.  0.
     999903    2    3    3    0    0  0.21622021882E-01  0.70998727408E-01  0.10728861288E+00  0.13220328541E+00  0.21413339167E-01 0.  0.
         14    1    1    2    0    0  0.11195634359E-01 -0.83866120632E-02 -0.20249923432E-01  0.24611722606E-01  0.00000000000E+00 0. -1.
     999901    1    3    3    0    0 -0.32817656242E-01 -0.62612115345E-01 -0.87038689449E-01  0.88711499199E+00  0.88000000000E+00 0. -1.
        -11    1    4    4    0    0  0.27052551200E-02  0.45021220689E-01  0.62347378364E-01  0.76952488117E-01  0.51100000000E-03 0. -1.
         11    1    4    4    0    0  0.18916766763E-01  0.25977506719E-01  0.44941234517E-01  0.55250797289E-01  0.51100000000E-03 0.  1.
</event>
<event>
 8    1  0.1131376E+005  0.1043930E+01  0.7957747E-01            NaN
         13   -1    0    0    0    0  0.00000000000E+00  0.00000000000E+00  0.74505805969E-08  0.10566000000E+00  0.10566000000E+00 0. -1.
     999900   -1    0    0    0    0 -0.00000000000E+00 -0.00000000000E+00 -0.74505805969E-08  0.93827000000E+00  0.93827000000E+00 0.  1.
     999902    2    1    2    0    0  0.13798961624E-01  0.97464586137E-02  0.96944496481E-02  0.10244521369E+01  0.10242669543E+01 0.  0.
     999903    2    3    3    0    0  0.36833087427E-01  0.23283552966E-01 -0.12492180517E+00  0.13381452263E+00  0.20051655551E-01 0.  0.
         14    1    1    2    0    0 -0.13798961624E-01 -0.97464586137E-02 -0.96944496481E-02  0.19477863111E-01  0.00000000000E+00 0.  1.
     999901    1    3    3    0    0 -0.23034125803E-01 -0.13537094353E-01  0.13461625482E+00  0.89063761426E+00  0.88000000000E+00 0. -1.
        -11    1    4    4    0    0  0.96870166396E-03  0.78517730970E-02 -0.33083075279E-01  0.34019695981E-01  0.51100000000E-03 0.  1.
         11    1    4    4    0    0  0.35864385763E-01  0.15431779869E-01 -0.91838729893E-01  0.99794826647E-01  0.51100000000E-03 0. -1.
</event>
<event>
 8    1  0.1131376E+005  0.1043930E+01  0.7957747E-01            NaN
         13   -1    0    0    0    0  0.00000000000E+00  0.00000000000E+00  0.74505805969E-08  0.10566000000E+00  0.10566000000E+00 0. -1.
     999900   -1    0    0    0    0 -0.00000000000E+00 -0.00000000000E+00 -0.74505805969E-08  0.93827000000E+00  0.93827000000E+00 0. -1.
     999902    2    1    2    0    0 -0.48030548487E-02 -0.99404806990E-02 -0.22576924392E-01  0.10187983465E+01  0.10184883263E+01 0.  0.
     999903    2    3    3    0    0  0.53961258584E-01  0.18551418982E-01  0.11003712811E+00  0.12646908003E+00  0.25105498730E-01 0.  0.
         14    1    1    2    0    0  0.48030548487E-02  0.99404806990E-02  0.22576924392E-01  0.25131653495E-01  0.00000000000E+00 0. -1.
     999901    1    3    3    0    0 -0.58764313432E-01 -0.28491899681E-01 -0.13261405251E+00  0.89232926647E+00  0.88000000000E+00 0. -1.
        -11    1    4    4    0    0  0.25540264769E-02  0.73187148994E-02  0.57748840236E-02  0.96797234212E-02  0.51100000000E-03 0. -1.
         11    1    4    4    0    0  0.51407232107E-01  0.11232704082E-01  0.10426224409E+00  0.11678935661E+00  0.51100000000E-03 0.  1.
</event>
<event>
 8    1  0.1131376E+005  0.1043930E+01  0.7957747E-01            NaN
         13   -1    0    0    0    0  0.00000000000E+00  0.00000000000E+00  0.74505805969E-08  0.10566000000E+00  0.10566000000E+00 0.  1.
     999900   -1    0    0    0    0 -0.00000000000E+00 -0.00000000000E+00 -0.74505805969E-08  0.93827000000E+00  0.93827000000E+00 0.  1.
     999902    2    1    2    0    0  0.11733418082E-01  0.15276215753E-01  0.15623709677E-01  0.10191280611E+01  0.10188262211E+01 0.  0.
     999903    2    3    3    0    0  0.24683403605E-02 -0.45138064560E-01  0.12040268296E+00  0.13080697044E+00  0.23877183144E-01 0.  0.
         14    1    1    2    0    0 -0.11733418082E-01 -0.15276215753E-01 -0.15623709677E-01  0.24801938870E-01  0.00000000000E+00 0. -1.
     999901    1    3    3    0    0  0.92650777220E-02  0.60414280314E-01 -0.10477897328E+00  0.88832109069E+00  0.88000000000E+00 0.  1.
        -11    1    4    4    0    0  0.62151032976E-03 -0.41343155093E-03  0.29163048580E-01  0.29177075319E-01  0.51100000000E-03 0.  1.
         11    1    4    4    0    0  0.18468300307E-02 -0.44724633009E-01  0.91239634377E-01  0.10162989512E+00  0.51100000000E-03 0. -1.
</event>
<event>
 8    1  0.1131376E+005  0.1043930E+01  0.7957747E-01            NaN
         13   -1    0    0    0    0  0.00000000000E+00  0.00000000000E+00  0.74505805969E-08  0.10566000000E+00  0.10566000000E+00 0.  1.
     999900   -1    0    0    0    0 -0.00000000000E+00 -0.00000000000E+00 -0.74505805969E-08  0.93827000000E+00  0.93827000000E+00 0.  1.
     999902    2    1    2    0    0  0.76823028741E-02 -0.63409949907E-02  0.21375424714E-01  0.10203474900E+01  0.10200749314E+01 0.  0.
     999903    2    3    3    0    0  0.58878759945E-01  0.58542332227E-01 -0.96412135964E-01  0.12866097963E+00  0.19090172439E-01 0.  0.
         14    1    1    2    0    0 -0.76823028741E-02  0.63409949907E-02 -0.21375424714E-01  0.23582509973E-01  0.00000000000E+00 0. -1.
     999901    1    3    3    0    0 -0.51196457071E-01 -0.64883327218E-01  0.11778756068E+00  0.89168651039E+00  0.88000000000E+00 0.  1.
        -11    1    4    4    0    0  0.39271045281E-01  0.41389496403E-01 -0.52153264212E-01  0.77301549136E-01  0.51100000000E-03 0. -1.
         11    1    4    4    0    0  0.19607714664E-01  0.17152835825E-01 -0.44258871753E-01  0.51359430497E-01  0.51100000000E-03 0.  1.
</event>
<event>
 8    1  0.1131376E+005  0.1043930E+01  0.7957747E-01            NaN
         13   -1    0    0    0    0  0.00000000000E+00  0.00000000000E+00  0.74505805969E-08  0.10566000000E+00  0.10566000000E+00 0.  1.
     999900   -1    0    0    0    0 -0.00000000000E+00 -0.00000000000E+00 -0.74505805969E-08  0.93827000000E+00  0.93827000000E+00 0.  1.
     999902    2    1    2    0    0  0.11186673526E-01  0.13546628850E-02  0.22150377685E-01  0.10190781186E+01  0.10187750467E+01 0.  0.
     999903    2    3    3    0    0 -0.48774733643E-01  0.65213372239E-01 -0.95331904680E-01  0.12695963335E+00  0.19970425366E-01 0.  0.
         14    1    1    2    0    0 -0.11186673526E-01 -0.13546628850E-02 -0.22150377685E-01  0.24851881371E-01  0.00000000000E+00 0. -1.
     999901    1    3    3    0    0  0.59961407168E-01 -0.63858709354E-01  0.11748228236E+00  0.89211848528E+00  0.88000000000E+00 0. -1.
        -11    1    4    4    0    0 -0.26214744977E-01  0.28311414648E-01 -0.31294840916E-01  0.49682766052E-01  0.51100000000E-03 0.  1.
         11    1    4    4    0    0 -0.22559988665E-01  0.36901957591E-01 -0.64037063764E-01  0.77276867296E-01  0.51100000000E-03 0. -1.
</event>
<event>
 8    1  0.1131376E+005  0.1043930E+01  0.7957747E-01            NaN
         13   -1    0    0    0    0  0.00000000000E+00  0.00000000000E+00  0.74505805969E-08  0.10566000000E+00  0.10566000000E+00 0.  1.
     999900   -1    0    0    0    0 -0.00000000000E+00 -0.00000000000E+00 -0.74505805969E-08  0.93827000000E+00  0.93827000000E+00 0.  1.
     999902    2    1    2    0    0  0.23098329773E-03 -0.73669132268E-02 -0.22157608850E-01  0.10205786747E+01  0.10203114950E+01 0.  0.
     999903    2    3    3    0    0  0.17184072834E-01 -0.77400008671E-01 -0.10594076789E+00  0.13366737166E+00  0.18906777740E-01 0.  0.
         14    1    1    2    0    0 -0.23098329773E-03  0.73669132268E-02  0.22157608850E-01  0.23351325310E-01  0.00000000000E+00 0.  1.
     999901    1    3    3    0    0 -0.16953089536E-01  0.70033095445E-01  0.83783159038E-01  0.88691130303E+00  0.88000000000E+00 0. -1.
        -11    1    4    4    0    0  0.88136762303E-02 -0.69260751510E-01 -0.90861278286E-01  0.11458955276E+00  0.51100000000E-03 0.  1.
         11    1    4    4    0    0  0.83703966039E-02 -0.81392571615E-02 -0.15079489603E-01  0.19077818904E-01  0.51100000000E-03 0. -1.
</event>
<event>
 8    1  0.1131376E+005  0.1043930E+01  0.7957747E-01            NaN
         13   -1    0    0    0    0  0.00000000000E+00  0.00000000000E+00  0.74505805969E-08  0.10566000000E+00  0.10566000000E+00 0.  1.
     999900   -1    0    0    0    0 -0.00000000000E+00 -0.00000000000E+00 -0.74505805969E-08  0.93827000000E+00  0.93827000000E+00 0.  1.
     999902    2    1    2    0    0 -0.13680978838E-01 -0.11694693170E-01 -0.16146333003E-01  0.10197506886E+01  0.10194639904E+01 0.  0.
     999903    2    3    3    0    0  0.27963071473E-01  0.50572313735E-01  0.11170837544E+00  0.12736162908E+00  0.20068162284E-01 0.  0.
         14    1    1    2    0    0  0.13680978838E-01  0.11694693170E-01  0.16146333003E-01  0.24179311400E-01  0.00000000000E+00 0. -1.
     999901    1    3    3    0    0 -0.41644050311E-01 -0.62267006905E-01 -0.12785470844E+00  0.89238905952E+00  0.88000000000E+00 0.  1.
        -11    1    4    4    0    0  0.17752793978E-01  0.45001717550E-01  0.78930309798E-01  0.92577379539E-01  0.51100000000E-03 0. -1.
         11    1    4    4    0    0  0.10210277496E-01  0.55705961849E-02  0.32778065638E-01  0.34784249545E-01  0.51100000000E-03 0.  1.
</event>
<event>
 8    1  0.1131376E+005  0.1043930E+01  0.7957747E-01            NaN
         13   -1    0    0    0    0  0.00000000000E+00  0.00000000000E+00  0.74505805969E-08  0.10566000000E+00  0.10566000000E+00 0. -1.
     999900   -1    0    0    0    0 -0.00000000000E+00 -0.00000000000E+00 -0.74505805969E-08  0.93827000000E+00  0.93827000000E+00 0.  1.
     999902    2    1    2    0    0 -0.22306508090E-01 -0.11634779528E-01 -0.24000615559E-02  0.10186573133E+01  0.10183437599E+01 0.  0.
     999903    2    3    3    0    0 -0.37659512726E-01 -0.11038694505E+00  0.56345956234E-01  0.13105447443E+00  0.19922147200E-01 0.  0.
         14    1    1    2    0    0  0.22306508090E-01  0.11634779528E-01  0.24000615559E-02  0.25272686705E-01  0.00000000000E+00 0. -1.
     999901    1    3    3    0    0  0.15353004636E-01  0.98752165523E-01 -0.58746017789E-01  0.88760283886E+00  0.88000000000E+00 0.  1.
        -11    1    4    4    0    0 -0.13783337944E-01 -0.17378372078E-01  0.83912811124E-02  0.23720517293E-01  0.51100000000E-03 0. -1.
         11    1    4    4    0    0 -0.23876174782E-01 -0.93008572972E-01  0.47954675121E-01  0.10733395714E+00  0.51100000000E-03 0.  1.
</event>
<event>
 8    1  0.1131376E+005  0.1043930E+01  0.7957747E-01            NaN
         13   -1    0    0    0    0  0.00000000000E+00  0.00000000000E+00  0.74505805969E-08  0.10566000000E+00  0.10566000000E+00 0.  1.
     999900   -1    0    0    0    0 -0.00000000000E+00 -0.00000000000E+00 -0.74505805969E-08  0.93827000000E+00  0.93827000000E+00 0. -1.
     999902    2    1    2    0    0 -0.94107663279E-02  0.16951793833E-01  0.13689717310E-01  0.10201953376E+01  0.10199192089E+01 0.  0.
     999903    2    3    3    0    0 -0.37935170100E-01  0.90172016743E-01  0.88741880832E-01  0.13351181468E+00  0.19499064362E-01 0.  0.
         14    1    1    2    0    0  0.94107663279E-02 -0.16951793833E-01 -0.13689717310E-01  0.23734662354E-01  0.00000000000E+00 0. -1.
     999901    1    3    3    0    0  0.28524403773E-01 -0.73220222910E-01 -0.75052163522E-01  0.88668352297E+00  0.88000000000E+00 0. -1.
        -11    1    4    4    0    0 -0.27889468400E-01  0.81174034349E-01  0.72187228169E-01  0.11215303532E+00  0.51100000000E-03 0. -1.
         11    1    4    4    0    0 -0.10045701700E-01  0.89979823941E-02  0.16554652663E-01  0.21358779356E-01  0.51100000000E-03 0.  1.
</event>
<event>
 8    1  0.1131376E+005  0.1043930E+01  0.7957747E-01            NaN
         13   -1    0    0    0    0  0.00000000000E+00  0.00000000000E+00  0.74505805969E-08  0.10566000000E+00  0.10566000000E+00 0.  1.
     999900   -1    0    0    0    0 -0.00000000000E+00 -0.00000000000E+00 -0.74505805969E-08  0.93827000000E+00  0.93827000000E+00 0.  1.
     999902    2    1    2    0    0  0.53945782764E-02  0.45484510376E-02 -0.81618908857E-02  0.10331408228E+01  0.10330844851E+01 0.  0.
     999903    2    3    3    0    0 -0.61442946419E-02  0.13147144368E+00 -0.50916053119E-01  0.14293269544E+00  0.22689603353E-01 0.  0.
         14    1    1    2    0    0 -0.53945782764E-02 -0.45484510376E-02  0.81618908857E-02  0.10789177191E-01  0.00000000000E+00 0.  1.
     999901    1    3    3    0    0  0.11538872918E-01 -0.12692299264E+00  0.42754162234E-01  0.89020812737E+00  0.88000000000E+00 0. -1.
        -11    1    4    4    0    0  0.30164364321E-02  0.84044312356E-01 -0.41237931384E-01  0.93666287606E-01  0.51100000000E-03 0. -1.
         11    1    4    4    0    0 -0.91607310740E-02  0.47427131323E-01 -0.96781217360E-02  0.49266407832E-01  0.51100000000E-03 0.  1.
</event>
<event>
 8    1  0.1131376E+005  0.1043930E+01  0.7957747E-01            NaN
         13   -1    0    0    0    0  0.00000000000E+00  0.00000000000E+00  0.74505805969E-08  0.10566000000E+00  0.10566000000E+00 0. -1.
     999900   -1    0    0    0    0 -0.00000000000E+00 -0.00000000000E+00 -0.74505805969E-08  0.93827000000E+00  0.93827000000E+00 0. -1.
     999902    2    1    2    0    0 -0.22751024713E-01  0.61165347282E-02 -0.15219942144E-02  0.10203220016E+01  0.10200488465E+01 0.  0.
     999903    2    3    3    0    0 -0.23405760338E-01 -0.10172368455E+00  0.75688751012E-01  0.13038299202E+00  0.19375240964E-01 0.  0.
         14    1    1    2    0    0  0.22751024713E-01 -0.61165347282E-02  0.15219942144E-02  0.23607998410E-01  0.00000000000E+00 0. -1.
     999901    1    3    3    0    0  0.65473562505E-03  0.10784021928E+00 -0.77210745226E-01  0.88993900957E+00  0.88000000000E+00 0. -1.
        -11    1    4    4    0    0 -0.11164838816E-01 -0.79908997578E-01  0.62754297720E-01  0.10221773096E+00  0.51100000000E-03 0. -1.
         11    1    4    4    0    0 -0.12240921522E-01 -0.21814686976E-01  0.12934453292E-01  0.28165261059E-01  0.51100000000E-03 0.  1.
</event>
<event>
 8    1  0.1131376E+005  0.1043930E+01  0.7957747E-01            NaN
         13   -1    0    0    0    0  0.00000000000E+00  0.00000000000E+00  0.74505805969E-08  0.10566000000E+00  0.10566000000E+00 0.  1.
     999900   -1    0    0    0    0 -0.00000000000E+00 -0.00000000000E+00 -0.74505805969E-08  0.93827000000E+00  0.93827000000E+00 0. -1.
     999902    2    1    2    0    0  0.68974556016E-02  0.10613758709E-01  0.19880017081E-01  0.10203621862E+01  0.10200899711E+01 0.  0.
     999903    2    3    3    0    0  0.96906289469E-01 -0.80209662510E-01  0.31215551338E-01  0.13104841799E+00  0.19361258029E-01 0.  0.
         14    1    1    2    0    0 -0.68974556016E-02 -0.10613758709E-01 -0.19880017081E-01  0.23567813790E-01  0.00000000000E+00 0. -1.
     999901    1    3    3    0    0 -0.90008833867E-01  0.90823421220E-01 -0.11335534257E-01  0.88931376822E+00  0.88000000000E+00 0.  1.
        -11    1    4    4    0    0  0.64542552363E-01 -0.48990441354E-01  0.11113344083E-01  0.81789803443E-01  0.51100000000E-03 0. -1.
         11    1    4    4    0    0  0.32363737106E-01 -0.31219221157E-01  0.20102207255E-01  0.49258614542E-01  0.51100000000E-03 0.  1.
</event>
<event>
 8    1  0.1131376E+005  0.1043930E+01  0.7957747E-01            NaN
         13   -1    0    0    0    0  0.00000000000E+00  0.00000000000E+00  0.74505805969E-08  0.10566000000E+00  0.10566000000E+00 0. -1.
     999900   -1    0    0    0    0 -0.00000000000E+00 -0.00000000000E+00 -0.74505805969E-08  0.93827000000E+00  0.93827000000E+00 0.  1.
     999902    2    1    2    0    0  0.65573884755E-03  0.65507444446E-02 -0.24554714418E-01  0.10185080361E+01  0.10181907206E+01 0.  0.
     999903    2    3    3    0    0  0.56421875890E-01  0.43270143618E-01 -0.10959477444E+00  0.13189087630E+00  0.18123334653E-01 0.  0.
         14    1    1    2    0    0 -0.65573884755E-03 -0.65507444446E-02  0.24554714418E-01  0.25421963857E-01  0.00000000000E+00 0. -1.
     999901    1    3    3    0    0 -0.55766137043E-01 -0.36719399173E-01  0.85040060024E-01  0.88661715984E+00  0.88000000000E+00 0. -1.
        -11    1    4    4    0    0  0.33602345358E-01  0.36077063210E-01 -0.77539304320E-01  0.91887305646E-01  0.51100000000E-03 0.  1.
         11    1    4    4    0    0  0.22819530533E-01  0.71930804077E-02 -0.32055470122E-01  0.40003570656E-01  0.51100000000E-03 0. -1.
</event>
<event>
 8    1  0.1131376E+005  0.1043930E+01  0.7957747E-01            NaN
         13   -1    0    0    0    0  0.00000000000E+00  0.00000000000E+00  0.74505805969E-08  0.10566000000E+00  0.10566000000E+00 0. -1.
     999900   -1    0    0    0    0 -0.00000000000E+00 -0.00000000000E+00 -0.74505805969E-08  0.93827000000E+00  0.93827000000E+00 0.  1.
     999902    2    1    2    0    0 -0.20695041251E-01 -0.31759783002E-02  0.13540682469E-01  0.10189956532E+01  0.10186905416E+01 0.  0.
     999903    2    3    3    0    0 -0.11323614276E-02 -0.54364224093E-01  0.11782865374E+00  0.13114492477E+00  0.18938018603E-01 0.  0.
         14    1    1    2    0    0  0.20695041251E-01  0.31759783002E-02 -0.13540682469E-01  0.24934346839E-01  0.00000000000E+00 0.  1.
     999901    1    3    3    0    0 -0.19562679823E-01  0.51188245793E-01 -0.10428797127E+00  0.88785072839E+00  0.88000000000E+00 0.  1.
        -11    1    4    4    0    0 -0.30936238320E-02 -0.50296699358E-01  0.91800989680E-01  0.10472349928E+00  0.51100000000E-03 0. -1.
         11    1    4    4    0    0  0.19612624045E-02 -0.40675247345E-02  0.26027664056E-01  0.26421425490E-01  0.51100000000E-03 0.  1.
</event>
<event>
 8    1  0.1131376E+005  0.1043930E+01  0.7957747E-01            NaN
         13   -1    0    0    0    0  0.00000000000E+00  0.00000000000E+00  0.74505805969E-08  0.10566000000E+00  0.10566000000E+00 0. -1.
     999900   -1    0    0    0    0 -0.00000000000E+00 -0.00000000000E+00 -0.74505805969E-08  0.93827000000E+00  0.93827000000E+00 0.  1.
     999902    2    1    2    0    0  0.23444150325E-01  0.28092523868E-02  0.39323485637E-02  0.10199929273E+01  0.10197120124E+01 0.  0.
     999903    2    3    3    0    0  0.71747596018E-01  0.63634033000E-01  0.89007227199E-01  0.13248483621E+00  0.20807153626E-01 0.  0.
         14    1    1    2    0    0 -0.23444150325E-01 -0.28092523868E-02 -0.39323485637E-02  0.23937072684E-01  0.00000000000E+00 0.  1.
     999901    1    3    3    0    0 -0.48303445692E-01 -0.60824780613E-01 -0.85074878635E-01  0.88750809111E+00  0.88000000000E+00 0.  1.
        -11    1    4    4    0    0  0.37514152163E-01  0.35972975876E-01  0.34322416511E-01  0.62286884671E-01  0.51100000000E-03 0. -1.
         11    1    4    4    0    0  0.34233443854E-01  0.27661057124E-01  0.54684810688E-01  0.70197951539E-01  0.51100000000E-03 0.  1.
</event>
<event>
 8    1  0.1131376E+005  0.1043930E+01  0.7957747E-01            NaN
         13   -1    0    0    0    0  0.00000000000E+00  0.00000000000E+00  0.74505805969E-08  0.10566000000E+00  0.10566000000E+00 0. -1.
     999900   -1    0    0    0    0 -0.00000000000E+00 -0.00000000000E+00 -0.74505805969E-08  0.93827000000E+00  0.93827000000E+00 0.  1.
     999902    2    1    2    0    0  0.19414942214E-01  0.87185950939E-03  0.89528982081E-02  0.10225324649E+01  0.10223085578E+01 0.  0.
     999903    2    3    3    0    0  0.37714103967E-01  0.11203765336E+00 -0.53739707218E-01  0.13313769555E+00  0.29375166993E-01 0.  0.
         14    1    1    2    0    0 -0.19414942214E-01 -0.87185950939E-03 -0.89528982081E-02  0.21397535056E-01  0.00000000000E+00 0.  1.
     999901    1    3    3    0    0 -0.18299161754E-01 -0.11116579385E+00  0.62692605426E-01  0.88939476939E+00  0.88000000000E+00 0.  1.
        -11    1    4    4    0    0  0.24246775527E-01  0.33125781395E-01 -0.25072332541E-01  0.48105160810E-01  0.51100000000E-03 0. -1.
         11    1    4    4    0    0  0.13467328441E-01  0.78911871969E-01 -0.28667374677E-01  0.85032534743E-01  0.51100000000E-03 0.  1.
</event>
<event>
 8    1  0.1131376E+005  0.1043930E+01  0.7957747E-01            NaN
         13   -1    0    0    0    0  0.00000000000E+00  0.00000000000E+00  0.74505805969E-08  0.10566000000E+00  0.10566000000E+00 0. -1.
     999900   -1    0    0    0    0 -0.00000000000E+00 -0.00000000000E+00 -0.74505805969E-08  0.93827000000E+00  0.93827000000E+00 0. -1.
     999902    2    1    2    0    0 -0.10599104210E-01 -0.14560775498E-01 -0.14937167106E-01  0.10205317916E+01  0.10202635256E+01 0.  0.
     999903    2    3    3    0    0  0.94006519833E-01 -0.86591894579E-01 -0.22443854133E-01  0.13138210287E+00  0.20546249975E-01 0.  0.
         14    1    1    2    0    0  0.10599104210E-01  0.14560775498E-01  0.14937167106E-01  0.23398208356E-01  0.00000000000E+00 0. -1.
     999901    1    3    3    0    0 -0.10460562404E+00  0.72031119081E-01  0.75066870275E-02  0.88914968877E+00  0.88000000000E+00 0. -1.
        -11    1    4    4    0    0  0.45489713888E-01 -0.28787081053E-01 -0.12429114685E-01  0.55251734072E-01  0.51100000000E-03 0.  1.
         11    1    4    4    0    0  0.48516805945E-01 -0.57804813526E-01 -0.10014739448E-01  0.76130368797E-01  0.51100000000E-03 0. -1.
</event>
<event>
 8    1  0.1131376E+005  0.1043930E+01  0.7957747E-01            NaN
         13   -1    0    0    0    0  0.00000000000E+00  0.00000000000E+00  0.74505805969E-08  0.10566000000E+00  0.10566000000E+00 0. -1.
     999900   -1    0    0    0    0 -0.00000000000E+00 -0.00000000000E+00 -0.74505805969E-08  0.93827000000E+00  0.93827000000E+00 0. -1.
     999902    2    1    2    0    0 -0.91089919654E-02 -0.21717230414E-01 -0.26615059222E-02  0.10202298851E+01  0.10199545691E+01 0.  0.
     999903    2    3    3    0    0  0.57365640978E-03  0.61644910965E-01 -0.11171229712E+00  0.12953629283E+00  0.22351503322E-01 0.  0.
         14    1    1    2    0    0  0.91089919654E-02  0.21717230414E-01  0.26615059222E-02  0.23700114878E-01  0.00000000000E+00 0.  1.
     999901    1    3    3    0    0 -0.96826483751E-02 -0.83362141379E-01  0.10905079120E+00  0.89069359230E+00  0.88000000000E+00 0.  1.
        -11    1    4    4    0    0  0.10871384635E-01  0.22230742213E-01 -0.45398948030E-01  0.51708012014E-01  0.51100000000E-03 0. -1.
         11    1    4    4    0    0 -0.10297728225E-01  0.39414168752E-01 -0.66313349095E-01  0.77828280812E-01  0.51100000000E-03 0.  1.
</event>
<event>
 8    1  0.1131376E+005  0.1043930E+01  0.7957747E-01            NaN
         13   -1    0    0    0    0  0.00000000000E+00  0.00000000000E+00  0.74505805969E-08  0.10566000000E+00  0.10566000000E+00 0. -1.
     999900   -1    0    0    0    0 -0.00000000000E+00 -0.00000000000E+00 -0.74505805969E-08  0.93827000000E+00  0.93827000000E+00 0.  1.
     999902    2    1    2    0    0 -0.31387696280E-02 -0.23178491890E-01  0.38370815645E-02  0.10202273091E+01  0.10199519325E+01 0.  0.
     999903    2    3    3    0    0 -0.89449009776E-01  0.88839942126E-01 -0.16515673191E-01  0.12870511547E+00  0.19964433849E-01 0.  0.
         14    1    1    2    0    0  0.31387696280E-02  0.23178491890E-01 -0.38370815645E-02  0.23702690902E-01  0.00000000000E+00 0.  1.
     999901    1    3    3    0    0  0.86310240148E-01 -0.11201843402E+00  0.20352754756E-01  0.89152219363E+00  0.88000000000E+00 0.  1.
        -11    1    4    4    0    0 -0.66878950731E-01  0.60851367771E-01 -0.35844169417E-02  0.90491945367E-01  0.51100000000E-03 0.  1.
         11    1    4    4    0    0 -0.22570059046E-01  0.27988574356E-01 -0.12931256249E-01  0.38213170098E-01  0.51100000000E-03 0. -1.
</event>
<event>
 8    1  0.1131376E+005  0.1043930E+01  0.7957747E-01            NaN
         13   -1    0    0    0    0  0.00000000000E+00  0.00000000000E+00  0.74505805969E-08  0.10566000000E+00  0.10566000000E+00 0. -1.
     999900   -1    0    0    0    0 -0.00000000000E+00 -0.00000000000E+00 -0.74505805969E-08  0.93827000000E+00  0.93827000000E+00 0. -1.
     999902    2    1    2    0    0 -0.12382509572E-01 -0.38858896826E-02 -0.20159084936E-01  0.10199546921E+01  0.10196728684E+01 0.  0.
     999903    2    3    3    0    0 -0.11442063978E+00  0.58195148530E-01 -0.22137180699E-01  0.13188389080E+00  0.20604556855E-01 0.  0.
         14    1    1    2    0    0  0.12382509572E-01  0.38858896826E-02  0.20159084936E-01  0.23975307869E-01  0.00000000000E+00 0. -1.
     999901    1    3    3    0    0  0.10203813020E+00 -0.62081038213E-01  0.19780957633E-02  0.88807080134E+00  0.88000000000E+00 0. -1.
        -11    1    4    4    0    0 -0.66592043547E-01  0.38243511186E-01 -0.22619171513E-01  0.80055945766E-01  0.51100000000E-03 0. -1.
         11    1    4    4    0    0 -0.47828596229E-01  0.19951637344E-01  0.48199081358E-03  0.51827945030E-01  0.51100000000E-03 0.  1.
</event>
<event>
 8    1  0.1131376E+005  0.1043930E+01  0.7957747E-01            NaN
         13   -1    0    0    0    0  0.00000000000E+00  0.00000000000E+00  0.74505805969E-08  0.10566000000E+00  0.10566000000E+00 0.  1.
     999900   -1    0    0    0    0 -0.00000000000E+00 -0.00000000000E+00 -0.74505805969E-08  0.93827000000E+00  0.93827000000E+00 0. -1.
     999902    2    1    2    0    0 -0.55756108718E-02  0.49300369688E-02  0.21642181186E-01  0.10210438315E+01  0.10207873085E+01 0.  0.
     999903    2    3    3    0    0 -0.26781846790E-01  0.41826586672E-01  0.12298265001E+00  0.13420621931E+00  0.20490154412E-01 0.  0.
         14    1    1    2    0    0  0.55756108718E-02 -0.49300369688E-02 -0.21642181186E-01  0.22886168478E-01  0.00000000000E+00 0. -1.
     999901    1    3    3    0    0  0.21206235918E-01 -0.36896549703E-01 -0.10134046882E+00  0.88683761222E+00  0.88000000000E+00 0.  1.
        -11    1    4    4    0    0  0.12809793039E-02  0.87081027508E-02  0.10961059128E-01  0.14066907965E-01  0.51100000000E-03 0.  1.
         11    1    4    4    0    0 -0.28062826094E-01  0.33118483921E-01  0.11202159088E+00  0.12013931134E+00  0.51100000000E-03 0. -1.
</event>
<event>
 8    1  0.1131376E+005  0.1043930E+01  0.7957747E-01            NaN
         13   -1    0    0    0    0  0.00000000000E+00  0.00000000000E+00  0.74505805969E-08  0.10566000000E+00  0.10566000000E+00 0. -1.
     999900   -1    0    0    0    0 -0.00000000000E+00 -0.00000000000E+00 -0.74505805969E-08  0.93827000000E+00  0.93827000000E+00 0. -1.
     999902    2    1    2    0    0  0.16922691512E-01  0.57516101724E-02 -0.15171633286E-01  0.10204856624E+01  0.10202163252E+01 0.  0.
     999903    2    3    3    0    0 -0.50166873565E-03  0.11859729709E+00 -0.54204864503E-01  0.13225069885E+00  0.22056959475E-01 0.  0.
         14    1    1    2    0    0 -0.16922691512E-01 -0.57516101724E-02  0.15171633286E-01  0.23444337572E-01  0.00000000000E+00 0. -1.
     999901    1    3    3    0    0  0.17424360248E-01 -0.11284568692E+00  0.39033231217E-01  0.88823496358E+00  0.88000000000E+00 0. -1.
        -11    1    4    4    0    0  0.70735005625E-02  0.62611099061E-01 -0.19567899244E-01  0.65979905559E-01  0.51100000000E-03 0. -1.
         11    1    4    4    0    0 -0.75751692982E-02  0.55986198030E-01 -0.34636965260E-01  0.66270793289E-01  0.51100000000E-03 0.  1.
</event>
<event>
 8    1  0.1131376E+005  0.1043930E+01  0.7957747E-01            NaN
         13   -1    0    0    0    0  0.00000000000E+00  0.00000000000E+00  0.74505805969E-08  0.10566000000E+00  0.10566000000E+00 0. -1.
     999900   -1    0    0    0    0 -0.00000000000E+00 -0.00000000000E+00 -0.74505805969E-08  0.93827000000E+00  0.93827000000E+00 0.  1.
     999902    2    1    2    0    0 -0.16908238429E-01  0.12562650207E-01  0.10917216406E-01  0.10202046060E+01  0.10199286954E+01 0.  0.
     999903    2    3    3    0    0 -0.67552671620E-01  0.10933945251E+00 -0.25321651424E-01  0.13271158426E+00  0.21276730184E-01 0.  0.
         14    1    1    2    0    0  0.16908238429E-01 -0.12562650207E-01 -0.10917216406E-01  0.23725394012E-01  0.00000000000E+00 0.  1.
     999901    1    3    3    0    0  0.50644433191E-01 -0.96776802303E-01  0.36238867830E-01  0.88749302173E+00  0.88000000000E+00 0. -1.
        -11    1    4    4    0    0 -0.61009832661E-01  0.82413485415E-01 -0.18996743463E-01  0.10428480063E+00  0.51100000000E-03 0. -1.
         11    1    4    4    0    0 -0.65428389590E-02  0.26925967095E-01 -0.63249079613E-02  0.28426783627E-01  0.51100000000E-03 0.  1.
</event>
<event>
 8    1  0.1349815E+005  0.1043930E+01  0.7957747E-01            NaN
         13   -1    0    0    0    0  0.00000000000E+00  0.00000000000E+00  0.74505805969E-08  0.10566000000E+00  0.10566000000E+00 0. -1.
     999900   -1    0    0    0    0 -0.00000000000E+00 -0.00000000000E+00 -0.74505805969E-08  0.93827000000E+00  0.93827000000E+00 0.  1.
     999902    2    1    2    0    0  0.23234996138E-01  0.34896715041E-02  0.64933921658E-02  0.10195536386E+01  0.10192621915E+01 0.  0.
     999903    2    3    3    0    0  0.57297690918E-01 -0.15771832665E-01 -0.11463435160E+00  0.13039493341E+00  0.18166672857E-01 0.  0.
         14    1    1    2    0    0 -0.23234996138E-01 -0.34896715041E-02 -0.64933921658E-02  0.24376361389E-01  0.00000000000E+00 0.  1.
     999901    1    3    3    0    0 -0.34062694780E-01  0.19261504169E-01  0.12112774377E+00  0.88915870520E+00  0.88000000000E+00 0. -1.
        -11    1    4    4    0    0  0.13922476865E-01 -0.47450367600E-02 -0.47343045832E-01  0.49577977425E-01  0.51100000000E-03 0.  1.
         11    1    4    4    0    0  0.43375214053E-01 -0.11026795905E-01 -0.67291305770E-01  0.80816955989E-01  0.51100000000E-03 0. -1.
</event>
<event>
 8    1  0.1131376E+005  0.1043930E+01  0.7957747E-01            NaN
         13   -1    0    0    0    0  0.00000000000E+00  0.00000000000E+00  0.74505805969E-08  0.10566000000E+00  0.10566000000E+00 0.  1.
     999900   -1    0    0    0    0 -0.00000000000E+00 -0.00000000000E+00 -0.74505805969E-08  0.93827000000E+00  0.93827000000E+00 0. -1.
     999902    2    1    2    0    0 -0.39965229480E-02  0.23648191891E-01  0.12412946285E-01  0.10169246226E+01  0.10165659829E+01 0.  0.
     999903    2    3    3    0    0  0.80090335154E-02 -0.18176132245E-01  0.12540210316E+00  0.12863415371E+00  0.20652884141E-01 0.  0.
         14    1    1    2    0    0  0.39965229480E-02 -0.23648191891E-01 -0.12412946285E-01  0.27005377443E-01  0.00000000000E+00 0. -1.
     999901    1    3    3    0    0 -0.12005556463E-01  0.41824324135E-01 -0.11298915687E+00  0.88829046885E+00  0.88000000000E+00 0. -1.
        -11    1    4    4    0    0  0.21800084467E-02 -0.82285263022E-02  0.12429828146E-01  0.15073912255E-01  0.51100000000E-03 0.  1.
         11    1    4    4    0    0  0.58290250687E-02 -0.99476059427E-02  0.11297227501E+00  0.11356024145E+00  0.51100000000E-03 0. -1.
</event>
<event>
 8    1  0.1131376E+005  0.1043930E+01  0.7957747E-01            NaN
         13   -1    0    0    0    0  0.00000000000E+00  0.00000000000E+00  0.74505805969E-08  0.10566000000E+00  0.10566000000E+00 0. -1.
     999900   -1    0    0    0    0 -0.00000000000E+00 -0.00000000000E+00 -0.74505805969E-08  0.93827000000E+00  0.93827000000E+00 0. -1.
     999902    2    1    2    0    0 -0.21615540188E-01 -0.73576503159E-02 -0.55069322147E-02  0.10204418562E+01  0.10201714998E+01 0.  0.
     999903    2    3    3    0    0 -0.10878142087E-01 -0.49186277346E-01  0.11864934100E+00  0.13067800781E+00  0.21481428067E-01 0.  0.
         14    1    1    2    0    0  0.21615540188E-01  0.73576503159E-02  0.55069322147E-02  0.23488143780E-01  0.00000000000E+00 0.  1.
     999901    1    3    3    0    0 -0.10737398101E-01  0.41828627030E-01 -0.12415627321E+00  0.88976384841E+00  0.88000000000E+00 0. -1.
        -11    1    4    4    0    0 -0.45108125443E-02 -0.46089773413E-01  0.90682736927E-01  0.10182452819E+00  0.51100000000E-03 0.  1.
         11    1    4    4    0    0 -0.63673295426E-02 -0.30965039329E-02  0.27966604072E-01  0.28853479624E-01  0.51100000000E-03 0. -1.
</event>
<event>
 8    1  0.1131376E+005  0.1043930E+01  0.7957747E-01            NaN
         13   -1    0    0    0    0  0.00000000000E+00  0.00000000000E+00  0.74505805969E-08  0.10566000000E+00  0.10566000000E+00 0. -1.
     999900   -1    0    0    0    0 -0.00000000000E+00 -0.00000000000E+00 -0.74505805969E-08  0.93827000000E+00  0.93827000000E+00 0.  1.
     999902    2    1    2    0    0 -0.18553210042E-01  0.13068671677E-01  0.61396667022E-02  0.10204202724E+01  0.10201494131E+01 0.  0.
     999903    2    3    3    0    0 -0.46799721405E-01  0.98996062141E-01 -0.71841641455E-01  0.13235357098E+00  0.19126213985E-01 0.  0.
         14    1    1    2    0    0  0.18553210042E-01 -0.13068671677E-01 -0.61396667022E-02  0.23509727550E-01  0.00000000000E+00 0.  1.
     999901    1    3    3    0    0  0.28246511363E-01 -0.85927390464E-01  0.77981308158E-01  0.88806670147E+00  0.88000000000E+00 0. -1.
        -11    1    4    4    0    0 -0.46558892353E-01  0.83122894026E-01 -0.61595110219E-01  0.11345203697E+00  0.51100000000E-03 0. -1.
         11    1    4    4    0    0 -0.24082905135E-03  0.15873168115E-01 -0.10246531237E-01  0.18901534012E-01  0.51100000000E-03 0.  1.
</event>
<event>
 8    1  0.1131376E+005  0.1043930E+01  0.7957747E-01            NaN
         13   -1    0    0    0    0  0.00000000000E+00  0.00000000000E+00  0.74505805969E-08  0.10566000000E+00  0.10566000000E+00 0. -1.
     999900   -1    0    0    0    0 -0.00000000000E+00 -0.00000000000E+00 -0.74505805969E-08  0.93827000000E+00  0.93827000000E+00 0.  1.
     999902    2    1    2    0    0  0.93998545419E-02  0.98276986803E-02 -0.19692102330E-01  0.10199984346E+01  0.10197176505E+01 0.  0.
     999903    2    3    3    0    0  0.64075474249E-02  0.20931004212E-01  0.12470327835E+00  0.12815637280E+00  0.19849046746E-01 0.  0.
         14    1    1    2    0    0 -0.93998545419E-02 -0.98276986803E-02  0.19692102330E-01  0.23931565367E-01  0.00000000000E+00 0. -1.
     999901    1    3    3    0    0  0.29923071171E-02 -0.11103305531E-01 -0.14439538068E+00  0.89184206183E+00  0.88000000000E+00 0.  1.
        -11    1    4    4    0    0 -0.46717743064E-02  0.91385200030E-02  0.79103929837E-01  0.79768608234E-01  0.51100000000E-03 0.  1.
         11    1    4    4    0    0  0.11079321731E-01  0.11792484209E-01  0.45599348511E-01  0.48387764564E-01  0.51100000000E-03 0. -1.
</event>
<event>
 8    1  0.1131376E+005  0.1043930E+01  0.7957747E-01            NaN
         13   -1    0    0    0    0  0.00000000000E+00  0.00000000000E+00  0.74505805969E-08  0.10566000000E+00  0.10566000000E+00 0.  1.
     999900   -1    0    0    0    0 -0.00000000000E+00 -0.00000000000E+00 -0.74505805969E-08  0.93827000000E+00  0.93827000000E+00 0.  1.
     999902    2    1    2    0    0  0.70583896135E-02  0.15264443738E-01  0.16297324272E-01  0.10205114841E+01  0.10202427468E+01 0.  0.
     999903    2    3    3    0    0  0.10330174590E+00  0.39290988833E-01 -0.67743714264E-01  0.13095937513E+00  0.18604155484E-01 0.  0.
         14    1    1    2    0    0 -0.70583896135E-02 -0.15264443738E-01 -0.16297324272E-01  0.23418515858E-01  0.00000000000E+00 0.  1.
     999901    1    3    3    0    0 -0.96243356287E-01 -0.24026545094E-01  0.84041038536E-01  0.88955210902E+00  0.88000000000E+00 0. -1.
        -11    1    4    4    0    0  0.62943748154E-01  0.21051621252E-01 -0.50621554701E-01  0.83473882804E-01  0.51100000000E-03 0. -1.
         11    1    4    4    0    0  0.40357997747E-01  0.18239367581E-01 -0.17122159563E-01  0.47485492321E-01  0.51100000000E-03 0.  1.
</event>
<event>
 8    1  0.1131376E+005  0.1043930E+01  0.7957747E-01            NaN
         13   -1    0    0    0    0  0.00000000000E+00  0.00000000000E+00  0.74505805969E-08  0.10566000000E+00  0.10566000000E+00 0. -1.
     999900   -1    0    0    0    0 -0.00000000000E+00 -0.00000000000E+00 -0.74505805969E-08  0.93827000000E+00  0.93827000000E+00 0.  1.
     999902    2    1    2    0    0 -0.21272740391E-01 -0.94377986804E-02  0.72361410305E-03  0.10206464190E+01  0.10203808051E+01 0.  0.
     999903    2    3    3    0    0 -0.14944270276E-01 -0.11678460114E+00 -0.56924835240E-01  0.13222831401E+00  0.19542668188E-01 0.  0.
         14    1    1    2    0    0  0.21272740391E-01  0.94377986804E-02 -0.72361410305E-03  0.23283581019E-01  0.00000000000E+00 0.  1.
     999901    1    3    3    0    0 -0.63284701150E-02  0.10734680246E+00  0.57648449343E-01  0.88841810497E+00  0.88000000000E+00 0. -1.
        -11    1    4    4    0    0 -0.23744141209E-02 -0.57159591183E-01 -0.18239606847E-01  0.60048322920E-01  0.51100000000E-03 0.  1.
         11    1    4    4    0    0 -0.12569856155E-01 -0.59625009961E-01 -0.38685228393E-01  0.72179991088E-01  0.51100000000E-03 0. -1.
</event>
<event>
 8    1  0.1131376E+005  0.1043930E+01  0.7957747E-01            NaN
         13   -1    0    0    0    0  0.00000000000E+00  0.00000000000E+00  0.74505805969E-08  0.10566000000E+00  0.10566000000E+00 0.  1.
     999900   -1    0    0    0    0 -0.00000000000E+00 -0.00000000000E+00 -0.74505805969E-08  0.93827000000E+00  0.93827000000E+00 0.  1.
     999902    2    1    2    0    0 -0.17875293918E-01  0.12259646663E-03 -0.13969160587E-01  0.10212434707E+01  0.10209914534E+01 0.  0.
     999903    2    3    3    0    0  0.57074106496E-01 -0.89236329211E-01  0.70257439535E-01  0.12956160460E+00  0.25090346630E-01 0.  0.
         14    1    1    2    0    0  0.17875293918E-01 -0.12259646663E-03  0.13969160587E-01  0.22686529264E-01  0.00000000000E+00 0.  1.
     999901    1    3    3    0    0 -0.74949400415E-01  0.89358925678E-01 -0.84226600122E-01  0.89168186613E+00  0.88000000000E+00 0.  1.
        -11    1    4    4    0    0  0.12786671010E-01 -0.19880620804E-01  0.29274802857E-01  0.37629951400E-01  0.51100000000E-03 0.  1.
         11    1    4    4    0    0  0.44287435487E-01 -0.69355708408E-01  0.40982636678E-01  0.91931653204E-01  0.51100000000E-03 0. -1.
</event>
<event>
 8    1  0.1131376E+005  0.1043930E+01  0.7957747E-01            NaN
         13   -1    0    0    0    0  0.00000000000E+00  0.00000000000E+00  0.74505805969E-08  0.10566000000E+00  0.10566000000E+00 0.  1.
     999900   -1    0    0    0    0 -0.00000000000E+00 -0.00000000000E+00 -0.74505805969E-08  0.93827000000E+00  0.93827000000E+00 0. -1.
     999902    2    1    2    0    0  0.12514894755E-01  0.14764788085E-01  0.13725487675E-01  0.10202021562E+01  0.10199261880E+01 0.  0.
     999903    2    3    3    0    0 -0.53726541529E-01 -0.43668781749E-01 -0.10552944041E+00  0.12777616612E+00  0.19919389321E-01 0.  0.
         14    1    1    2    0    0 -0.12514894755E-01 -0.14764788085E-01 -0.13725487675E-01  0.23727843767E-01  0.00000000000E+00 0.  1.
     999901    1    3    3    0    0  0.66241436285E-01  0.58433569834E-01  0.11925492808E+00  0.89242599012E+00  0.88000000000E+00 0.  1.
        -11    1    4    4    0    0 -0.34975761754E-01 -0.17653083881E-01 -0.67298528527E-01  0.77873540716E-01  0.51100000000E-03 0. -1.
         11    1    4    4    0    0 -0.18750779775E-01 -0.26015697868E-01 -0.38230911878E-01  0.49902625400E-01  0.51100000000E-03 0.  1.
</event>
<event>
 8    1  0.1131376E+005  0.1043930E+01  0.7957747E-01            NaN
         13   -1    0    0    0    0  0.00000000000E+00  0.00000000000E+00  0.74505805969E-08  0.10566000000E+00  0.10566000000E+00 0.  1.
     999900   -1    0    0    0    0 -0.00000000000E+00 -0.00000000000E+00 -0.74505805969E-08  0.93827000000E+00  0.93827000000E+00 0. -1.
     999902    2    1    2    0    0  0.87120700229E-02 -0.16827263476E-01  0.97927852386E-02  0.10226003117E+01  0.10223778371E+01 0.  0.
     999903    2    3    3    0    0 -0.43958167175E-02 -0.66028909333E-01  0.11574577572E+00  0.13478352044E+00  0.19757851944E-01 0.  0.
         14    1    1    2    0    0 -0.87120700229E-02  0.16827263476E-01 -0.97927852386E-02  0.21329688299E-01  0.00000000000E+00 0. -1.
     999901    1    3    3    0    0  0.13107886740E-01  0.49201645857E-01 -0.10595299048E+00  0.88781679126E+00  0.88000000000E+00 0. -1.
        -11    1    4    4    0    0  0.77121099633E-02 -0.32502203719E-01  0.56661865536E-01  0.65777640682E-01  0.51100000000E-03 0. -1.
         11    1    4    4    0    0 -0.12107926681E-01 -0.33526705614E-01  0.59083910184E-01  0.69005879760E-01  0.51100000000E-03 0.  1.
</event>
<event>
 8    1  0.1131376E+005  0.1043930E+01  0.7957747E-01            NaN
         13   -1    0    0    0    0  0.00000000000E+00  0.00000000000E+00  0.74505805969E-08  0.10566000000E+00  0.10566000000E+00 0. -1.
     999900   -1    0    0    0    0 -0.00000000000E+00 -0.00000000000E+00 -0.74505805969E-08  0.93827000000E+00  0.93827000000E+00 0.  1.
     999902    2    1    2    0    0  0.12240756813E-01 -0.23664743643E-02 -0.20371258847E-01  0.10200464384E+01  0.10197667929E+01 0.  0.
     999903    2    3    3    0    0  0.17855223727E-01  0.12538372904E+00  0.20971805758E-01  0.12984371670E+00  0.19485523045E-01 0.  0.
         14    1    1    2    0    0 -0.12240756813E-01  0.23664743643E-02  0.20371258847E-01  0.23883561612E-01  0.00000000000E+00 0. -1.
     999901    1    3    3    0    0 -0.56144669139E-02 -0.12775020340E+00 -0.41343064605E-01  0.89020272169E+00  0.88000000000E+00 0.  1.
        -11    1    4    4    0    0  0.14600856317E-01  0.75712741211E-01  0.21536112489E-01  0.80060411247E-01  0.51100000000E-03 0.  1.
         11    1    4    4    0    0  0.32543674108E-02  0.49670987826E-01 -0.56430673037E-03  0.49783305454E-01  0.51100000000E-03 0. -1.
</event>
<event>
 8    1  0.1131376E+005  0.1043930E+01  0.7957747E-01            NaN
         13   -1    0    0    0    0  0.00000000000E+00  0.00000000000E+00  0.74505805969E-08  0.10566000000E+00  0.10566000000E+00 0.  1.
     999900   -1    0    0    0    0 -0.00000000000E+00 -0.00000000000E+00 -0.74505805969E-08  0.93827000000E+00  0.93827000000E+00 0.  1.
     999902    2    1    2    0    0 -0.14934455761E-01  0.17916852016E-01  0.94829724362E-02  0.10187510739E+01  0.10184398717E+01 0.  0.
     999903    2    3    3    0    0  0.60993312919E-02 -0.11206184355E+00 -0.55236644093E-01  0.12660449944E+00  0.19558982704E-01 0.  0.
         14    1    1    2    0    0  0.14934455761E-01 -0.17916852016E-01 -0.94829724362E-02  0.25178926134E-01  0.00000000000E+00 0.  1.
     999901    1    3    3    0    0 -0.21033787053E-01  0.12997869557E+00  0.64719616530E-01  0.89214657443E+00  0.88000000000E+00 0. -1.
        -11    1    4    4    0    0  0.20216297699E-02 -0.11836635031E-01  0.14984864298E-03  0.12019837412E-01  0.51100000000E-03 0. -1.
         11    1    4    4    0    0  0.40777015220E-02 -0.10022520852E+00 -0.55386492736E-01  0.11458466203E+00  0.51100000000E-03 0.  1.
</event>
<event>
 8    1  0.1131376E+005  0.1043930E+01  0.7957747E-01            NaN
         13   -1    0    0    0    0  0.00000000000E+00  0.00000000000E+00  0.74505805969E-08  0.10566000000E+00  0.10566000000E+00 0. -1.
     999900   -1    0    0    0    0 -0.00000000000E+00 -0.00000000000E+00 -0.74505805969E-08  0.93827000000E+00  0.93827000000E+00 0. -1.
     999902    2    1    2    0    0  0.58910730283E-02 -0.57083451170E-02  0.22370884422E-01  0.10201025701E+01  0.10198242531E+01 0.  0.
     999903    2    3    3    0    0  0.12478756035E+00  0.17074218051E-01  0.33280603905E-01  0.13174766251E+00  0.19656648752E-01 0.  0.
         14    1    1    2    0    0 -0.58910730283E-02  0.57083451170E-02 -0.22370884422E-01  0.23827429891E-01  0.00000000000E+00 0.  1.
     999901    1    3    3    0    0 -0.11889648732E+00 -0.22782563168E-01 -0.10909719482E-01  0.88835490760E+00  0.88000000000E+00 0. -1.
        -11    1    4    4    0    0  0.43683753031E-01  0.43839379306E-02  0.21752890879E-02  0.43960006759E-01  0.51100000000E-03 0. -1.
         11    1    4    4    0    0  0.81103807317E-01  0.12690280121E-01  0.31105314817E-01  0.87787655747E-01  0.51100000000E-03 0.  1.
</event>
<event>
 8    1  0.1131376E+005  0.1043930E+01  0.7957747E-01            NaN
         13   -1    0    0    0    0  0.00000000000E+00  0.00000000000E+00  0.74505805969E-08  0.10566000000E+00  0.10566000000E+00 0. -1.
     999900   -1    0    0    0    0 -0.00000000000E+00 -0.00000000000E+00 -0.74505805969E-08  0.93827000000E+00  0.93827000000E+00 0. -1.
     999902    2    1    2    0    0  0.76074582026E-02 -0.11495107799E-02 -0.22334002037E-01  0.10203079247E+01  0.10200344400E+01 0.  0.
     999903    2    3    3    0    0 -0.74926871707E-01 -0.24189960289E-01  0.98935318310E-01  0.12786799618E+00  0.19048279591E-01 0.  0.
         14    1    1    2    0    0 -0.76074582026E-02  0.11495107799E-02  0.22334002037E-01  0.23622075318E-01  0.00000000000E+00 0. -1.
     999901    1    3    3    0    0  0.82534329909E-01  0.23040449510E-01 -0.12126932035E+00  0.89243992850E+00  0.88000000000E+00 0. -1.
        -11    1    4    4    0    0 -0.61508220523E-01 -0.11765758377E-01  0.78982502139E-01  0.10079777293E+00  0.51100000000E-03 0.  1.
         11    1    4    4    0    0 -0.13418651184E-01 -0.12424201913E-01  0.19952816171E-01  0.27070223252E-01  0.51100000000E-03 0. -1.
</event>
<event>
 8    1  0.1131376E+005  0.1043930E+01  0.7957747E-01            NaN
         13   -1    0    0    0    0  0.00000000000E+00  0.00000000000E+00  0.74505805969E-08  0.10566000000E+00  0.10566000000E+00 0. -1.
     999900   -1    0    0    0    0 -0.00000000000E+00 -0.00000000000E+00 -0.74505805969E-08  0.93827000000E+00  0.93827000000E+00 0. -1.
     999902    2    1    2    0    0  0.23237643415E-01 -0.47649405908E-02 -0.13077251805E-02  0.10201728353E+01  0.10198961766E+01 0.  0.
     999903    2    3    3    0    0  0.18334178314E-01 -0.93297147127E-01 -0.88772721097E-01  0.13140283068E+00  0.18590539095E-01 0.  0.
         14    1    1    2    0    0 -0.23237643415E-01  0.47649405908E-02  0.13077251805E-02  0.23757164719E-01  0.00000000000E+00 0.  1.
     999901    1    3    3    0    0  0.49034651006E-02  0.88532206536E-01  0.87464995916E-01  0.88877000460E+00  0.88000000000E+00 0.  1.
        -11    1    4    4    0    0  0.13588739645E-01 -0.87855650016E-01 -0.85880680623E-01  0.12360833916E+00  0.51100000000E-03 0.  1.
         11    1    4    4    0    0  0.47454386690E-02 -0.54414971112E-02 -0.28920404739E-02  0.77944915213E-02  0.51100000000E-03 0. -1.
</event>
<event>
 8    1  0.1131376E+005  0.1043930E+01  0.7957747E-01            NaN
         13   -1    0    0    0    0  0.00000000000E+00  0.00000000000E+00  0.74505805969E-08  0.10566000000E+00  0.10566000000E+00 0.  1.
     999900   -1    0    0    0    0 -0.00000000000E+00 -0.00000000000E+00 -0.74505805969E-08  0.93827000000E+00  0.93827000000E+00 0. -1.
     999902    2    1    2    0    0  0.18207422054E-01  0.17203099900E-01  0.25668554564E-02  0.10187497377E+01  0.10184385020E+01 0.  0.
     999903    2    3    3    0    0  0.56570979538E-01 -0.11282989129E+00  0.11954494133E-01  0.12831811812E+00  0.19793165834E-01 0.  0.
         14    1    1    2    0    0 -0.18207422054E-01 -0.17203099900E-01 -0.25668554564E-02  0.25180262329E-01  0.00000000000E+00 0. -1.
     999901    1    3    3    0    0 -0.38363557484E-01  0.13003299119E+00 -0.93876386764E-02  0.89043161955E+00  0.88000000000E+00 0.  1.
        -11    1    4    4    0    0  0.11036801945E-01 -0.11058322766E-01  0.57324435986E-02  0.16649910816E-01  0.51100000000E-03 0. -1.
         11    1    4    4    0    0  0.45534177593E-01 -0.10177156852E+00  0.62220505342E-02  0.11166820730E+00  0.51100000000E-03 0.  1.
</event>
<event>
 8    1  0.1131376E+005  0.1043930E+01  0.7957747E-01            NaN
         13   -1    0    0    0    0  0.00000000000E+00  0.00000000000E+00  0.74505805969E-08  0.10566000000E+00  0.10566000000E+00 0.  1.
     999900   -1    0    0    0    0 -0.00000000000E+00 -0.00000000000E+00 -0.74505805969E-08  0.93827000000E+00  0.93827000000E+00 0.  1.
     999902    2    1    2    0    0  0.93981122946E-02 -0.86253953310E-02  0.20842684379E-01  0.10194935630E+01  0.10192006601E+01 0.  0.
     999903    2    3    3    0    0  0.83885314324E-01  0.74356452477E-01 -0.59277699416E-01  0.12884570545E+00  0.22841676374E-01 0.  0.
         14    1    1    2    0    0 -0.93981122946E-02  0.86253953310E-02 -0.20842684379E-01  0.24436436963E-01  0.00000000000E+00 0. -1.
     999901    1    3    3    0    0 -0.74487202029E-01 -0.82981847808E-01  0.80120383795E-01  0.89064785759E+00  0.88000000000E+00 0. -1.
        -11    1    4    4    0    0  0.31550420769E-01  0.20938873470E-01 -0.96077296323E-02  0.39069618152E-01  0.51100000000E-03 0. -1.
         11    1    4    4    0    0  0.52334893555E-01  0.53417579007E-01 -0.49669969784E-01  0.89776087294E-01  0.51100000000E-03 0.  1.
</event>
<event>
 8    1  0.1131376E+005  0.1043930E+01  0.7957747E-01            NaN
         13   -1    0    0    0    0  0.00000000000E+00  0.00000000000E+00  0.74505805969E-08  0.10566000000E+00  0.10566000000E+00 0.  1.
     999900   -1    0    0    0    0 -0.00000000000E+00 -0.00000000000E+00 -0.74505805969E-08  0.93827000000E+00  0.93827000000E+00 0. -1.
     999902    2    1    2    0    0 -0.16960118166E-01 -0.16779194548E-01 -0.54929369473E-03  0.10200660376E+01  0.10197868563E+01 0.  0.
     999903    2    3    3    0    0 -0.54581987183E-02  0.64786684212E-01 -0.11016759497E+00  0.12944745554E+00  0.19815104834E-01 0.  0.
         14    1    1    2    0    0  0.16960118166E-01  0.16779194548E-01  0.54929369473E-03  0.23863962400E-01  0.00000000000E+00 0. -1.
     999901    1    3    3    0    0 -0.11501919448E-01 -0.81565878761E-01  0.10961830128E+00  0.89061858206E+00  0.88000000000E+00 0.  1.
        -11    1    4    4    0    0 -0.27549717976E-02  0.42714426372E-01 -0.88919020958E-01  0.98686197104E-01  0.51100000000E-03 0.  1.
         11    1    4    4    0    0 -0.27032269206E-02  0.22072257841E-01 -0.21248574017E-01  0.30761258439E-01  0.51100000000E-03 0. -1.
</event>
<event>
 8    1  0.1131376E+005  0.1043930E+01  0.7957747E-01            NaN
         13   -1    0    0    0    0  0.00000000000E+00  0.00000000000E+00  0.74505805969E-08  0.10566000000E+00  0.10566000000E+00 0.  1.
     999900   -1    0    0    0    0 -0.00000000000E+00 -0.00000000000E+00 -0.74505805969E-08  0.93827000000E+00  0.93827000000E+00 0.  1.
     999902    2    1    2    0    0 -0.76954208612E-02  0.22861882301E-01  0.37054628720E-02  0.10195247625E+01  0.10192326161E+01 0.  0.
     999903    2    3    3    0    0  0.13924821296E-01 -0.10565579235E+00  0.67320671348E-01  0.12765530882E+00  0.20168241760E-01 0.  0.
         14    1    1    2    0    0  0.76954208612E-02 -0.22861882301E-01 -0.37054628720E-02  0.24405237546E-01  0.00000000000E+00 0. -1.
     999901    1    3    3    0    0 -0.21620242157E-01  0.12851767465E+00 -0.63615208476E-01  0.89186945363E+00  0.88000000000E+00 0. -1.
        -11    1    4    4    0    0  0.51192297630E-02 -0.30608659744E-01  0.93482772205E-02  0.32415242906E-01  0.51100000000E-03 0.  1.
         11    1    4    4    0    0  0.88055915333E-02 -0.75047132604E-01  0.57972394127E-01  0.95240065918E-01  0.51100000000E-03 0. -1.
</event>
<event>
 8    1  0.1131376E+005  0.1043930E+01  0.7957747E-01            NaN
         13   -1    0    0    0    0  0.00000000000E+00  0.00000000000E+00  0.74505805969E-08  0.10566000000E+00  0.10566000000E+00 0. -1.
     999900   -1    0    0    0    0 -0.00000000000E+00 -0.00000000000E+00 -0.74505805969E-08  0.93827000000E+00  0.93827000000E+00 0.  1.
     999902    2    1    2    0    0 -0.16622198741E-01  0.61841629731E-02 -0.14274886298E-01  0.10211634952E+01  0.10209096778E+01 0.  0.
     999903    2    3    3    0    0 -0.55640739940E-01 -0.11198212789E+00  0.33795782289E-01  0.13110927884E+00  0.20287907479E-01 0.  0.
         14    1    1    2    0    0  0.16622198741E-01 -0.61841629731E-02  0.14274886298E-01  0.22766504815E-01  0.00000000000E+00 0. -1.
     999901    1    3    3    0    0  0.39018541199E-01  0.11816629086E+00 -0.48070668587E-01  0.89005421634E+00  0.88000000000E+00 0.  1.
        -11    1    4    4    0    0 -0.54256205713E-01 -0.95346931985E-01  0.26351980261E-01  0.11282491428E+00  0.51100000000E-03 0.  1.
         11    1    4    4    0    0 -0.13845342270E-02 -0.16635195904E-01  0.74438020279E-02  0.18284364562E-01  0.51100000000E-03 0. -1.
</event>
<event>
 8    1  0.1131376E+005  0.1043930E+01  0.7957747E-01            NaN
         13   -1    0    0    0    0  0.00000000000E+00  0.00000000000E+00  0.74505805969E-08  0.10566000000E+00  0.10566000000E+00 0. -1.
     999900   -1    0    0    0    0 -0.00000000000E+00 -0.00000000000E+00 -0.74505805969E-08  0.93827000000E+00  0.93827000000E+00 0. -1.
     999902    2    1    2    0    0  0.20708573417E-01 -0.94611251406E-03  0.11049783711E-01  0.10204387705E+01  0.10201683423E+01 0.  0.
     999903    2    3    3    0    0  0.28059209079E-01  0.78427528696E-01  0.10070891757E+00  0.13229859745E+00  0.20553256114E-01 0.  0.
         14    1    1    2    0    0 -0.20708573417E-01  0.94611251406E-03 -0.11049783711E-01  0.23491229468E-01  0.00000000000E+00 0.  1.
     999901    1    3    3    0    0 -0.73506356620E-02 -0.79373641210E-01 -0.89659133859E-01  0.88814017309E+00  0.88000000000E+00 0. -1.
        -11    1    4    4    0    0  0.31267324311E-01  0.67786230604E-01  0.88498477527E-01  0.11577936031E+00  0.51100000000E-03 0. -1.
         11    1    4    4    0    0 -0.32081152323E-02  0.10641298092E-01  0.12210440043E-01  0.16519237133E-01  0.51100000000E-03 0.  1.
</event>
<event>
 8    1  0.1131376E+005  0.1043930E+01  0.7957747E-01            NaN
         13   -1    0    0    0    0  0.00000000000E+00  0.00000000000E+00  0.74505805969E-08  0.10566000000E+00  0.10566000000E+00 0. -1.
     999900   -1    0    0    0    0 -0.00000000000E+00 -0.00000000000E+00 -0.74505805969E-08  0.93827000000E+00  0.93827000000E+00 0.  1.
     999902    2    1    2    0    0 -0.41041009496E-02 -0.12480735512E-01  0.19994148201E-01  0.10200055697E+01  0.10197249550E+01 0.  0.
     999903    2    3    3    0    0  0.10611500560E+00 -0.14784497252E-01 -0.68473096024E-01  0.12872558446E+00  0.20068269527E-01 0.  0.
         14    1    1    2    0    0  0.41041009496E-02  0.12480735512E-01 -0.19994148201E-01  0.23924430313E-01  0.00000000000E+00 0.  1.
     999901    1    3    3    0    0 -0.11021910655E+00  0.23037617399E-02  0.88467244225E-01  0.89127998523E+00  0.88000000000E+00 0. -1.
        -11    1    4    4    0    0  0.51622385741E-01 -0.19136146677E-02 -0.42977071758E-01  0.67199869409E-01  0.51100000000E-03 0. -1.
         11    1    4    4    0    0  0.54492619863E-01 -0.12870882584E-01 -0.25496024266E-01  0.61525715050E-01  0.51100000000E-03 0.  1.
</event>
<event>
 8    1  0.1131376E+005  0.1043930E+01  0.7957747E-01            NaN
         13   -1    0    0    0    0  0.00000000000E+00  0.00000000000E+00  0.74505805969E-08  0.10566000000E+00  0.10566000000E+00 0.  1.
     999900   -1    0    0    0    0 -0.00000000000E+00 -0.00000000000E+00 -0.74505805969E-08  0.93827000000E+00  0.93827000000E+00 0. -1.
     999902    2    1    2    0    0 -0.24340376609E-01  0.50290455874E-02 -0.45281220791E-02  0.10186664072E+01  0.10183530822E+01 0.  0.
     999903    2    3    3    0    0 -0.65119167477E-02  0.12654385934E+00 -0.19406247475E-01  0.13001289620E+00  0.21702473146E-01 0.  0.
         14    1    1    2    0    0  0.24340376609E-01 -0.50290455874E-02  0.45281220791E-02  0.25263592828E-01  0.00000000000E+00 0.  1.
     999901    1    3    3    0    0 -0.17828459862E-01 -0.12151481376E+00  0.14878125396E-01  0.88865351097E+00  0.88000000000E+00 0. -1.
        -11    1    4    4    0    0  0.42636218764E-02  0.75196385923E-01 -0.18404480957E-01  0.77534901610E-01  0.51100000000E-03 0.  1.
         11    1    4    4    0    0 -0.10775538624E-01  0.51347473420E-01 -0.10017665185E-02  0.52477994592E-01  0.51100000000E-03 0. -1.
</event>
<event>
 8    1  0.1131376E+005  0.1043930E+01  0.7957747E-01            NaN
         13   -1    0    0    0    0  0.00000000000E+00  0.00000000000E+00  0.74505805969E-08  0.10566000000E+00  0.10566000000E+00 0. -1.
     999900   -1    0    0    0    0 -0.00000000000E+00 -0.00000000000E+00 -0.74505805969E-08  0.93827000000E+00  0.93827000000E+00 0. -1.
     999902    2    1    2    0    0  0.13089476045E-01  0.19480160854E-02 -0.19495215595E-01  0.10203674751E+01  0.10200953836E+01 0.  0.
     999903    2    3    3    0    0  0.25300596672E-01 -0.73340832472E-01 -0.10588806520E+00  0.13285339257E+00  0.20463227161E-01 0.  0.
         14    1    1    2    0    0 -0.13089476045E-01 -0.19480160854E-02  0.19495215595E-01  0.23562524926E-01  0.00000000000E+00 0. -1.
     999901    1    3    3    0    0 -0.12211120627E-01  0.75288848558E-01  0.86392849603E-01  0.88751408251E+00  0.88000000000E+00 0. -1.
        -11    1    4    4    0    0  0.27003148056E-01 -0.58367879756E-01 -0.77504017442E-01  0.10071302415E+00  0.51100000000E-03 0.  1.
         11    1    4    4    0    0 -0.17025513838E-02 -0.14972952716E-01 -0.28384047755E-01  0.32140368421E-01  0.51100000000E-03 0. -1.
</event>
<event>
 8    1  0.1131376E+005  0.1043930E+01  0.7957747E-01            NaN
         13   -1    0    0    0    0  0.00000000000E+00  0.00000000000E+00  0.74505805969E-08  0.10566000000E+00  0.10566000000E+00 0. -1.
     999900   -1    0    0    0    0 -0.00000000000E+00 -0.00000000000E+00 -0.74505805969E-08  0.93827000000E+00  0.93827000000E+00 0.  1.
     999902    2    1    2    0    0 -0.30335191561E-02  0.85600236253E-02  0.21385764547E-01  0.10206958190E+01  0.10204313439E+01 0.  0.
     999903    2    3    3    0    0  0.88541059893E-01 -0.34319621764E-01 -0.84484930448E-01  0.12860099689E+00  0.19574401749E-01 0.  0.
         14    1    1    2    0    0  0.30335191561E-02 -0.85600236253E-02 -0.21385764547E-01  0.23234181031E-01  0.00000000000E+00 0.  1.
     999901    1    3    3    0    0 -0.91574579049E-01  0.42879645390E-01  0.10587069500E+00  0.89209482208E+00  0.88000000000E+00 0. -1.
        -11    1    4    4    0    0  0.32767606149E-01 -0.22560685250E-01 -0.31032181613E-01  0.50457486544E-01  0.51100000000E-03 0. -1.
         11    1    4    4    0    0  0.55773453744E-01 -0.11758936514E-01 -0.53452748836E-01  0.78143510348E-01  0.51100000000E-03 0.  1.
</event>
<event>
 8    1  0.1131376E+005  0.1043930E+01  0.7957747E-01            NaN
         13   -1    0    0    0    0  0.00000000000E+00  0.00000000000E+00  0.74505805969E-08  0.10566000000E+00  0.10566000000E+00 0.  1.
     999900   -1    0    0    0    0 -0.00000000000E+00 -0.00000000000E+00 -0.74505805969E-08  0.93827000000E+00  0.93827000000E+00 0. -1.
     999902    2    1    2    0    0  0.14271613032E-01  0.11144417407E-01 -0.13006162297E-01  0.10216356681E+01  0.10213923835E+01 0.  0.
     999903    2    3    3    0    0 -0.42143616746E-01  0.11107298523E+00  0.53447372841E-01  0.13170057542E+00  0.19368206501E-01 0.  0.
         14    1    1    2    0    0 -0.14271613032E-01 -0.11144417407E-01  0.13006162297E-01  0.22294331916E-01  0.00000000000E+00 0.  1.
     999901    1    3    3    0    0  0.56415229778E-01 -0.99928567822E-01 -0.66453535138E-01  0.88993509266E+00  0.88000000000E+00 0. -1.
        -11    1    4    4    0    0 -0.10217746748E-01  0.48306660434E-01  0.15779084760E-01  0.51837982481E-01  0.51100000000E-03 0. -1.
         11    1    4    4    0    0 -0.31925869998E-01  0.62766324795E-01  0.37668288081E-01  0.79862592942E-01  0.51100000000E-03 0.  1.
</event>
<event>
 8    1  0.1131376E+005  0.1043930E+01  0.7957747E-01            NaN
         13   -1    0    0    0    0  0.00000000000E+00  0.00000000000E+00  0.74505805969E-08  0.10566000000E+00  0.10566000000E+00 0. -1.
     999900   -1    0    0    0    0 -0.00000000000E+00 -0.00000000000E+00 -0.74505805969E-08  0.93827000000E+00  0.93827000000E+00 0. -1.
     999902    2    1    2    0    0  0.17138092987E-01  0.16654533453E-01 -0.21821468932E-04  0.10200325484E+01  0.10197525737E+01 0.  0.
     999903    2    3    3    0    0  0.77032432348E-01 -0.93450543616E-01  0.43180049235E-01  0.13010173003E+00  0.19873192255E-01 0.  0.
         14    1    1    2    0    0 -0.17138092987E-01 -0.16654533453E-01  0.21821468932E-04  0.23897451579E-01  0.00000000000E+00 0. -1.
     999901    1    3    3    0    0 -0.59894339360E-01  0.11010507707E+00 -0.43201870704E-01  0.88993081839E+00  0.88000000000E+00 0. -1.
        -11    1    4    4    0    0  0.20126075800E-01 -0.39354575738E-01  0.15015451791E-01  0.46685827316E-01  0.51100000000E-03 0. -1.
         11    1    4    4    0    0  0.56906356548E-01 -0.54095967877E-01  0.28164597444E-01  0.83415902718E-01  0.51100000000E-03 0.  1.
</event>
<event>
 8    1  0.1131376E+005  0.1043930E+01  0.7957747E-01            NaN
         13   -1    0    0    0    0  0.00000000000E+00  0.00000000000E+00  0.74505805969E-08  0.10566000000E+00  0.10566000000E+00 0. -1.
     999900   -1    0    0    0    0 -0.00000000000E+00 -0.00000000000E+00 -0.74505805969E-08  0.93827000000E+00  0.93827000000E+00 0. -1.
     999902    2    1    2    0    0  0.12511054705E-01  0.40605757803E-02 -0.17561053784E-01  0.10219890480E+01  0.10217534971E+01 0.  0.
     999903    2    3    3    0    0  0.52899156171E-01  0.11516613118E+00 -0.38184308125E-01  0.13384437407E+00  0.19867475621E-01 0.  0.
         14    1    1    2    0    0 -0.12511054705E-01 -0.40605757803E-02  0.17561053784E-01  0.21940952019E-01  0.00000000000E+00 0.  1.
     999901    1    3    3    0    0 -0.40388101466E-01 -0.11110555540E+00  0.20623254342E-01  0.88814467391E+00  0.88000000000E+00 0. -1.
        -11    1    4    4    0    0  0.34670371376E-01  0.54191041973E-01 -0.14593376439E-01  0.65969170363E-01  0.51100000000E-03 0.  1.
         11    1    4    4    0    0  0.18228784795E-01  0.60975089209E-01 -0.23590931687E-01  0.67875203705E-01  0.51100000000E-03 0. -1.
</event>
<event>
 8    1  0.1131376E+005  0.1043930E+01  0.7957747E-01            NaN
         13   -1    0    0    0    0  0.00000000000E+00  0.00000000000E+00  0.74505805969E-08  0.10566000000E+00  0.10566000000E+00 0.  1.
     999900   -1    0    0    0    0 -0.00000000000E+00 -0.00000000000E+00 -0.74505805969E-08  0.93827000000E+00  0.93827000000E+00 0. -1.
     999902    2    1    2    0    0 -0.13857064745E-01  0.69177329293E-02 -0.20730832144E-01  0.10180525837E+01  0.10177236474E+01 0.  0.
     999903    2    3    3    0    0  0.11642118394E+00 -0.19816633248E-01 -0.44005369641E-01  0.12775552514E+00  0.20938257407E-01 0.  0.
         14    1    1    2    0    0  0.13857064745E-01 -0.69177329293E-02  0.20730832144E-01  0.25877416286E-01  0.00000000000E+00 0.  1.
     999901    1    3    3    0    0 -0.13027824868E+00  0.26734366177E-01  0.23274537497E-01  0.89029705858E+00  0.88000000000E+00 0. -1.
        -11    1    4    4    0    0  0.31466900021E-01 -0.11680833605E-01 -0.50717970378E-02  0.33949844135E-01  0.51100000000E-03 0.  1.
         11    1    4    4    0    0  0.84954283917E-01 -0.81357996427E-02 -0.38933572604E-01  0.93805681002E-01  0.51100000000E-03 0. -1.
</event>
<event>
 8    1  0.1131376E+005  0.1043930E+01  0.7957747E-01            NaN
         13   -1    0    0    0    0  0.00000000000E+00  0.00000000000E+00  0.74505805969E-08  0.10566000000E+00  0.10566000000E+00 0.  1.
     999900   -1    0    0    0    0 -0.00000000000E+00 -0.00000000000E+00 -0.74505805969E-08  0.93827000000E+00  0.93827000000E+00 0. -1.
     999902    2    1    2    0    0  0.27556808049E-02  0.37246114727E-02 -0.22329219374E-01  0.10211251640E+01  0.10208704815E+01 0.  0.
     999903    2    3    3    0    0 -0.93091781669E-01  0.21244137201E-01  0.84912993540E-01  0.12927620701E+00  0.19614485651E-01 0.  0.
         14    1    1    2    0    0 -0.27556808049E-02 -0.37246114727E-02  0.22329219374E-01  0.22804836004E-01  0.00000000000E+00 0.  1.
     999901    1    3    3    0    0  0.95847462474E-01 -0.17519525729E-01 -0.10724221291E+00  0.89184895699E+00  0.88000000000E+00 0.  1.
        -11    1    4    4    0    0 -0.17062829856E-01  0.50384377235E-03  0.25013500088E-01  0.30287461579E-01  0.51100000000E-03 0.  1.
         11    1    4    4    0    0 -0.76028951813E-01  0.20740293429E-01  0.59899493452E-01  0.98988745432E-01  0.51100000000E-03 0. -1.
</event>
<event>
 8    1  0.1131376E+005  0.1043930E+01  0.7957747E-01            NaN
         13   -1    0    0    0    0  0.00000000000E+00  0.00000000000E+00  0.74505805969E-08  0.10566000000E+00  0.10566000000E+00 0.  1.
     999900   -1    0    0    0    0 -0.00000000000E+00 -0.00000000000E+00 -0.74505805969E-08  0.93827000000E+00  0.93827000000E+00 0. -1.
     999902    2    1    2    0    0 -0.18460891058E-01  0.17025360930E-02  0.13669318294E-01  0.10208962554E+01  0.10206363755E+01 0.  0.
     999903    2    3    3    0    0 -0.40629320840E-01 -0.12299285905E+00  0.14670586569E-01  0.13182855078E+00  0.19635569831E-01 0.  0.
         14    1    1    2    0    0  0.18460891058E-01 -0.17025360930E-02 -0.13669318294E-01  0.23033744602E-01  0.00000000000E+00 0. -1.
     999901    1    3    3    0    0  0.22168429783E-01  0.12469539514E+00 -0.10012682755E-02  0.88906770461E+00  0.88000000000E+00 0. -1.
        -11    1    4    4    0    0 -0.25154297057E-01 -0.53851621633E-01  0.13559976410E-01  0.60966137274E-01  0.51100000000E-03 0. -1.
         11    1    4    4    0    0 -0.15475023784E-01 -0.69141237416E-01  0.11106101598E-02  0.70862413510E-01  0.51100000000E-03 0.  1.
</event>
<event>
 8    1  0.1131376E+005  0.1043930E+01  0.7957747E-01            NaN
         13   -1    0    0    0    0  0.00000000000E+00  0.00000000000E+00  0.74505805969E-08  0.10566000000E+00  0.10566000000E+00 0. -1.
     999900   -1    0    0    0    0 -0.00000000000E+00 -0.00000000000E+00 -0.74505805969E-08  0.93827000000E+00  0.93827000000E+00 0. -1.
     999902    2    1    2    0    0 -0.11557880593E-01  0.12233012284E-01  0.18461248684E-01  0.10189490293E+01  0.10186427614E+01 0.  0.
     999903    2    3    3    0    0 -0.95388148970E-01 -0.68998776052E-01 -0.48639940481E-01  0.12870822654E+00  0.18445425166E-01 0.  0.
         14    1    1    2    0    0  0.11557880593E-01 -0.12233012284E-01 -0.18461248684E-01  0.24980970684E-01  0.00000000000E+00 0.  1.
     999901    1    3    3    0    0  0.83830268377E-01  0.81231788336E-01  0.67101189165E-01  0.89024080277E+00  0.88000000000E+00 0.  1.
        -11    1    4    4    0    0 -0.76512376683E-01 -0.58982435691E-01 -0.46527172520E-01  0.10722924232E+00  0.51100000000E-03 0.  1.
         11    1    4    4    0    0 -0.18875772287E-01 -0.10016340361E-01 -0.21127679608E-02  0.21478984220E-01  0.51100000000E-03 0. -1.
</event>
<event>
 8    1  0.1131376E+005  0.1043930E+01  0.7957747E-01            NaN
         13   -1    0    0    0    0  0.00000000000E+00  0.00000000000E+00  0.74505805969E-08  0.10566000000E+00  0.10566000000E+00 0. -1.
     999900   -1    0    0    0    0 -0.00000000000E+00 -0.00000000000E+00 -0.74505805969E-08  0.93827000000E+00  0.93827000000E+00 0.  1.
     999902    2    1    2    0    0 -0.14361681083E-01 -0.14495525942E-01  0.12249455266E-01  0.10201302666E+01  0.10198526038E+01 0.  0.
     999903    2    3    3    0    0 -0.26027281373E-01  0.11865433670E+00  0.39767081752E-01  0.12961233195E+00  0.21486386585E-01 0.  0.
         14    1    1    2    0    0  0.14361681083E-01  0.14495525942E-01 -0.12249455266E-01  0.23799733406E-01  0.00000000000E+00 0. -1.
     999901    1    3    3    0    0  0.11665600289E-01 -0.13314986265E+00 -0.27517626485E-01  0.89051793464E+00  0.88000000000E+00 0.  1.
        -11    1    4    4    0    0 -0.25988121435E-01  0.10772265415E+00  0.29658937193E-01  0.11471471723E+00  0.51100000000E-03 0.  1.
         11    1    4    4    0    0 -0.39159938256E-04  0.10931682556E-01  0.10108144559E-01  0.14897614722E-01  0.51100000000E-03 0. -1.
</event>
<event>
 8    1  0.1131376E+005  0.1043930E+01  0.7957747E-01            NaN
         13   -1    0    0    0    0  0.00000000000E+00  0.00000000000E+00  0.74505805969E-08  0.10566000000E+00  0.10566000000E+00 0. -1.
     999900   -1    0    0    0    0 -0.00000000000E+00 -0.00000000000E+00 -0.74505805969E-08  0.93827000000E+00  0.93827000000E+00 0.  1.
     999902    2    1    2    0    0  0.13821531373E-01  0.54619285418E-02 -0.23208177310E-01  0.10163712104E+01  0.10159975149E+01 0.  0.
     999903    2    3    3    0    0 -0.83053452132E-01 -0.42112495018E-01  0.79271134689E-01  0.12387465708E+00  0.19740307118E-01 0.  0.
         14    1    1    2    0    0 -0.13821531373E-01 -0.54619285418E-02  0.23208177310E-01  0.27558789649E-01  0.00000000000E+00 0. -1.
     999901    1    3    3    0    0  0.96874983504E-01  0.47574423560E-01 -0.10247931200E+00  0.89249655327E+00  0.88000000000E+00 0.  1.
        -11    1    4    4    0    0 -0.26961164163E-01 -0.22131194543E-01  0.21916833154E-01  0.41198335421E-01  0.51100000000E-03 0.  1.
         11    1    4    4    0    0 -0.56092287969E-01 -0.19981300476E-01  0.57354301534E-01  0.82676321663E-01  0.51100000000E-03 0. -1.
</event>
<event>
 8    1  0.1131376E+005  0.1043930E+01  0.7957747E-01            NaN
         13   -1    0    0    0    0  0.00000000000E+00  0.00000000000E+00  0.74505805969E-08  0.10566000000E+00  0.10566000000E+00 0.  1.
     999900   -1    0    0    0    0 -0.00000000000E+00 -0.00000000000E+00 -0.74505805969E-08  0.93827000000E+00  0.93827000000E+00 0. -1.
     999902    2    1    2    0    0 -0.47276848213E-02 -0.15241896601E-01 -0.84033115817E-02  0.10258944223E+01  0.10257358743E+01 0.  0.
     999903    2    3    3    0    0  0.23287153496E-01  0.11968421305E+00 -0.52060393879E-01  0.13410082119E+00  0.20152996361E-01 0.  0.
         14    1    1    2    0    0  0.47276848213E-02  0.15241896601E-01  0.84033115817E-02  0.18035577654E-01  0.00000000000E+00 0.  1.
     999901    1    3    3    0    0 -0.28014838317E-01 -0.13492610965E+00  0.43657082298E-01  0.89179360116E+00  0.88000000000E+00 0.  1.
        -11    1    4    4    0    0  0.12073594450E-01  0.21332865852E-01 -0.84866143220E-02  0.25945068742E-01  0.51100000000E-03 0.  1.
         11    1    4    4    0    0  0.11213559046E-01  0.98351347194E-01 -0.43573779557E-01  0.10815575245E+00  0.51100000000E-03 0. -1.
</event>
<event>
 8    1  0.1131376E+005  0.1043930E+01  0.7957747E-01            NaN
         13   -1    0    0    0    0  0.00000000000E+00  0.00000000000E+00  0.74505805969E-08  0.10566000000E+00  0.10566000000E+00 0.  1.
     999900   -1    0    0    0    0 -0.00000000000E+00 -0.00000000000E+00 -0.74505805969E-08  0.93827000000E+00  0.93827000000E+00 0. -1.
     999902    2    1    2    0    0  0.10740764367E-01 -0.15552868345E-01  0.14552385325E-01  0.10200756995E+01  0.10197967470E+01 0.  0.
     999903    2    3    3    0    0 -0.10997943597E+00 -0.25478151303E-01 -0.58015650523E-01  0.12881928420E+00  0.21999539689E-01 0.  0.
         14    1    1    2    0    0 -0.10740764367E-01  0.15552868345E-01 -0.14552385325E-01  0.23854300485E-01  0.00000000000E+00 0. -1.
     999901    1    3    3    0    0  0.12072020034E+00  0.99252829573E-02  0.72568035848E-01  0.89125641531E+00  0.88000000000E+00 0. -1.
        -11    1    4    4    0    0 -0.39658805323E-01 -0.13685066634E-01 -0.10882795702E-01  0.43345106434E-01  0.51100000000E-03 0. -1.
         11    1    4    4    0    0 -0.70320630647E-01 -0.11793084669E-01 -0.47132854821E-01  0.85474177768E-01  0.51100000000E-03 0.  1.
</event>
<event>
 8    1  0.1131376E+005  0.1043930E+01  0.7957747E-01            NaN
         13   -1    0    0    0    0  0.00000000000E+00  0.00000000000E+00  0.74505805969E-08  0.10566000000E+00  0.10566000000E+00 0. -1.
     999900   -1    0    0    0    0 -0.00000000000E+00 -0.00000000000E+00 -0.74505805969E-08  0.93827000000E+00  0.93827000000E+00 0.  1.
     999902    2    1    2    0    0 -0.18684788234E-01  0.93362462802E-02 -0.10297967411E-01  0.10206419142E+01  0.10203761964E+01 0.  0.
     999903    2    3    3    0    0 -0.10742237540E+00 -0.19624185954E-01  0.71519018777E-01  0.13193100216E+00  0.19134886280E-01 0.  0.
         14    1    1    2    0    0  0.18684788234E-01 -0.93362462802E-02  0.10297967411E-01  0.23288085768E-01  0.00000000000E+00 0. -1.
     999901    1    3    3    0    0  0.88737587165E-01  0.28960432234E-01 -0.81816986188E-01  0.88871091207E+00  0.88000000000E+00 0.  1.
        -11    1    4    4    0    0 -0.30413834917E-01 -0.12503359824E-01  0.15032376720E-01  0.36160321239E-01  0.51100000000E-03 0.  1.
         11    1    4    4    0    0 -0.77008540482E-01 -0.71208261306E-02  0.56486642056E-01  0.95770680919E-01  0.51100000000E-03 0. -1.
</event>
<event>
 8    1  0.1131376E+005  0.1043930E+01  0.7957747E-01            NaN
         13   -1    0    0    0    0  0.00000000000E+00  0.00000000000E+00  0.74505805969E-08  0.10566000000E+00  0.10566000000E+00 0.  1.
     999900   -1    0    0    0    0 -0.00000000000E+00 -0.00000000000E+00 -0.74505805969E-08  0.93827000000E+00  0.93827000000E+00 0. -1.
     999902    2    1    2    0    0 -0.31612437079E-02 -0.18061746814E-01  0.29551252182E-01  0.10091521814E+01  0.10085527396E+01 0.  0.
     999903    2    3    3    0    0 -0.89838879702E-01 -0.77429130606E-01 -0.17175165720E-01  0.12167212138E+00  0.21043389238E-01 0.  0.
         14    1    1    2    0    0  0.31612437079E-02  0.18061746814E-01 -0.29551252182E-01  0.34777818582E-01  0.00000000000E+00 0. -1.
     999901    1    3    3    0    0  0.86677635994E-01  0.59367383792E-01  0.46726417902E-01  0.88748006004E+00  0.88000000000E+00 0.  1.
        -11    1    4    4    0    0 -0.45497174567E-01 -0.52898095454E-01 -0.96179139137E-02  0.70434130826E-01  0.51100000000E-03 0. -1.
         11    1    4    4    0    0 -0.44341705135E-01 -0.24531035152E-01 -0.75572518061E-02  0.51237990551E-01  0.51100000000E-03 0.  1.
</event>
<event>
 8    1  0.1131376E+005  0.1043930E+01  0.7957747E-01            NaN
         13   -1    0    0    0    0  0.00000000000E+00  0.00000000000E+00  0.74505805969E-08  0.10566000000E+00  0.10566000000E+00 0.  1.
     999900   -1    0    0    0    0 -0.00000000000E+00 -0.00000000000E+00 -0.74505805969E-08  0.93827000000E+00  0.93827000000E+00 0. -1.
     999902    2    1    2    0    0 -0.12587767196E-01  0.24674344091E-01 -0.72687215519E-02  0.10152924468E+01  0.10148884880E+01 0.  0.
     999903    2    3    3    0    0  0.64160673660E-01 -0.87613104870E-01  0.53749451636E-01  0.12275560622E+00  0.19679611716E-01 0.  0.
         14    1    1    2    0    0  0.12587767196E-01 -0.24674344091E-01  0.72687215519E-02  0.28637553183E-01  0.00000000000E+00 0.  1.
     999901    1    3    3    0    0 -0.76748440856E-01  0.11228744896E+00 -0.61018173188E-01  0.89253684060E+00  0.88000000000E+00 0.  1.
        -11    1    4    4    0    0  0.29895589047E-01 -0.26062359902E-01  0.23368420239E-01  0.46036257815E-01  0.51100000000E-03 0.  1.
         11    1    4    4    0    0  0.34265084612E-01 -0.61550744967E-01  0.30381031398E-01  0.76719348402E-01  0.51100000000E-03 0. -1.
</event>
<event>
 8    1  0.1131376E+005  0.1043930E+01  0.7957747E-01            NaN
         13   -1    0    0    0    0  0.00000000000E+00  0.00000000000E+00  0.74505805969E-08  0.10566000000E+00  0.10566000000E+00 0. -1.
     999900   -1    0    0    0    0 -0.00000000000E+00 -0.00000000000E+00 -0.74505805969E-08  0.93827000000E+00  0.93827000000E+00 0.  1.
     999902    2    1    2    0    0  0.58408328209E-02  0.23052568854E-01 -0.33549152774E-02  0.10199135116E+01  0.10196307074E+01 0.  0.
     999903    2    3    3    0    0 -0.33943168067E-01  0.11010753233E-01  0.12322679638E+00  0.12988502791E+00  0.20295363569E-01 0.  0.
         14    1    1    2    0    0 -0.58408328209E-02 -0.23052568854E-01  0.33549152774E-02  0.24016488406E-01  0.00000000000E+00 0.  1.
     999901    1    3    3    0    0  0.39784000888E-01  0.12041815622E-01 -0.12658171166E+00  0.89002848369E+00  0.88000000000E+00 0.  1.
        -11    1    4    4    0    0 -0.10333565957E-01  0.63095673011E-02  0.75093786827E-01  0.76065308557E-01  0.51100000000E-03 0.  1.
         11    1    4    4    0    0 -0.23609602110E-01  0.47011859318E-02  0.48133009555E-01  0.53819719349E-01  0.51100000000E-03 0. -1.
</event>
<event>
 8    1  0.1131376E+005  0.1043930E+01  0.7957747E-01            NaN
         13   -1    0    0    0    0  0.00000000000E+00  0.00000000000E+00  0.74505805969E-08  0.10566000000E+00  0.10566000000E+00 0.  1.
     999900   -1    0    0    0    0 -0.00000000000E+00 -0.00000000000E+00 -0.74505805969E-08  0.93827000000E+00  0.93827000000E+00 0.  1.
     999902    2    1    2    0    0 -0.13250390290E-02 -0.15355213273E-01  0.17656772438E-01  0.10204928518E+01  0.10202236817E+01 0.  0.
     999903    2    3    3    0    0 -0.67711813075E-01 -0.11174254954E+00  0.11507957278E-01  0.13272287579E+00  0.20288954371E-01 0.  0.
         14    1    1    2    0    0  0.13250390290E-02  0.15355213273E-01 -0.17656772438E-01  0.23437148206E-01  0.00000000000E+00 0.  1.
     999901    1    3    3    0    0  0.66386774046E-01  0.96387336270E-01  0.61488151598E-02  0.88776997600E+00  0.88000000000E+00 0. -1.
        -11    1    4    4    0    0 -0.10199740844E-01 -0.76708437306E-02  0.47398303797E-02  0.13623643780E-01  0.51100000000E-03 0.  1.
         11    1    4    4    0    0 -0.57512072231E-01 -0.10407170581E+00  0.67681268987E-02  0.11909923201E+00  0.51100000000E-03 0. -1.
</event>
<event>
 8    1  0.1131376E+005  0.1043930E+01  0.7957747E-01            NaN
         13   -1    0    0    0    0  0.00000000000E+00  0.00000000000E+00  0.74505805969E-08  0.10566000000E+00  0.10566000000E+00 0. -1.
     999900   -1    0    0    0    0 -0.00000000000E+00 -0.00000000000E+00 -0.74505805969E-08  0.93827000000E+00  0.93827000000E+00 0. -1.
     999902    2    1    2    0    0 -0.24853063350E-01 -0.14911725952E-01 -0.14886524503E-02  0.10149084491E+01  0.10144934252E+01 0.  0.
     999903    2    3    3    0    0 -0.70733195977E-02  0.51608453722E-01 -0.11211698842E+00  0.12531321403E+00  0.20487024468E-01 0.  0.
         14    1    1    2    0    0  0.24853063350E-01  0.14911725952E-01  0.14886524503E-02  0.29021550869E-01  0.00000000000E+00 0. -1.
     999901    1    3    3    0    0 -0.17779743753E-01 -0.66520179674E-01  0.11062833597E+00  0.88959523510E+00  0.88000000000E+00 0.  1.
        -11    1    4    4    0    0 -0.85786680104E-02  0.14349099093E-01 -0.20910412201E-01  0.26776793106E-01  0.51100000000E-03 0. -1.
         11    1    4    4    0    0  0.15053484127E-02  0.37259354629E-01 -0.91206576224E-01  0.98536420925E-01  0.51100000000E-03 0.  1.
</event>
<event>
 8    1  0.1131376E+005  0.1043930E+01  0.7957747E-01            NaN
         13   -1    0    0    0    0  0.00000000000E+00  0.00000000000E+00  0.74505805969E-08  0.10566000000E+00  0.10566000000E+00 0. -1.
     999900   -1    0    0    0    0 -0.00000000000E+00 -0.00000000000E+00 -0.74505805969E-08  0.93827000000E+00  0.93827000000E+00 0. -1.
     999902    2    1    2    0    0  0.18911538987E-01  0.11769864049E-01 -0.77302964671E-02  0.10203517581E+01  0.10200792993E+01 0.  0.
     999903    2    3    3    0    0 -0.62594492093E-02  0.10642625627E+00 -0.75906260765E-01  0.13229693248E+00  0.19364637698E-01 0.  0.
         14    1    1    2    0    0 -0.18911538987E-01 -0.11769864049E-01  0.77302964671E-02  0.23578241878E-01  0.00000000000E+00 0. -1.
     999901    1    3    3    0    0  0.25170988196E-01 -0.94656392220E-01  0.68175964298E-01  0.88805482564E+00  0.88000000000E+00 0. -1.
        -11    1    4    4    0    0 -0.43407116613E-02  0.51116874194E-01 -0.24875373844E-01  0.57015979777E-01  0.51100000000E-03 0. -1.
         11    1    4    4    0    0 -0.19187375481E-02  0.55309382075E-01 -0.51030886921E-01  0.75280952705E-01  0.51100000000E-03 0.  1.
</event>
<event>
 8    1  0.1131376E+005  0.1043930E+01  0.7957747E-01            NaN
         13   -1    0    0    0    0  0.00000000000E+00  0.00000000000E+00  0.74505805969E-08  0.10566000000E+00  0.10566000000E+00 0. -1.
     999900   -1    0    0    0    0 -0.00000000000E+00 -0.00000000000E+00 -0.74505805969E-08  0.93827000000E+00  0.93827000000E+00 0. -1.
     999902    2    1    2    0    0  0.86181305942E-03  0.99026981721E-02 -0.21932363212E-01  0.10198502428E+01  0.10195659287E+01 0.  0.
     999903    2    3    3    0    0  0.47540749847E-01 -0.10978076846E+00 -0.47705739406E-01  0.13014955025E+00  0.18738405439E-01 0.  0.
         14    1    1    2    0    0 -0.86181305942E-03 -0.99026981721E-02  0.21932363212E-01  0.24079757243E-01  0.00000000000E+00 0.  1.
     999901    1    3    3    0    0 -0.46678936787E-01  0.11968346663E+00  0.25773376194E-01  0.88970069251E+00  0.88000000000E+00 0.  1.
        -11    1    4    4    0    0  0.25498682414E-01 -0.51691240517E-01 -0.13410235315E-01  0.59179917905E-01  0.51100000000E-03 0.  1.
         11    1    4    4    0    0  0.22042067433E-01 -0.58089527943E-01 -0.34295504092E-01  0.70969632346E-01  0.51100000000E-03 0. -1.
</event>
<event>
 8    1  0.1131376E+005  0.1043930E+01  0.7957747E-01            NaN
         13   -1    0    0    0    0  0.00000000000E+00  0.00000000000E+00  0.74505805969E-08  0.10566000000E+00  0.10566000000E+00 0.  1.
     999900   -1    0    0    0    0 -0.00000000000E+00 -0.00000000000E+00 -0.74505805969E-08  0.93827000000E+00  0.93827000000E+00 0.  1.
     999902    2    1    2    0    0  0.16427942699E-01  0.15221760089E-01 -0.94387604089E-02  0.10196263073E+01  0.10193366162E+01 0.  0.
     999903    2    3    3    0    0  0.31893951984E-01  0.51690712339E-01 -0.11569719819E+00  0.13234955366E+00  0.21009730370E-01 0.  0.
         14    1    1    2    0    0 -0.16427942699E-01 -0.15221760089E-01  0.94387604089E-02  0.24303692715E-01  0.00000000000E+00 0. -1.
     999901    1    3    3    0    0 -0.15466009285E-01 -0.36468952250E-01  0.10625843778E+00  0.88727675362E+00  0.88000000000E+00 0. -1.
        -11    1    4    4    0    0  0.14952733586E-01  0.71617516722E-02 -0.31867338139E-01  0.35925802562E-01  0.51100000000E-03 0. -1.
         11    1    4    4    0    0  0.16941218398E-01  0.44528960667E-01 -0.83829860051E-01  0.96423751099E-01  0.51100000000E-03 0.  1.
</event>
<event>
 8    1  0.1131376E+005  0.1043930E+01  0.7957747E-01            NaN
         13   -1    0    0    0    0  0.00000000000E+00  0.00000000000E+00  0.74505805969E-08  0.10566000000E+00  0.10566000000E+00 0. -1.
     999900   -1    0    0    0    0 -0.00000000000E+00 -0.00000000000E+00 -0.74505805969E-08  0.93827000000E+00  0.93827000000E+00 0.  1.
     999902    2    1    2    0    0  0.79386893462E-02  0.12809702363E-01  0.20866003941E-01  0.10181908978E+01  0.10178655132E+01 0.  0.
     999903    2    3    3    0    0  0.66332384080E-01 -0.73087024721E-01  0.82450779388E-01  0.12994501071E+00  0.18597753270E-01 0.  0.
         14    1    1    2    0    0 -0.79386893462E-02 -0.12809702363E-01 -0.20866003941E-01  0.25739102231E-01  0.00000000000E+00 0. -1.
     999901    1    3    3    0    0 -0.58393694734E-01  0.85896727084E-01 -0.61584775447E-01  0.88824588706E+00  0.88000000000E+00 0. -1.
        -11    1    4    4    0    0  0.13428215296E-01 -0.20838871919E-01  0.12135610937E-01  0.27606334829E-01  0.51100000000E-03 0. -1.
         11    1    4    4    0    0  0.52904168785E-01 -0.52248152802E-01  0.70315168451E-01  0.10233867588E+00  0.51100000000E-03 0.  1.
</event>
<event>
 8    1  0.1131376E+005  0.1043930E+01  0.7957747E-01            NaN
         13   -1    0    0    0    0  0.00000000000E+00  0.00000000000E+00  0.74505805969E-08  0.10566000000E+00  0.10566000000E+00 0.  1.
     999900   -1    0    0    0    0 -0.00000000000E+00 -0.00000000000E+00 -0.74505805969E-08  0.93827000000E+00  0.93827000000E+00 0.  1.
     999902    2    1    2    0    0  0.21204042046E-02 -0.19775952475E-01 -0.13968932448E-01  0.10196253609E+01  0.10193356469E+01 0.  0.
     999903    2    3    3    0    0 -0.11423972909E+00 -0.38225771432E-01 -0.47880175299E-01  0.13112659955E+00  0.19742052076E-01 0.  0.
         14    1    1    2    0    0 -0.21204042046E-02  0.19775952475E-01  0.13968932448E-01  0.24304639146E-01  0.00000000000E+00 0. -1.
     999901    1    3    3    0    0  0.11636013329E+00  0.18449818957E-01  0.33911242851E-01  0.88849876130E+00  0.88000000000E+00 0.  1.
        -11    1    4    4    0    0 -0.38685835436E-01 -0.22826008869E-01 -0.19299031033E-01  0.48891044825E-01  0.51100000000E-03 0. -1.
         11    1    4    4    0    0 -0.75553893652E-01 -0.15399762563E-01 -0.28581144266E-01  0.82235554729E-01  0.51100000000E-03 0.  1.
</event>
<event>
 8    1  0.1131376E+005  0.1043930E+01  0.7957747E-01            NaN
         13   -1    0    0    0    0  0.00000000000E+00  0.00000000000E+00  0.74505805969E-08  0.10566000000E+00  0.10566000000E+00 0.  1.
     999900   -1    0    0    0    0 -0.00000000000E+00 -0.00000000000E+00 -0.74505805969E-08  0.93827000000E+00  0.93827000000E+00 0.  1.
     999902    2    1    2    0    0  0.22238502179E-01 -0.33435735972E-02 -0.69402807264E-02  0.10203949631E+01  0.10201235135E+01 0.  0.
     999903    2    3    3    0    0  0.31693674613E-01 -0.96786330577E-01 -0.81914899933E-01  0.13222710589E+00  0.20046792880E-01 0.  0.
         14    1    1    2    0    0 -0.22238502179E-01  0.33435735972E-02  0.69402807264E-02  0.23535036862E-01  0.00000000000E+00 0. -1.
     999901    1    3    3    0    0 -0.94551724341E-02  0.93442756980E-01  0.74974619207E-01  0.88816785724E+00  0.88000000000E+00 0. -1.
        -11    1    4    4    0    0  0.26487894098E-01 -0.50610541177E-01 -0.41059713836E-01  0.70350526887E-01  0.51100000000E-03 0. -1.
         11    1    4    4    0    0  0.52057805151E-02 -0.46175789400E-01 -0.40855186097E-01  0.61876579006E-01  0.51100000000E-03 0.  1.
</event>
<event>
 8    1  0.1131376E+005  0.1043930E+01  0.7957747E-01            NaN
         13   -1    0    0    0    0  0.00000000000E+00  0.00000000000E+00  0.74505805969E-08  0.10566000000E+00  0.10566000000E+00 0.  1.
     999900   -1    0    0    0    0 -0.00000000000E+00 -0.00000000000E+00 -0.74505805969E-08  0.93827000000E+00  0.93827000000E+00 0. -1.
     999902    2    1    2    0    0  0.18501776399E-01  0.42388790024E-02  0.12774268142E-01  0.10210506261E+01  0.10207942571E+01 0.  0.
     999903    2    3    3    0    0  0.88491244489E-02 -0.12607272142E+00 -0.25970171137E-01  0.13055895375E+00  0.19963780314E-01 0.  0.
         14    1    1    2    0    0 -0.18501776399E-01 -0.42388790024E-02 -0.12774268142E-01  0.22879373935E-01  0.00000000000E+00 0.  1.
     999901    1    3    3    0    0  0.96526519499E-02  0.13031160042E+00  0.38744439279E-01  0.89049167232E+00  0.88000000000E+00 0.  1.
        -11    1    4    4    0    0  0.14993980138E-01 -0.73607580389E-01 -0.15670626839E-01  0.76738028367E-01  0.51100000000E-03 0.  1.
         11    1    4    4    0    0 -0.61448556892E-02 -0.52465141031E-01 -0.10299544298E-01  0.53820925379E-01  0.51100000000E-03 0. -1.
</event>
<event>
 8    1  0.1131376E+005  0.1043930E+01  0.7957747E-01            NaN
         13   -1    0    0    0    0  0.00000000000E+00  0.00000000000E+00  0.74505805969E-08  0.10566000000E+00  0.10566000000E+00 0. -1.
     999900   -1    0    0    0    0 -0.00000000000E+00 -0.00000000000E+00 -0.74505805969E-08  0.93827000000E+00  0.93827000000E+00 0.  1.
     999902    2    1    2    0    0 -0.35761165230E-02  0.26459373012E-02 -0.25944128079E-01  0.10176072461E+01  0.10172667398E+01 0.  0.
     999903    2    3    3    0    0 -0.95816284792E-01 -0.28688077348E-01  0.74524952106E-01  0.12654938868E+00  0.21377864136E-01 0.  0.
         14    1    1    2    0    0  0.35761165230E-02 -0.26459373012E-02  0.25944128079E-01  0.26322753947E-01  0.00000000000E+00 0. -1.
     999901    1    3    3    0    0  0.92240168269E-01  0.31334014649E-01 -0.10046908018E+00  0.89105785737E+00  0.88000000000E+00 0.  1.
        -11    1    4    4    0    0 -0.53190752026E-01 -0.57713478536E-02  0.33713350084E-01  0.63240933359E-01  0.51100000000E-03 0.  1.
         11    1    4    4    0    0 -0.42625532766E-01 -0.22916729495E-01  0.40811602022E-01  0.63308455319E-01  0.51100000000E-03 0. -1.
</event>
<event>
 8    1  0.1131376E+005  0.1043930E+01  0.7957747E-01            NaN
         13   -1    0    0    0    0  0.00000000000E+00  0.00000000000E+00  0.74505805969E-08  0.10566000000E+00  0.10566000000E+00 0. -1.
     999900   -1    0    0    0    0 -0.00000000000E+00 -0.00000000000E+00 -0.74505805969E-08  0.93827000000E+00  0.93827000000E+00 0.  1.
     999902    2    1    2    0    0 -0.18327400796E-01  0.54998498776E-03  0.14911825719E-01  0.10202961546E+01  0.10200223941E+01 0.  0.
     999903    2    3    3    0    0  0.55680964263E-01  0.65713872858E-01  0.96676810637E-01  0.13102168449E+00  0.20039791026E-01 0.  0.
         14    1    1    2    0    0  0.18327400796E-01 -0.54998498776E-03 -0.14911825719E-01  0.23633845428E-01  0.00000000000E+00 0.  1.
     999901    1    3    3    0    0 -0.74008365059E-01 -0.65163887870E-01 -0.81764984918E-01  0.88927447008E+00  0.88000000000E+00 0.  1.
        -11    1    4    4    0    0  0.36457942442E-01  0.47679608094E-01  0.79267100361E-01  0.99428672503E-01  0.51100000000E-03 0. -1.
         11    1    4    4    0    0  0.19223021820E-01  0.18034264764E-01  0.17409710276E-01  0.31593011986E-01  0.51100000000E-03 0.  1.
</event>
<event>
 8    1  0.1131376E+005  0.1043930E+01  0.7957747E-01            NaN
         13   -1    0    0    0    0  0.00000000000E+00  0.00000000000E+00  0.74505805969E-08  0.10566000000E+00  0.10566000000E+00 0.  1.
     999900   -1    0    0    0    0 -0.00000000000E+00 -0.00000000000E+00 -0.74505805969E-08  0.93827000000E+00  0.93827000000E+00 0. -1.
     999902    2    1    2    0    0  0.26062725409E-01  0.47144410880E-02 -0.11894151535E-01  0.10148961843E+01  0.10144808044E+01 0.  0.
     999903    2    3    3    0    0 -0.12075035342E-01  0.67566928879E-01 -0.10493230417E+00  0.12694290750E+00  0.19814564075E-01 0.  0.
         14    1    1    2    0    0 -0.26062725409E-01 -0.47144410880E-02  0.11894151535E-01  0.29033815651E-01  0.00000000000E+00 0.  1.
     999901    1    3    3    0    0  0.38137760750E-01 -0.62852487791E-01  0.93038152639E-01  0.88795327685E+00  0.88000000000E+00 0. -1.
        -11    1    4    4    0    0 -0.94369024651E-02  0.35563579518E-01 -0.72477220913E-01  0.81283651422E-01  0.51100000000E-03 0. -1.
         11    1    4    4    0    0 -0.26381328765E-02  0.32003349360E-01 -0.32455083261E-01  0.45659256080E-01  0.51100000000E-03 0.  1.
</event>
<event>
 8    1  0.1131376E+005  0.1043930E+01  0.7957747E-01            NaN
         13   -1    0    0    0    0  0.00000000000E+00  0.00000000000E+00  0.74505805969E-08  0.10566000000E+00  0.10566000000E+00 0.  1.
     999900   -1    0    0    0    0 -0.00000000000E+00 -0.00000000000E+00 -0.74505805969E-08  0.93827000000E+00  0.93827000000E+00 0. -1.
     999902    2    1    2    0    0  0.21306948039E-01  0.32565886451E-02  0.94333358105E-02  0.10204017355E+01  0.10201304439E+01 0.  0.
     999903    2    3    3    0    0 -0.11791382404E+00 -0.25783360031E-01 -0.36943229496E-01  0.12777833913E+00  0.19850697491E-01 0.  0.
         14    1    1    2    0    0 -0.21306948039E-01 -0.32565886451E-02 -0.94333358105E-02  0.23528264467E-01  0.00000000000E+00 0.  1.
     999901    1    3    3    0    0  0.13922077208E+00  0.29039948676E-01  0.46376565307E-01  0.89262339640E+00  0.88000000000E+00 0.  1.
        -11    1    4    4    0    0 -0.40421923984E-01 -0.16284184005E-01 -0.69039114480E-02  0.44125182170E-01  0.51100000000E-03 0. -1.
         11    1    4    4    0    0 -0.77491900056E-01 -0.94991760259E-02 -0.30039318048E-01  0.83653156959E-01  0.51100000000E-03 0.  1.
</event>
<event>
 8    1  0.1131376E+005  0.1043930E+01  0.7957747E-01            NaN
         13   -1    0    0    0    0  0.00000000000E+00  0.00000000000E+00  0.74505805969E-08  0.10566000000E+00  0.10566000000E+00 0.  1.
     999900   -1    0    0    0    0 -0.00000000000E+00 -0.00000000000E+00 -0.74505805969E-08  0.93827000000E+00  0.93827000000E+00 0. -1.
     999902    2    1    2    0    0 -0.14295798188E-01  0.67574792086E-02 -0.17949438624E-01  0.10200089691E+01  0.10197284351E+01 0.  0.
     999903    2    3    3    0    0  0.10532426954E-01 -0.10371543890E+00 -0.76541056373E-01  0.13082187741E+00  0.19697868285E-01 0.  0.
         14    1    1    2    0    0  0.14295798188E-01 -0.67574792086E-02  0.17949438624E-01  0.23921030872E-01  0.00000000000E+00 0.  1.
     999901    1    3    3    0    0 -0.24828225142E-01  0.11047291811E+00  0.58591617749E-01  0.88918709171E+00  0.88000000000E+00 0.  1.
        -11    1    4    4    0    0  0.77307868662E-02 -0.20496152531E-01 -0.93393639708E-02  0.23818945706E-01  0.51100000000E-03 0. -1.
         11    1    4    4    0    0  0.28016400881E-02 -0.83219286372E-01 -0.67201692402E-01  0.10700293171E+00  0.51100000000E-03 0.  1.
</event>
<event>
 8    1  0.1131376E+005  0.1043930E+01  0.7957747E-01            NaN
         13   -1    0    0    0    0  0.00000000000E+00  0.00000000000E+00  0.74505805969E-08  0.10566000000E+00  0.10566000000E+00 0.  1.
     999900   -1    0    0    0    0 -0.00000000000E+00 -0.00000000000E+00 -0.74505805969E-08  0.93827000000E+00  0.93827000000E+00 0.  1.
     999902    2    1    2    0    0  0.62201487459E-02  0.19671505626E-01  0.11907877972E-01  0.10201086662E+01  0.10198304933E+01 0.  0.
     999903    2    3    3    0    0  0.73740722187E-01  0.51878618239E-02 -0.10469384536E+00  0.12973528072E+00  0.20145316767E-01 0.  0.
         14    1    1    2    0    0 -0.62201487459E-02 -0.19671505626E-01 -0.11907877972E-01  0.23821333754E-01  0.00000000000E+00 0.  1.
     999901    1    3    3    0    0 -0.67520573441E-01  0.14483643802E-01  0.11660172333E+00  0.89037338553E+00  0.88000000000E+00 0. -1.
        -11    1    4    4    0    0  0.23341589007E-01  0.78246338485E-02 -0.47160781368E-01  0.53202021508E-01  0.51100000000E-03 0.  1.
         11    1    4    4    0    0  0.50399133180E-01 -0.26367720246E-02 -0.57533063990E-01  0.76533259209E-01  0.51100000000E-03 0. -1.
</event>
<event>
 8    1  0.1131376E+005  0.1043930E+01  0.7957747E-01            NaN
         13   -1    0    0    0    0  0.00000000000E+00  0.00000000000E+00  0.74505805969E-08  0.10566000000E+00  0.10566000000E+00 0.  1.
     999900   -1    0    0    0    0 -0.00000000000E+00 -0.00000000000E+00 -0.74505805969E-08  0.93827000000E+00  0.93827000000E+00 0. -1.
     999902    2    1    2    0    0  0.18525071114E-01 -0.18769641127E-02 -0.15021984928E-01  0.10200059267E+01  0.10197253204E+01 0.  0.
     999903    2    3    3    0    0  0.10065486933E+00 -0.26630290359E-01 -0.80882371004E-01  0.13338559000E+00  0.20228262311E-01 0.  0.
         14    1    1    2    0    0 -0.18525071114E-01  0.18769641127E-02  0.15021984928E-01  0.23924073341E-01  0.00000000000E+00 0.  1.
     999901    1    3    3    0    0 -0.82129798220E-01  0.24753326247E-01  0.65860386076E-01  0.88662033665E+00  0.88000000000E+00 0.  1.
        -11    1    4    4    0    0  0.31318118864E-01 -0.14503884885E-01 -0.36155140493E-01  0.49986423667E-01  0.51100000000E-03 0.  1.
         11    1    4    4    0    0  0.69336750471E-01 -0.12126405474E-01 -0.44727230511E-01  0.83399166337E-01  0.51100000000E-03 0. -1.
</event>
<event>
 8    1  0.1131376E+005  0.1043930E+01  0.7957747E-01            NaN
         13   -1    0    0    0    0  0.00000000000E+00  0.00000000000E+00  0.74505805969E-08  0.10566000000E+00  0.10566000000E+00 0. -1.
     999900   -1    0    0    0    0 -0.00000000000E+00 -0.00000000000E+00 -0.74505805969E-08  0.93827000000E+00  0.93827000000E+00 0. -1.
     999902    2    1    2    0    0 -0.44449115110E-03 -0.22566317588E-01  0.66011921586E-02  0.10204137928E+01  0.10201427825E+01 0.  0.
     999903    2    3    3    0    0  0.10637837959E-01  0.65106767267E-01  0.11012452153E+00  0.12994960626E+00  0.20185023820E-01 0.  0.
         14    1    1    2    0    0  0.44449115110E-03  0.22566317588E-01 -0.66011921586E-02  0.23516207173E-01  0.00000000000E+00 0.  1.
     999901    1    3    3    0    0 -0.11082329110E-01 -0.87673084855E-01 -0.10352332937E+00  0.89046418656E+00  0.88000000000E+00 0. -1.
        -11    1    4    4    0    0 -0.32641535440E-02  0.22117326359E-01  0.24757099571E-01  0.33361743417E-01  0.51100000000E-03 0. -1.
         11    1    4    4    0    0  0.13901991503E-01  0.42989440908E-01  0.85367421955E-01  0.96587862848E-01  0.51100000000E-03 0.  1.
</event>
<event>
 8    1  0.1131376E+005  0.1043930E+01  0.7957747E-01            NaN
         13   -1    0    0    0    0  0.00000000000E+00  0.00000000000E+00  0.74505805969E-08  0.10566000000E+00  0.10566000000E+00 0.  1.
     999900   -1    0    0    0    0 -0.00000000000E+00 -0.00000000000E+00 -0.74505805969E-08  0.93827000000E+00  0.93827000000E+00 0.  1.
     999902    2    1    2    0    0 -0.13933865100E-01 -0.18376561761E-02 -0.21928186397E-01  0.10178843682E+01  0.10175510857E+01 0.  0.
     999903    2    3    3    0    0 -0.11223536955E+00 -0.12949277897E-01 -0.63944646155E-01  0.13134500822E+00  0.19953231240E-01 0.  0.
         14    1    1    2    0    0  0.13933865100E-01  0.18376561761E-02  0.21928186397E-01  0.26045631793E-01  0.00000000000E+00 0.  1.
     999901    1    3    3    0    0  0.98301504449E-01  0.11111621721E-01  0.42016459759E-01  0.88653935999E+00  0.88000000000E+00 0. -1.
        -11    1    4    4    0    0 -0.83620067180E-01 -0.91349101480E-02 -0.57110921502E-01  0.10167438564E+00  0.51100000000E-03 0. -1.
         11    1    4    4    0    0 -0.28615302368E-01 -0.38143677493E-02 -0.68337246534E-02  0.29670622585E-01  0.51100000000E-03 0.  1.
</event>
<event>
 8    1  0.1131376E+005  0.1043930E+01  0.7957747E-01            NaN
         13   -1    0    0    0    0  0.00000000000E+00  0.00000000000E+00  0.74505805969E-08  0.10566000000E+00  0.10566000000E+00 0. -1.
     999900   -1    0    0    0    0 -0.00000000000E+00 -0.00000000000E+00 -0.74505805969E-08  0.93827000000E+00  0.93827000000E+00 0.  1.
     999902    2    1    2    0    0  0.46898575814E-02 -0.11247563726E-01 -0.20901903794E-01  0.10197351238E+01  0.10194480519E+01 0.  0.
     999903    2    3    3    0    0 -0.11100853477E+00 -0.40049534293E-01  0.47811776963E-01  0.12904031552E+00  0.20942230667E-01 0.  0.
         14    1    1    2    0    0 -0.46898575814E-02  0.11247563726E-01  0.20901903794E-01  0.24194876236E-01  0.00000000000E+00 0. -1.
     999901    1    3    3    0    0  0.11569839235E+00  0.28801970567E-01 -0.68713680757E-01  0.89069480824E+00  0.88000000000E+00 0. -1.
        -11    1    4    4    0    0 -0.31792902719E-01 -0.20361683181E-01  0.98724314235E-02  0.39027078144E-01  0.51100000000E-03 0.  1.
         11    1    4    4    0    0 -0.79215632051E-01 -0.19687851112E-01  0.37939345540E-01  0.90013237380E-01  0.51100000000E-03 0. -1.
</event>
<event>
 8    1  0.1131376E+005  0.1043930E+01  0.7957747E-01            NaN
         13   -1    0    0    0    0  0.00000000000E+00  0.00000000000E+00  0.74505805969E-08  0.10566000000E+00  0.10566000000E+00 0.  1.
     999900   -1    0    0    0    0 -0.00000000000E+00 -0.00000000000E+00 -0.74505805969E-08  0.93827000000E+00  0.93827000000E+00 0. -1.
     999902    2    1    2    0    0  0.40161351757E-02 -0.24986933776E-01  0.38629176075E-02  0.10183292513E+01  0.10180073996E+01 0.  0.
     999903    2    3    3    0    0  0.13948402394E-01 -0.12565897765E+00  0.32481088872E-01  0.13207166455E+00  0.20079015164E-01 0.  0.
         14    1    1    2    0    0 -0.40161351757E-02  0.24986933776E-01 -0.38629176075E-02  0.25600748694E-01  0.00000000000E+00 0.  1.
     999901    1    3    3    0    0 -0.99322672186E-02  0.10067204388E+00 -0.28618171265E-01  0.88625758675E+00  0.88000000000E+00 0. -1.
        -11    1    4    4    0    0 -0.97187026118E-03 -0.76205049865E-01  0.16277779434E-01  0.77931902204E-01  0.51100000000E-03 0. -1.
         11    1    4    4    0    0  0.14920272655E-01 -0.49453927785E-01  0.16203309439E-01  0.54139762349E-01  0.51100000000E-03 0.  1.
</event>
<event>
 7    1  0.1131376E+005  0.1043930E+01  0.7957747E-01            NaN
         13   -1    0    0    0    0  0.00000000000E+00  0.00000000000E+00  0.74505805969E-08  0.10566000000E+00  0.10566000000E+00 0. -1.
     999900   -1    0    0    0    0 -0.00000000000E+00 -0.00000000000E+00 -0.74505805969E-08  0.93827000000E+00  0.93827000000E+00 0.  1.
     999903    2    1    2    0    0  0.22782398968E-01  0.61311602201E-01 -0.40654344283E-01  0.79339337790E-01  0.19073661020E-01 0.  0.
         14    1    1    2    0    0  0.49218271940E-01 -0.60047000823E-01  0.24805197442E-01  0.81506922532E-01  0.00000000000E+00 0. -1.
     999901    1    1    2    0    0 -0.72000670908E-01 -0.12646013784E-02  0.15849146840E-01  0.88308373968E+00  0.88000000000E+00 0. -1.
        -11    1    3    3    0    0 -0.11559331150E-02  0.17595362800E-01 -0.60031850651E-02  0.18634170906E-01  0.51100000000E-03 0. -1.
         11    1    3    3    0    0  0.23938332083E-01  0.43716239401E-01 -0.34651159218E-01  0.60705166884E-01  0.51100000000E-03 0.  1.
</event>
<event>
 8    1  0.1131376E+005  0.1043930E+01  0.7957747E-01            NaN
         13   -1    0    0    0    0  0.00000000000E+00  0.00000000000E+00  0.74505805969E-08  0.10566000000E+00  0.10566000000E+00 0. -1.
     999900   -1    0    0    0    0 -0.00000000000E+00 -0.00000000000E+00 -0.74505805969E-08  0.93827000000E+00  0.93827000000E+00 0.  1.
     999902    2    1    2    0    0 -0.24748333731E-01  0.32594979824E-02 -0.14414360356E-02  0.10189263585E+01  0.10186195276E+01 0.  0.
     999903    2    3    3    0    0  0.57693374360E-01 -0.10096117766E+00  0.48223250169E-01  0.12756494724E+00  0.20631264324E-01 0.  0.
         14    1    1    2    0    0  0.24748333731E-01 -0.32594979824E-02  0.14414360356E-02  0.25003641483E-01  0.00000000000E+00 0.  1.
     999901    1    3    3    0    0 -0.82441708091E-01  0.10422067564E+00 -0.49664686205E-01  0.89136141128E+00  0.88000000000E+00 0.  1.
        -11    1    4    4    0    0  0.26133980633E-01 -0.63133295331E-01  0.33782831680E-01  0.76225578124E-01  0.51100000000E-03 0. -1.
         11    1    4    4    0    0  0.31559393727E-01 -0.37827882327E-01  0.14440418489E-01  0.51339369113E-01  0.51100000000E-03 0.  1.
</event>
<event>
 8    1  0.1131376E+005  0.1043930E+01  0.7957747E-01            NaN
         13   -1    0    0    0    0  0.00000000000E+00  0.00000000000E+00  0.74505805969E-08  0.10566000000E+00  0.10566000000E+00 0. -1.
     999900   -1    0    0    0    0 -0.00000000000E+00 -0.00000000000E+00 -0.74505805969E-08  0.93827000000E+00  0.93827000000E+00 0. -1.
     999902    2    1    2    0    0 -0.78053440492E-02  0.93254323085E-02  0.21614457695E-01  0.10191293576E+01  0.10188275495E+01 0.  0.
     999903    2    3    3    0    0  0.93200649853E-01  0.86290299371E-01 -0.13991955429E-01  0.12930149881E+00  0.19766787291E-01 0.  0.
         14    1    1    2    0    0  0.78053440492E-02 -0.93254323085E-02 -0.21614457695E-01  0.24800642429E-01  0.00000000000E+00 0.  1.
     999901    1    3    3    0    0 -0.10100599390E+00 -0.76964867063E-01  0.35606413124E-01  0.88982785876E+00  0.88000000000E+00 0.  1.
        -11    1    4    4    0    0  0.63420044700E-01  0.49778772742E-01 -0.15754225931E-01  0.82149163362E-01  0.51100000000E-03 0. -1.
         11    1    4    4    0    0  0.29780605153E-01  0.36511526629E-01  0.17622705020E-02  0.47152335450E-01  0.51100000000E-03 0.  1.
</event>
<event>
 8    1  0.1131376E+005  0.1043930E+01  0.7957747E-01            NaN
         13   -1    0    0    0    0  0.00000000000E+00  0.00000000000E+00  0.74505805969E-08  0.10566000000E+00  0.10566000000E+00 0.  1.
     999900   -1    0    0    0    0 -0.00000000000E+00 -0.00000000000E+00 -0.74505805969E-08  0.93827000000E+00  0.93827000000E+00 0. -1.
     999902    2    1    2    0    0 -0.58259214835E-02 -0.13727846650E-01  0.18232793926E-01  0.10203751723E+01  0.10201032606E+01 0.  0.
     999903    2    3    3    0    0 -0.86834963709E-01  0.90617851966E-01  0.30962536690E-01  0.13042431066E+00  0.17318086366E-01 0.  0.
         14    1    1    2    0    0  0.58259214835E-02  0.13727846650E-01 -0.18232793926E-01  0.23554827724E-01  0.00000000000E+00 0. -1.
     999901    1    3    3    0    0  0.81009042226E-01 -0.10434569862E+00 -0.12729742764E-01  0.88995086162E+00  0.88000000000E+00 0. -1.
        -11    1    4    4    0    0 -0.32623772543E-01  0.25419464131E-01  0.15854038336E-01  0.44295274513E-01  0.51100000000E-03 0. -1.
         11    1    4    4    0    0 -0.54211191167E-01  0.65198387835E-01  0.15108498354E-01  0.86129036146E-01  0.51100000000E-03 0.  1.
</event>
<event>
 8    1  0.1131376E+005  0.1043930E+01  0.7957747E-01            NaN
         13   -1    0    0    0    0  0.00000000000E+00  0.00000000000E+00  0.74505805969E-08  0.10566000000E+00  0.10566000000E+00 0.  1.
     999900   -1    0    0    0    0 -0.00000000000E+00 -0.00000000000E+00 -0.74505805969E-08  0.93827000000E+00  0.93827000000E+00 0. -1.
     999902    2    1    2    0    0  0.12647700284E-01 -0.10148504729E-01 -0.17331633813E-01  0.10201951732E+01  0.10199190407E+01 0.  0.
     999903    2    3    3    0    0  0.79747730576E-02  0.18701751482E-01  0.12509660871E+00  0.12826469512E+00  0.19731142626E-01 0.  0.
         14    1    1    2    0    0 -0.12647700284E-01  0.10148504729E-01  0.17331633813E-01  0.23734826760E-01  0.00000000000E+00 0.  1.
     999901    1    3    3    0    0  0.46729272266E-02 -0.28850256211E-01 -0.14242824252E+00  0.89193047812E+00  0.88000000000E+00 0. -1.
        -11    1    4    4    0    0  0.26171184794E-02  0.21089883359E-01  0.79638342937E-01  0.82426690313E-01  0.51100000000E-03 0.  1.
         11    1    4    4    0    0  0.53576545782E-02 -0.23881318775E-02  0.45458265774E-01  0.45838004806E-01  0.51100000000E-03 0. -1.
</event>
<event>
 7    1  0.1131376E+005  0.1043930E+01  0.7957747E-01            NaN
         13   -1    0    0    0    0  0.00000000000E+00  0.00000000000E+00  0.74505805969E-08  0.10566000000E+00  0.10566000000E+00 0. -1.
     999900   -1    0    0    0    0 -0.00000000000E+00 -0.00000000000E+00 -0.74505805969E-08  0.93827000000E+00  0.93827000000E+00 0. -1.
     999903    2    1    2    0    0  0.90937437327E-01  0.40381789641E-01 -0.47949860403E-01  0.11200830320E+00  0.18610868606E-01 0.  0.
         14    1    1    2    0    0  0.19366155105E-01  0.34532176266E-01  0.11083974830E-01  0.41114154002E-01  0.00000000000E+00 0. -1.
     999901    1    1    2    0    0 -0.11030359243E+00 -0.74913965907E-01  0.36865885573E-01  0.89080754280E+00  0.88000000000E+00 0.  1.
        -11    1    3    3    0    0  0.20277326004E-01  0.10474162903E-02 -0.83309825531E-02  0.21952982076E-01  0.51100000000E-03 0.  1.
         11    1    3    3    0    0  0.70660111324E-01  0.39334373351E-01 -0.39618877850E-01  0.90055321121E-01  0.51100000000E-03 0. -1.
</event>
<event>
 8    1  0.1131376E+005  0.1043930E+01  0.7957747E-01            NaN
         13   -1    0    0    0    0  0.00000000000E+00  0.00000000000E+00  0.74505805969E-08  0.10566000000E+00  0.10566000000E+00 0. -1.
     999900   -1    0    0    0    0 -0.00000000000E+00 -0.00000000000E+00 -0.74505805969E-08  0.93827000000E+00  0.93827000000E+00 0. -1.
     999902    2    1    2    0    0  0.20629346423E-01 -0.46186247790E-02  0.15567566864E-01  0.10176764142E+01  0.10173377184E+01 0.  0.
     999903    2    3    3    0    0 -0.55024058206E-01  0.98811995275E-01 -0.51539274289E-01  0.12586664810E+00  0.19866024234E-01 0.  0.
         14    1    1    2    0    0 -0.20629346423E-01  0.46186247790E-02 -0.15567566864E-01  0.26253585788E-01  0.00000000000E+00 0.  1.
     999901    1    3    3    0    0  0.75653404629E-01 -0.10343062005E+00  0.67106841153E-01  0.89180976611E+00  0.88000000000E+00 0.  1.
        -11    1    4    4    0    0 -0.30914734647E-01  0.60739720102E-01 -0.20599355412E-01  0.71201327100E-01  0.51100000000E-03 0.  1.
         11    1    4    4    0    0 -0.24109323559E-01  0.38072275173E-01 -0.30939918877E-01  0.54665321003E-01  0.51100000000E-03 0. -1.
</event>
<event>
 8    1  0.1131376E+005  0.1043930E+01  0.7957747E-01            NaN
         13   -1    0    0    0    0  0.00000000000E+00  0.00000000000E+00  0.74505805969E-08  0.10566000000E+00  0.10566000000E+00 0.  1.
     999900   -1    0    0    0    0 -0.00000000000E+00 -0.00000000000E+00 -0.74505805969E-08  0.93827000000E+00  0.93827000000E+00 0.  1.
     999902    2    1    2    0    0 -0.76910919275E-02  0.73730099832E-02 -0.19040556321E-01  0.10221112705E+01  0.10218783648E+01 0.  0.
     999903    2    3    3    0    0 -0.14896649799E-01 -0.10157548249E+00  0.77397096599E-01  0.13013486109E+00  0.20131634091E-01 0.  0.
         14    1    1    2    0    0  0.76910919275E-02 -0.73730099832E-02  0.19040556321E-01  0.21818729483E-01  0.00000000000E+00 0.  1.
     999901    1    3    3    0    0  0.72055578710E-02  0.10894849247E+00 -0.96437652920E-01  0.89197640943E+00  0.88000000000E+00 0.  1.
        -11    1    4    4    0    0 -0.16447728024E-01 -0.46159617807E-01  0.40047383902E-01  0.63287377506E-01  0.51100000000E-03 0. -1.
         11    1    4    4    0    0  0.15510782252E-02 -0.55415864679E-01  0.37349712697E-01  0.66847483582E-01  0.51100000000E-03 0.  1.
</event>
<event>
 8    1  0.1131376E+005  0.1043930E+01  0.7957747E-01            NaN
         13   -1    0    0    0    0  0.00000000000E+00  0.00000000000E+00  0.74505805969E-08  0.10566000000E+00  0.10566000000E+00 0. -1.
     999900   -1    0    0    0    0 -0.00000000000E+00 -0.00000000000E+00 -0.74505805969E-08  0.93827000000E+00  0.93827000000E+00 0.  1.
     999902    2    1    2    0    0 -0.53312746432E-02  0.22956846551E-01 -0.71886936754E-02  0.10192902636E+01  0.10189924067E+01 0.  0.
     999903    2    3    3    0    0 -0.17484291615E-01 -0.11654625523E+00 -0.44118337835E-01  0.12745361385E+00  0.20230321046E-01 0.  0.
         14    1    1    2    0    0  0.53312746432E-02 -0.22956846551E-01  0.71886936754E-02  0.24639736396E-01  0.00000000000E+00 0.  1.
     999901    1    3    3    0    0  0.12153016972E-01  0.13950310178E+00  0.36929644159E-01  0.89183664975E+00  0.88000000000E+00 0.  1.
        -11    1    4    4    0    0 -0.18205583996E-01 -0.82136482771E-01 -0.38711594766E-01  0.92610440993E-01  0.51100000000E-03 0. -1.
         11    1    4    4    0    0  0.72129238160E-03 -0.34409772455E-01 -0.54067430689E-02  0.34843172857E-01  0.51100000000E-03 0.  1.
</event>
<event>
 8    1  0.1131376E+005  0.1043930E+01  0.7957747E-01            NaN
         13   -1    0    0    0    0  0.00000000000E+00  0.00000000000E+00  0.74505805969E-08  0.10566000000E+00  0.10566000000E+00 0.  1.
     999900   -1    0    0    0    0 -0.00000000000E+00 -0.00000000000E+00 -0.74505805969E-08  0.93827000000E+00  0.93827000000E+00 0.  1.
     999902    2    1    2    0    0  0.55178170949E-02  0.20164872913E-01  0.80020074326E-02  0.10215447252E+01  0.10212994297E+01 0.  0.
     999903    2    3    3    0    0  0.57587654080E-02 -0.98286167351E-01  0.83173208686E-01  0.13043226513E+00  0.20036443570E-01 0.  0.
         14    1    1    2    0    0 -0.55178170949E-02 -0.20164872913E-01 -0.80020074326E-02  0.22385274804E-01  0.00000000000E+00 0. -1.
     999901    1    3    3    0    0 -0.24094831307E-03  0.11845104026E+00 -0.75171201253E-01  0.89111246007E+00  0.88000000000E+00 0.  1.
        -11    1    4    4    0    0  0.53024855094E-02 -0.61387263634E-02  0.91036647589E-02  0.12204021754E-01  0.51100000000E-03 0.  1.
         11    1    4    4    0    0  0.45627989859E-03 -0.92147440988E-01  0.74069543927E-01  0.11822824337E+00  0.51100000000E-03 0. -1.
</event>
<event>
 8    1  0.1131376E+005  0.1043930E+01  0.7957747E-01            NaN
         13   -1    0    0    0    0  0.00000000000E+00  0.00000000000E+00  0.74505805969E-08  0.10566000000E+00  0.10566000000E+00 0.  1.
     999900   -1    0    0    0    0 -0.00000000000E+00 -0.00000000000E+00 -0.74505805969E-08  0.93827000000E+00  0.93827000000E+00 0.  1.
     999902    2    1    2    0    0  0.22844851854E-01 -0.15046743838E-01  0.14379126180E-02  0.10165373121E+01  0.10161681690E+01 0.  0.
     999903    2    3    3    0    0  0.84423033089E-02  0.10880289386E+00 -0.59118887249E-01  0.12568755365E+00  0.19823625166E-01 0.  0.
         14    1    1    2    0    0 -0.22844851854E-01  0.15046743838E-01 -0.14379126180E-02  0.27392687876E-01  0.00000000000E+00 0.  1.
     999901    1    3    3    0    0  0.14402548545E-01 -0.12384963770E+00  0.60556799867E-01  0.89084975847E+00  0.88000000000E+00 0.  1.
        -11    1    4    4    0    0  0.85970098096E-02  0.10598696813E+00 -0.52745066283E-01  0.11869898537E+00  0.51100000000E-03 0. -1.
         11    1    4    4    0    0 -0.15470650073E-03  0.28159257366E-02 -0.63738209659E-02  0.69885682769E-02  0.51100000000E-03 0.  1.
</event>
<event>
 8    1  0.1131376E+005  0.1043930E+01  0.7957747E-01            NaN
         13   -1    0    0    0    0  0.00000000000E+00  0.00000000000E+00  0.74505805969E-08  0.10566000000E+00  0.10566000000E+00 0. -1.
     999900   -1    0    0    0    0 -0.00000000000E+00 -0.00000000000E+00 -0.74505805969E-08  0.93827000000E+00  0.93827000000E+00 0.  1.
     999902    2    1    2    0    0 -0.69777082725E-02 -0.19400230465E-01 -0.12645194845E-01  0.10197440887E+01  0.10194572321E+01 0.  0.
     999903    2    3    3    0    0 -0.15198423037E-02  0.50986974781E-01 -0.11866175129E+00  0.13057388155E+00  0.19155829543E-01 0.  0.
         14    1    1    2    0    0  0.69777082725E-02  0.19400230465E-01  0.12645194845E-01  0.24185911343E-01  0.00000000000E+00 0. -1.
     999901    1    3    3    0    0 -0.54578659688E-02 -0.70387205245E-01  0.10601655645E+00  0.88917020711E+00  0.88000000000E+00 0. -1.
        -11    1    4    4    0    0  0.12904493314E-02  0.35970998400E-01 -0.10096226347E+00  0.10718776866E+00  0.51100000000E-03 0. -1.
         11    1    4    4    0    0 -0.28102916351E-02  0.15015976381E-01 -0.17699487824E-01  0.23386112887E-01  0.51100000000E-03 0.  1.
</event>
<event>
 8    1  0.1131376E+005  0.1043930E+01  0.7957747E-01            NaN
         13   -1    0    0    0    0  0.00000000000E+00  0.00000000000E+00  0.74505805969E-08  0.10566000000E+00  0.10566000000E+00 0.  1.
     999900   -1    0    0    0    0 -0.00000000000E+00 -0.00000000000E+00 -0.74505805969E-08  0.93827000000E+00  0.93827000000E+00 0.  1.
     999902    2    1    2    0    0  0.15304431360E-02  0.65911923129E-03 -0.24199373395E-01  0.10196733232E+01  0.10193847653E+01 0.  0.
     999903    2    3    3    0    0  0.10241403450E+00 -0.38384782581E-01  0.64877119647E-01  0.12858603971E+00  0.19060507809E-01 0.  0.
         14    1    1    2    0    0 -0.15304431360E-02 -0.65911923129E-03  0.24199373395E-01  0.24256676752E-01  0.00000000000E+00 0.  1.
     999901    1    3    3    0    0 -0.10088359136E+00  0.39043901813E-01 -0.89076493042E-01  0.89108728354E+00  0.88000000000E+00 0. -1.
        -11    1    4    4    0    0  0.53826602507E-01 -0.19026924609E-01  0.22875768102E-01  0.61505193966E-01  0.51100000000E-03 0. -1.
         11    1    4    4    0    0  0.48587431991E-01 -0.19357857972E-01  0.42001351545E-01  0.67080845741E-01  0.51100000000E-03 0.  1.
</event>
<event>
 8    1  0.1131376E+005  0.1043930E+01  0.7957747E-01            NaN
         13   -1    0    0    0    0  0.00000000000E+00  0.00000000000E+00  0.74505805969E-08  0.10566000000E+00  0.10566000000E+00 0.  1.
     999900   -1    0    0    0    0 -0.00000000000E+00 -0.00000000000E+00 -0.74505805969E-08  0.93827000000E+00  0.93827000000E+00 0.  1.
     999902    2    1    2    0    0 -0.17733581586E-01 -0.82291229309E-02  0.11262209504E-01  0.10213681795E+01  0.10211189561E+01 0.  0.
     999903    2    3    3    0    0 -0.28424395499E-01 -0.57457711421E-01  0.11564977930E+00  0.13376775583E+00  0.20238729841E-01 0.  0.
         14    1    1    2    0    0  0.17733581586E-01  0.82291229309E-02 -0.11262209504E-01  0.22561820472E-01  0.00000000000E+00 0. -1.
     999901    1    3    3    0    0  0.10690813913E-01  0.49228588490E-01 -0.10438756980E+00  0.88760042370E+00  0.88000000000E+00 0.  1.
        -11    1    4    4    0    0 -0.89147745124E-02 -0.38336419484E-02  0.11937877076E-01  0.15392986886E-01  0.51100000000E-03 0. -1.
         11    1    4    4    0    0 -0.19509620987E-01 -0.53624069473E-01  0.10371190222E+00  0.11837476894E+00  0.51100000000E-03 0.  1.
</event>
<event>
 8    1  0.1131376E+005  0.1043930E+01  0.7957747E-01            NaN
         13   -1    0    0    0    0  0.00000000000E+00  0.00000000000E+00  0.74505805969E-08  0.10566000000E+00  0.10566000000E+00 0.  1.
     999900   -1    0    0    0    0 -0.00000000000E+00 -0.00000000000E+00 -0.74505805969E-08  0.93827000000E+00  0.93827000000E+00 0.  1.
     999902    2    1    2    0    0 -0.88478808729E-02  0.11060001572E-01 -0.19680976014E-01  0.10196823311E+01  0.10193939900E+01 0.  0.
     999903    2    3    3    0    0 -0.94387352207E-01  0.87073232650E-01 -0.25683524635E-01  0.13225287302E+00  0.18451527968E-01 0.  0.
         14    1    1    2    0    0  0.88478808729E-02 -0.11060001572E-01  0.19680976014E-01  0.24247668910E-01  0.00000000000E+00 0.  1.
     999901    1    3    3    0    0  0.85539471334E-01 -0.76013231078E-01  0.60025486212E-02  0.88742945807E+00  0.88000000000E+00 0. -1.
        -11    1    4    4    0    0 -0.28280378239E-01  0.28277515964E-01 -0.16641851234E-01  0.43319857293E-01  0.51100000000E-03 0.  1.
         11    1    4    4    0    0 -0.66106973968E-01  0.58795716687E-01 -0.90416734013E-02  0.88933015730E-01  0.51100000000E-03 0. -1.
</event>
<event>
 8    1  0.1131376E+005  0.1043930E+01  0.7957747E-01            NaN
         13   -1    0    0    0    0  0.00000000000E+00  0.00000000000E+00  0.74505805969E-08  0.10566000000E+00  0.10566000000E+00 0.  1.
     999900   -1    0    0    0    0 -0.00000000000E+00 -0.00000000000E+00 -0.74505805969E-08  0.93827000000E+00  0.93827000000E+00 0.  1.
     999902    2    1    2    0    0 -0.29711706657E-02 -0.94267219941E-02  0.21726963774E-01  0.10200605237E+01  0.10197812119E+01 0.  0.
     999903    2    3    3    0    0  0.10645467457E+00 -0.72911014447E-01 -0.47956195274E-02  0.13061815999E+00  0.19735551333E-01 0.  0.
         14    1    1    2    0    0  0.29711706657E-02  0.94267219941E-02 -0.21726963774E-01  0.23869476272E-01  0.00000000000E+00 0. -1.
     999901    1    3    3    0    0 -0.10942584523E+00  0.63484292453E-01  0.26522583301E-01  0.88944236374E+00  0.88000000000E+00 0.  1.
        -11    1    4    4    0    0  0.27740107795E-01 -0.29208155456E-01  0.19432912256E-02  0.40331965330E-01  0.51100000000E-03 0. -1.
         11    1    4    4    0    0  0.78714566773E-01 -0.43702858991E-01 -0.67389107530E-02  0.90286194656E-01  0.51100000000E-03 0.  1.
</event>
<event>
 8    1  0.1131376E+005  0.1043930E+01  0.7957747E-01            NaN
         13   -1    0    0    0    0  0.00000000000E+00  0.00000000000E+00  0.74505805969E-08  0.10566000000E+00  0.10566000000E+00 0. -1.
     999900   -1    0    0    0    0 -0.00000000000E+00 -0.00000000000E+00 -0.74505805969E-08  0.93827000000E+00  0.93827000000E+00 0. -1.
     999902    2    1    2    0    0 -0.16541491374E-02 -0.55238662249E-02  0.31813135307E-01  0.10115985156E+01  0.10110817137E+01 0.  0.
     999903    2    3    3    0    0 -0.87551775237E-01  0.42516843942E-01  0.75901491077E-01  0.12501513251E+00  0.19868357830E-01 0.  0.
         14    1    1    2    0    0  0.16541491374E-02  0.55238662249E-02 -0.31813135307E-01  0.32331484431E-01  0.00000000000E+00 0.  1.
     999901    1    3    3    0    0  0.85897626100E-01 -0.48040710166E-01 -0.44088355770E-01  0.88658338306E+00  0.88000000000E+00 0. -1.
        -11    1    4    4    0    0 -0.68687135057E-01  0.40506216338E-01  0.55526699685E-01  0.97170734191E-01  0.51100000000E-03 0. -1.
         11    1    4    4    0    0 -0.18864640181E-01  0.20106276041E-02  0.20374791391E-01  0.27844398319E-01  0.51100000000E-03 0.  1.
</event>
<event>
 8    1  0.1131376E+005  0.1043930E+01  0.7957747E-01            NaN
         13   -1    0    0    0    0  0.00000000000E+00  0.00000000000E+00  0.74505805969E-08  0.10566000000E+00  0.10566000000E+00 0.  1.
     999900   -1    0    0    0    0 -0.00000000000E+00 -0.00000000000E+00 -0.74505805969E-08  0.93827000000E+00  0.93827000000E+00 0.  1.
     999902    2    1    2    0    0  0.93747228344E-03  0.23389171819E-01 -0.89596553629E-02  0.10188659294E+01  0.10185575950E+01 0.  0.
     999903    2    3    3    0    0 -0.80181677301E-01  0.79026045636E-01 -0.65371306091E-01  0.13159029435E+00  0.19193244705E-01 0.  0.
         14    1    1    2    0    0 -0.93747228344E-03 -0.23389171819E-01  0.89596553629E-02  0.25064070637E-01  0.00000000000E+00 0. -1.
     999901    1    3    3    0    0  0.81119149585E-01 -0.55636873817E-01  0.56411650728E-01  0.88727563502E+00  0.88000000000E+00 0. -1.
        -11    1    4    4    0    0 -0.47657068920E-01  0.58768522226E-01 -0.47197101696E-01  0.89178265021E-01  0.51100000000E-03 0.  1.
         11    1    4    4    0    0 -0.32524608382E-01  0.20257523410E-01 -0.18174204394E-01  0.42412029325E-01  0.51100000000E-03 0. -1.
</event>
<event>
 8    1  0.1131376E+005  0.1043930E+01  0.7957747E-01            NaN
         13   -1    0    0    0    0  0.00000000000E+00  0.00000000000E+00  0.74505805969E-08  0.10566000000E+00  0.10566000000E+00 0.  1.
     999900   -1    0    0    0    0 -0.00000000000E+00 -0.00000000000E+00 -0.74505805969E-08  0.93827000000E+00  0.93827000000E+00 0.  1.
     999902    2    1    2    0    0 -0.11764349857E-01 -0.20625859489E-01  0.36630342364E-02  0.10199041009E+01  0.10196210724E+01 0.  0.
     999903    2    3    3    0    0 -0.56377779527E-01  0.83558770852E-01 -0.77377431611E-01  0.12894262452E+00  0.21872614958E-01 0.  0.
         14    1    1    2    0    0  0.11764349857E-01  0.20625859489E-01 -0.36630342364E-02  0.24025899089E-01  0.00000000000E+00 0. -1.
     999901    1    3    3    0    0  0.44613429670E-01 -0.10418463034E+00  0.81040465847E-01  0.89096147639E+00  0.88000000000E+00 0. -1.
        -11    1    4    4    0    0 -0.92567747280E-02  0.40081143732E-02 -0.12097065367E-01  0.15759218594E-01  0.51100000000E-03 0. -1.
         11    1    4    4    0    0 -0.47121004799E-01  0.79550656478E-01 -0.65280366244E-01  0.11318340593E+00  0.51100000000E-03 0.  1.
</event>
<event>
 8    1  0.1131376E+005  0.1043930E+01  0.7957747E-01            NaN
         13   -1    0    0    0    0  0.00000000000E+00  0.00000000000E+00  0.74505805969E-08  0.10566000000E+00  0.10566000000E+00 0. -1.
     999900   -1    0    0    0    0 -0.00000000000E+00 -0.00000000000E+00 -0.74505805969E-08  0.93827000000E+00  0.93827000000E+00 0.  1.
     999902    2    1    2    0    0 -0.20687918436E-02  0.21580878526E-01 -0.97303620443E-02  0.10201667055E+01  0.10198899024E+01 0.  0.
     999903    2    3    3    0    0  0.77006955344E-01  0.15464692304E-01 -0.10369552113E+00  0.13161742011E+00  0.20028886498E-01 0.  0.
         14    1    1    2    0    0  0.20687918436E-02 -0.21580878526E-01  0.97303620443E-02  0.23763294451E-01  0.00000000000E+00 0.  1.
     999901    1    3    3    0    0 -0.79075747188E-01  0.61161862226E-02  0.93965159090E-01  0.88854928544E+00  0.88000000000E+00 0. -1.
        -11    1    4    4    0    0  0.52508596982E-01  0.13986535683E-01 -0.84454815452E-01  0.10042735141E+00  0.51100000000E-03 0. -1.
         11    1    4    4    0    0  0.24498358363E-01  0.14781566210E-02 -0.19240705682E-01  0.31190068702E-01  0.51100000000E-03 0.  1.
</event>
<event>
 8    1  0.1131376E+005  0.1043930E+01  0.7957747E-01            NaN
         13   -1    0    0    0    0  0.00000000000E+00  0.00000000000E+00  0.74505805969E-08  0.10566000000E+00  0.10566000000E+00 0. -1.
     999900   -1    0    0    0    0 -0.00000000000E+00 -0.00000000000E+00 -0.74505805969E-08  0.93827000000E+00  0.93827000000E+00 0. -1.
     999902    2    1    2    0    0  0.20214465567E-01 -0.12330223274E-01 -0.14312506681E-02  0.10202085434E+01  0.10199327255E+01 0.  0.
     999903    2    3    3    0    0  0.11950702604E+00  0.46478923089E-01  0.25745142474E-01  0.13225804670E+00  0.19676356175E-01 0.  0.
         14    1    1    2    0    0 -0.20214465567E-01  0.12330223274E-01  0.14312506681E-02  0.23721456587E-01  0.00000000000E+00 0.  1.
     999901    1    3    3    0    0 -0.99292560473E-01 -0.58809146363E-01 -0.27176393143E-01  0.88795049671E+00  0.88000000000E+00 0. -1.
        -11    1    4    4    0    0  0.10182109923E+00  0.37994910855E-01  0.14503609658E-01  0.10964381110E+00  0.51100000000E-03 0. -1.
         11    1    4    4    0    0  0.17685926815E-01  0.84840122340E-02  0.11241532817E-01  0.22614235604E-01  0.51100000000E-03 0.  1.
</event>
<event>
 8    1  0.1131376E+005  0.1043930E+01  0.7957747E-01            NaN
         13   -1    0    0    0    0  0.00000000000E+00  0.00000000000E+00  0.74505805969E-08  0.10566000000E+00  0.10566000000E+00 0.  1.
     999900   -1    0    0    0    0 -0.00000000000E+00 -0.00000000000E+00 -0.74505805969E-08  0.93827000000E+00  0.93827000000E+00 0.  1.
     999902    2    1    2    0    0  0.22637935209E-02  0.42197377044E-02  0.18219641147E-01  0.10250915746E+01  0.10249184602E+01 0.  0.
     999903    2    3    3    0    0  0.69750611730E-01 -0.10146079088E+00  0.52887205888E-01  0.13552725159E+00  0.20276574025E-01 0.  0.
         14    1    1    2    0    0 -0.22637935209E-02 -0.42197377044E-02 -0.18219641147E-01  0.18838425383E-01  0.00000000000E+00 0. -1.
     999901    1    3    3    0    0 -0.67486818210E-01  0.10568052859E+00 -0.34667564741E-01  0.88956432303E+00  0.88000000000E+00 0. -1.
        -11    1    4    4    0    0  0.21845389888E-01 -0.39064487683E-01  0.97530776829E-02  0.45810903752E-01  0.51100000000E-03 0.  1.
         11    1    4    4    0    0  0.47905221842E-01 -0.62396303199E-01  0.43134128205E-01  0.89716347839E-01  0.51100000000E-03 0. -1.
</event>
<event>
 8    1  0.1131376E+005  0.1043930E+01  0.7957747E-01            NaN
         13   -1    0    0    0    0  0.00000000000E+00  0.00000000000E+00  0.74505805969E-08  0.10566000000E+00  0.10566000000E+00 0.  1.
     999900   -1    0    0    0    0 -0.00000000000E+00 -0.00000000000E+00 -0.74505805969E-08  0.93827000000E+00  0.93827000000E+00 0.  1.
     999902    2    1    2    0    0 -0.47811387390E-02 -0.15086097842E-01 -0.17250954325E-01  0.10205196377E+01  0.10202510897E+01 0.  0.
     999903    2    3    3    0    0 -0.47297110514E-01  0.82275729603E-02 -0.12234554585E+00  0.13294090419E+00  0.20003544625E-01 0.  0.
         14    1    1    2    0    0  0.47811387390E-02  0.15086097842E-01  0.17250954325E-01  0.23410362254E-01  0.00000000000E+00 0.  1.
     999901    1    3    3    0    0  0.42515971775E-01 -0.23313670802E-01  0.10509459152E+00  0.88757873356E+00  0.88000000000E+00 0. -1.
        -11    1    4    4    0    0 -0.77704341667E-02 -0.16820799820E-02 -0.43103181477E-01  0.43833256948E-01  0.51100000000E-03 0.  1.
         11    1    4    4    0    0 -0.39526676348E-01  0.99096529423E-02 -0.79242364369E-01  0.89107647238E-01  0.51100000000E-03 0. -1.
</event>
<event>
 8    1  0.1131376E+005  0.1043930E+01  0.7957747E-01            NaN
         13   -1    0    0    0    0  0.00000000000E+00  0.00000000000E+00  0.74505805969E-08  0.10566000000E+00  0.10566000000E+00 0.  1.
     999900   -1    0    0    0    0 -0.00000000000E+00 -0.00000000000E+00 -0.74505805969E-08  0.93827000000E+00  0.93827000000E+00 0.  1.
     999902    2    1    2    0    0 -0.21519512470E-01 -0.46150141613E-02 -0.37491616488E-02  0.10216041409E+01  0.10213601601E+01 0.  0.
     999903    2    3    3    0    0 -0.85424546861E-01 -0.97760068582E-01 -0.27014199780E-01  0.13407886429E+00  0.19823991596E-01 0.  0.
         14    1    1    2    0    0  0.21519512470E-01  0.46150141613E-02  0.37491616488E-02  0.22325859127E-01  0.00000000000E+00 0. -1.
     999901    1    3    3    0    0  0.63905034390E-01  0.93145054421E-01  0.23265038131E-01  0.88752527659E+00  0.88000000000E+00 0. -1.
        -11    1    4    4    0    0 -0.34974955739E-01 -0.54700417945E-01 -0.11141775489E-01  0.65877033436E-01  0.51100000000E-03 0. -1.
         11    1    4    4    0    0 -0.50449591122E-01 -0.43059650637E-01 -0.15872424291E-01  0.68201830850E-01  0.51100000000E-03 0.  1.
</event>
<event>
 8    1  0.1131376E+005  0.1043930E+01  0.7957747E-01            NaN
         13   -1    0    0    0    0  0.00000000000E+00  0.00000000000E+00  0.74505805969E-08  0.10566000000E+00  0.10566000000E+00 0.  1.
     999900   -1    0    0    0    0 -0.00000000000E+00 -0.00000000000E+00 -0.74505805969E-08  0.93827000000E+00  0.93827000000E+00 0.  1.
     999902    2    1    2    0    0 -0.58344927859E-02 -0.71255669181E-02  0.21400818732E-01  0.10206317157E+01  0.10203657624E+01 0.  0.
     999903    2    3    3    0    0 -0.83958255073E-01  0.95450036495E-01  0.25867185871E-01  0.13122459569E+00  0.19775872861E-01 0.  0.
         14    1    1    2    0    0  0.58344927859E-02  0.71255669181E-02 -0.21400818732E-01  0.23298284322E-01  0.00000000000E+00 0. -1.
     999901    1    3    3    0    0  0.78123762287E-01 -0.10257560341E+00 -0.44663671390E-02  0.88940711999E+00  0.88000000000E+00 0. -1.
        -11    1    4    4    0    0 -0.67550106654E-01  0.73923399704E-01  0.28249945214E-01  0.10404809685E+00  0.51100000000E-03 0. -1.
         11    1    4    4    0    0 -0.16408148419E-01  0.21526636790E-01 -0.23827593429E-02  0.27176498838E-01  0.51100000000E-03 0.  1.
</event>
<event>
 8    1  0.1131376E+005  0.1043930E+01  0.7957747E-01            NaN
         13   -1    0    0    0    0  0.00000000000E+00  0.00000000000E+00  0.74505805969E-08  0.10566000000E+00  0.10566000000E+00 0. -1.
     999900   -1    0    0    0    0 -0.00000000000E+00 -0.00000000000E+00 -0.74505805969E-08  0.93827000000E+00  0.93827000000E+00 0.  1.
     999902    2    1    2    0    0  0.77718068683E-02 -0.10168627841E-01 -0.20385477770E-01  0.10198599007E+01  0.10195758174E+01 0.  0.
     999903    2    3    3    0    0  0.11836620927E-01 -0.33616966242E-01  0.12143168857E+00  0.12818818091E+00  0.20404625037E-01 0.  0.
         14    1    1    2    0    0 -0.77718068683E-02  0.10168627841E-01  0.20385477770E-01  0.24070099254E-01  0.00000000000E+00 0. -1.
     999901    1    3    3    0    0 -0.40648140588E-02  0.23448338401E-01 -0.14181716634E+00  0.89167171984E+00  0.88000000000E+00 0.  1.
        -11    1    4    4    0    0  0.17690928249E-01 -0.24781075803E-01  0.89270745799E-01  0.94321778169E-01  0.51100000000E-03 0.  1.
         11    1    4    4    0    0 -0.58543073219E-02 -0.88358904386E-02  0.32160942767E-01  0.33866402742E-01  0.51100000000E-03 0. -1.
</event>
<event>
 8    1  0.1131376E+005  0.1043930E+01  0.7957747E-01            NaN
         13   -1    0    0    0    0  0.00000000000E+00  0.00000000000E+00  0.74505805969E-08  0.10566000000E+00  0.10566000000E+00 0. -1.
     999900   -1    0    0    0    0 -0.00000000000E+00 -0.00000000000E+00 -0.74505805969E-08  0.93827000000E+00  0.93827000000E+00 0.  1.
     999902    2    1    2    0    0  0.84492124189E-02  0.15144879798E-01 -0.17628476066E-01  0.10192010748E+01  0.10189010310E+01 0.  0.
     999903    2    3    3    0    0  0.87721656825E-01 -0.85712682351E-01 -0.30309073209E-01  0.12980961662E+00  0.29835275376E-01 0.  0.
         14    1    1    2    0    0 -0.84492124189E-02 -0.15144879798E-01  0.17628476066E-01  0.24728925229E-01  0.00000000000E+00 0. -1.
     999901    1    3    3    0    0 -0.79272444406E-01  0.10085756215E+00  0.12680597143E-01  0.88939145815E+00  0.88000000000E+00 0. -1.
        -11    1    4    4    0    0  0.82677690030E-02 -0.22480430553E-01 -0.11345073669E-01  0.26508443554E-01  0.51100000000E-03 0.  1.
         11    1    4    4    0    0  0.79453887822E-01 -0.63232251798E-01 -0.18963999540E-01  0.10330117307E+00  0.51100000000E-03 0. -1.
</event>
<event>
 8    1  0.1131376E+005  0.1043930E+01  0.7957747E-01            NaN
         13   -1    0    0    0    0  0.00000000000E+00  0.00000000000E+00  0.74505805969E-08  0.10566000000E+00  0.10566000000E+00 0.  1.
     999900   -1    0    0    0    0 -0.00000000000E+00 -0.00000000000E+00 -0.74505805969E-08  0.93827000000E+00  0.93827000000E+00 0. -1.
     999902    2    1    2    0    0 -0.16569402238E-01 -0.12569265304E-01  0.12007336873E-01  0.10199152616E+01  0.10196324991E+01 0.  0.
     999903    2    3    3    0    0  0.77110318372E-01 -0.10348640869E+00  0.82859392576E-02  0.13027732076E+00  0.15750731140E-01 0.  0.
         14    1    1    2    0    0  0.16569402238E-01  0.12569265304E-01 -0.12007336873E-01  0.24014738383E-01  0.00000000000E+00 0. -1.
     999901    1    3    3    0    0 -0.93679720610E-01  0.90917143387E-01  0.37213976156E-02  0.88963794086E+00  0.88000000000E+00 0.  1.
        -11    1    4    4    0    0  0.16081818666E-01 -0.14255696958E-01 -0.24680339774E-02  0.21637978189E-01  0.51100000000E-03 0. -1.
         11    1    4    4    0    0  0.61028499706E-01 -0.89230711733E-01  0.10753973235E-01  0.10863934257E+00  0.51100000000E-03 0.  1.
</event>
<event>
 8    1  0.1131376E+005  0.1043930E+01  0.7957747E-01            NaN
         13   -1    0    0    0    0  0.00000000000E+00  0.00000000000E+00  0.74505805969E-08  0.10566000000E+00  0.10566000000E+00 0. -1.
     999900   -1    0    0    0    0 -0.00000000000E+00 -0.00000000000E+00 -0.74505805969E-08  0.93827000000E+00  0.93827000000E+00 0. -1.
     999902    2    1    2    0    0  0.15935235528E-01 -0.56377300543E-03  0.27748995971E-02  0.10277451417E+01  0.10276176948E+01 0.  0.
     999903    2    3    3    0    0  0.10284156217E+00 -0.86038275921E-01 -0.27653031317E-01  0.13882193957E+00  0.22975398375E-01 0.  0.
         14    1    1    2    0    0 -0.15935235528E-01  0.56377300543E-03 -0.27748995971E-02  0.16184858328E-01  0.00000000000E+00 0. -1.
     999901    1    3    3    0    0 -0.86906326646E-01  0.85474502916E-01  0.30427930914E-01  0.88892320210E+00  0.88000000000E+00 0.  1.
        -11    1    4    4    0    0  0.65019444651E-01 -0.40981005497E-01 -0.10710633459E-01  0.77601222828E-01  0.51100000000E-03 0. -1.
         11    1    4    4    0    0  0.37822117523E-01 -0.45057270424E-01 -0.16942397858E-01  0.61220716740E-01  0.51100000000E-03 0.  1.
</event>
<event>
 8    1  0.1131376E+005  0.1043930E+01  0.7957747E-01            NaN
         13   -1    0    0    0    0  0.00000000000E+00  0.00000000000E+00  0.74505805969E-08  0.10566000000E+00  0.10566000000E+00 0.  1.
     999900   -1    0    0    0    0 -0.00000000000E+00 -0.00000000000E+00 -0.74505805969E-08  0.93827000000E+00  0.93827000000E+00 0.  1.
     999902    2    1    2    0    0 -0.20161367178E-01  0.49174948687E-02  0.11996025431E-01  0.10199598705E+01  0.10196781700E+01 0.  0.
     999903    2    3    3    0    0 -0.39163161886E-01  0.12380205075E+00  0.10417760992E-01  0.13176107701E+00  0.19792691914E-01 0.  0.
         14    1    1    2    0    0  0.20161367178E-01 -0.49174948687E-02 -0.11996025431E-01  0.23970129503E-01  0.00000000000E+00 0. -1.
     999901    1    3    3    0    0  0.19001794708E-01 -0.11888455588E+00  0.15782644384E-02  0.88819879348E+00  0.88000000000E+00 0. -1.
        -11    1    4    4    0    0 -0.24699465702E-01  0.71825667958E-01  0.15660531235E-01  0.77553230385E-01  0.51100000000E-03 0.  1.
         11    1    4    4    0    0 -0.14463696184E-01  0.51976382789E-01 -0.52427702425E-02  0.54207846627E-01  0.51100000000E-03 0. -1.
</event>
<event>
 8    1  0.1131376E+005  0.1043930E+01  0.7957747E-01            NaN
         13   -1    0    0    0    0  0.00000000000E+00  0.00000000000E+00  0.74505805969E-08  0.10566000000E+00  0.10566000000E+00 0. -1.
     999900   -1    0    0    0    0 -0.00000000000E+00 -0.00000000000E+00 -0.74505805969E-08  0.93827000000E+00  0.93827000000E+00 0. -1.
     999902    2    1    2    0    0  0.33518772439E-02 -0.22766643038E-01 -0.67423544745E-02  0.10199505409E+01  0.10196686184E+01 0.  0.
     999903    2    3    3    0    0  0.91160471256E-01  0.75660672855E-01  0.42374553107E-01  0.12876551165E+00  0.27389510824E-01 0.  0.
         14    1    1    2    0    0 -0.33518772439E-02  0.22766643038E-01  0.67423544745E-02  0.23979459129E-01  0.00000000000E+00 0. -1.
     999901    1    3    3    0    0 -0.87808594012E-01 -0.98427315893E-01 -0.49116907581E-01  0.89118502922E+00  0.88000000000E+00 0. -1.
        -11    1    4    4    0    0  0.22802072699E-01  0.70353880774E-02  0.24395163728E-02  0.23992573141E-01  0.51100000000E-03 0. -1.
         11    1    4    4    0    0  0.68358398556E-01  0.68625284778E-01  0.39935036734E-01  0.10477293851E+00  0.51100000000E-03 0.  1.
</event>
<event>
 8    1  0.1131376E+005  0.1043930E+01  0.7957747E-01            NaN
         13   -1    0    0    0    0  0.00000000000E+00  0.00000000000E+00  0.74505805969E-08  0.10566000000E+00  0.10566000000E+00 0. -1.
     999900   -1    0    0    0    0 -0.00000000000E+00 -0.00000000000E+00 -0.74505805969E-08  0.93827000000E+00  0.93827000000E+00 0.  1.
     999902    2    1    2    0    0  0.58162768816E-02 -0.15141373510E-02 -0.22851832516E-01  0.10203010360E+01  0.10200273899E+01 0.  0.
     999903    2    3    3    0    0  0.10681836288E+00  0.70321483182E-01  0.18478212612E-01  0.13065506691E+00  0.19339817013E-01 0.  0.
         14    1    1    2    0    0 -0.58162768816E-02  0.15141373510E-02  0.22851832516E-01  0.23628963964E-01  0.00000000000E+00 0. -1.
     999901    1    3    3    0    0 -0.10100208600E+00 -0.71835620533E-01 -0.41330045128E-01  0.88964596913E+00  0.88000000000E+00 0. -1.
        -11    1    4    4    0    0  0.58569488728E-01  0.45821913874E-01  0.32446519344E-02  0.74436695843E-01  0.51100000000E-03 0.  1.
         11    1    4    4    0    0  0.48248874153E-01  0.24499569308E-01  0.15233560677E-01  0.56218371066E-01  0.51100000000E-03 0. -1.
</event>
<event>
 8    1  0.1131376E+005  0.1043930E+01  0.7957747E-01            NaN
         13   -1    0    0    0    0  0.00000000000E+00  0.00000000000E+00  0.74505805969E-08  0.10566000000E+00  0.10566000000E+00 0. -1.
     999900   -1    0    0    0    0 -0.00000000000E+00 -0.00000000000E+00 -0.74505805969E-08  0.93827000000E+00  0.93827000000E+00 0. -1.
     999902    2    1    2    0    0  0.16929966338E-02  0.18393344270E-01 -0.12006961906E-01  0.10218993739E+01  0.10216618726E+01 0.  0.
     999903    2    3    3    0    0 -0.71214297045E-01 -0.10623701800E+00 -0.13250690294E-01  0.13013160846E+00  0.20021853796E-01 0.  0.
         14    1    1    2    0    0 -0.16929966338E-02 -0.18393344270E-01  0.12006961906E-01  0.22030626075E-01  0.00000000000E+00 0. -1.
     999901    1    3    3    0    0  0.72907293679E-01  0.12463036227E+00  0.12437283883E-02  0.89176776547E+00  0.88000000000E+00 0. -1.
        -11    1    4    4    0    0 -0.39570880178E-01 -0.75992044710E-01 -0.88976576743E-02  0.86139856341E-01  0.51100000000E-03 0.  1.
         11    1    4    4    0    0 -0.31643416867E-01 -0.30244973286E-01 -0.43530326199E-02  0.43991752115E-01  0.51100000000E-03 0. -1.
</event>
<event>
 8    1  0.1131376E+005  0.1043930E+01  0.7957747E-01            NaN
         13   -1    0    0    0    0  0.00000000000E+00  0.00000000000E+00  0.74505805969E-08  0.10566000000E+00  0.10566000000E+00 0. -1.
     999900   -1    0    0    0    0 -0.00000000000E+00 -0.00000000000E+00 -0.74505805969E-08  0.93827000000E+00  0.93827000000E+00 0.  1.
     999902    2    1    2    0    0  0.14338942904E-01  0.18769540718E-01 -0.44715300306E-02  0.10198905424E+01  0.10196071905E+01 0.  0.
     999903    2    3    3    0    0  0.12671881884E+00  0.83645758883E-02  0.29837187181E-01  0.13201972525E+00  0.20281147364E-01 0.  0.
         14    1    1    2    0    0 -0.14338942904E-01 -0.18769540718E-01  0.44715300306E-02  0.24039457631E-01  0.00000000000E+00 0. -1.
     999901    1    3    3    0    0 -0.11237987594E+00  0.10404964829E-01 -0.34308717211E-01  0.88787081712E+00  0.88000000000E+00 0.  1.
        -11    1    4    4    0    0  0.46241958705E-01  0.17606034974E-02  0.20896145038E-01  0.50777243603E-01  0.51100000000E-03 0.  1.
         11    1    4    4    0    0  0.80476860138E-01  0.66039723909E-02  0.89410421428E-02  0.81242481650E-01  0.51100000000E-03 0. -1.
</event>
<event>
 8    1  0.1131376E+005  0.1043930E+01  0.7957747E-01            NaN
         13   -1    0    0    0    0  0.00000000000E+00  0.00000000000E+00  0.74505805969E-08  0.10566000000E+00  0.10566000000E+00 0. -1.
     999900   -1    0    0    0    0 -0.00000000000E+00 -0.00000000000E+00 -0.74505805969E-08  0.93827000000E+00  0.93827000000E+00 0.  1.
     999902    2    1    2    0    0 -0.20539237978E-01 -0.14843583040E-01  0.50049019395E-02  0.10180989857E+01  0.10177712432E+01 0.  0.
     999903    2    3    3    0    0 -0.12957229097E+00  0.30604213950E-02 -0.27338985406E-04  0.13117504116E+00  0.20212518654E-01 0.  0.
         14    1    1    2    0    0  0.20539237978E-01  0.14843583040E-01 -0.50049019395E-02  0.25831014258E-01  0.00000000000E+00 0.  1.
     999901    1    3    3    0    0  0.10903305299E+00 -0.17904004435E-01  0.50322409249E-02  0.88692394458E+00  0.88000000000E+00 0. -1.
        -11    1    4    4    0    0 -0.51925624534E-01  0.16275668921E-02 -0.98999656430E-02  0.52888466587E-01  0.51100000000E-03 0.  1.
         11    1    4    4    0    0 -0.77646666436E-01  0.14328545029E-02  0.98726266576E-02  0.78286574575E-01  0.51100000000E-03 0. -1.
</event>
<event>
 8    1  0.1131376E+005  0.1043930E+01  0.7957747E-01            NaN
         13   -1    0    0    0    0  0.00000000000E+00  0.00000000000E+00  0.74505805969E-08  0.10566000000E+00  0.10566000000E+00 0.  1.
     999900   -1    0    0    0    0 -0.00000000000E+00 -0.00000000000E+00 -0.74505805969E-08  0.93827000000E+00  0.93827000000E+00 0.  1.
     999902    2    1    2    0    0  0.22173698649E-01  0.70861558081E-02 -0.51734074719E-02  0.10200836028E+01  0.10198048372E+01 0.  0.
     999903    2    3    3    0    0 -0.41473701514E-01  0.97339994966E-01  0.72591073465E-01  0.12977800270E+00  0.19435109969E-01 0.  0.
         14    1    1    2    0    0 -0.22173698649E-01 -0.70861558081E-02  0.51734074719E-02  0.23846397229E-01  0.00000000000E+00 0. -1.
     999901    1    3    3    0    0  0.63647400164E-01 -0.90253839158E-01 -0.77764480937E-01  0.89030560008E+00  0.88000000000E+00 0. -1.
        -11    1    4    4    0    0 -0.91582292676E-02  0.20784596214E-01  0.65809831246E-02  0.23652548763E-01  0.51100000000E-03 0. -1.
         11    1    4    4    0    0 -0.32315472247E-01  0.76555398753E-01  0.66010090340E-01  0.10612545393E+00  0.51100000000E-03 0.  1.
</event>
<event>
 8    1  0.1131376E+005  0.1043930E+01  0.7957747E-01            NaN
         13   -1    0    0    0    0  0.00000000000E+00  0.00000000000E+00  0.74505805969E-08  0.10566000000E+00  0.10566000000E+00 0. -1.
     999900   -1    0    0    0    0 -0.00000000000E+00 -0.00000000000E+00 -0.74505805969E-08  0.93827000000E+00  0.93827000000E+00 0. -1.
     999902    2    1    2    0    0 -0.68622373201E-02 -0.22685536690E-02  0.22413532873E-01  0.10203799874E+01  0.10201081882E+01 0.  0.
     999903    2    3    3    0    0 -0.71159119410E-01  0.91848210832E-01  0.59904071274E-01  0.13223720899E+00  0.19961652678E-01 0.  0.
         14    1    1    2    0    0  0.68622373201E-02  0.22685536690E-02 -0.22413532873E-01  0.23550012582E-01  0.00000000000E+00 0.  1.
     999901    1    3    3    0    0  0.64296882090E-01 -0.94116764501E-01 -0.37490538401E-01  0.88814277843E+00  0.88000000000E+00 0.  1.
        -11    1    4    4    0    0 -0.45452304268E-01  0.46690804957E-01  0.25819075297E-01  0.70091575820E-01  0.51100000000E-03 0.  1.
         11    1    4    4    0    0 -0.25706815142E-01  0.45157405875E-01  0.34084995977E-01  0.62145633168E-01  0.51100000000E-03 0. -1.
</event>
<event>
 8    1  0.1131376E+005  0.1043930E+01  0.7957747E-01            NaN
         13   -1    0    0    0    0  0.00000000000E+00  0.00000000000E+00  0.74505805969E-08  0.10566000000E+00  0.10566000000E+00 0. -1.
     999900   -1    0    0    0    0 -0.00000000000E+00 -0.00000000000E+00 -0.74505805969E-08  0.93827000000E+00  0.93827000000E+00 0.  1.
     999902    2    1    2    0    0 -0.13513994947E-01  0.10664027713E-01  0.16498102105E-01  0.10200859878E+01  0.10198072786E+01 0.  0.
     999903    2    3    3    0    0  0.55316368675E-01 -0.10950498095E+00  0.31939615792E-01  0.12912209964E+00  0.24518076235E-01 0.  0.
         14    1    1    2    0    0  0.13513994947E-01 -0.10664027713E-01 -0.16498102105E-01  0.23844012237E-01  0.00000000000E+00 0.  1.
     999901    1    3    3    0    0 -0.68830363623E-01  0.12016900866E+00 -0.15441513687E-01  0.89096388813E+00  0.88000000000E+00 0.  1.
        -11    1    4    4    0    0  0.26162755538E-01 -0.27182082746E-01  0.80602323685E-02  0.38582170320E-01  0.51100000000E-03 0.  1.
         11    1    4    4    0    0  0.29153613137E-01 -0.82322898201E-01  0.23879383423E-01  0.90539929317E-01  0.51100000000E-03 0. -1.
</event>
<event>
 8    1  0.1131376E+005  0.1043930E+01  0.7957747E-01            NaN
         13   -1    0    0    0    0  0.00000000000E+00  0.00000000000E+00  0.74505805969E-08  0.10566000000E+00  0.10566000000E+00 0.  1.
     999900   -1    0    0    0    0 -0.00000000000E+00 -0.00000000000E+00 -0.74505805969E-08  0.93827000000E+00  0.93827000000E+00 0.  1.
     999902    2    1    2    0    0 -0.88767626147E-02  0.27517993191E-02  0.19541637352E-01  0.10222910327E+01  0.10220619897E+01 0.  0.
     999903    2    3    3    0    0  0.11219155404E-01 -0.83588927533E-01 -0.96966891742E-01  0.13019641646E+00  0.20869846920E-01 0.  0.
         14    1    1    2    0    0  0.88767626147E-02 -0.27517993191E-02 -0.19541637352E-01  0.21638967267E-01  0.00000000000E+00 0. -1.
     999901    1    3    3    0    0 -0.20095918018E-01  0.86340726852E-01  0.11650852909E+00  0.89209461627E+00  0.88000000000E+00 0. -1.
        -11    1    4    4    0    0  0.82707113754E-02 -0.47778416644E-01 -0.70497623398E-01  0.85564933176E-01  0.51100000000E-03 0.  1.
         11    1    4    4    0    0  0.29484440282E-02 -0.35810510889E-01 -0.26469268343E-01  0.44631483282E-01  0.51100000000E-03 0. -1.
</event>
<event>
 8    1  0.1131376E+005  0.1043930E+01  0.7957747E-01            NaN
         13   -1    0    0    0    0  0.00000000000E+00  0.00000000000E+00  0.74505805969E-08  0.10566000000E+00  0.10566000000E+00 0.  1.
     999900   -1    0    0    0    0 -0.00000000000E+00 -0.00000000000E+00 -0.74505805969E-08  0.93827000000E+00  0.93827000000E+00 0. -1.
     999902    2    1    2    0    0  0.22556947302E-01 -0.35692624193E-02 -0.29242890120E-02  0.10209059480E+01  0.10206462892E+01 0.  0.
     999903    2    3    3    0    0 -0.51443151123E-01 -0.92692977233E-01 -0.72756637100E-01  0.13057139964E+00  0.22737113612E-01 0.  0.
         14    1    1    2    0    0 -0.22556947302E-01  0.35692624193E-02  0.29242890120E-02  0.23024052033E-01  0.00000000000E+00 0.  1.
     999901    1    3    3    0    0  0.74000098425E-01  0.89123714814E-01  0.69832348088E-01  0.89033454833E+00  0.88000000000E+00 0.  1.
        -11    1    4    4    0    0 -0.12548360813E-01 -0.30098956461E-01 -0.10994867323E-01  0.34417390482E-01  0.51100000000E-03 0. -1.
         11    1    4    4    0    0 -0.38894790310E-01 -0.62594020772E-01 -0.61761769778E-01  0.96154009156E-01  0.51100000000E-03 0.  1.
</event>
<event>
 7    1  0.1131376E+005  0.1043930E+01  0.7957747E-01            NaN
         13   -1    0    0    0    0  0.00000000000E+00  0.00000000000E+00  0.74505805969E-08  0.10566000000E+00  0.10566000000E+00 0. -1.
     999900   -1    0    0    0    0 -0.00000000000E+00 -0.00000000000E+00 -0.74505805969E-08  0.93827000000E+00  0.93827000000E+00 0. -1.
     999902    2    1    2    0    0 -0.47441589862E-02 -0.67264654551E-02  0.23800754740E-01  0.10187461101E+01  0.10184347837E+01 0.  0.
         14    1    1    2    0    0  0.47441589862E-02  0.67264654551E-02 -0.23800754740E-01  0.25183889854E-01  0.00000000000E+00 0.  1.
     999901    1    3    3    0    0 -0.36446365132E-01  0.11257912648E+00  0.38953052117E-01  0.88877428941E+00  0.88000000000E+00 0. -1.
        -11    1    3    3    0    0 -0.84082829243E-02 -0.16620927545E-01 -0.48191733649E-02  0.19246818104E-01  0.51100000000E-03 0. -1.
         11    1    3    3    0    0  0.40110489070E-01 -0.10268466439E+00 -0.10333124013E-01  0.11072500263E+00  0.51100000000E-03 0.  1.
</event>
<event>
 8    1  0.1131376E+005  0.1043930E+01  0.7957747E-01            NaN
         13   -1    0    0    0    0  0.00000000000E+00  0.00000000000E+00  0.74505805969E-08  0.10566000000E+00  0.10566000000E+00 0.  1.
     999900   -1    0    0    0    0 -0.00000000000E+00 -0.00000000000E+00 -0.74505805969E-08  0.93827000000E+00  0.93827000000E+00 0. -1.
     999902    2    1    2    0    0  0.81892426052E-02  0.47000606340E-02 -0.18843257328E-01  0.10228534108E+01  0.10226362391E+01 0.  0.
     999903    2    3    3    0    0  0.10739799173E+00 -0.73313958845E-01  0.19196727591E-01  0.13303567466E+00  0.20511245542E-01 0.  0.
         14    1    1    2    0    0 -0.81892426052E-02 -0.47000606340E-02  0.18843257328E-01  0.21076589172E-01  0.00000000000E+00 0. -1.
     999901    1    3    3    0    0 -0.99208749126E-01  0.78014019479E-01 -0.38039984919E-01  0.88981773616E+00  0.88000000000E+00 0. -1.
        -11    1    4    4    0    0  0.40335650058E-01 -0.18072305444E-01  0.12269668885E-01  0.45873508534E-01  0.51100000000E-03 0.  1.
         11    1    4    4    0    0  0.67062341673E-01 -0.55241653401E-01  0.69270587066E-02  0.87162166130E-01  0.51100000000E-03 0. -1.
</event>
<event>
 8    1  0.1131376E+005  0.1043930E+01  0.7957747E-01            NaN
         13   -1    0    0    0    0  0.00000000000E+00  0.00000000000E+00  0.74505805969E-08  0.10566000000E+00  0.10566000000E+00 0.  1.
     999900   -1    0    0    0    0 -0.00000000000E+00 -0.00000000000E+00 -0.74505805969E-08  0.93827000000E+00  0.93827000000E+00 0. -1.
     999902    2    1    2    0    0  0.36465700371E-02  0.21692565489E-01  0.57718756658E-03  0.10219255001E+01  0.10216885679E+01 0.  0.
     999903    2    3    3    0    0 -0.12738346558E+00  0.18452491575E-01 -0.21114582384E-01  0.13195364594E+00  0.19972414414E-01 0.  0.
         14    1    1    2    0    0 -0.36465700371E-02 -0.21692565489E-01 -0.57718756658E-03  0.22004499904E-01  0.00000000000E+00 0. -1.
     999901    1    3    3    0    0  0.13103003562E+00  0.32400739140E-02  0.21691769951E-01  0.88997185416E+00  0.88000000000E+00 0. -1.
        -11    1    4    4    0    0 -0.11100057773E+00  0.17456814519E-01 -0.11569837641E-01  0.11296012967E+00  0.51100000000E-03 0.  1.
         11    1    4    4    0    0 -0.16382887850E-01  0.99567705604E-03 -0.95447447433E-02  0.18993516271E-01  0.51100000000E-03 0. -1.
</event>
<event>
 8    1  0.1131376E+005  0.1043930E+01  0.7957747E-01            NaN
         13   -1    0    0    0    0  0.00000000000E+00  0.00000000000E+00  0.74505805969E-08  0.10566000000E+00  0.10566000000E+00 0. -1.
     999900   -1    0    0    0    0 -0.00000000000E+00 -0.00000000000E+00 -0.74505805969E-08  0.93827000000E+00  0.93827000000E+00 0.  1.
     999902    2    1    2    0    0  0.14110425857E-01 -0.11045175402E-01  0.12212285603E-01  0.10222449836E+01  0.10220149542E+01 0.  0.
     999903    2    3    3    0    0  0.88825205654E-02  0.12870330936E+00 -0.72964516614E-02  0.13098881344E+00  0.21479991286E-01 0.  0.
         14    1    1    2    0    0 -0.14110425857E-01  0.11045175402E-01 -0.12212285603E-01  0.21685016420E-01  0.00000000000E+00 0. -1.
     999901    1    3    3    0    0  0.52279052912E-02 -0.13974848477E+00  0.19508737264E-01  0.89125617014E+00  0.88000000000E+00 0. -1.
        -11    1    4    4    0    0 -0.80688504743E-03  0.12441820717E-01 -0.70308306550E-02  0.14322837252E-01  0.51100000000E-03 0. -1.
         11    1    4    4    0    0  0.96894056129E-02  0.11626148865E+00 -0.26562100634E-03  0.11666597618E+00  0.51100000000E-03 0.  1.
</event>
<event>
 8    1  0.1131376E+005  0.1043930E+01  0.7957747E-01            NaN
         13   -1    0    0    0    0  0.00000000000E+00  0.00000000000E+00  0.74505805969E-08  0.10566000000E+00  0.10566000000E+00 0.  1.
     999900   -1    0    0    0    0 -0.00000000000E+00 -0.00000000000E+00 -0.74505805969E-08  0.93827000000E+00  0.93827000000E+00 0.  1.
     999902    2    1    2    0    0  0.23434069558E-01  0.43882935559E-02 -0.17214359940E-02  0.10200265258E+01  0.10197464083E+01 0.  0.
     999903    2    3    3    0    0 -0.35279385403E-02 -0.36073561435E-01  0.12312623583E+00  0.12988549611E+00  0.19910398443E-01 0.  0.
         14    1    1    2    0    0 -0.23434069558E-01 -0.43882935559E-02  0.17214359940E-02  0.23903474188E-01  0.00000000000E+00 0. -1.
     999901    1    3    3    0    0  0.26962008099E-01  0.40461854991E-01 -0.12484767182E+00  0.89014102970E+00  0.88000000000E+00 0.  1.
        -11    1    4    4    0    0 -0.74695248072E-02 -0.32152166745E-01  0.11712551299E+00  0.12168895817E+00  0.51100000000E-03 0.  1.
         11    1    4    4    0    0  0.39415862670E-02 -0.39213946905E-02  0.60007228436E-02  0.81965379438E-02  0.51100000000E-03 0. -1.
</event>
<event>
 8    1  0.1131376E+005  0.1043930E+01  0.7957747E-01            NaN
         13   -1    0    0    0    0  0.00000000000E+00  0.00000000000E+00  0.74505805969E-08  0.10566000000E+00  0.10566000000E+00 0. -1.
     999900   -1    0    0    0    0 -0.00000000000E+00 -0.00000000000E+00 -0.74505805969E-08  0.93827000000E+00  0.93827000000E+00 0. -1.
     999902    2    1    2    0    0 -0.71124728452E-02  0.14529972971E-02 -0.21022128641E-01  0.10216897580E+01  0.10214476655E+01 0.  0.
     999903    2    3    3    0    0  0.11450170509E+00  0.49522492816E-01 -0.39732746988E-01  0.13182978481E+00  0.15403999990E-01 0.  0.
         14    1    1    2    0    0  0.71124728452E-02 -0.14529972971E-02  0.21022128641E-01  0.22240241989E-01  0.00000000000E+00 0. -1.
     999901    1    3    3    0    0 -0.12161417793E+00 -0.48069495518E-01  0.18710618347E-01  0.88985997321E+00  0.88000000000E+00 0. -1.
        -11    1    4    4    0    0  0.52233562936E-01  0.30502694706E-01 -0.21758788940E-01  0.64284255447E-01  0.51100000000E-03 0. -1.
         11    1    4    4    0    0  0.62268142154E-01  0.19019798109E-01 -0.17973958048E-01  0.67545529359E-01  0.51100000000E-03 0.  1.
</event>
<event>
 8    1  0.1131376E+005  0.1043930E+01  0.7957747E-01            NaN
         13   -1    0    0    0    0  0.00000000000E+00  0.00000000000E+00  0.74505805969E-08  0.10566000000E+00  0.10566000000E+00 0. -1.
     999900   -1    0    0    0    0 -0.00000000000E+00 -0.00000000000E+00 -0.74505805969E-08  0.93827000000E+00  0.93827000000E+00 0.  1.
     999902    2    1    2    0    0  0.20745600901E-01  0.11248207240E-01 -0.54746032930E-02  0.10197045298E+01  0.10194167228E+01 0.  0.
     999903    2    3    3    0    0  0.11951668778E+00 -0.41772501309E-01  0.31115080417E-01  0.13183870210E+00  0.19598842272E-01 0.  0.
         14    1    1    2    0    0 -0.20745600901E-01 -0.11248207240E-01  0.54746032930E-02  0.24225470151E-01  0.00000000000E+00 0. -1.
     999901    1    3    3    0    0 -0.98771086875E-01  0.53020708549E-01 -0.36589683710E-01  0.88786582775E+00  0.88000000000E+00 0.  1.
        -11    1    4    4    0    0  0.84866654703E-01 -0.36460944381E-01  0.28577006327E-01  0.96688447900E-01  0.51100000000E-03 0. -1.
         11    1    4    4    0    0  0.34650033073E-01 -0.53115569274E-02  0.25380740898E-02  0.35150254196E-01  0.51100000000E-03 0.  1.
</event>
<event>
 8    1  0.1131376E+005  0.1043930E+01  0.7957747E-01            NaN
         13   -1    0    0    0    0  0.00000000000E+00  0.00000000000E+00  0.74505805969E-08  0.10566000000E+00  0.10566000000E+00 0. -1.
     999900   -1    0    0    0    0 -0.00000000000E+00 -0.00000000000E+00 -0.74505805969E-08  0.93827000000E+00  0.93827000000E+00 0. -1.
     999902    2    1    2    0    0  0.97629585682E-03 -0.22865908959E-01  0.97489759108E-02  0.10190533950E+01  0.10187497123E+01 0.  0.
     999903    2    3    3    0    0  0.17448680290E-01 -0.72357325181E-01 -0.10477189835E+00  0.13010133195E+00  0.20227875320E-01 0.  0.
         14    1    1    2    0    0 -0.97629585682E-03  0.22865908959E-01 -0.97489759108E-02  0.24876605022E-01  0.00000000000E+00 0.  1.
     999901    1    3    3    0    0 -0.16472384433E-01  0.49491416222E-01  0.11452087426E+00  0.88895206303E+00  0.88000000000E+00 0. -1.
        -11    1    4    4    0    0  0.10983506523E-01 -0.24261078260E-01 -0.51876874101E-01  0.58315594152E-01  0.51100000000E-03 0.  1.
         11    1    4    4    0    0  0.64651737670E-02 -0.48096246921E-01 -0.52895024245E-01  0.71785737794E-01  0.51100000000E-03 0. -1.
</event>
<event>
 8    1  0.1131376E+005  0.1043930E+01  0.7957747E-01            NaN
         13   -1    0    0    0    0  0.00000000000E+00  0.00000000000E+00  0.74505805969E-08  0.10566000000E+00  0.10566000000E+00 0.  1.
     999900   -1    0    0    0    0 -0.00000000000E+00 -0.00000000000E+00 -0.74505805969E-08  0.93827000000E+00  0.93827000000E+00 0. -1.
     999902    2    1    2    0    0 -0.10629151674E-01 -0.69453028844E-02  0.21292533875E-01  0.10191391126E+01  0.10188375449E+01 0.  0.
     999903    2    3    3    0    0  0.31425298040E-01  0.47601628107E-01  0.11613353857E+00  0.13136731730E+00  0.22735631044E-01 0.  0.
         14    1    1    2    0    0  0.10629151674E-01  0.69453028844E-02 -0.21292533875E-01  0.24790887364E-01  0.00000000000E+00 0. -1.
     999901    1    3    3    0    0 -0.42054449714E-01 -0.54546930992E-01 -0.94841004694E-01  0.88777179534E+00  0.88000000000E+00 0. -1.
        -11    1    4    4    0    0  0.23278765696E-01  0.40282293537E-01  0.10836235773E+00  0.11792890146E+00  0.51100000000E-03 0. -1.
         11    1    4    4    0    0  0.81465323433E-02  0.73193345701E-02  0.77711808383E-02  0.13438415844E-01  0.51100000000E-03 0.  1.
</event>
<event>
 8    1  0.1131376E+005  0.1043930E+01  0.7957747E-01            NaN
         13   -1    0    0    0    0  0.00000000000E+00  0.00000000000E+00  0.74505805969E-08  0.10566000000E+00  0.10566000000E+00 0. -1.
     999900   -1    0    0    0    0 -0.00000000000E+00 -0.00000000000E+00 -0.74505805969E-08  0.93827000000E+00  0.93827000000E+00 0.  1.
     999902    2    1    2    0    0  0.12368747650E-01 -0.12405018705E-01  0.16599480118E-01  0.10197967626E+01  0.10195111691E+01 0.  0.
     999903    2    3    3    0    0 -0.83427413614E-01  0.83968801255E-01 -0.42682502979E-01  0.12739597191E+00  0.19925979845E-01 0.  0.
         14    1    1    2    0    0 -0.12368747650E-01  0.12405018705E-01 -0.16599480118E-01  0.24133237406E-01  0.00000000000E+00 0. -1.
     999901    1    3    3    0    0  0.95796161265E-01 -0.96373819960E-01  0.59281983097E-01  0.89240079068E+00  0.88000000000E+00 0. -1.
        -11    1    4    4    0    0 -0.58979492829E-02  0.12805730368E-01 -0.80507235222E-03  0.14130881023E-01  0.51100000000E-03 0. -1.
         11    1    4    4    0    0 -0.77529464332E-01  0.71163070887E-01 -0.41877430627E-01  0.11326509089E+00  0.51100000000E-03 0.  1.
</event>
<event>
 8    1  0.1131376E+005  0.1043930E+01  0.7957747E-01            NaN
         13   -1    0    0    0    0  0.00000000000E+00  0.00000000000E+00  0.74505805969E-08  0.10566000000E+00  0.10566000000E+00 0.  1.
     999900   -1    0    0    0    0 -0.00000000000E+00 -0.00000000000E+00 -0.74505805969E-08  0.93827000000E+00  0.93827000000E+00 0.  1.
     999902    2    1    2    0    0  0.81984496881E-02 -0.18294748182E-01  0.10956414635E-01  0.10210836565E+01  0.10208280356E+01 0.  0.
     999903    2    3    3    0    0 -0.12642438629E+00 -0.20249167575E-01 -0.15002871686E-01  0.13046532511E+00  0.20073880056E-01 0.  0.
         14    1    1    2    0    0 -0.81984496881E-02  0.18294748182E-01 -0.10956414635E-01  0.22846343471E-01  0.00000000000E+00 0. -1.
     999901    1    3    3    0    0  0.13462283598E+00  0.19544193931E-02  0.25959286322E-01  0.89061833142E+00  0.88000000000E+00 0. -1.
        -11    1    4    4    0    0 -0.69398417275E-01 -0.16640078386E-01  0.74344048672E-04  0.71367353720E-01  0.51100000000E-03 0.  1.
         11    1    4    4    0    0 -0.57025969013E-01 -0.36090891889E-02 -0.15077215735E-01  0.59097971386E-01  0.51100000000E-03 0. -1.
</event>
<event>
 8    1  0.1131376E+005  0.1043930E+01  0.7957747E-01            NaN
         13   -1    0    0    0    0  0.00000000000E+00  0.00000000000E+00  0.74505805969E-08  0.10566000000E+00  0.10566000000E+00 0.  1.
     999900   -1    0    0    0    0 -0.00000000000E+00 -0.00000000000E+00 -0.74505805969E-08  0.93827000000E+00  0.93827000000E+00 0.  1.
     999902    2    1    2    0    0 -0.73883173362E-02  0.21013280150E-01  0.65060286131E-02  0.10207249664E+01  0.10204611622E+01 0.  0.
     999903    2    3    3    0    0 -0.20711050155E-01  0.54284050509E-01  0.11753562204E+00  0.13302456087E+00  0.22476779320E-01 0.  0.
         14    1    1    2    0    0  0.73883173362E-02 -0.21013280150E-01 -0.65060286131E-02  0.23205033593E-01  0.00000000000E+00 0. -1.
     999901    1    3    3    0    0  0.13322732819E-01 -0.33270770359E-01 -0.11102959343E+00  0.88770040553E+00  0.88000000000E+00 0.  1.
        -11    1    4    4    0    0 -0.24383227753E-01  0.44002230137E-01  0.85826831180E-01  0.99484893949E-01  0.51100000000E-03 0.  1.
         11    1    4    4    0    0  0.36721775973E-02  0.10281820371E-01  0.31708790861E-01  0.33539666923E-01  0.51100000000E-03 0. -1.
</event>
<event>
 8    1  0.1131376E+005  0.1043930E+01  0.7957747E-01            NaN
         13   -1    0    0    0    0  0.00000000000E+00  0.00000000000E+00  0.74505805969E-08  0.10566000000E+00  0.10566000000E+00 0.  1.
     999900   -1    0    0    0    0 -0.00000000000E+00 -0.00000000000E+00 -0.74505805969E-08  0.93827000000E+00  0.93827000000E+00 0.  1.
     999902    2    1    2    0    0  0.59889731403E-03 -0.14861210271E-01 -0.19516387213E-01  0.10193922002E+01  0.10190968326E+01 0.  0.
     999903    2    3    3    0    0 -0.17688726461E-01  0.12498458706E+00 -0.65008954036E-02  0.12806695809E+00  0.20611794372E-01 0.  0.
         14    1    1    2    0    0 -0.59889731403E-03  0.14861210271E-01  0.19516387213E-01  0.24537799790E-01  0.00000000000E+00 0.  1.
     999901    1    3    3    0    0  0.18287623775E-01 -0.13984579733E+00 -0.13015491809E-01  0.89132524212E+00  0.88000000000E+00 0.  1.
        -11    1    4    4    0    0 -0.17759237369E-03  0.73234846832E-01 -0.51050817992E-02  0.73414557894E-01  0.51100000000E-03 0.  1.
         11    1    4    4    0    0 -0.17511134087E-01  0.51749740226E-01 -0.13958136044E-02  0.54652400195E-01  0.51100000000E-03 0. -1.
</event>
<event>
 8    1  0.1131376E+005  0.1043930E+01  0.7957747E-01            NaN
         13   -1    0    0    0    0  0.00000000000E+00  0.00000000000E+00  0.74505805969E-08  0.10566000000E+00  0.10566000000E+00 0. -1.
     999900   -1    0    0    0    0 -0.00000000000E+00 -0.00000000000E+00 -0.74505805969E-08  0.93827000000E+00  0.93827000000E+00 0.  1.
     999902    2    1    2    0    0 -0.13340645327E-01 -0.13260533283E-02  0.15899140003E-01  0.10231330318E+01  0.10229216425E+01 0.  0.
     999903    2    3    3    0    0  0.10176606726E+00 -0.76004829800E-01 -0.26986998568E-01  0.13146846713E+00  0.20557070783E-01 0.  0.
         14    1    1    2    0    0  0.13340645327E-01  0.13260533283E-02 -0.15899140003E-01  0.20796968240E-01  0.00000000000E+00 0.  1.
     999901    1    3    3    0    0 -0.11510671259E+00  0.74678776471E-01  0.42886138570E-01  0.89166456463E+00  0.88000000000E+00 0.  1.
        -11    1    4    4    0    0  0.72219629094E-01 -0.63376776036E-01 -0.15428026371E-01  0.97316882841E-01  0.51100000000E-03 0. -1.
         11    1    4    4    0    0  0.29546438165E-01 -0.12628053763E-01 -0.11558972196E-01  0.34151584287E-01  0.51100000000E-03 0.  1.
</event>
<event>
 8    1  0.1131376E+005  0.1043930E+01  0.7957747E-01            NaN
         13   -1    0    0    0    0  0.00000000000E+00  0.00000000000E+00  0.74505805969E-08  0.10566000000E+00  0.10566000000E+00 0. -1.
     999900   -1    0    0    0    0 -0.00000000000E+00 -0.00000000000E+00 -0.74505805969E-08  0.93827000000E+00  0.93827000000E+00 0.  1.
     999902    2    1    2    0    0 -0.99883667189E-02  0.10731991540E-02 -0.23827929480E-01  0.10180709697E+01  0.10177425066E+01 0.  0.
     999903    2    3    3    0    0  0.73576482943E-01 -0.23343262880E-01  0.98596012159E-01  0.12534096054E+00  0.55476131483E-02 0.  0.
         14    1    1    2    0    0  0.99883667189E-02 -0.10731991540E-02  0.23827929480E-01  0.25859030327E-01  0.00000000000E+00 0. -1.
     999901    1    3    3    0    0 -0.83564849662E-01  0.24416462034E-01 -0.12242394164E+00  0.89273000913E+00  0.88000000000E+00 0.  1.
        -11    1    4    4    0    0  0.20629246229E-01 -0.77996803224E-02  0.31707911845E-01  0.38627109751E-01  0.51100000000E-03 0. -1.
         11    1    4    4    0    0  0.52947236714E-01 -0.15543582558E-01  0.66888100314E-01  0.86713850791E-01  0.51100000000E-03 0.  1.
</event>
<event>
 8    1  0.1131376E+005  0.1043930E+01  0.7957747E-01            NaN
         13   -1    0    0    0    0  0.00000000000E+00  0.00000000000E+00  0.74505805969E-08  0.10566000000E+00  0.10566000000E+00 0. -1.
     999900   -1    0    0    0    0 -0.00000000000E+00 -0.00000000000E+00 -0.74505805969E-08  0.93827000000E+00  0.93827000000E+00 0. -1.
     999902    2    1    2    0    0  0.12359697656E-01  0.10410974911E-01  0.17851264532E-01  0.10198505862E+01  0.10195662803E+01 0.  0.
     999903    2    3    3    0    0  0.38296056329E-01 -0.12183990773E+00  0.60151814752E-02  0.12951183967E+00  0.20629667021E-01 0.  0.
         14    1    1    2    0    0 -0.12359697656E-01 -0.10410974911E-01 -0.17851264532E-01  0.24079413825E-01  0.00000000000E+00 0.  1.
     999901    1    3    3    0    0 -0.25936358673E-01  0.13225088264E+00  0.11836083057E-01  0.89033874650E+00  0.88000000000E+00 0.  1.
        -11    1    4    4    0    0  0.17802884307E-01 -0.55003127564E-01 -0.75262525065E-02  0.58302592817E-01  0.51100000000E-03 0. -1.
         11    1    4    4    0    0  0.20493172022E-01 -0.66836780166E-01  0.13541433982E-01  0.71209246856E-01  0.51100000000E-03 0.  1.
</event>
<event>
 8    1  0.1131376E+005  0.1043930E+01  0.7957747E-01            NaN
         13   -1    0    0    0    0  0.00000000000E+00  0.00000000000E+00  0.74505805969E-08  0.10566000000E+00  0.10566000000E+00 0.  1.
     999900   -1    0    0    0    0 -0.00000000000E+00 -0.00000000000E+00 -0.74505805969E-08  0.93827000000E+00  0.93827000000E+00 0.  1.
     999902    2    1    2    0    0  0.59606214350E-02 -0.62340591282E-02 -0.20308541141E-01  0.10218657904E+01  0.10216275565E+01 0.  0.
     999903    2    3    3    0    0 -0.96774903675E-01  0.42879859061E-01  0.72319742728E-01  0.12970730447E+00  0.19742729049E-01 0.  0.
         14    1    1    2    0    0 -0.59606214350E-02  0.62340591282E-02  0.20308541141E-01  0.22064209580E-01  0.00000000000E+00 0.  1.
     999901    1    3    3    0    0  0.10273552511E+00 -0.49113918189E-01 -0.92628283869E-01  0.89215848595E+00  0.88000000000E+00 0.  1.
        -11    1    4    4    0    0 -0.56849362301E-01  0.35187753175E-01  0.41609562468E-01  0.78750522394E-01  0.51100000000E-03 0. -1.
         11    1    4    4    0    0 -0.39925541374E-01  0.76921058858E-02  0.30710180260E-01  0.50956782076E-01  0.51100000000E-03 0.  1.
</event>
<event>
 8    1  0.1131376E+005  0.1043930E+01  0.7957747E-01            NaN
         13   -1    0    0    0    0  0.00000000000E+00  0.00000000000E+00  0.74505805969E-08  0.10566000000E+00  0.10566000000E+00 0.  1.
     999900   -1    0    0    0    0 -0.00000000000E+00 -0.00000000000E+00 -0.74505805969E-08  0.93827000000E+00  0.93827000000E+00 0.  1.
     999902    2    1    2    0    0 -0.12332457708E-01 -0.11296160460E-01  0.14124318708E-01  0.10220396109E+01  0.10218051562E+01 0.  0.
     999903    2    3    3    0    0 -0.59067347876E-01 -0.94380895617E-01  0.73517707301E-01  0.13490106608E+00  0.19918315668E-01 0.  0.
         14    1    1    2    0    0  0.12332457708E-01  0.11296160460E-01 -0.14124318708E-01  0.21890389060E-01  0.00000000000E+00 0. -1.
     999901    1    3    3    0    0  0.46734890168E-01  0.83084735157E-01 -0.59393388593E-01  0.88713854486E+00  0.88000000000E+00 0.  1.
        -11    1    4    4    0    0 -0.42414706184E-01 -0.58096405357E-01  0.56628855408E-01  0.91549374667E-01  0.51100000000E-03 0. -1.
         11    1    4    4    0    0 -0.16652641691E-01 -0.36284490260E-01  0.16888851892E-01  0.43351691408E-01  0.51100000000E-03 0.  1.
</event>
<event>
 8    1  0.1131376E+005  0.1043930E+01  0.7957747E-01            NaN
         13   -1    0    0    0    0  0.00000000000E+00  0.00000000000E+00  0.74505805969E-08  0.10566000000E+00  0.10566000000E+00 0. -1.
     999900   -1    0    0    0    0 -0.00000000000E+00 -0.00000000000E+00 -0.74505805969E-08  0.93827000000E+00  0.93827000000E+00 0. -1.
     999902    2    1    2    0    0  0.15459463593E-02  0.22029128126E-01  0.70511087790E-02  0.10207483139E+01  0.10204850463E+01 0.  0.
     999903    2    3    3    0    0 -0.12344817815E+00  0.28365449987E-01  0.29451111564E-01  0.13161084405E+00  0.20248329729E-01 0.  0.
         14    1    1    2    0    0 -0.15459463593E-02 -0.22029128126E-01 -0.70511087790E-02  0.23181686115E-01  0.00000000000E+00 0.  1.
     999901    1    3    3    0    0  0.12499412451E+00 -0.63363218616E-02 -0.22400002785E-01  0.88913746983E+00  0.88000000000E+00 0. -1.
        -11    1    4    4    0    0 -0.22988476208E-01  0.66964785191E-02 -0.22663995936E-02  0.24056403535E-01  0.51100000000E-03 0. -1.
         11    1    4    4    0    0 -0.10045970195E+00  0.21668971468E-01  0.31717511157E-01  0.10755444052E+00  0.51100000000E-03 0.  1.
</event>
<event>
 8    1  0.1131376E+005  0.1043930E+01  0.7957747E-01            NaN
         13   -1    0    0    0    0  0.00000000000E+00  0.00000000000E+00  0.74505805969E-08  0.10566000000E+00  0.10566000000E+00 0.  1.
     999900   -1    0    0    0    0 -0.00000000000E+00 -0.00000000000E+00 -0.74505805969E-08  0.93827000000E+00  0.93827000000E+00 0. -1.
     999902    2    1    2    0    0  0.13663703381E-01 -0.73222670758E-02  0.13905788204E-01  0.10231049350E+01  0.10228929684E+01 0.  0.
     999903    2    3    3    0    0 -0.43450893309E-01  0.68243413240E-01  0.10433932668E+00  0.13341371103E+00  0.19167149419E-01 0.  0.
         14    1    1    2    0    0 -0.13663703381E-01  0.73222670758E-02 -0.13905788204E-01  0.20825064965E-01  0.00000000000E+00 0. -1.
     999901    1    3    3    0    0  0.57114596690E-01 -0.75565680316E-01 -0.90433538480E-01  0.88969122401E+00  0.88000000000E+00 0. -1.
        -11    1    4    4    0    0 -0.12753125894E-01  0.70097013540E-02  0.16123892538E-01  0.21726002042E-01  0.51100000000E-03 0.  1.
         11    1    4    4    0    0 -0.30697767416E-01  0.61233711886E-01  0.88215434146E-01  0.11168770898E+00  0.51100000000E-03 0. -1.
</event>
<event>
 8    1  0.1131376E+005  0.1043930E+01  0.7957747E-01            NaN
         13   -1    0    0    0    0  0.00000000000E+00  0.00000000000E+00  0.74505805969E-08  0.10566000000E+00  0.10566000000E+00 0.  1.
     999900   -1    0    0    0    0 -0.00000000000E+00 -0.00000000000E+00 -0.74505805969E-08  0.93827000000E+00  0.93827000000E+00 0. -1.
     999902    2    1    2    0    0 -0.54157473741E-02  0.14688217201E-01 -0.18610920900E-01  0.10196104519E+01  0.10193203781E+01 0.  0.
     999903    2    3    3    0    0 -0.10739748805E+00 -0.60986929761E-01  0.31499877756E-01  0.12908358791E+00  0.20413337009E-01 0.  0.
         14    1    1    2    0    0  0.54157473741E-02 -0.14688217201E-01  0.18610920900E-01  0.24319548123E-01  0.00000000000E+00 0.  1.
     999901    1    3    3    0    0  0.10198174068E+00  0.75675146963E-01 -0.50110798656E-01  0.89052686396E+00  0.88000000000E+00 0.  1.
        -11    1    4    4    0    0 -0.75052799075E-01 -0.46638992824E-01  0.13531020087E-01  0.89395010634E-01  0.51100000000E-03 0.  1.
         11    1    4    4    0    0 -0.32344688978E-01 -0.14347936937E-01  0.17968857670E-01  0.39688577279E-01  0.51100000000E-03 0. -1.
</event>
<event>
 8    1  0.1131376E+005  0.1043930E+01  0.7957747E-01            NaN
         13   -1    0    0    0    0  0.00000000000E+00  0.00000000000E+00  0.74505805969E-08  0.10566000000E+00  0.10566000000E+00 0. -1.
     999900   -1    0    0    0    0 -0.00000000000E+00 -0.00000000000E+00 -0.74505805969E-08  0.93827000000E+00  0.93827000000E+00 0. -1.
     999902    2    1    2    0    0 -0.23903766939E-01 -0.79385218274E-03  0.38125761366E-02  0.10197110815E+01  0.10194234320E+01 0.  0.
     999903    2    3    3    0    0 -0.13236569834E-01  0.62489954022E-01 -0.11174260425E+00  0.12983938913E+00  0.17077945731E-01 0.  0.
         14    1    1    2    0    0  0.23903766939E-01  0.79385218274E-03 -0.38125761366E-02  0.24218918472E-01  0.00000000000E+00 0. -1.
     999901    1    3    3    0    0 -0.10667197105E-01 -0.63283806205E-01  0.11555518038E+00  0.88987169240E+00  0.88000000000E+00 0.  1.
        -11    1    4    4    0    0  0.17775626837E-02  0.23734169765E-01 -0.31652776760E-01  0.39605933156E-01  0.51100000000E-03 0. -1.
         11    1    4    4    0    0 -0.15014132517E-01  0.38755784257E-01 -0.80089827488E-01  0.90233455972E-01  0.51100000000E-03 0.  1.
</event>
<event>
 8    1  0.1131376E+005  0.1043930E+01  0.7957747E-01            NaN
         13   -1    0    0    0    0  0.00000000000E+00  0.00000000000E+00  0.74505805969E-08  0.10566000000E+00  0.10566000000E+00 0. -1.
     999900   -1    0    0    0    0 -0.00000000000E+00 -0.00000000000E+00 -0.74505805969E-08  0.93827000000E+00  0.93827000000E+00 0. -1.
     999902    2    1    2    0    0  0.22354978314E-01 -0.57543242926E-02  0.43544624012E-02  0.10204391795E+01  0.10201687608E+01 0.  0.
     999903    2    3    3    0    0  0.11235099704E+00  0.43907581863E-01  0.52980123886E-01  0.13312297701E+00  0.19084318138E-01 0.  0.
         14    1    1    2    0    0 -0.22354978314E-01  0.57543242926E-02 -0.43544624012E-02  0.23490820469E-01  0.00000000000E+00 0. -1.
     999901    1    3    3    0    0 -0.89996018727E-01 -0.49661906155E-01 -0.48625661484E-01  0.88731620253E+00  0.88000000000E+00 0. -1.
        -11    1    4    4    0    0  0.98416994251E-01  0.42679779109E-01  0.41506082964E-01  0.11502384251E+00  0.51100000000E-03 0. -1.
         11    1    4    4    0    0  0.13934002791E-01  0.12278027540E-02  0.11474040922E-01  0.18099134494E-01  0.51100000000E-03 0.  1.
</event>
<event>
 8    1  0.1131376E+005  0.1043930E+01  0.7957747E-01            NaN
         13   -1    0    0    0    0  0.00000000000E+00  0.00000000000E+00  0.74505805969E-08  0.10566000000E+00  0.10566000000E+00 0. -1.
     999900   -1    0    0    0    0 -0.00000000000E+00 -0.00000000000E+00 -0.74505805969E-08  0.93827000000E+00  0.93827000000E+00 0.  1.
     999902    2    1    2    0    0  0.17276010350E-01  0.78702132507E-03  0.15666975806E-01  0.10205947463E+01  0.10203279385E+01 0.  0.
     999903    2    3    3    0    0 -0.10627652993E+00 -0.64173317541E-01  0.30890009206E-01  0.12946242355E+00  0.19834589574E-01 0.  0.
         14    1    1    2    0    0 -0.17276010350E-01 -0.78702132507E-03 -0.15666975806E-01  0.23335253739E-01  0.00000000000E+00 0. -1.
     999901    1    3    3    0    0  0.12355254028E+00  0.64960338866E-01 -0.15223033400E-01  0.89113232271E+00  0.88000000000E+00 0. -1.
        -11    1    4    4    0    0 -0.19529719766E-01 -0.61848159563E-02 -0.49926168186E-03  0.20498104444E-01  0.51100000000E-03 0.  1.
         11    1    4    4    0    0 -0.86746810166E-01 -0.57988501585E-01  0.31389270888E-01  0.10896431910E+00  0.51100000000E-03 0. -1.
</event>
<event>
 8    1  0.1131376E+005  0.1043930E+01  0.7957747E-01            NaN
         13   -1    0    0    0    0  0.00000000000E+00  0.00000000000E+00  0.74505805969E-08  0.10566000000E+00  0.10566000000E+00 0. -1.
     999900   -1    0    0    0    0 -0.00000000000E+00 -0.00000000000E+00 -0.74505805969E-08  0.93827000000E+00  0.93827000000E+00 0. -1.
     999902    2    1    2    0    0 -0.80157223879E-02  0.22272148131E-01  0.12426184570E-03  0.10202590087E+01  0.10199843769E+01 0.  0.
     999903    2    3    3    0    0  0.13155822643E-01  0.46546765309E-01 -0.12045713912E+00  0.13145229990E+00  0.20739039412E-01 0.  0.
         14    1    1    2    0    0  0.80157223879E-02 -0.22272148131E-01 -0.12426184570E-03  0.23670991292E-01  0.00000000000E+00 0. -1.
     999901    1    3    3    0    0 -0.21171545031E-01 -0.24274617178E-01  0.12058140096E+00  0.88880670880E+00  0.88000000000E+00 0.  1.
        -11    1    4    4    0    0  0.13465456604E-01  0.30000306986E-01 -0.99189063069E-01  0.10449913059E+00  0.51100000000E-03 0. -1.
         11    1    4    4    0    0 -0.30963396105E-03  0.16546458323E-01 -0.21268076047E-01  0.26953169312E-01  0.51100000000E-03 0.  1.
</event>
<event>
 8    1  0.1131376E+005  0.1043930E+01  0.7957747E-01            NaN
         13   -1    0    0    0    0  0.00000000000E+00  0.00000000000E+00  0.74505805969E-08  0.10566000000E+00  0.10566000000E+00 0. -1.
     999900   -1    0    0    0    0 -0.00000000000E+00 -0.00000000000E+00 -0.74505805969E-08  0.93827000000E+00  0.93827000000E+00 0. -1.
     999902    2    1    2    0    0  0.25142750212E-01  0.14221069413E-01 -0.21580772866E-01  0.10078727336E+01  0.10072275416E+01 0.  0.
     999903    2    3    3    0    0 -0.25056095990E-01 -0.11240047936E+00 -0.98882008502E-02  0.11731692006E+00  0.20094962279E-01 0.  0.
         14    1    1    2    0    0 -0.25142750212E-01 -0.14221069413E-01  0.21580772866E-01  0.36057266410E-01  0.00000000000E+00 0. -1.
     999901    1    3    3    0    0  0.50198846202E-01  0.12662154878E+00 -0.11692572016E-01  0.89055581353E+00  0.88000000000E+00 0.  1.
        -11    1    4    4    0    0 -0.23455404814E-01 -0.70133346255E-01 -0.34930069719E-03  0.73954211536E-01  0.51100000000E-03 0. -1.
         11    1    4    4    0    0 -0.16006911758E-02 -0.42267133106E-01 -0.95389001530E-02  0.43362708522E-01  0.51100000000E-03 0.  1.
</event>
<event>
 8    1  0.1131376E+005  0.1043930E+01  0.7957747E-01            NaN
         13   -1    0    0    0    0  0.00000000000E+00  0.00000000000E+00  0.74505805969E-08  0.10566000000E+00  0.10566000000E+00 0.  1.
     999900   -1    0    0    0    0 -0.00000000000E+00 -0.00000000000E+00 -0.74505805969E-08  0.93827000000E+00  0.93827000000E+00 0.  1.
     999902    2    1    2    0    0  0.40892165415E-02  0.22929311746E-01  0.74452619378E-03  0.10206270099E+01  0.10203609479E+01 0.  0.
     999903    2    3    3    0    0  0.10560339834E+00  0.63149503293E-01  0.46146562349E-01  0.13271702695E+00  0.18557115031E-01 0.  0.
         14    1    1    2    0    0 -0.40892165415E-02 -0.22929311746E-01 -0.74452619378E-03  0.23302990116E-01  0.00000000000E+00 0. -1.
     999901    1    3    3    0    0 -0.10151418180E+00 -0.40220191547E-01 -0.45402036155E-01  0.88790998294E+00  0.88000000000E+00 0.  1.
        -11    1    4    4    0    0  0.87126527813E-01  0.58853457196E-01  0.42422069202E-01  0.11337836808E+00  0.51100000000E-03 0.  1.
         11    1    4    4    0    0  0.18476870525E-01  0.42960460971E-02  0.37244931471E-02  0.19338658864E-01  0.51100000000E-03 0. -1.
</event>
<event>
 8    1  0.1131376E+005  0.1043930E+01  0.7957747E-01            NaN
         13   -1    0    0    0    0  0.00000000000E+00  0.00000000000E+00  0.74505805969E-08  0.10566000000E+00  0.10566000000E+00 0.  1.
     999900   -1    0    0    0    0 -0.00000000000E+00 -0.00000000000E+00 -0.74505805969E-08  0.93827000000E+00  0.93827000000E+00 0. -1.
     999902    2    1    2    0    0  0.45158713291E-02 -0.13503952125E-01 -0.18932854007E-01  0.10202402812E+01  0.10199652095E+01 0.  0.
     999903    2    3    3    0    0  0.94756662313E-01 -0.90184200106E-01 -0.20305204764E-02  0.13214740897E+00  0.18622558457E-01 0.  0.
         14    1    1    2    0    0 -0.45158713291E-02  0.13503952125E-01  0.18932854007E-01  0.23689718819E-01  0.00000000000E+00 0.  1.
     999901    1    3    3    0    0 -0.90240790984E-01  0.76680247980E-01 -0.16902333531E-01  0.88809287221E+00  0.88000000000E+00 0.  1.
        -11    1    4    4    0    0  0.67995195412E-01 -0.65608728901E-01  0.68633322962E-02  0.94737629052E-01  0.51100000000E-03 0. -1.
         11    1    4    4    0    0  0.26761466900E-01 -0.24575471205E-01 -0.88938527727E-02  0.37409779921E-01  0.51100000000E-03 0.  1.
</event>
<event>
 8    1  0.1131376E+005  0.1043930E+01  0.7957747E-01            NaN
         13   -1    0    0    0    0  0.00000000000E+00  0.00000000000E+00  0.74505805969E-08  0.10566000000E+00  0.10566000000E+00 0.  1.
     999900   -1    0    0    0    0 -0.00000000000E+00 -0.00000000000E+00 -0.74505805969E-08  0.93827000000E+00  0.93827000000E+00 0.  1.
     999902    2    1    2    0    0  0.21671399219E-01 -0.31537655707E-02  0.68924007031E-02  0.10209713204E+01  0.10207131508E+01 0.  0.
     999903    2    3    3    0    0  0.78486134775E-01 -0.25266869433E-01 -0.10148237727E+00  0.13222951536E+00  0.19684607983E-01 0.  0.
         14    1    1    2    0    0 -0.21671399219E-01  0.31537655707E-02 -0.68924007031E-02  0.22958679597E-01  0.00000000000E+00 0. -1.
     999901    1    3    3    0    0 -0.56814735556E-01  0.22113103862E-01  0.10837477798E+00  0.88874180505E+00  0.88000000000E+00 0.  1.
        -11    1    4    4    0    0  0.32780050183E-01 -0.20450992293E-01 -0.42217953331E-01  0.57231035987E-01  0.51100000000E-03 0.  1.
         11    1    4    4    0    0  0.45706084592E-01 -0.48158771397E-02 -0.59264423942E-01  0.74998479368E-01  0.51100000000E-03 0. -1.
</event>
<event>
 8    1  0.1131376E+005  0.1043930E+01  0.7957747E-01            NaN
         13   -1    0    0    0    0  0.00000000000E+00  0.00000000000E+00  0.74505805969E-08  0.10566000000E+00  0.10566000000E+00 0. -1.
     999900   -1    0    0    0    0 -0.00000000000E+00 -0.00000000000E+00 -0.74505805969E-08  0.93827000000E+00  0.93827000000E+00 0.  1.
     999902    2    1    2    0    0  0.62752890267E-03  0.23274842171E-01  0.50462079368E-02  0.10201061404E+01  0.10198279078E+01 0.  0.
     999903    2    3    3    0    0 -0.76311970747E-01 -0.28102945763E-01 -0.98562108262E-01  0.12921105856E+00  0.19175923182E-01 0.  0.
         14    1    1    2    0    0 -0.62752890267E-03 -0.23274842171E-01 -0.50462079368E-02  0.23823859577E-01  0.00000000000E+00 0.  1.
     999901    1    3    3    0    0  0.76939499650E-01  0.51377787934E-01  0.10360831620E+00  0.89089508186E+00  0.88000000000E+00 0. -1.
        -11    1    4    4    0    0 -0.29455337369E-01 -0.18887225499E-02 -0.29518284722E-01  0.41746549873E-01  0.51100000000E-03 0. -1.
         11    1    4    4    0    0 -0.46856633378E-01 -0.26214223213E-01 -0.69043823540E-01  0.87464508689E-01  0.51100000000E-03 0.  1.
</event>
<event>
 8    1  0.1131376E+005  0.1043930E+01  0.7957747E-01            NaN
         13   -1    0    0    0    0  0.00000000000E+00  0.00000000000E+00  0.74505805969E-08  0.10566000000E+00  0.10566000000E+00 0. -1.
     999900   -1    0    0    0    0 -0.00000000000E+00 -0.00000000000E+00 -0.74505805969E-08  0.93827000000E+00  0.93827000000E+00 0.  1.
     999902    2    1    2    0    0  0.12406905637E-01 -0.15604632750E-01 -0.12118051598E-01  0.10206001255E+01  0.10203334421E+01 0.  0.
     999903    2    3    3    0    0  0.11138131307E+00  0.12003450032E-01  0.65317211062E-01  0.13124397664E+00  0.20217903723E-01 0.  0.
         14    1    1    2    0    0 -0.12406905637E-01  0.15604632750E-01  0.12118051598E-01  0.23329874524E-01  0.00000000000E+00 0. -1.
     999901    1    3    3    0    0 -0.98974407432E-01 -0.27608082782E-01 -0.77435262660E-01  0.88935614883E+00  0.88000000000E+00 0. -1.
        -11    1    4    4    0    0  0.24642649055E-01  0.33585446871E-02  0.24770996928E-01  0.35105603323E-01  0.51100000000E-03 0. -1.
         11    1    4    4    0    0  0.86738664014E-01  0.86449053445E-02  0.40546214134E-01  0.96138373321E-01  0.51100000000E-03 0.  1.
</event>
<event>
 8    1  0.1131376E+005  0.1043930E+01  0.7957747E-01            NaN
         13   -1    0    0    0    0  0.00000000000E+00  0.00000000000E+00  0.74505805969E-08  0.10566000000E+00  0.10566000000E+00 0.  1.
     999900   -1    0    0    0    0 -0.00000000000E+00 -0.00000000000E+00 -0.74505805969E-08  0.93827000000E+00  0.93827000000E+00 0. -1.
     999902    2    1    2    0    0  0.83394255900E-02  0.16590345903E-01  0.14502746873E-01  0.10203691158E+01  0.10200970627E+01 0.  0.
     999903    2    3    3    0    0 -0.49595835774E-01 -0.92976812448E-01 -0.69349573979E-01  0.12773667836E+00  0.20071397763E-01 0.  0.
         14    1    1    2    0    0 -0.83394255900E-02 -0.16590345903E-01 -0.14502746873E-01  0.23560884178E-01  0.00000000000E+00 0.  1.
     999901    1    3    3    0    0  0.57935261364E-01  0.10956715835E+00  0.83852320852E-01  0.89263243746E+00  0.88000000000E+00 0. -1.
        -11    1    4    4    0    0 -0.17593113609E-01 -0.53959878258E-01 -0.38632157000E-01  0.68657780212E-01  0.51100000000E-03 0. -1.
         11    1    4    4    0    0 -0.32002722165E-01 -0.39016934190E-01 -0.30717416979E-01  0.59078898148E-01  0.51100000000E-03 0.  1.
</event>
<event>
 8    1  0.1131376E+005  0.1043930E+01  0.7957747E-01            NaN
         13   -1    0    0    0    0  0.00000000000E+00  0.00000000000E+00  0.74505805969E-08  0.10566000000E+00  0.10566000000E+00 0. -1.
     999900   -1    0    0    0    0 -0.00000000000E+00 -0.00000000000E+00 -0.74505805969E-08  0.93827000000E+00  0.93827000000E+00 0. -1.
     999902    2    1    2    0    0  0.47190774945E-02 -0.23759094401E-01  0.75764996934E-03  0.10196949367E+01  0.10194068990E+01 0.  0.
     999903    2    3    3    0    0  0.63828530959E-01 -0.83913232400E-01  0.77798317286E-01  0.13231243056E+00  0.18398075205E-01 0.  0.
         14    1    1    2    0    0 -0.47190774945E-02  0.23759094401E-01 -0.75764996934E-03  0.24235063289E-01  0.00000000000E+00 0. -1.
     999901    1    3    3    0    0 -0.59109453465E-01  0.60154137999E-01 -0.77040667316E-01  0.88738250615E+00  0.88000000000E+00 0. -1.
        -11    1    4    4    0    0  0.97765833817E-02 -0.21618222538E-01  0.24517779823E-01  0.34122013082E-01  0.51100000000E-03 0.  1.
         11    1    4    4    0    0  0.54051947578E-01 -0.62295009862E-01  0.53280537462E-01  0.98190417475E-01  0.51100000000E-03 0. -1.
</event>
<event>
 8    1  0.1131376E+005  0.1043930E+01  0.7957747E-01            NaN
         13   -1    0    0    0    0  0.00000000000E+00  0.00000000000E+00  0.74505805969E-08  0.10566000000E+00  0.10566000000E+00 0. -1.
     999900   -1    0    0    0    0 -0.00000000000E+00 -0.00000000000E+00 -0.74505805969E-08  0.93827000000E+00  0.93827000000E+00 0.  1.
     999902    2    1    2    0    0 -0.18162679999E-01  0.10912636848E-01  0.10555451287E-01  0.10202575236E+01  0.10199828569E+01 0.  0.
     999903    2    3    3    0    0  0.11775643463E+00 -0.89745747630E-02 -0.44338187068E-01  0.12791071968E+00  0.21169706825E-01 0.  0.
         14    1    1    2    0    0  0.18162679999E-01 -0.10912636848E-01 -0.10555451287E-01  0.23672476415E-01  0.00000000000E+00 0. -1.
     999901    1    3    3    0    0 -0.13591911463E+00  0.19887211611E-01  0.54893638355E-01  0.89234680391E+00  0.88000000000E+00 0. -1.
        -11    1    4    4    0    0  0.20004468207E-01  0.53055826280E-02 -0.34282591382E-02  0.20984328367E-01  0.51100000000E-03 0.  1.
         11    1    4    4    0    0  0.97751966426E-01 -0.14280157391E-01 -0.40909927930E-01  0.10692639131E+00  0.51100000000E-03 0. -1.
</event>
<event>
 8    1  0.1131376E+005  0.1043930E+01  0.7957747E-01            NaN
         13   -1    0    0    0    0  0.00000000000E+00  0.00000000000E+00  0.74505805969E-08  0.10566000000E+00  0.10566000000E+00 0. -1.
     999900   -1    0    0    0    0 -0.00000000000E+00 -0.00000000000E+00 -0.74505805969E-08  0.93827000000E+00  0.93827000000E+00 0.  1.
     999902    2    1    2    0    0 -0.62826829794E-02 -0.80663545341E-02  0.11815263559E-01  0.10283050637E+01  0.10281863476E+01 0.  0.
     999903    2    3    3    0    0  0.98283613036E-01  0.52060953242E-01 -0.75340112052E-01  0.13581110693E+00  0.19962786324E-01 0.  0.
         14    1    1    2    0    0  0.62826829794E-02  0.80663545341E-02 -0.11815263559E-01  0.15624936283E-01  0.00000000000E+00 0.  1.
     999901    1    3    3    0    0 -0.10456629602E+00 -0.60127307776E-01  0.87155375610E-01  0.89249395679E+00  0.88000000000E+00 0. -1.
        -11    1    4    4    0    0  0.44775136331E-01  0.33301643483E-01 -0.43688991641E-01  0.70871724995E-01  0.51100000000E-03 0.  1.
         11    1    4    4    0    0  0.53508476705E-01  0.18759309759E-01 -0.31651120411E-01  0.64939381936E-01  0.51100000000E-03 0. -1.
</event>
<event>
 8    1  0.1131376E+005  0.1043930E+01  0.7957747E-01            NaN
         13   -1    0    0    0    0  0.00000000000E+00  0.00000000000E+00  0.74505805969E-08  0.10566000000E+00  0.10566000000E+00 0. -1.
     999900   -1    0    0    0    0 -0.00000000000E+00 -0.00000000000E+00 -0.74505805969E-08  0.93827000000E+00  0.93827000000E+00 0. -1.
     999902    2    1    2    0    0 -0.10776605310E-01 -0.15875734664E-01  0.13782395188E-01  0.10203052547E+01  0.10200317074E+01 0.  0.
     999903    2    3    3    0    0 -0.70680413156E-01 -0.10508144517E+00 -0.33466180781E-01  0.13251104831E+00  0.20034014677E-01 0.  0.
         14    1    1    2    0    0  0.10776605310E-01  0.15875734664E-01 -0.13782395188E-01  0.23624745295E-01  0.00000000000E+00 0.  1.
     999901    1    3    3    0    0  0.59903807846E-01  0.89205710509E-01  0.47248575969E-01  0.88779420640E+00  0.88000000000E+00 0. -1.
        -11    1    4    4    0    0 -0.53764472168E-01 -0.66176784449E-01 -0.27938367428E-01  0.89726243447E-01  0.51100000000E-03 0.  1.
         11    1    4    4    0    0 -0.16915940988E-01 -0.38904660723E-01 -0.55278133532E-02  0.42784804861E-01  0.51100000000E-03 0. -1.
</event>
<event>
 8    1  0.1131376E+005  0.1043930E+01  0.7957747E-01            NaN
         13   -1    0    0    0    0  0.00000000000E+00  0.00000000000E+00  0.74505805969E-08  0.10566000000E+00  0.10566000000E+00 0.  1.
     999900   -1    0    0    0    0 -0.00000000000E+00 -0.00000000000E+00 -0.74505805969E-08  0.93827000000E+00  0.93827000000E+00 0. -1.
     999902    2    1    2    0    0  0.22921694211E-01 -0.46347322458E-02  0.63873707289E-02  0.10196878195E+01  0.10193996106E+01 0.  0.
     999903    2    3    3    0    0 -0.11321945444E-01 -0.97205421294E-01 -0.82398894704E-01  0.12972997770E+00  0.21522288166E-01 0.  0.
         14    1    1    2    0    0 -0.22921694211E-01  0.46347322458E-02 -0.63873707289E-02  0.24242180458E-01  0.00000000000E+00 0. -1.
     999901    1    3    3    0    0  0.34243639655E-01  0.92570689048E-01  0.88786265433E-01  0.88995784184E+00  0.88000000000E+00 0.  1.
        -11    1    4    4    0    0 -0.17194333542E-01 -0.56836477265E-01 -0.47515296566E-01  0.76052579066E-01  0.51100000000E-03 0. -1.
         11    1    4    4    0    0  0.58723880983E-02 -0.40368944029E-01 -0.34883598139E-01  0.53677398634E-01  0.51100000000E-03 0.  1.
</event>
<event>
 8    1  0.1131376E+005  0.1043930E+01  0.7957747E-01            NaN
         13   -1    0    0    0    0  0.00000000000E+00  0.00000000000E+00  0.74505805969E-08  0.10566000000E+00  0.10566000000E+00 0. -1.
     999900   -1    0    0    0    0 -0.00000000000E+00 -0.00000000000E+00 -0.74505805969E-08  0.93827000000E+00  0.93827000000E+00 0. -1.
     999902    2    1    2    0    0  0.36871548149E-02  0.10994447942E-02  0.24155968203E-01  0.10194695280E+01  0.10191760417E+01 0.  0.
     999903    2    3    3    0    0 -0.75334429785E-01  0.10351751441E+00  0.10057141229E-01  0.12990072870E+00  0.19542290677E-01 0.  0.
         14    1    1    2    0    0 -0.36871548149E-02 -0.10994447942E-02 -0.24155968203E-01  0.24460471976E-01  0.00000000000E+00 0.  1.
     999901    1    3    3    0    0  0.79021584600E-01 -0.10241806962E+00  0.14098826974E-01  0.88956879933E+00  0.88000000000E+00 0. -1.
        -11    1    4    4    0    0 -0.53778365854E-01  0.58814272274E-01  0.28380787322E-02  0.79746768392E-01  0.51100000000E-03 0. -1.
         11    1    4    4    0    0 -0.21556063931E-01  0.44703242137E-01  0.72190624963E-02  0.50153960303E-01  0.51100000000E-03 0.  1.
</event>
<event>
 8    1  0.1131376E+005  0.1043930E+01  0.7957747E-01            NaN
         13   -1    0    0    0    0  0.00000000000E+00  0.00000000000E+00  0.74505805969E-08  0.10566000000E+00  0.10566000000E+00 0. -1.
     999900   -1    0    0    0    0 -0.00000000000E+00 -0.00000000000E+00 -0.74505805969E-08  0.93827000000E+00  0.93827000000E+00 0.  1.
     999902    2    1    2    0    0 -0.61270358490E-02 -0.32587198200E-01 -0.72621295407E-02  0.10099858609E+01  0.10094152934E+01 0.  0.
     999903    2    3    3    0    0  0.21262169371E-01  0.10883516040E+00  0.32875763519E-01  0.11737088088E+00  0.19948329895E-01 0.  0.
         14    1    1    2    0    0  0.61270358490E-02  0.32587198200E-01  0.72621295407E-02  0.33944139115E-01  0.00000000000E+00 0.  1.
     999901    1    3    3    0    0 -0.27389205220E-01 -0.14142235860E+00 -0.40137893060E-01  0.89261498001E+00  0.88000000000E+00 0.  1.
        -11    1    4    4    0    0  0.20040246099E-01  0.54929161036E-01  0.12988337985E-01  0.59898098805E-01  0.51100000000E-03 0.  1.
         11    1    4    4    0    0  0.12219232722E-02  0.53905999362E-01  0.19887425535E-01  0.57472782072E-01  0.51100000000E-03 0. -1.
</event>
<event>
 8    1  0.1131376E+005  0.1043930E+01  0.7957747E-01            NaN
         13   -1    0    0    0    0  0.00000000000E+00  0.00000000000E+00  0.74505805969E-08  0.10566000000E+00  0.10566000000E+00 0. -1.
     999900   -1    0    0    0    0 -0.00000000000E+00 -0.00000000000E+00 -0.74505805969E-08  0.93827000000E+00  0.93827000000E+00 0.  1.
     999902    2    1    2    0    0  0.19426462297E-01  0.61620433905E-02  0.12433937721E-01  0.10200561435E+01  0.10197767280E+01 0.  0.
     999903    2    3    3    0    0  0.91378022682E-01 -0.29362959158E-01  0.90021571917E-01  0.13300547201E+00  0.19350601371E-01 0.  0.
         14    1    1    2    0    0 -0.19426462297E-01 -0.61620433905E-02 -0.12433937721E-01  0.23873856483E-01  0.00000000000E+00 0. -1.
     999901    1    3    3    0    0 -0.71951560385E-01  0.35525002548E-01 -0.77587634197E-01  0.88705067151E+00  0.88000000000E+00 0.  1.
        -11    1    4    4    0    0  0.84694295394E-01 -0.27464869441E-01  0.74882898845E-01  0.11634067382E+00  0.51100000000E-03 0. -1.
         11    1    4    4    0    0  0.66837272884E-02 -0.18980897170E-02  0.15138673072E-01  0.16664798182E-01  0.51100000000E-03 0.  1.
</event>
<event>
 8    1  0.1131376E+005  0.1043930E+01  0.7957747E-01            NaN
         13   -1    0    0    0    0  0.00000000000E+00  0.00000000000E+00  0.74505805969E-08  0.10566000000E+00  0.10566000000E+00 0.  1.
     999900   -1    0    0    0    0 -0.00000000000E+00 -0.00000000000E+00 -0.74505805969E-08  0.93827000000E+00  0.93827000000E+00 0. -1.
     999902    2    1    2    0    0 -0.22563227465E-01 -0.90206658194E-02  0.56053411878E-02  0.10189922476E+01  0.10186870516E+01 0.  0.
     999903    2    3    3    0    0  0.27432767096E-01 -0.37563239542E-01 -0.11779498930E+00  0.12851938470E+00  0.21863647075E-01 0.  0.
         14    1    1    2    0    0  0.22563227465E-01  0.90206658194E-02 -0.56053411878E-02  0.24937752410E-01  0.00000000000E+00 0. -1.
     999901    1    3    3    0    0 -0.49995994560E-01  0.28542573723E-01  0.12340033049E+00  0.89047286289E+00  0.88000000000E+00 0.  1.
        -11    1    4    4    0    0  0.19983633444E-01 -0.95170563144E-02 -0.44987286785E-01  0.50140174110E-01  0.51100000000E-03 0. -1.
         11    1    4    4    0    0  0.74491336520E-02 -0.28046183228E-01 -0.72807702513E-01  0.78379210586E-01  0.51100000000E-03 0.  1.
</event>
<event>
 8    1  0.1131376E+005  0.1043930E+01  0.7957747E-01            NaN
         13   -1    0    0    0    0  0.00000000000E+00  0.00000000000E+00  0.74505805969E-08  0.10566000000E+00  0.10566000000E+00 0. -1.
     999900   -1    0    0    0    0 -0.00000000000E+00 -0.00000000000E+00 -0.74505805969E-08  0.93827000000E+00  0.93827000000E+00 0. -1.
     999902    2    1    2    0    0 -0.19843184942E-01 -0.39155299594E-02  0.11926750985E-01  0.10204495666E+01  0.10201793897E+01 0.  0.
     999903    2    3    3    0    0 -0.11952276525E+00 -0.41052285423E-01  0.39071598354E-01  0.13362827678E+00  0.18945844049E-01 0.  0.
         14    1    1    2    0    0  0.19843184942E-01  0.39155299594E-02 -0.11926750985E-01  0.23480433399E-01  0.00000000000E+00 0.  1.
     999901    1    3    3    0    0  0.99679580307E-01  0.37136755463E-01 -0.27144847368E-01  0.88682128982E+00  0.88000000000E+00 0. -1.
        -11    1    4    4    0    0 -0.94000586921E-02 -0.88527470128E-02  0.21580311014E-02  0.13101543891E-01  0.51100000000E-03 0.  1.
         11    1    4    4    0    0 -0.11012270656E+00 -0.32199538410E-01  0.36913567252E-01  0.12052673289E+00  0.51100000000E-03 0. -1.
</event>
<event>
 8    1  0.1131376E+005  0.1043930E+01  0.7957747E-01            NaN
         13   -1    0    0    0    0  0.00000000000E+00  0.00000000000E+00  0.74505805969E-08  0.10566000000E+00  0.10566000000E+00 0. -1.
     999900   -1    0    0    0    0 -0.00000000000E+00 -0.00000000000E+00 -0.74505805969E-08  0.93827000000E+00  0.93827000000E+00 0. -1.
     999902    2    1    2    0    0  0.15890584221E-01  0.11938247300E-01 -0.14320101789E-01  0.10194331077E+01  0.10191387361E+01 0.  0.
     999903    2    3    3    0    0  0.74407176712E-01  0.53787647448E-01 -0.93918401254E-01  0.13291663684E+00  0.20411449976E-01 0.  0.
         14    1    1    2    0    0 -0.15890584221E-01 -0.11938247300E-01  0.14320101789E-01  0.24496892267E-01  0.00000000000E+00 0. -1.
     999901    1    3    3    0    0 -0.58516592491E-01 -0.41849400148E-01  0.79598299464E-01  0.88651647089E+00  0.88000000000E+00 0.  1.
        -11    1    4    4    0    0  0.41493684255E-01  0.40422477371E-01 -0.50818374442E-01  0.77061474238E-01  0.51100000000E-03 0. -1.
         11    1    4    4    0    0  0.32913492457E-01  0.13365170077E-01 -0.43100026812E-01  0.55855162600E-01  0.51100000000E-03 0.  1.
</event>
<event>
 8    1  0.1131376E+005  0.1043930E+01  0.7957747E-01            NaN
         13   -1    0    0    0    0  0.00000000000E+00  0.00000000000E+00  0.74505805969E-08  0.10566000000E+00  0.10566000000E+00 0.  1.
     999900   -1    0    0    0    0 -0.00000000000E+00 -0.00000000000E+00 -0.74505805969E-08  0.93827000000E+00  0.93827000000E+00 0.  1.
     999902    2    1    2    0    0 -0.23078843100E-01 -0.86364383934E-02 -0.37518243774E-02  0.10190041649E+01  0.10186992642E+01 0.  0.
     999903    2    3    3    0    0 -0.79529271059E-01  0.36111475613E-01  0.95634130414E-01  0.13048483784E+00  0.15857565413E-01 0.  0.
         14    1    1    2    0    0  0.23078843100E-01  0.86364383934E-02  0.37518243774E-02  0.24925835054E-01  0.00000000000E+00 0.  1.
     999901    1    3    3    0    0  0.56450427959E-01 -0.44747914007E-01 -0.99385954792E-01  0.88851932710E+00  0.88000000000E+00 0.  1.
        -11    1    4    4    0    0 -0.35306836076E-01  0.23187693367E-01  0.52341922232E-01  0.67262023025E-01  0.51100000000E-03 0. -1.
         11    1    4    4    0    0 -0.44222434983E-01  0.12923782246E-01  0.43292208182E-01  0.63222814819E-01  0.51100000000E-03 0.  1.
</event>
<event>
 8    1  0.1131376E+005  0.1043930E+01  0.7957747E-01            NaN
         13   -1    0    0    0    0  0.00000000000E+00  0.00000000000E+00  0.74505805969E-08  0.10566000000E+00  0.10566000000E+00 0. -1.
     999900   -1    0    0    0    0 -0.00000000000E+00 -0.00000000000E+00 -0.74505805969E-08  0.93827000000E+00  0.93827000000E+00 0. -1.
     999902    2    1    2    0    0  0.11695228747E-01 -0.20463602422E-01  0.16448063888E-02  0.10203028379E+01  0.10200292340E+01 0.  0.
     999903    2    3    3    0    0  0.60000273031E-02  0.12041312659E+00  0.38966696888E-01  0.12829857134E+00  0.20169247872E-01 0.  0.
         14    1    1    2    0    0 -0.11695228747E-01  0.20463602422E-01 -0.16448063888E-02  0.23627162072E-01  0.00000000000E+00 0. -1.
     999901    1    3    3    0    0  0.56952014434E-02 -0.14087672901E+00 -0.37321890499E-01  0.89200426659E+00  0.88000000000E+00 0.  1.
        -11    1    4    4    0    0 -0.61703109262E-02  0.42437014978E-01  0.18896109281E-01  0.46864667332E-01  0.51100000000E-03 0.  1.
         11    1    4    4    0    0  0.12170338229E-01  0.77976111611E-01  0.20070587607E-01  0.81433904011E-01  0.51100000000E-03 0. -1.
</event>
<event>
 8    1  0.1131376E+005  0.1043930E+01  0.7957747E-01            NaN
         13   -1    0    0    0    0  0.00000000000E+00  0.00000000000E+00  0.74505805969E-08  0.10566000000E+00  0.10566000000E+00 0. -1.
     999900   -1    0    0    0    0 -0.00000000000E+00 -0.00000000000E+00 -0.74505805969E-08  0.93827000000E+00  0.93827000000E+00 0.  1.
     999902    2    1    2    0    0  0.17932723536E-01 -0.38967041882E-02 -0.12592219050E-01  0.10216739703E+01  0.10214315301E+01 0.  0.
     999903    2    3    3    0    0  0.89533274241E-01 -0.84161443024E-01  0.47599441551E-01  0.13308401810E+00  0.18608958856E-01 0.  0.
         14    1    1    2    0    0 -0.17932723536E-01  0.38967041882E-02  0.12592219050E-01  0.22256029690E-01  0.00000000000E+00 0. -1.
     999901    1    3    3    0    0 -0.71600550705E-01  0.80264738836E-01 -0.60191660600E-01  0.88858995221E+00  0.88000000000E+00 0.  1.
        -11    1    4    4    0    0  0.23624449092E-01 -0.13021025421E-01  0.64854459860E-02  0.27748582460E-01  0.51100000000E-03 0. -1.
         11    1    4    4    0    0  0.65908825149E-01 -0.71140417604E-01  0.41113995565E-01  0.10533543564E+00  0.51100000000E-03 0.  1.
</event>
<event>
 8    1  0.1131376E+005  0.1043930E+01  0.7957747E-01            NaN
         13   -1    0    0    0    0  0.00000000000E+00  0.00000000000E+00  0.74505805969E-08  0.10566000000E+00  0.10566000000E+00 0.  1.
     999900   -1    0    0    0    0 -0.00000000000E+00 -0.00000000000E+00 -0.74505805969E-08  0.93827000000E+00  0.93827000000E+00 0. -1.
     999902    2    1    2    0    0  0.14687531945E-01 -0.89102562238E-02 -0.16780950654E-01  0.10199150762E+01  0.10196323093E+01 0.  0.
     999903    2    3    3    0    0  0.10606470065E+00 -0.48670042456E-01  0.54281227162E-01  0.13144422091E+00  0.26695277347E-01 0.  0.
         14    1    1    2    0    0 -0.14687531945E-01  0.89102562238E-02  0.16780950654E-01  0.24014923807E-01  0.00000000000E+00 0.  1.
     999901    1    3    3    0    0 -0.91377168708E-01  0.39759786232E-01 -0.71062177816E-01  0.88847085528E+00  0.88000000000E+00 0. -1.
        -11    1    4    4    0    0  0.77656988139E-01 -0.21932711774E-01  0.36270267391E-01  0.88472849339E-01  0.51100000000E-03 0.  1.
         11    1    4    4    0    0  0.28407712513E-01 -0.26737330682E-01  0.18010959770E-01  0.42971371576E-01  0.51100000000E-03 0. -1.
</event>
<event>
 8    1  0.1131376E+005  0.1043930E+01  0.7957747E-01            NaN
         13   -1    0    0    0    0  0.00000000000E+00  0.00000000000E+00  0.74505805969E-08  0.10566000000E+00  0.10566000000E+00 0.  1.
     999900   -1    0    0    0    0 -0.00000000000E+00 -0.00000000000E+00 -0.74505805969E-08  0.93827000000E+00  0.93827000000E+00 0. -1.
     999902    2    1    2    0    0 -0.55077428483E-02  0.22679720006E-01  0.36277305701E-02  0.10203108264E+01  0.10200374097E+01 0.  0.
     999903    2    3    3    0    0 -0.76968263158E-01 -0.36323760876E-01 -0.95759377340E-01  0.12988069782E+00  0.21344980225E-01 0.  0.
         14    1    1    2    0    0  0.55077428483E-02 -0.22679720006E-01 -0.36277305701E-02  0.23619173566E-01  0.00000000000E+00 0. -1.
     999901    1    3    3    0    0  0.71460520310E-01  0.59003480882E-01  0.99387107910E-01  0.89043012861E+00  0.88000000000E+00 0.  1.
        -11    1    4    4    0    0 -0.56002107594E-01 -0.35516067673E-01 -0.78052971309E-01  0.10242145561E+00  0.51100000000E-03 0. -1.
         11    1    4    4    0    0 -0.20966155564E-01 -0.80769320323E-03 -0.17706406031E-01  0.27459242215E-01  0.51100000000E-03 0.  1.
</event>
<event>
 8    1  0.1131376E+005  0.1043930E+01  0.7957747E-01            NaN
         13   -1    0    0    0    0  0.00000000000E+00  0.00000000000E+00  0.74505805969E-08  0.10566000000E+00  0.10566000000E+00 0. -1.
     999900   -1    0    0    0    0 -0.00000000000E+00 -0.00000000000E+00 -0.74505805969E-08  0.93827000000E+00  0.93827000000E+00 0.  1.
     999902    2    1    2    0    0  0.81332161305E-03  0.22770303070E-01 -0.73813866387E-02  0.10199793620E+01  0.10196981248E+01 0.  0.
     999903    2    3    3    0    0 -0.11314719948E+00  0.20056493370E-01 -0.59806731482E-01  0.13107960275E+00  0.20011632883E-01 0.  0.
         14    1    1    2    0    0 -0.81332161305E-03 -0.22770303070E-01  0.73813866387E-02  0.23950638043E-01  0.00000000000E+00 0. -1.
     999901    1    3    3    0    0  0.11396052109E+00  0.27138097000E-02  0.52425344843E-01  0.88889975920E+00  0.88000000000E+00 0.  1.
        -11    1    4    4    0    0 -0.72844702345E-01  0.19966513451E-01 -0.46184307961E-01  0.88533969424E-01  0.51100000000E-03 0. -1.
         11    1    4    4    0    0 -0.40302497136E-01  0.89979919159E-04 -0.13622423520E-01  0.42545633329E-01  0.51100000000E-03 0.  1.
</event>
<event>
 8    1  0.1131376E+005  0.1043930E+01  0.7957747E-01            NaN
         13   -1    0    0    0    0  0.00000000000E+00  0.00000000000E+00  0.74505805969E-08  0.10566000000E+00  0.10566000000E+00 0. -1.
     999900   -1    0    0    0    0 -0.00000000000E+00 -0.00000000000E+00 -0.74505805969E-08  0.93827000000E+00  0.93827000000E+00 0.  1.
     999902    2    1    2    0    0  0.24223662831E-02 -0.11549155591E-01  0.20464853876E-01  0.10203066832E+01  0.10200331694E+01 0.  0.
     999903    2    3    3    0    0  0.83847459319E-01 -0.59760320800E-01  0.82025236010E-01  0.13309529751E+00  0.19609347245E-01 0.  0.
         14    1    1    2    0    0 -0.24223662831E-02  0.11549155591E-01 -0.20464853876E-01  0.23623316817E-01  0.00000000000E+00 0.  1.
     999901    1    3    3    0    0 -0.81425093036E-01  0.48211165209E-01 -0.61560382134E-01  0.88721138568E+00  0.88000000000E+00 0.  1.
        -11    1    4    4    0    0  0.86485132554E-02 -0.14863504647E-01  0.14612328880E-01  0.22572147178E-01  0.51100000000E-03 0. -1.
         11    1    4    4    0    0  0.75198946063E-01 -0.44896816152E-01  0.67412907130E-01  0.11052315033E+00  0.51100000000E-03 0.  1.
</event>
<event>
 8    1  0.1131376E+005  0.1043930E+01  0.7957747E-01            NaN
         13   -1    0    0    0    0  0.00000000000E+00  0.00000000000E+00  0.74505805969E-08  0.10566000000E+00  0.10566000000E+00 0.  1.
     999900   -1    0    0    0    0 -0.00000000000E+00 -0.00000000000E+00 -0.74505805969E-08  0.93827000000E+00  0.93827000000E+00 0.  1.
     999902    2    1    2    0    0 -0.69448721159E-02  0.11145016689E-01  0.19368172384E-01  0.10205298131E+01  0.10202615011E+01 0.  0.
     999903    2    3    3    0    0 -0.25327006747E-01  0.12504476602E+00  0.31976287583E-01  0.13290938727E+00  0.19098991550E-01 0.  0.
         14    1    1    2    0    0  0.69448721159E-02 -0.11145016689E-01 -0.19368172384E-01  0.23400186905E-01  0.00000000000E+00 0. -1.
     999901    1    3    3    0    0  0.18382134631E-01 -0.11389974933E+00 -0.12608115200E-01  0.88762042582E+00  0.88000000000E+00 0.  1.
        -11    1    4    4    0    0 -0.75723411639E-03  0.41203929107E-01  0.15308953855E-01  0.43965467886E-01  0.51100000000E-03 0.  1.
         11    1    4    4    0    0 -0.24569772630E-01  0.83840836910E-01  0.16667333728E-01  0.88943919385E-01  0.51100000000E-03 0. -1.
</event>
<event>
 8    1  0.1131376E+005  0.1043930E+01  0.7957747E-01            NaN
         13   -1    0    0    0    0  0.00000000000E+00  0.00000000000E+00  0.74505805969E-08  0.10566000000E+00  0.10566000000E+00 0. -1.
     999900   -1    0    0    0    0 -0.00000000000E+00 -0.00000000000E+00 -0.74505805969E-08  0.93827000000E+00  0.93827000000E+00 0. -1.
     999902    2    1    2    0    0 -0.46537369877E-02 -0.16333250972E-02 -0.23284154157E-01  0.10201292258E+01  0.10198515384E+01 0.  0.
     999903    2    3    3    0    0  0.68579324336E-01  0.17931933276E-01 -0.11023952496E+00  0.13260056871E+00  0.20136533995E-01 0.  0.
         14    1    1    2    0    0  0.46537369877E-02  0.16333250972E-02  0.23284154157E-01  0.23800774223E-01  0.00000000000E+00 0. -1.
     999901    1    3    3    0    0 -0.73233061324E-01 -0.19565258373E-01  0.86955370802E-01  0.88752865707E+00  0.88000000000E+00 0.  1.
        -11    1    4    4    0    0  0.52495284508E-01  0.62460520044E-02 -0.70066835865E-01  0.87774658475E-01  0.51100000000E-03 0. -1.
         11    1    4    4    0    0  0.16084039828E-01  0.11685881272E-01 -0.40172689094E-01  0.44825910234E-01  0.51100000000E-03 0.  1.
</event>
<event>
 8    1  0.1131376E+005  0.1043930E+01  0.7957747E-01            NaN
         13   -1    0    0    0    0  0.00000000000E+00  0.00000000000E+00  0.74505805969E-08  0.10566000000E+00  0.10566000000E+00 0. -1.
     999900   -1    0    0    0    0 -0.00000000000E+00 -0.00000000000E+00 -0.74505805969E-08  0.93827000000E+00  0.93827000000E+00 0.  1.
     999902    2    1    2    0    0 -0.16522027322E-01 -0.31120572548E-02 -0.17067006306E-01  0.10199728509E+01  0.10196914590E+01 0.  0.
     999903    2    3    3    0    0  0.43424387859E-01  0.10908092320E+00  0.47906134509E-01  0.12845597135E+00  0.20533231201E-01 0.  0.
         14    1    1    2    0    0  0.16522027322E-01  0.31120572548E-02  0.17067006306E-01  0.23957149067E-01  0.00000000000E+00 0. -1.
     999901    1    3    3    0    0 -0.59946415181E-01 -0.11219298046E+00 -0.64973140815E-01  0.89151687958E+00  0.88000000000E+00 0.  1.
        -11    1    4    4    0    0  0.41511280542E-02  0.27924663197E-01  0.52763458401E-02  0.28724895565E-01  0.51100000000E-03 0.  1.
         11    1    4    4    0    0  0.39273259805E-01  0.81156260006E-01  0.42629788669E-01  0.99731075783E-01  0.51100000000E-03 0. -1.
</event>
<event>
 8    1  0.1131376E+005  0.1043930E+01  0.7957747E-01            NaN
         13   -1    0    0    0    0  0.00000000000E+00  0.00000000000E+00  0.74505805969E-08  0.10566000000E+00  0.10566000000E+00 0. -1.
     999900   -1    0    0    0    0 -0.00000000000E+00 -0.00000000000E+00 -0.74505805969E-08  0.93827000000E+00  0.93827000000E+00 0. -1.
     999902    2    1    2    0    0  0.57825004797E-02  0.20185228133E-01  0.12349811728E-01  0.10195702259E+01  0.10192791800E+01 0.  0.
     999903    2    3    3    0    0 -0.49961250778E-01 -0.10819643664E+00 -0.39279791444E-01  0.12701499867E+00  0.19680253844E-01 0.  0.
         14    1    1    2    0    0 -0.57825004797E-02 -0.20185228133E-01 -0.12349811728E-01  0.24359774143E-01  0.00000000000E+00 0. -1.
     999901    1    3    3    0    0  0.55743751257E-01  0.12838166477E+00  0.51629603172E-01  0.89255522719E+00  0.88000000000E+00 0. -1.
        -11    1    4    4    0    0 -0.33550667669E-01 -0.58943112217E-01 -0.13936377774E-01  0.69241761426E-01  0.51100000000E-03 0.  1.
         11    1    4    4    0    0 -0.16410583108E-01 -0.49253324420E-01 -0.25343413670E-01  0.57773237245E-01  0.51100000000E-03 0. -1.
</event>
<event>
 8    1  0.1131376E+005  0.1043930E+01  0.7957747E-01            NaN
         13   -1    0    0    0    0  0.00000000000E+00  0.00000000000E+00  0.74505805969E-08  0.10566000000E+00  0.10566000000E+00 0.  1.
     999900   -1    0    0    0    0 -0.00000000000E+00 -0.00000000000E+00 -0.74505805969E-08  0.93827000000E+00  0.93827000000E+00 0.  1.
     999902    2    1    2    0    0  0.22057707331E-01  0.23862209144E-02 -0.28337109380E-02  0.10215633637E+01  0.10213184810E+01 0.  0.
     999903    2    3    3    0    0  0.67209539220E-01 -0.10015178015E+00 -0.52398033349E-01  0.13307624973E+00  0.20401791930E-01 0.  0.
         14    1    1    2    0    0 -0.22057707331E-01 -0.23862209144E-02  0.28337109380E-02  0.22366636328E-01  0.00000000000E+00 0.  1.
     999901    1    3    3    0    0 -0.45151831889E-01  0.10253800106E+00  0.49564322411E-01  0.88848711394E+00  0.88000000000E+00 0. -1.
        -11    1    4    4    0    0  0.26722713988E-01 -0.28372083556E-01 -0.24645751456E-01  0.46116729655E-01  0.51100000000E-03 0.  1.
         11    1    4    4    0    0  0.40486825232E-01 -0.71779696594E-01 -0.27752281893E-01  0.86959520075E-01  0.51100000000E-03 0. -1.
</event>
<event>
 8    1  0.1131376E+005  0.1043930E+01  0.7957747E-01            NaN
         13   -1    0    0    0    0  0.00000000000E+00  0.00000000000E+00  0.74505805969E-08  0.10566000000E+00  0.10566000000E+00 0.  1.
     999900   -1    0    0    0    0 -0.00000000000E+00 -0.00000000000E+00 -0.74505805969E-08  0.93827000000E+00  0.93827000000E+00 0. -1.
     999902    2    1    2    0    0  0.16604364398E-01  0.10233618761E-01 -0.14546872583E-01  0.10195980586E+01  0.10193076855E+01 0.  0.
     999903    2    3    3    0    0  0.11374457997E+00  0.18758516944E-01  0.59334914583E-01  0.13113454566E+00  0.19644987820E-01 0.  0.
         14    1    1    2    0    0 -0.16604364398E-01 -0.10233618761E-01  0.14546872583E-01  0.24331941393E-01  0.00000000000E+00 0.  1.
     999901    1    3    3    0    0 -0.97140215568E-01 -0.85248981832E-02 -0.73881787166E-01  0.88846351295E+00  0.88000000000E+00 0. -1.
        -11    1    4    4    0    0  0.10593849446E+00  0.13636421729E-01  0.50054108440E-01  0.11796012673E+00  0.51100000000E-03 0. -1.
         11    1    4    4    0    0  0.78060855046E-02  0.51220952150E-02  0.92808061430E-02  0.13174418923E-01  0.51100000000E-03 0.  1.
</event>
<event>
 8    1  0.1131376E+005  0.1043930E+01  0.7957747E-01            NaN
         13   -1    0    0    0    0  0.00000000000E+00  0.00000000000E+00  0.74505805969E-08  0.10566000000E+00  0.10566000000E+00 0.  1.
     999900   -1    0    0    0    0 -0.00000000000E+00 -0.00000000000E+00 -0.74505805969E-08  0.93827000000E+00  0.93827000000E+00 0.  1.
     999902    2    1    2    0    0 -0.11903071169E-01 -0.14231609267E-01 -0.13462381708E-01  0.10210071396E+01  0.10207497841E+01 0.  0.
     999903    2    3    3    0    0  0.11352439064E+00  0.45408279521E-01 -0.38656030482E-01  0.12975875426E+00  0.19832964865E-01 0.  0.
         14    1    1    2    0    0  0.11903071169E-01  0.14231609267E-01  0.13462381708E-01  0.22922860354E-01  0.00000000000E+00 0.  1.
     999901    1    3    3    0    0 -0.12542746181E+00 -0.59639888787E-01  0.25193648774E-01  0.89124838538E+00  0.88000000000E+00 0. -1.
        -11    1    4    4    0    0  0.20949901028E-01  0.11414818721E-01 -0.81910491348E-04  0.23863450501E-01  0.51100000000E-03 0. -1.
         11    1    4    4    0    0  0.92574489614E-01  0.33993460800E-01 -0.38574119991E-01  0.10589530376E+00  0.51100000000E-03 0.  1.
</event>
<event>
 8    1  0.1131376E+005  0.1043930E+01  0.7957747E-01            NaN
         13   -1    0    0    0    0  0.00000000000E+00  0.00000000000E+00  0.74505805969E-08  0.10566000000E+00  0.10566000000E+00 0. -1.
     999900   -1    0    0    0    0 -0.00000000000E+00 -0.00000000000E+00 -0.74505805969E-08  0.93827000000E+00  0.93827000000E+00 0. -1.
     999902    2    1    2    0    0  0.10767781577E-01 -0.17421724089E-01 -0.12817954802E-01  0.10197688420E+01  0.10194825793E+01 0.  0.
     999903    2    3    3    0    0  0.52981240367E-01  0.11534878900E+00  0.62265462114E-02  0.12860517675E+00  0.19701945453E-01 0.  0.
         14    1    1    2    0    0 -0.10767781577E-01  0.17421724089E-01  0.12817954802E-01  0.24161157995E-01  0.00000000000E+00 0. -1.
     999901    1    3    3    0    0 -0.42213458790E-01 -0.13277051309E+00 -0.19044501014E-01  0.89116366525E+00  0.88000000000E+00 0. -1.
        -11    1    4    4    0    0  0.35167125776E-01  0.76482739718E-01  0.13426911093E-01  0.85245992707E-01  0.51100000000E-03 0.  1.
         11    1    4    4    0    0  0.17814114591E-01  0.38866049283E-01 -0.72003648815E-02  0.43359184044E-01  0.51100000000E-03 0. -1.
</event>
<event>
 8    1  0.1131376E+005  0.1043930E+01  0.7957747E-01            NaN
         13   -1    0    0    0    0  0.00000000000E+00  0.00000000000E+00  0.74505805969E-08  0.10566000000E+00  0.10566000000E+00 0. -1.
     999900   -1    0    0    0    0 -0.00000000000E+00 -0.00000000000E+00 -0.74505805969E-08  0.93827000000E+00  0.93827000000E+00 0. -1.
     999902    2    1    2    0    0 -0.21589473879E-01  0.57575156076E-02  0.55459554087E-02  0.10209080107E+01  0.10206483990E+01 0.  0.
     999903    2    3    3    0    0 -0.53127697808E-01  0.11079091165E+00 -0.47353806274E-01  0.13252461454E+00  0.14940284795E-01 0.  0.
         14    1    1    2    0    0  0.21589473879E-01 -0.57575156076E-02 -0.55459554087E-02  0.23021989266E-01  0.00000000000E+00 0.  1.
     999901    1    3    3    0    0  0.31538223929E-01 -0.10503339605E+00  0.52899761682E-01  0.88838339620E+00  0.88000000000E+00 0.  1.
        -11    1    4    4    0    0 -0.34290067830E-01  0.56350888010E-01 -0.21512300389E-01  0.69384951685E-01  0.51100000000E-03 0. -1.
         11    1    4    4    0    0 -0.18837629978E-01  0.54440023644E-01 -0.25841505884E-01  0.63139662851E-01  0.51100000000E-03 0.  1.
</event>
<event>
 8    1  0.1131376E+005  0.1043930E+01  0.7957747E-01            NaN
         13   -1    0    0    0    0  0.00000000000E+00  0.00000000000E+00  0.74505805969E-08  0.10566000000E+00  0.10566000000E+00 0. -1.
     999900   -1    0    0    0    0 -0.00000000000E+00 -0.00000000000E+00 -0.74505805969E-08  0.93827000000E+00  0.93827000000E+00 0.  1.
     999902    2    1    2    0    0  0.20848535566E-01  0.65947562559E-02 -0.99386709865E-02  0.10199106448E+01  0.10196277722E+01 0.  0.
     999903    2    3    3    0    0  0.34628858032E-01  0.11467412241E+00  0.50538569460E-01  0.13113140148E+00  0.17087577111E-01 0.  0.
         14    1    1    2    0    0 -0.20848535566E-01 -0.65947562559E-02  0.99386709865E-02  0.24019355243E-01  0.00000000000E+00 0. -1.
     999901    1    3    3    0    0 -0.13780322466E-01 -0.10807936615E+00 -0.60477240446E-01  0.88877924328E+00  0.88000000000E+00 0. -1.
        -11    1    4    4    0    0  0.18537896977E-01  0.35019207440E-01  0.13966608854E-01  0.42015780345E-01  0.51100000000E-03 0.  1.
         11    1    4    4    0    0  0.16090961055E-01  0.79654914967E-01  0.36571960605E-01  0.89115621131E-01  0.51100000000E-03 0. -1.
</event>
<event>
 8    1  0.1131376E+005  0.1043930E+01  0.7957747E-01            NaN
         13   -1    0    0    0    0  0.00000000000E+00  0.00000000000E+00  0.74505805969E-08  0.10566000000E+00  0.10566000000E+00 0. -1.
     999900   -1    0    0    0    0 -0.00000000000E+00 -0.00000000000E+00 -0.74505805969E-08  0.93827000000E+00  0.93827000000E+00 0. -1.
     999902    2    1    2    0    0  0.69496231574E-02  0.19435624527E-01  0.10804403946E-01  0.10206324485E+01  0.10203665121E+01 0.  0.
     999903    2    3    3    0    0 -0.12238875169E+00  0.41516307984E-01  0.66088902323E-02  0.13089452406E+00  0.19674568096E-01 0.  0.
         14    1    1    2    0    0 -0.69496231574E-02 -0.19435624527E-01 -0.10804403946E-01  0.23297551533E-01  0.00000000000E+00 0.  1.
     999901    1    3    3    0    0  0.12933837485E+00 -0.22080683457E-01  0.41955137142E-02  0.88973792441E+00  0.88000000000E+00 0. -1.
        -11    1    4    4    0    0 -0.84730385235E-01  0.22858416202E-01 -0.28731822202E-02  0.87808095700E-01  0.51100000000E-03 0.  1.
         11    1    4    4    0    0 -0.37658366457E-01  0.18657891782E-01  0.94820724525E-02  0.43086428362E-01  0.51100000000E-03 0. -1.
</event>
<event>
 8    1  0.1131376E+005  0.1043930E+01  0.7957747E-01            NaN
         13   -1    0    0    0    0  0.00000000000E+00  0.00000000000E+00  0.74505805969E-08  0.10566000000E+00  0.10566000000E+00 0. -1.
     999900   -1    0    0    0    0 -0.00000000000E+00 -0.00000000000E+00 -0.74505805969E-08  0.93827000000E+00  0.93827000000E+00 0. -1.
     999902    2    1    2    0    0  0.13102368506E-01 -0.66139117865E-02  0.17451427999E-01  0.10211271881E+01  0.10208725514E+01 0.  0.
     999903    2    3    3    0    0  0.78340784490E-01  0.10322390179E+00 -0.87971691131E-02  0.13151525867E+00  0.20649955512E-01 0.  0.
         14    1    1    2    0    0 -0.13102368506E-01  0.66139117865E-02 -0.17451427999E-01  0.22802811862E-01  0.00000000000E+00 0.  1.
     999901    1    3    3    0    0 -0.65238415984E-01 -0.10983781357E+00  0.26248597112E-01  0.88961192947E+00  0.88000000000E+00 0. -1.
        -11    1    4    4    0    0  0.69243610122E-02  0.20928038382E-01  0.12754519529E-02  0.22086590154E-01  0.51100000000E-03 0. -1.
         11    1    4    4    0    0  0.71416423478E-01  0.82295863405E-01 -0.10072621066E-01  0.10942866851E+00  0.51100000000E-03 0.  1.
</event>
<event>
 8    1  0.1131376E+005  0.1043930E+01  0.7957747E-01            NaN
         13   -1    0    0    0    0  0.00000000000E+00  0.00000000000E+00  0.74505805969E-08  0.10566000000E+00  0.10566000000E+00 0.  1.
     999900   -1    0    0    0    0 -0.00000000000E+00 -0.00000000000E+00 -0.74505805969E-08  0.93827000000E+00  0.93827000000E+00 0.  1.
     999902    2    1    2    0    0 -0.17895312819E-02 -0.23735010861E-01  0.34838785407E-02  0.10198740117E+01  0.10195902653E+01 0.  0.
     999903    2    3    3    0    0 -0.32837000694E-02  0.70756125749E-01 -0.10495028422E+00  0.12819650550E+00  0.20064143289E-01 0.  0.
         14    1    1    2    0    0  0.17895312819E-02  0.23735010861E-01 -0.34838785407E-02  0.24055988287E-01  0.00000000000E+00 0. -1.
     999901    1    3    3    0    0  0.14941687875E-02 -0.94491136610E-01  0.10843416276E+00  0.89167750622E+00  0.88000000000E+00 0. -1.
        -11    1    4    4    0    0  0.60447640687E-02  0.20142982612E-01 -0.41228917826E-01  0.46285674968E-01  0.51100000000E-03 0. -1.
         11    1    4    4    0    0 -0.93284641380E-02  0.50613143137E-01 -0.63721366397E-01  0.81910830528E-01  0.51100000000E-03 0.  1.
</event>
<event>
 8    1  0.1131376E+005  0.1043930E+01  0.7957747E-01            NaN
         13   -1    0    0    0    0  0.00000000000E+00  0.00000000000E+00  0.74505805969E-08  0.10566000000E+00  0.10566000000E+00 0.  1.
     999900   -1    0    0    0    0 -0.00000000000E+00 -0.00000000000E+00 -0.74505805969E-08  0.93827000000E+00  0.93827000000E+00 0. -1.
     999902    2    1    2    0    0 -0.88280479509E-02 -0.21293157574E-01 -0.31681551955E-02  0.10206626366E+01  0.10203973969E+01 0.  0.
     999903    2    3    3    0    0  0.63806666146E-01 -0.82760939971E-01 -0.78301059510E-01  0.13235016726E+00  0.21560311282E-01 0.  0.
         14    1    1    2    0    0  0.88280479509E-02  0.21293157574E-01  0.31681551955E-02  0.23267363354E-01  0.00000000000E+00 0. -1.
     999901    1    3    3    0    0 -0.72634714097E-01  0.61467782396E-01  0.75132904314E-01  0.88831246939E+00  0.88000000000E+00 0.  1.
        -11    1    4    4    0    0  0.15756339372E-01 -0.28640062157E-01 -0.14099250047E-01  0.35602884204E-01  0.51100000000E-03 0. -1.
         11    1    4    4    0    0  0.48050326774E-01 -0.54120877814E-01 -0.64201809463E-01  0.96747283051E-01  0.51100000000E-03 0.  1.
</event>
<event>
 8    1  0.1131376E+005  0.1043930E+01  0.7957747E-01            NaN
         13   -1    0    0    0    0  0.00000000000E+00  0.00000000000E+00  0.74505805969E-08  0.10566000000E+00  0.10566000000E+00 0.  1.
     999900   -1    0    0    0    0 -0.00000000000E+00 -0.00000000000E+00 -0.74505805969E-08  0.93827000000E+00  0.93827000000E+00 0. -1.
     999902    2    1    2    0    0 -0.49373485006E-02  0.23312896023E-01 -0.26595837893E-02  0.10199520535E+01  0.10196701671E+01 0.  0.
     999903    2    3    3    0    0  0.27986637207E-01  0.16387299588E-01 -0.12507621128E+00  0.13084138358E+00  0.20581875012E-01 0.  0.
         14    1    1    2    0    0  0.49373485006E-02 -0.23312896023E-01  0.26595837893E-02  0.23977946475E-01  0.00000000000E+00 0. -1.
     999901    1    3    3    0    0 -0.32923985708E-01  0.69255964356E-02  0.12241662749E+00  0.88911066994E+00  0.88000000000E+00 0.  1.
        -11    1    4    4    0    0  0.10352911691E-01  0.17850588289E-01 -0.63452580872E-01  0.66725687881E-01  0.51100000000E-03 0.  1.
         11    1    4    4    0    0  0.17633725516E-01 -0.14632887016E-02 -0.61623630409E-01  0.64115695701E-01  0.51100000000E-03 0. -1.
</event>
<event>
 8    1  0.1131376E+005  0.1043930E+01  0.7957747E-01            NaN
         13   -1    0    0    0    0  0.00000000000E+00  0.00000000000E+00  0.74505805969E-08  0.10566000000E+00  0.10566000000E+00 0. -1.
     999900   -1    0    0    0    0 -0.00000000000E+00 -0.00000000000E+00 -0.74505805969E-08  0.93827000000E+00  0.93827000000E+00 0.  1.
     999902    2    1    2    0    0 -0.63977684049E-02 -0.78618511691E-02 -0.21473954279E-01  0.10201840349E+01  0.10199076401E+01 0.  0.
     999903    2    3    3    0    0 -0.25888176168E-01  0.94601419440E-02  0.12350199546E+00  0.12794082065E+00  0.18879055980E-01 0.  0.
         14    1    1    2    0    0  0.63977684049E-02  0.78618511691E-02  0.21473954279E-01  0.23745965063E-01  0.00000000000E+00 0. -1.
     999901    1    3    3    0    0  0.19490407763E-01 -0.17321993113E-01 -0.14497594974E+00  0.89224321429E+00  0.88000000000E+00 0.  1.
        -11    1    4    4    0    0 -0.86312209982E-02  0.71959573447E-02  0.84280952344E-01  0.85028347197E-01  0.51100000000E-03 0. -1.
         11    1    4    4    0    0 -0.17256955170E-01  0.22641845992E-02  0.39221043117E-01  0.42912473453E-01  0.51100000000E-03 0.  1.
</event>
<event>
 8    1  0.1131376E+005  0.1043930E+01  0.7957747E-01            NaN
         13   -1    0    0    0    0  0.00000000000E+00  0.00000000000E+00  0.74505805969E-08  0.10566000000E+00  0.10566000000E+00 0.  1.
     999900   -1    0    0    0    0 -0.00000000000E+00 -0.00000000000E+00 -0.74505805969E-08  0.93827000000E+00  0.93827000000E+00 0.  1.
     999902    2    1    2    0    0 -0.20777861998E-01  0.10402758152E-01  0.32924888781E-02  0.10204613526E+01  0.10201914501E+01 0.  0.
     999903    2    3    3    0    0 -0.12294041505E+00 -0.59893406293E-02 -0.46570928858E-01  0.13299741050E+00  0.19215668880E-01 0.  0.
         14    1    1    2    0    0  0.20777861998E-01 -0.10402758152E-01 -0.32924888781E-02  0.23468647370E-01  0.00000000000E+00 0. -1.
     999901    1    3    3    0    0  0.10216255306E+00  0.16392098781E-01  0.49863417736E-01  0.88746394213E+00  0.88000000000E+00 0. -1.
        -11    1    4    4    0    0 -0.29631821037E-01 -0.97169690717E-02 -0.11189769839E-01  0.33135122996E-01  0.51100000000E-03 0. -1.
         11    1    4    4    0    0 -0.93308594018E-01  0.37276284425E-02 -0.35381159019E-01  0.99862287506E-01  0.51100000000E-03 0.  1.
</event>
<event>
 8    1  0.1131376E+005  0.1043930E+01  0.7957747E-01            NaN
         13   -1    0    0    0    0  0.00000000000E+00  0.00000000000E+00  0.74505805969E-08  0.10566000000E+00  0.10566000000E+00 0. -1.
     999900   -1    0    0    0    0 -0.00000000000E+00 -0.00000000000E+00 -0.74505805969E-08  0.93827000000E+00  0.93827000000E+00 0.  1.
     999902    2    1    2    0    0 -0.18000446849E-01 -0.72645438039E-02 -0.12141484283E-01  0.10210344693E+01  0.10207777340E+01 0.  0.
     999903    2    3    3    0    0 -0.38985314485E-01 -0.11345412706E+00  0.51645400180E-01  0.13211076120E+00  0.19857295243E-01 0.  0.
         14    1    1    2    0    0  0.18000446849E-01  0.72645438039E-02  0.12141484283E-01  0.22895530657E-01  0.00000000000E+00 0. -1.
     999901    1    3    3    0    0  0.20984867636E-01  0.10618958325E+00 -0.63786884463E-01  0.88892370814E+00  0.88000000000E+00 0.  1.
        -11    1    4    4    0    0 -0.49972626779E-02 -0.42164783815E-01  0.21270330910E-01  0.47492417568E-01  0.51100000000E-03 0.  1.
         11    1    4    4    0    0 -0.33988051807E-01 -0.71289343243E-01  0.30375069269E-01  0.84618343636E-01  0.51100000000E-03 0. -1.
</event>
<event>
 8    1  0.1131376E+005  0.1043930E+01  0.7957747E-01            NaN
         13   -1    0    0    0    0  0.00000000000E+00  0.00000000000E+00  0.74505805969E-08  0.10566000000E+00  0.10566000000E+00 0.  1.
     999900   -1    0    0    0    0 -0.00000000000E+00 -0.00000000000E+00 -0.74505805969E-08  0.93827000000E+00  0.93827000000E+00 0. -1.
     999902    2    1    2    0    0 -0.23849935361E-02  0.22083748199E-01  0.93505411328E-02  0.10198299430E+01  0.10195451436E+01 0.  0.
     999903    2    3    3    0    0 -0.11177527622E+00  0.66636748185E-01 -0.61955462189E-02  0.13180241831E+00  0.19983095260E-01 0.  0.
         14    1    1    2    0    0  0.23849935361E-02 -0.22083748199E-01 -0.93505411328E-02  0.24100057016E-01  0.00000000000E+00 0. -1.
     999901    1    3    3    0    0  0.10939028268E+00 -0.44552999985E-01  0.15546087352E-01  0.88802752468E+00  0.88000000000E+00 0.  1.
        -11    1    4    4    0    0 -0.59491622645E-01  0.25886695348E-01  0.25845215164E-02  0.64933158197E-01  0.51100000000E-03 0.  1.
         11    1    4    4    0    0 -0.52283653574E-01  0.40750052836E-01 -0.87800677353E-02  0.66869260110E-01  0.51100000000E-03 0. -1.
</event>
<event>
 8    1  0.1131376E+005  0.1043930E+01  0.7957747E-01            NaN
         13   -1    0    0    0    0  0.00000000000E+00  0.00000000000E+00  0.74505805969E-08  0.10566000000E+00  0.10566000000E+00 0. -1.
     999900   -1    0    0    0    0 -0.00000000000E+00 -0.00000000000E+00 -0.74505805969E-08  0.93827000000E+00  0.93827000000E+00 0. -1.
     999902    2    1    2    0    0 -0.20386613672E-01 -0.10637053051E-01 -0.76540100223E-02  0.10196948028E+01  0.10194067618E+01 0.  0.
     999903    2    3    3    0    0  0.50062772712E-02 -0.32309295190E-02 -0.12917614028E+00  0.13095002631E+00  0.20638131056E-01 0.  0.
         14    1    1    2    0    0  0.20386613672E-01  0.10637053051E-01  0.76540100223E-02  0.24235197215E-01  0.00000000000E+00 0.  1.
     999901    1    3    3    0    0 -0.25392890943E-01 -0.74061235317E-02  0.12152213026E+00  0.88874477648E+00  0.88000000000E+00 0.  1.
        -11    1    4    4    0    0  0.76204100720E-02  0.16878569816E-02 -0.17911694454E-01  0.19545061527E-01  0.51100000000E-03 0.  1.
         11    1    4    4    0    0 -0.26141328007E-02 -0.49187865006E-02 -0.11126444583E+00  0.11140496478E+00  0.51100000000E-03 0. -1.
</event>
<event>
 8    1  0.1131376E+005  0.1043930E+01  0.7957747E-01            NaN
         13   -1    0    0    0    0  0.00000000000E+00  0.00000000000E+00  0.74505805969E-08  0.10566000000E+00  0.10566000000E+00 0.  1.
     999900   -1    0    0    0    0 -0.00000000000E+00 -0.00000000000E+00 -0.74505805969E-08  0.93827000000E+00  0.93827000000E+00 0.  1.
     999902    2    1    2    0    0 -0.82952173552E-02  0.20487695375E-01  0.54516598898E-02  0.10211643046E+01  0.10209105054E+01 0.  0.
     999903    2    3    3    0    0  0.31895579094E-01 -0.10785007766E+00 -0.58984651256E-01  0.12861855095E+00  0.20361123446E-01 0.  0.
         14    1    1    2    0    0  0.82952173552E-02 -0.20487695375E-01 -0.54516598898E-02  0.22765695427E-01  0.00000000000E+00 0.  1.
     999901    1    3    3    0    0 -0.40190796449E-01  0.12833777304E+00  0.64436311146E-01  0.89254575362E+00  0.88000000000E+00 0. -1.
        -11    1    4    4    0    0  0.21135416057E-01 -0.46049691997E-01 -0.34381662818E-01  0.61234302511E-01  0.51100000000E-03 0. -1.
         11    1    4    4    0    0  0.10760163037E-01 -0.61800385667E-01 -0.24602988438E-01  0.67384248443E-01  0.51100000000E-03 0.  1.
</event>
<event>
 8    1  0.1131376E+005  0.1043930E+01  0.7957747E-01            NaN
         13   -1    0    0    0    0  0.00000000000E+00  0.00000000000E+00  0.74505805969E-08  0.10566000000E+00  0.10566000000E+00 0.  1.
     999900   -1    0    0    0    0 -0.00000000000E+00 -0.00000000000E+00 -0.74505805969E-08  0.93827000000E+00  0.93827000000E+00 0. -1.
     999902    2    1    2    0    0 -0.20462145802E-01 -0.92196139102E-02  0.55524225081E-02  0.10208100933E+01  0.10205482431E+01 0.  0.
     999903    2    3    3    0    0 -0.50136238970E-01 -0.37987676264E-02  0.12116806690E+00  0.13273525712E+00  0.20220656560E-01 0.  0.
         14    1    1    2    0    0  0.20462145802E-01  0.92196139102E-02 -0.55524225081E-02  0.23119906730E-01  0.00000000000E+00 0. -1.
     999901    1    3    3    0    0  0.29674093167E-01 -0.54208462837E-02 -0.11561564439E+00  0.88807483615E+00  0.88000000000E+00 0. -1.
        -11    1    4    4    0    0 -0.39347560341E-01 -0.68742405822E-02  0.10941665798E+00  0.11648069304E+00  0.51100000000E-03 0. -1.
         11    1    4    4    0    0 -0.10788678629E-01  0.30754729557E-02  0.11751408925E-01  0.16254564073E-01  0.51100000000E-03 0.  1.
</event>
<event>
 8    1  0.1131376E+005  0.1043930E+01  0.7957747E-01            NaN
         13   -1    0    0    0    0  0.00000000000E+00  0.00000000000E+00  0.74505805969E-08  0.10566000000E+00  0.10566000000E+00 0.  1.
     999900   -1    0    0    0    0 -0.00000000000E+00 -0.00000000000E+00 -0.74505805969E-08  0.93827000000E+00  0.93827000000E+00 0.  1.
     999902    2    1    2    0    0  0.15707323563E-01 -0.16128528296E-01 -0.66150633613E-03  0.10214069667E+01  0.10211586089E+01 0.  0.
     999903    2    3    3    0    0  0.67402763165E-01 -0.20402845436E-01  0.11089957231E+00  0.13284826716E+00  0.19762043518E-01 0.  0.
         14    1    1    2    0    0 -0.15707323563E-01  0.16128528296E-01  0.66150633613E-03  0.22523033303E-01  0.00000000000E+00 0. -1.
     999901    1    3    3    0    0 -0.51695439602E-01  0.42743171399E-02 -0.11156107864E+00  0.88855869954E+00  0.88000000000E+00 0.  1.
        -11    1    4    4    0    0  0.44322183886E-01 -0.22174001384E-01  0.82037327604E-01  0.95846369588E-01  0.51100000000E-03 0. -1.
         11    1    4    4    0    0  0.23080579279E-01  0.17711559479E-02  0.28862244704E-01  0.37001897568E-01  0.51100000000E-03 0.  1.
</event>
<event>
 8    1  0.1131376E+005  0.1043930E+01  0.7957747E-01            NaN
         13   -1    0    0    0    0  0.00000000000E+00  0.00000000000E+00  0.74505805969E-08  0.10566000000E+00  0.10566000000E+00 0. -1.
     999900   -1    0    0    0    0 -0.00000000000E+00 -0.00000000000E+00 -0.74505805969E-08  0.93827000000E+00  0.93827000000E+00 0. -1.
     999902    2    1    2    0    0  0.59881331381E-02 -0.22620371960E-01 -0.34165409289E-02  0.10202823422E+01  0.10200082579E+01 0.  0.
     999903    2    3    3    0    0  0.10789088011E+00  0.66204588472E-01  0.19602191305E-01  0.12966238654E+00  0.20114647231E-01 0.  0.
         14    1    1    2    0    0 -0.59881331381E-02  0.22620371960E-01  0.34165409289E-02  0.23647657770E-01  0.00000000000E+00 0. -1.
     999901    1    3    3    0    0 -0.10190274698E+00 -0.88824960431E-01 -0.23018732234E-01  0.89061995569E+00  0.88000000000E+00 0.  1.
        -11    1    4    4    0    0  0.10600891126E-01  0.70117273164E-02  0.83690313269E-02  0.15226457861E-01  0.51100000000E-03 0. -1.
         11    1    4    4    0    0  0.97289988988E-01  0.59192861155E-01  0.11233159978E-01  0.11443592868E+00  0.51100000000E-03 0.  1.
</event>
<event>
 8    1  0.1131376E+005  0.1043930E+01  0.7957747E-01            NaN
         13   -1    0    0    0    0  0.00000000000E+00  0.00000000000E+00  0.74505805969E-08  0.10566000000E+00  0.10566000000E+00 0. -1.
     999900   -1    0    0    0    0 -0.00000000000E+00 -0.00000000000E+00 -0.74505805969E-08  0.93827000000E+00  0.93827000000E+00 0. -1.
     999902    2    1    2    0    0  0.21642287846E-01 -0.80365512086E-02  0.68527936578E-02  0.10198481488E+01  0.10195637846E+01 0.  0.
     999903    2    3    3    0    0 -0.50570017948E-02  0.53358574086E-01  0.11712917332E+00  0.13044211471E+00  0.20571615200E-01 0.  0.
         14    1    1    2    0    0 -0.21642287846E-01  0.80365512086E-02 -0.68527936578E-02  0.24081851246E-01  0.00000000000E+00 0.  1.
     999901    1    3    3    0    0  0.26699289641E-01 -0.61395125294E-01 -0.11027637966E+00  0.88940603404E+00  0.88000000000E+00 0. -1.
        -11    1    4    4    0    0 -0.58850753975E-02  0.38094434517E-01  0.60127613337E-01  0.71424163000E-01  0.51100000000E-03 0. -1.
         11    1    4    4    0    0  0.82807360271E-03  0.15264139569E-01  0.57001559984E-01  0.59017951712E-01  0.51100000000E-03 0.  1.
</event>
<event>
 8    1  0.1131376E+005  0.1043930E+01  0.7957747E-01            NaN
         13   -1    0    0    0    0  0.00000000000E+00  0.00000000000E+00  0.74505805969E-08  0.10566000000E+00  0.10566000000E+00 0.  1.
     999900   -1    0    0    0    0 -0.00000000000E+00 -0.00000000000E+00 -0.74505805969E-08  0.93827000000E+00  0.93827000000E+00 0.  1.
     999902    2    1    2    0    0  0.15220708296E-01  0.12843931752E-01  0.97707837568E-02  0.10217465657E+01  0.10215057218E+01 0.  0.
     999903    2    3    3    0    0  0.92511102867E-01 -0.18938034295E-01 -0.90244677284E-01  0.13214722275E+00  0.20045782748E-01 0.  0.
         14    1    1    2    0    0 -0.15220708296E-01 -0.12843931752E-01 -0.97707837568E-02  0.22183434340E-01  0.00000000000E+00 0. -1.
     999901    1    3    3    0    0 -0.77290394571E-01  0.31781966047E-01  0.10001546104E+00  0.88959934291E+00  0.88000000000E+00 0. -1.
        -11    1    4    4    0    0  0.55658940050E-02 -0.44673158653E-02 -0.13486958150E-01  0.15267457164E-01  0.51100000000E-03 0. -1.
         11    1    4    4    0    0  0.86945208861E-01 -0.14470718430E-01 -0.76757719134E-01  0.11687976559E+00  0.51100000000E-03 0.  1.
</event>
<event>
 8    1  0.1131376E+005  0.1043930E+01  0.7957747E-01            NaN
         13   -1    0    0    0    0  0.00000000000E+00  0.00000000000E+00  0.74505805969E-08  0.10566000000E+00  0.10566000000E+00 0. -1.
     999900   -1    0    0    0    0 -0.00000000000E+00 -0.00000000000E+00 -0.74505805969E-08  0.93827000000E+00  0.93827000000E+00 0. -1.
     999902    2    1    2    0    0 -0.16942199201E-01  0.48637325383E-02 -0.16467398862E-01  0.10198080342E+01  0.10195227106E+01 0.  0.
     999903    2    3    3    0    0 -0.46726374081E-01 -0.10537284896E+00 -0.59767528991E-01  0.13137452391E+00  0.20007915355E-01 0.  0.
         14    1    1    2    0    0  0.16942199201E-01 -0.48637325383E-02  0.16467398862E-01  0.24121965783E-01  0.00000000000E+00 0.  1.
     999901    1    3    3    0    0  0.29784174880E-01  0.11023658150E+00  0.43300130128E-01  0.88843351031E+00  0.88000000000E+00 0.  1.
        -11    1    4    4    0    0 -0.20232535370E-01 -0.68490024313E-01 -0.33178105241E-01  0.78748248909E-01  0.51100000000E-03 0. -1.
         11    1    4    4    0    0 -0.26493838711E-01 -0.36882824648E-01 -0.26589423749E-01  0.52626274997E-01  0.51100000000E-03 0.  1.
</event>
<event>
 8    1  0.1131376E+005  0.1043930E+01  0.7957747E-01            NaN
         13   -1    0    0    0    0  0.00000000000E+00  0.00000000000E+00  0.74505805969E-08  0.10566000000E+00  0.10566000000E+00 0.  1.
     999900   -1    0    0    0    0 -0.00000000000E+00 -0.00000000000E+00 -0.74505805969E-08  0.93827000000E+00  0.93827000000E+00 0. -1.
     999902    2    1    2    0    0  0.22782718642E-01 -0.61092277086E-02  0.12365012843E-02  0.10203100113E+01  0.10200365754E+01 0.  0.
     999903    2    3    3    0    0  0.60473575694E-01 -0.10838584818E+00  0.42023156183E-01  0.13264754219E+00  0.20612601766E-01 0.  0.
         14    1    1    2    0    0 -0.22782718642E-01  0.61092277086E-02 -0.12365012843E-02  0.23619988724E-01  0.00000000000E+00 0. -1.
     999901    1    3    3    0    0 -0.37690857052E-01  0.10227662047E+00 -0.40786654899E-01  0.88766246908E+00  0.88000000000E+00 0.  1.
        -11    1    4    4    0    0  0.16174756344E-01 -0.46217030819E-01  0.22270119960E-01  0.53794572631E-01  0.51100000000E-03 0. -1.
         11    1    4    4    0    0  0.44298819350E-01 -0.62168817360E-01  0.19753036223E-01  0.78852969562E-01  0.51100000000E-03 0.  1.
</event>
<event>
 8    1  0.1131376E+005  0.1043930E+01  0.7957747E-01            NaN
         13   -1    0    0    0    0  0.00000000000E+00  0.00000000000E+00  0.74505805969E-08  0.10566000000E+00  0.10566000000E+00 0.  1.
     999900   -1    0    0    0    0 -0.00000000000E+00 -0.00000000000E+00 -0.74505805969E-08  0.93827000000E+00  0.93827000000E+00 0.  1.
     999902    2    1    2    0    0  0.15660316649E-01  0.17216941903E-01 -0.54757757391E-02  0.10200207397E+01  0.10197404850E+01 0.  0.
     999903    2    3    3    0    0  0.98349402136E-02 -0.75694219866E-01  0.10162949807E+00  0.12865215231E+00  0.19911816736E-01 0.  0.
         14    1    1    2    0    0 -0.15660316649E-01 -0.17216941903E-01  0.54757757391E-02  0.23909260255E-01  0.00000000000E+00 0.  1.
     999901    1    3    3    0    0  0.58253764351E-02  0.92911161769E-01 -0.10710527381E+00  0.89136858744E+00  0.88000000000E+00 0. -1.
        -11    1    4    4    0    0 -0.14461719425E-02 -0.50215099397E-01  0.56446563377E-01  0.75565357531E-01  0.51100000000E-03 0.  1.
         11    1    4    4    0    0  0.11281112156E-01 -0.25479120469E-01  0.45182934691E-01  0.53086794776E-01  0.51100000000E-03 0. -1.
</event>
<event>
 8    1  0.1131376E+005  0.1043930E+01  0.7957747E-01            NaN
         13   -1    0    0    0    0  0.00000000000E+00  0.00000000000E+00  0.74505805969E-08  0.10566000000E+00  0.10566000000E+00 0. -1.
     999900   -1    0    0    0    0 -0.00000000000E+00 -0.00000000000E+00 -0.74505805969E-08  0.93827000000E+00  0.93827000000E+00 0.  1.
     999902    2    1    2    0    0  0.18953311393E-01  0.14096682130E-01 -0.69301745792E-04  0.10203090503E+01  0.10200355920E+01 0.  0.
     999903    2    3    3    0    0 -0.74698291543E-01 -0.10114580459E+00 -0.11946148278E-01  0.12778873519E+00  0.19414990034E-01 0.  0.
         14    1    1    2    0    0 -0.18953311393E-01 -0.14096682130E-01  0.69301745792E-04  0.23620949654E-01  0.00000000000E+00 0.  1.
     999901    1    3    3    0    0  0.93651602936E-01  0.11524248672E+00  0.11876846533E-01  0.89252031515E+00  0.88000000000E+00 0. -1.
        -11    1    4    4    0    0 -0.37884925843E-02 -0.71160642101E-02 -0.56339105350E-02  0.98485082535E-02  0.51100000000E-03 0.  1.
         11    1    4    4    0    0 -0.70909798959E-01 -0.94029740379E-01 -0.63122377434E-02  0.11794022694E+00  0.51100000000E-03 0. -1.
</event>
<event>
 8    1  0.1131376E+005  0.1043930E+01  0.7957747E-01            NaN
         13   -1    0    0    0    0  0.00000000000E+00  0.00000000000E+00  0.74505805969E-08  0.10566000000E+00  0.10566000000E+00 0.  1.
     999900   -1    0    0    0    0 -0.00000000000E+00 -0.00000000000E+00 -0.74505805969E-08  0.93827000000E+00  0.93827000000E+00 0.  1.
     999902    2    1    2    0    0  0.17991192503E-01 -0.27363672806E-02 -0.14524274011E-01  0.10206464167E+01  0.10203808028E+01 0.  0.
     999903    2    3    3    0    0  0.89480723870E-01  0.31258729443E-02  0.93590599529E-01  0.13113309766E+00  0.20496779141E-01 0.  0.
         14    1    1    2    0    0 -0.17991192503E-01  0.27363672806E-02  0.14524274011E-01  0.23283583253E-01  0.00000000000E+00 0.  1.
     999901    1    3    3    0    0 -0.71489531367E-01 -0.58622402249E-02 -0.10811487354E+00  0.88951331909E+00  0.88000000000E+00 0.  1.
        -11    1    4    4    0    0  0.43919060473E-01  0.77449412815E-02  0.57812522382E-01  0.73016551915E-01  0.51100000000E-03 0.  1.
         11    1    4    4    0    0  0.45561663397E-01 -0.46190683372E-02  0.35778077147E-01  0.58116545743E-01  0.51100000000E-03 0. -1.
</event>
<event>
 8    1  0.1131376E+005  0.1043930E+01  0.7957747E-01            NaN
         13   -1    0    0    0    0  0.00000000000E+00  0.00000000000E+00  0.74505805969E-08  0.10566000000E+00  0.10566000000E+00 0. -1.
     999900   -1    0    0    0    0 -0.00000000000E+00 -0.00000000000E+00 -0.74505805969E-08  0.93827000000E+00  0.93827000000E+00 0.  1.
     999902    2    1    2    0    0  0.94499978945E-02 -0.11892969197E-01  0.19580673221E-01  0.10191479916E+01  0.10188466425E+01 0.  0.
     999903    2    3    3    0    0  0.67960094048E-01  0.18593987420E-02 -0.10786230161E+00  0.12793854887E+00  0.10581324705E-01 0.  0.
         14    1    1    2    0    0 -0.94499978945E-02  0.11892969197E-01 -0.19580673221E-01  0.24782008400E-01  0.00000000000E+00 0.  1.
     999901    1    3    3    0    0 -0.58510096154E-01 -0.13752367939E-01  0.12744297483E+00  0.89120944273E+00  0.88000000000E+00 0. -1.
        -11    1    4    4    0    0  0.48441309200E-01  0.57809926504E-02 -0.79673028554E-01  0.93423941862E-01  0.51100000000E-03 0.  1.
         11    1    4    4    0    0  0.19518784849E-01 -0.39215939084E-02 -0.28189273053E-01  0.34514607009E-01  0.51100000000E-03 0. -1.
</event>
<event>
 8    1  0.1131376E+005  0.1043930E+01  0.7957747E-01            NaN
         13   -1    0    0    0    0  0.00000000000E+00  0.00000000000E+00  0.74505805969E-08  0.10566000000E+00  0.10566000000E+00 0. -1.
     999900   -1    0    0    0    0 -0.00000000000E+00 -0.00000000000E+00 -0.74505805969E-08  0.93827000000E+00  0.93827000000E+00 0. -1.
     999902    2    1    2    0    0  0.76109702492E-02 -0.12667117238E-01 -0.18527656263E-01  0.10202307010E+01  0.10199554042E+01 0.  0.
     999903    2    3    3    0    0  0.21952764462E-01  0.10629069562E+00  0.65258546549E-01  0.12816748793E+00  0.19712717273E-01 0.  0.
         14    1    1    2    0    0 -0.76109702492E-02  0.12667117238E-01  0.18527656263E-01  0.23699299016E-01  0.00000000000E+00 0. -1.
     999901    1    3    3    0    0 -0.14341794213E-01 -0.11895781286E+00 -0.83786202812E-01  0.89206321305E+00  0.88000000000E+00 0. -1.
        -11    1    4    4    0    0  0.21971696629E-01  0.85049669395E-01  0.44536290779E-01  0.98488293895E-01  0.51100000000E-03 0. -1.
         11    1    4    4    0    0 -0.18932166273E-04  0.21241026223E-01  0.20722255770E-01  0.29679194036E-01  0.51100000000E-03 0.  1.
</event>
<event>
 8    1  0.1131376E+005  0.1043930E+01  0.7957747E-01            NaN
         13   -1    0    0    0    0  0.00000000000E+00  0.00000000000E+00  0.74505805969E-08  0.10566000000E+00  0.10566000000E+00 0. -1.
     999900   -1    0    0    0    0 -0.00000000000E+00 -0.00000000000E+00 -0.74505805969E-08  0.93827000000E+00  0.93827000000E+00 0.  1.
     999902    2    1    2    0    0 -0.31140952747E-02  0.17637587310E-01  0.16117978634E-01  0.10198349526E+01  0.10195502730E+01 0.  0.
     999903    2    3    3    0    0 -0.64958627723E-01  0.27836413541E-01  0.11028064019E+00  0.13259464178E+00  0.20616260463E-01 0.  0.
         14    1    1    2    0    0  0.31140952747E-02 -0.17637587310E-01 -0.16117978634E-01  0.24095047431E-01  0.00000000000E+00 0.  1.
     999901    1    3    3    0    0  0.61844532449E-01 -0.10198826232E-01 -0.94162661552E-01  0.88724031078E+00  0.88000000000E+00 0.  1.
        -11    1    4    4    0    0 -0.19964618278E-01  0.10900110296E-01  0.53853423265E-01  0.58462387104E-01  0.51100000000E-03 0. -1.
         11    1    4    4    0    0 -0.44994009446E-01  0.16936303245E-01  0.56427216921E-01  0.74132254681E-01  0.51100000000E-03 0.  1.
</event>
<event>
 8    1  0.1131376E+005  0.1043930E+01  0.7957747E-01            NaN
         13   -1    0    0    0    0  0.00000000000E+00  0.00000000000E+00  0.74505805969E-08  0.10566000000E+00  0.10566000000E+00 0.  1.
     999900   -1    0    0    0    0 -0.00000000000E+00 -0.00000000000E+00 -0.74505805969E-08  0.93827000000E+00  0.93827000000E+00 0.  1.
     999902    2    1    2    0    0  0.23170129290E-02  0.79798621390E-02  0.19167092823E-01  0.10230392318E+01  0.10228259117E+01 0.  0.
     999903    2    3    3    0    0  0.10868086105E+00  0.56806038580E-01  0.51563858770E-01  0.13469987427E+00  0.21136911311E-01 0.  0.
         14    1    1    2    0    0 -0.23170129290E-02 -0.79798621390E-02 -0.19167092823E-01  0.20890768200E-01  0.00000000000E+00 0. -1.
     999901    1    3    3    0    0 -0.10636384812E+00 -0.48826176441E-01 -0.32396765947E-01  0.88833935753E+00  0.88000000000E+00 0.  1.
        -11    1    4    4    0    0  0.11704107563E-01  0.14434562205E-01  0.85429814134E-02  0.20459383479E-01  0.51100000000E-03 0.  1.
         11    1    4    4    0    0  0.96976753486E-01  0.42371476375E-01  0.43020877357E-01  0.11424049079E+00  0.51100000000E-03 0. -1.
</event>
<event>
 8    1  0.1131376E+005  0.1043930E+01  0.7957747E-01            NaN
         13   -1    0    0    0    0  0.00000000000E+00  0.00000000000E+00  0.74505805969E-08  0.10566000000E+00  0.10566000000E+00 0. -1.
     999900   -1    0    0    0    0 -0.00000000000E+00 -0.00000000000E+00 -0.74505805969E-08  0.93827000000E+00  0.93827000000E+00 0. -1.
     999902    2    1    2    0    0 -0.12638295189E-01 -0.12579372231E-01  0.15490168910E-01  0.10203098297E+01  0.10200363896E+01 0.  0.
     999903    2    3    3    0    0  0.69240543197E-01 -0.82132087650E-01 -0.69114596086E-01  0.12974838285E+00  0.22757038827E-01 0.  0.
         14    1    1    2    0    0  0.12638295189E-01  0.12579372231E-01 -0.15490168910E-01  0.23620170276E-01  0.00000000000E+00 0. -1.
     999901    1    3    3    0    0 -0.81878838387E-01  0.69552715419E-01  0.84604764996E-01  0.89056144687E+00  0.88000000000E+00 0.  1.
        -11    1    4    4    0    0  0.30758748697E-01 -0.45158991755E-01 -0.46645080266E-01  0.71843300256E-01  0.51100000000E-03 0. -1.
         11    1    4    4    0    0  0.38481794500E-01 -0.36973095895E-01 -0.22469515820E-01  0.57905082594E-01  0.51100000000E-03 0.  1.
</event>
<event>
 8    1  0.1131376E+005  0.1043930E+01  0.7957747E-01            NaN
         13   -1    0    0    0    0  0.00000000000E+00  0.00000000000E+00  0.74505805969E-08  0.10566000000E+00  0.10566000000E+00 0. -1.
     999900   -1    0    0    0    0 -0.00000000000E+00 -0.00000000000E+00 -0.74505805969E-08  0.93827000000E+00  0.93827000000E+00 0.  1.
     999902    2    1    2    0    0  0.11654475029E-01 -0.19777984893E-01 -0.54628203819E-02  0.10203325874E+01  0.10200596801E+01 0.  0.
     999903    2    3    3    0    0 -0.19867148524E-01 -0.44959529057E-01 -0.12067308788E+00  0.13190637851E+00  0.20524027614E-01 0.  0.
         14    1    1    2    0    0 -0.11654475029E-01  0.19777984893E-01  0.54628203819E-02  0.23597412594E-01  0.00000000000E+00 0.  1.
     999901    1    3    3    0    0  0.31521623553E-01  0.25181544165E-01  0.11521026750E+00  0.88842620890E+00  0.88000000000E+00 0. -1.
        -11    1    4    4    0    0 -0.12905219241E-01 -0.18453527635E-01 -0.78013151310E-01  0.81199693744E-01  0.51100000000E-03 0.  1.
         11    1    4    4    0    0 -0.69619292831E-02 -0.26506001422E-01 -0.42659936570E-01  0.50706684765E-01  0.51100000000E-03 0. -1.
</event>
<event>
 8    1  0.1131376E+005  0.1043930E+01  0.7957747E-01            NaN
         13   -1    0    0    0    0  0.00000000000E+00  0.00000000000E+00  0.74505805969E-08  0.10566000000E+00  0.10566000000E+00 0.  1.
     999900   -1    0    0    0    0 -0.00000000000E+00 -0.00000000000E+00 -0.74505805969E-08  0.93827000000E+00  0.93827000000E+00 0.  1.
     999902    2    1    2    0    0  0.44744193486E-02  0.22521867879E-01 -0.80135255120E-02  0.10196098118E+01  0.10193197226E+01 0.  0.
     999903    2    3    3    0    0  0.58838172164E-01  0.11693646991E+00  0.93087321263E-02  0.13272222296E+00  0.19810791888E-01 0.  0.
         14    1    1    2    0    0 -0.44744193486E-02 -0.22521867879E-01  0.80135255120E-02  0.24320188165E-01  0.00000000000E+00 0.  1.
     999901    1    3    3    0    0 -0.54363752815E-01 -0.94414602027E-01 -0.17322257638E-01  0.88688758888E+00  0.88000000000E+00 0. -1.
        -11    1    4    4    0    0  0.48609348858E-01  0.10917356288E+00  0.74746747231E-02  0.11974083477E+00  0.51100000000E-03 0. -1.
         11    1    4    4    0    0  0.10228823305E-01  0.77629070284E-02  0.18340574031E-02  0.12981388189E-01  0.51100000000E-03 0.  1.
</event>
<event>
 8    1  0.1131376E+005  0.1043930E+01  0.7957747E-01            NaN
         13   -1    0    0    0    0  0.00000000000E+00  0.00000000000E+00  0.74505805969E-08  0.10566000000E+00  0.10566000000E+00 0.  1.
     999900   -1    0    0    0    0 -0.00000000000E+00 -0.00000000000E+00 -0.74505805969E-08  0.93827000000E+00  0.93827000000E+00 0.  1.
     999902    2    1    2    0    0 -0.17170120540E-01  0.17546499437E-01 -0.48017457585E-02  0.10189150156E+01  0.10186079028E+01 0.  0.
     999903    2    3    3    0    0 -0.97014116535E-01  0.58419451080E-01  0.64059726834E-01  0.13167910319E+00  0.20277242012E-01 0.  0.
         14    1    1    2    0    0  0.17170120540E-01 -0.17546499437E-01  0.48017457585E-02  0.25014984392E-01  0.00000000000E+00 0. -1.
     999901    1    3    3    0    0  0.79843995996E-01 -0.40872951644E-01 -0.68861472593E-01  0.88723591242E+00  0.88000000000E+00 0.  1.
        -11    1    4    4    0    0 -0.75496442642E-01  0.52946534777E-01  0.45976791151E-01  0.10303967606E+00  0.51100000000E-03 0. -1.
         11    1    4    4    0    0 -0.21517673893E-01  0.54729163035E-02  0.18082935684E-01  0.28639427134E-01  0.51100000000E-03 0.  1.
</event>
<event>
 8    1  0.1131376E+005  0.1043930E+01  0.7957747E-01            NaN
         13   -1    0    0    0    0  0.00000000000E+00  0.00000000000E+00  0.74505805969E-08  0.10566000000E+00  0.10566000000E+00 0.  1.
     999900   -1    0    0    0    0 -0.00000000000E+00 -0.00000000000E+00 -0.74505805969E-08  0.93827000000E+00  0.93827000000E+00 0. -1.
     999902    2    1    2    0    0  0.22750991367E-01 -0.63423592741E-02  0.60281127148E-02  0.10195543713E+01  0.10192629420E+01 0.  0.
     999903    2    3    3    0    0 -0.61066629170E-01 -0.37511901845E-01 -0.10433852582E+00  0.12816347572E+00  0.20076667063E-01 0.  0.
         14    1    1    2    0    0 -0.22750991367E-01  0.63423592741E-02 -0.60281127148E-02  0.24375628654E-01  0.00000000000E+00 0.  1.
     999901    1    3    3    0    0  0.83817620537E-01  0.31169542571E-01  0.11036663854E+00  0.89139089562E+00  0.88000000000E+00 0.  1.
        -11    1    4    4    0    0 -0.37146771407E-01 -0.11225617024E-01 -0.57297315821E-01  0.69203617137E-01  0.51100000000E-03 0. -1.
         11    1    4    4    0    0 -0.23919857763E-01 -0.26286284821E-01 -0.47041210002E-01  0.58959858587E-01  0.51100000000E-03 0.  1.
</event>
<event>
 8    1  0.1131376E+005  0.1043930E+01  0.7957747E-01            NaN
         13   -1    0    0    0    0  0.00000000000E+00  0.00000000000E+00  0.74505805969E-08  0.10566000000E+00  0.10566000000E+00 0.  1.
     999900   -1    0    0    0    0 -0.00000000000E+00 -0.00000000000E+00 -0.74505805969E-08  0.93827000000E+00  0.93827000000E+00 0.  1.
     999902    2    1    2    0    0 -0.15069952816E-01 -0.13270427225E-01 -0.12786506703E-01  0.10201244866E+01  0.10198466873E+01 0.  0.
     999903    2    3    3    0    0  0.70323774056E-01  0.68161042750E-01 -0.82390758164E-01  0.12952473094E+00  0.19926312928E-01 0.  0.
         14    1    1    2    0    0  0.15069952816E-01  0.13270427225E-01  0.12786506703E-01  0.23805513443E-01  0.00000000000E+00 0.  1.
     999901    1    3    3    0    0 -0.85393726872E-01 -0.81431469975E-01  0.69604251461E-01  0.89059975562E+00  0.88000000000E+00 0. -1.
        -11    1    4    4    0    0  0.12663895668E-01  0.56498637900E-02 -0.18643112927E-01  0.23240524842E-01  0.51100000000E-03 0.  1.
         11    1    4    4    0    0  0.57659878388E-01  0.62511178960E-01 -0.63747645237E-01  0.10628420609E+00  0.51100000000E-03 0. -1.
</event>
<event>
 8    1  0.1131376E+005  0.1043930E+01  0.7957747E-01            NaN
         13   -1    0    0    0    0  0.00000000000E+00  0.00000000000E+00  0.74505805969E-08  0.10566000000E+00  0.10566000000E+00 0.  1.
     999900   -1    0    0    0    0 -0.00000000000E+00 -0.00000000000E+00 -0.74505805969E-08  0.93827000000E+00  0.93827000000E+00 0.  1.
     999902    2    1    2    0    0 -0.18957329091E-01  0.13152445332E-01 -0.15532827653E-02  0.10208046928E+01  0.10205427189E+01 0.  0.
     999903    2    3    3    0    0 -0.24389114556E-01 -0.79700463018E-01  0.97817688762E-01  0.13034090532E+00  0.21759105002E-01 0.  0.
         14    1    1    2    0    0  0.18957329091E-01 -0.13152445332E-01  0.15532827653E-02  0.23125307172E-01  0.00000000000E+00 0.  1.
     999901    1    3    3    0    0  0.54317854646E-02  0.92852908350E-01 -0.99370971527E-01  0.89046378751E+00  0.88000000000E+00 0.  1.
        -11    1    4    4    0    0 -0.27809611838E-01 -0.60139279830E-01  0.76355971652E-01  0.10109699806E+00  0.51100000000E-03 0.  1.
         11    1    4    4    0    0  0.34204972826E-02 -0.19561183188E-01  0.21461717110E-01  0.29243907257E-01  0.51100000000E-03 0. -1.
</event>
<event>
 8    1  0.1131376E+005  0.1043930E+01  0.7957747E-01            NaN
         13   -1    0    0    0    0  0.00000000000E+00  0.00000000000E+00  0.74505805969E-08  0.10566000000E+00  0.10566000000E+00 0. -1.
     999900   -1    0    0    0    0 -0.00000000000E+00 -0.00000000000E+00 -0.74505805969E-08  0.93827000000E+00  0.93827000000E+00 0.  1.
     999902    2    1    2    0    0 -0.54451809215E-02  0.18433122225E-01  0.14154548310E-01  0.10200599093E+01  0.10197805830E+01 0.  0.
     999903    2    3    3    0    0 -0.10700176239E-01  0.98322423912E-01 -0.83352256233E-01  0.13106188210E+00  0.21161888049E-01 0.  0.
         14    1    1    2    0    0  0.54451809215E-02 -0.18433122225E-01 -0.14154548310E-01  0.23870090659E-01  0.00000000000E+00 0.  1.
     999901    1    3    3    0    0  0.52549953179E-02 -0.79889301687E-01  0.97506804543E-01  0.88899802724E+00  0.88000000000E+00 0.  1.
        -11    1    4    4    0    0  0.47552991583E-02  0.53129053049E-01 -0.42331484269E-01  0.68099374662E-01  0.51100000000E-03 0. -1.
         11    1    4    4    0    0 -0.15455475398E-01  0.45193370863E-01 -0.41020771963E-01  0.62962507441E-01  0.51100000000E-03 0.  1.
</event>
<event>
 8    1  0.1131376E+005  0.1043930E+01  0.7957747E-01            NaN
         13   -1    0    0    0    0  0.00000000000E+00  0.00000000000E+00  0.74505805969E-08  0.10566000000E+00  0.10566000000E+00 0. -1.
     999900   -1    0    0    0    0 -0.00000000000E+00 -0.00000000000E+00 -0.74505805969E-08  0.93827000000E+00  0.93827000000E+00 0.  1.
     999902    2    1    2    0    0  0.20871111425E-01  0.83302625557E-02  0.38162442524E-02  0.10211361349E+01  0.10208817001E+01 0.  0.
     999903    2    3    3    0    0  0.19482622163E-01 -0.12665379016E+00 -0.17437480838E-01  0.13058891929E+00  0.18128567949E-01 0.  0.
         14    1    1    2    0    0 -0.20871111425E-01 -0.83302625557E-02 -0.38162442524E-02  0.22793865108E-01  0.00000000000E+00 0.  1.
     999901    1    3    3    0    0  0.13884892623E-02  0.13498405271E+00  0.21253725090E-01  0.89054721560E+00  0.88000000000E+00 0.  1.
        -11    1    4    4    0    0  0.16004149326E-01 -0.70402077055E-01 -0.23292137929E-02  0.72237605215E-01  0.51100000000E-03 0. -1.
         11    1    4    4    0    0  0.34784728370E-02 -0.56251713101E-01 -0.15108267045E-01  0.58351314074E-01  0.51100000000E-03 0.  1.
</event>
<event>
 8    1  0.1131376E+005  0.1043930E+01  0.7957747E-01            NaN
         13   -1    0    0    0    0  0.00000000000E+00  0.00000000000E+00  0.74505805969E-08  0.10566000000E+00  0.10566000000E+00 0.  1.
     999900   -1    0    0    0    0 -0.00000000000E+00 -0.00000000000E+00 -0.74505805969E-08  0.93827000000E+00  0.93827000000E+00 0. -1.
     999902    2    1    2    0    0  0.18208721727E-01 -0.87831475408E-02 -0.14326152866E-01  0.10191521897E+01  0.10188509439E+01 0.  0.
     999903    2    3    3    0    0 -0.10055311278E+00 -0.75908573315E-01  0.13882404158E-01  0.12819432379E+00  0.19183938957E-01 0.  0.
         14    1    1    2    0    0 -0.18208721727E-01  0.87831475408E-02  0.14326152866E-01  0.24777810307E-01  0.00000000000E+00 0.  1.
     999901    1    3    3    0    0  0.11876183451E+00  0.67125425774E-01 -0.28208557024E-01  0.89095786590E+00  0.88000000000E+00 0. -1.
        -11    1    4    4    0    0 -0.52229519189E-01 -0.27688987372E-01  0.45688767123E-02  0.59293662830E-01  0.51100000000E-03 0.  1.
         11    1    4    4    0    0 -0.48323593595E-01 -0.48219585943E-01  0.93135274457E-02  0.68900660962E-01  0.51100000000E-03 0. -1.
</event>
<event>
 8    1  0.1131376E+005  0.1043930E+01  0.7957747E-01            NaN
         13   -1    0    0    0    0  0.00000000000E+00  0.00000000000E+00  0.74505805969E-08  0.10566000000E+00  0.10566000000E+00 0.  1.
     999900   -1    0    0    0    0 -0.00000000000E+00 -0.00000000000E+00 -0.74505805969E-08  0.93827000000E+00  0.93827000000E+00 0. -1.
     999902    2    1    2    0    0  0.64568442438E-02 -0.21080005368E-01 -0.67560837396E-02  0.10208713328E+01  0.10206108838E+01 0.  0.
     999903    2    3    3    0    0  0.14114570702E-01  0.12258970741E+00 -0.30896653914E-01  0.12886102220E+00  0.20569451925E-01 0.  0.
         14    1    1    2    0    0 -0.64568442438E-02  0.21080005368E-01  0.67560837396E-02  0.23058667165E-01  0.00000000000E+00 0. -1.
     999901    1    3    3    0    0 -0.76577264581E-02 -0.14366971277E+00  0.24140570174E-01  0.89201031063E+00  0.88000000000E+00 0. -1.
        -11    1    4    4    0    0  0.78743205395E-02  0.67227980882E-01 -0.27438034489E-01  0.73039120991E-01  0.51100000000E-03 0.  1.
         11    1    4    4    0    0  0.62402501623E-02  0.55361726524E-01 -0.34586194247E-02  0.55821901214E-01  0.51100000000E-03 0. -1.
</event>
<event>
 8    1  0.1131376E+005  0.1043930E+01  0.7957747E-01            NaN
         13   -1    0    0    0    0  0.00000000000E+00  0.00000000000E+00  0.74505805969E-08  0.10566000000E+00  0.10566000000E+00 0.  1.
     999900   -1    0    0    0    0 -0.00000000000E+00 -0.00000000000E+00 -0.74505805969E-08  0.93827000000E+00  0.93827000000E+00 0.  1.
     999902    2    1    2    0    0  0.15927708014E-01 -0.30321973386E-02 -0.16592460842E-01  0.10207309513E+01  0.10204672847E+01 0.  0.
     999903    2    3    3    0    0 -0.29737636687E-01  0.12171337234E+00 -0.30408650658E-01  0.13065361312E+00  0.21147305850E-01 0.  0.
         14    1    1    2    0    0 -0.15927708014E-01  0.30321973386E-02  0.16592460842E-01  0.23199048689E-01  0.00000000000E+00 0.  1.
     999901    1    3    3    0    0  0.45665344701E-01 -0.12474556968E+00  0.13816189816E-01  0.89007733819E+00  0.88000000000E+00 0. -1.
        -11    1    4    4    0    0 -0.16164552509E-01  0.29974705059E-01 -0.11956305400E-01  0.36096953625E-01  0.51100000000E-03 0.  1.
         11    1    4    4    0    0 -0.13573084177E-01  0.91738667279E-01 -0.18452345258E-01  0.94556659495E-01  0.51100000000E-03 0. -1.
</event>
<event>
 8    1  0.1131376E+005  0.1043930E+01  0.7957747E-01            NaN
         13   -1    0    0    0    0  0.00000000000E+00  0.00000000000E+00  0.74505805969E-08  0.10566000000E+00  0.10566000000E+00 0. -1.
     999900   -1    0    0    0    0 -0.00000000000E+00 -0.00000000000E+00 -0.74505805969E-08  0.93827000000E+00  0.93827000000E+00 0. -1.
     999902    2    1    2    0    0  0.19581076609E-01  0.17631684186E-02  0.75840622561E-02  0.10228576170E+01  0.10226405328E+01 0.  0.
     999903    2    3    3    0    0  0.54744065587E-01  0.11560395667E+00 -0.33452574541E-01  0.13388058334E+00  0.21065334921E-01 0.  0.
         14    1    1    2    0    0 -0.19581076609E-01 -0.17631684186E-02 -0.75840622561E-02  0.21072382977E-01  0.00000000000E+00 0.  1.
     999901    1    3    3    0    0 -0.35162988979E-01 -0.11384078825E+00  0.41036636797E-01  0.88897703369E+00  0.88000000000E+00 0. -1.
        -11    1    4    4    0    0  0.32992966059E-01  0.88157181549E-01 -0.19204999071E-01  0.96069337347E-01  0.51100000000E-03 0.  1.
         11    1    4    4    0    0  0.21751099528E-01  0.27446775124E-01 -0.14247575470E-01  0.37811245988E-01  0.51100000000E-03 0. -1.
</event>
<event>
 8    1  0.1131376E+005  0.1043930E+01  0.7957747E-01            NaN
         13   -1    0    0    0    0  0.00000000000E+00  0.00000000000E+00  0.74505805969E-08  0.10566000000E+00  0.10566000000E+00 0. -1.
     999900   -1    0    0    0    0 -0.00000000000E+00 -0.00000000000E+00 -0.74505805969E-08  0.93827000000E+00  0.93827000000E+00 0. -1.
     999902    2    1    2    0    0  0.13154217544E-01 -0.69374159520E-02  0.19653375252E-01  0.10192841821E+01  0.10189861764E+01 0.  0.
     999903    2    3    3    0    0  0.23091450688E-02  0.56650940736E-01  0.11678757965E+00  0.13159271076E+00  0.21509103342E-01 0.  0.
         14    1    1    2    0    0 -0.13154217544E-01  0.69374159520E-02 -0.19653375252E-01  0.24645817861E-01  0.00000000000E+00 0.  1.
     999901    1    3    3    0    0  0.10845072475E-01 -0.63588356688E-01 -0.97134204397E-01  0.88769147138E+00  0.88000000000E+00 0. -1.
        -11    1    4    4    0    0  0.74646878569E-02  0.50857201070E-01  0.10937445807E+00  0.12085201556E+00  0.51100000000E-03 0. -1.
         11    1    4    4    0    0 -0.51555427880E-02  0.57937396665E-02  0.74131215753E-02  0.10740695194E-01  0.51100000000E-03 0.  1.
</event>
<event>
 8    1  0.1131376E+005  0.1043930E+01  0.7957747E-01            NaN
         13   -1    0    0    0    0  0.00000000000E+00  0.00000000000E+00  0.74505805969E-08  0.10566000000E+00  0.10566000000E+00 0. -1.
     999900   -1    0    0    0    0 -0.00000000000E+00 -0.00000000000E+00 -0.74505805969E-08  0.93827000000E+00  0.93827000000E+00 0. -1.
     999902    2    1    2    0    0 -0.34315041931E-02  0.18483919750E-01  0.14124423590E-01  0.10204155395E+01  0.10201445699E+01 0.  0.
     999903    2    3    3    0    0  0.66398425208E-01  0.11168505728E+00  0.18642999651E-01  0.13273142418E+00  0.19691791155E-01 0.  0.
         14    1    1    2    0    0  0.34315041931E-02 -0.18483919750E-01 -0.14124423590E-01  0.23514460489E-01  0.00000000000E+00 0.  1.
     999901    1    3    3    0    0 -0.69829929401E-01 -0.93201137533E-01 -0.45185760617E-02  0.88768411533E+00  0.88000000000E+00 0.  1.
        -11    1    4    4    0    0  0.49954592284E-01  0.66908000053E-01  0.82395226541E-02  0.83906451575E-01  0.51100000000E-03 0. -1.
         11    1    4    4    0    0  0.16443832924E-01  0.44777057230E-01  0.10403476997E-01  0.48824972606E-01  0.51100000000E-03 0.  1.
</event>
<event>
 8    1  0.1131376E+005  0.1043930E+01  0.7957747E-01            NaN
         13   -1    0    0    0    0  0.00000000000E+00  0.00000000000E+00  0.74505805969E-08  0.10566000000E+00  0.10566000000E+00 0. -1.
     999900   -1    0    0    0    0 -0.00000000000E+00 -0.00000000000E+00 -0.74505805969E-08  0.93827000000E+00  0.93827000000E+00 0. -1.
     999902    2    1    2    0    0 -0.20864177262E-01 -0.83546348439E-02 -0.64960576818E-02  0.10205352873E+01  0.10202671023E+01 0.  0.
     999903    2    3    3    0    0  0.16914494928E-01 -0.11751095297E+00  0.52117555964E-01  0.13105347999E+00  0.19074872784E-01 0.  0.
         14    1    1    2    0    0  0.20864177262E-01  0.83546348439E-02  0.64960576818E-02  0.23394712685E-01  0.00000000000E+00 0.  1.
     999901    1    3    3    0    0 -0.37778672191E-01  0.10915631812E+00 -0.58613613646E-01  0.88948180733E+00  0.88000000000E+00 0.  1.
        -11    1    4    4    0    0 -0.31491965057E-02 -0.37697175282E-01  0.19083585708E-01  0.42372618840E-01  0.51100000000E-03 0. -1.
         11    1    4    4    0    0  0.20063691434E-01 -0.79813777685E-01  0.33033970256E-01  0.88680861149E-01  0.51100000000E-03 0.  1.
</event>
<event>
 8    1  0.1131376E+005  0.1043930E+01  0.7957747E-01            NaN
         13   -1    0    0    0    0  0.00000000000E+00  0.00000000000E+00  0.74505805969E-08  0.10566000000E+00  0.10566000000E+00 0.  1.
     999900   -1    0    0    0    0 -0.00000000000E+00 -0.00000000000E+00 -0.74505805969E-08  0.93827000000E+00  0.93827000000E+00 0.  1.
     999902    2    1    2    0    0 -0.55947726605E-03 -0.10537884259E-01  0.20950931854E-01  0.10204714927E+01  0.10202018260E+01 0.  0.
     999903    2    3    3    0    0  0.36807296318E-01 -0.18687236817E-01 -0.11991207262E+00  0.12844846959E+00  0.20398879796E-01 0.  0.
         14    1    1    2    0    0  0.55947726605E-03  0.10537884259E-01 -0.20950931854E-01  0.23458507306E-01  0.00000000000E+00 0. -1.
     999901    1    3    3    0    0 -0.37366773584E-01  0.81493525584E-02  0.14086300448E+00  0.89202302310E+00  0.88000000000E+00 0. -1.
        -11    1    4    4    0    0  0.36578694150E-01 -0.18100993141E-01 -0.93456894618E-01  0.10198087610E+00  0.51100000000E-03 0. -1.
         11    1    4    4    0    0  0.22860216884E-03 -0.58624367598E-03 -0.26455178006E-01  0.26467593486E-01  0.51100000000E-03 0.  1.
</event>
<event>
 8    1  0.1131376E+005  0.1043930E+01  0.7957747E-01            NaN
         13   -1    0    0    0    0  0.00000000000E+00  0.00000000000E+00  0.74505805969E-08  0.10566000000E+00  0.10566000000E+00 0.  1.
     999900   -1    0    0    0    0 -0.00000000000E+00 -0.00000000000E+00 -0.74505805969E-08  0.93827000000E+00  0.93827000000E+00 0.  1.
     999902    2    1    2    0    0  0.40003022669E-02 -0.22080136932E-01 -0.66022350208E-02  0.10205393101E+01  0.10202712184E+01 0.  0.
     999903    2    3    3    0    0  0.56037696299E-01  0.10545895370E+00 -0.44631738150E-01  0.12901233178E+00  0.19757919436E-01 0.  0.
         14    1    1    2    0    0 -0.40003022669E-02  0.22080136932E-01  0.66022350208E-02  0.23390689867E-01  0.00000000000E+00 0.  1.
     999901    1    3    3    0    0 -0.52037394032E-01 -0.12753909063E+00  0.38029503129E-01  0.89152697835E+00  0.88000000000E+00 0.  1.
        -11    1    4    4    0    0  0.37065026962E-01  0.83859218324E-01 -0.39366485954E-01  0.99780589591E-01  0.51100000000E-03 0. -1.
         11    1    4    4    0    0  0.18972669336E-01  0.21599735374E-01 -0.52652521959E-02  0.29231742193E-01  0.51100000000E-03 0.  1.
</event>
<event>
 8    1  0.1131376E+005  0.1043930E+01  0.7957747E-01            NaN
         13   -1    0    0    0    0  0.00000000000E+00  0.00000000000E+00  0.74505805969E-08  0.10566000000E+00  0.10566000000E+00 0. -1.
     999900   -1    0    0    0    0 -0.00000000000E+00 -0.00000000000E+00 -0.74505805969E-08  0.93827000000E+00  0.93827000000E+00 0. -1.
     999902    2    1    2    0    0  0.50168793920E-02  0.15007896288E-01 -0.16512426195E-01  0.10210593584E+01  0.10208031872E+01 0.  0.
     999903    2    3    3    0    0 -0.47933308471E-02  0.19510268251E-01 -0.13040513184E+00  0.13365411837E+00  0.21314275971E-01 0.  0.
         14    1    1    2    0    0 -0.50168793920E-02 -0.15007896288E-01  0.16512426195E-01  0.22870641632E-01  0.00000000000E+00 0. -1.
     999901    1    3    3    0    0  0.98102102391E-02 -0.45023719630E-02  0.11389270564E+00  0.88740524000E+00  0.88000000000E+00 0.  1.
        -11    1    4    4    0    0 -0.93481950872E-02  0.16600552464E-02 -0.65382390906E-01  0.66070134679E-01  0.51100000000E-03 0.  1.
         11    1    4    4    0    0  0.45548642401E-02  0.17850213005E-01 -0.65022740930E-01  0.67583983691E-01  0.51100000000E-03 0. -1.
</event>
<event>
 8    1  0.1131376E+005  0.1043930E+01  0.7957747E-01            NaN
         13   -1    0    0    0    0  0.00000000000E+00  0.00000000000E+00  0.74505805969E-08  0.10566000000E+00  0.10566000000E+00 0.  1.
     999900   -1    0    0    0    0 -0.00000000000E+00 -0.00000000000E+00 -0.74505805969E-08  0.93827000000E+00  0.93827000000E+00 0. -1.
     999902    2    1    2    0    0 -0.51118739471E-02 -0.22457252895E-01 -0.60942214427E-02  0.10201056637E+01  0.10198274198E+01 0.  0.
     999903    2    3    3    0    0 -0.32814773655E-01  0.52391831092E-01  0.11162615080E+00  0.12868661410E+00  0.16677343079E-01 0.  0.
         14    1    1    2    0    0  0.51118739471E-02  0.22457252895E-01  0.60942214427E-02  0.23824336252E-01  0.00000000000E+00 0.  1.
     999901    1    3    3    0    0  0.27702899708E-01 -0.74849083987E-01 -0.11772037224E+00  0.89141904964E+00  0.88000000000E+00 0. -1.
        -11    1    4    4    0    0 -0.17836065687E-01  0.42304214295E-01  0.77763141897E-01  0.90305809033E-01  0.51100000000E-03 0. -1.
         11    1    4    4    0    0 -0.14978707969E-01  0.10087616796E-01  0.33863008902E-01  0.38380805072E-01  0.51100000000E-03 0.  1.
</event>
<event>
 8    1  0.1131376E+005  0.1043930E+01  0.7957747E-01            NaN
         13   -1    0    0    0    0  0.00000000000E+00  0.00000000000E+00  0.74505805969E-08  0.10566000000E+00  0.10566000000E+00 0.  1.
     999900   -1    0    0    0    0 -0.00000000000E+00 -0.00000000000E+00 -0.74505805969E-08  0.93827000000E+00  0.93827000000E+00 0. -1.
     999902    2    1    2    0    0 -0.21443052074E-01 -0.10849955321E-01 -0.25798779781E-02  0.10197601472E+01  0.10194736760E+01 0.  0.
     999903    2    3    3    0    0 -0.13063792890E+00 -0.36932369511E-02 -0.13992185521E-01  0.13290898694E+00  0.19725848168E-01 0.  0.
         14    1    1    2    0    0  0.21443052074E-01  0.10849955321E-01  0.25798779781E-02  0.24169852774E-01  0.00000000000E+00 0.  1.
     999901    1    3    3    0    0  0.10919487683E+00 -0.71567183703E-02  0.11412307543E-01  0.88685116029E+00  0.88000000000E+00 0.  1.
        -11    1    4    4    0    0 -0.39667868893E-01  0.75670225235E-02 -0.68748786506E-02  0.40967361763E-01  0.51100000000E-03 0. -1.
         11    1    4    4    0    0 -0.90970060009E-01 -0.11260259475E-01 -0.71173068705E-02  0.91941625174E-01  0.51100000000E-03 0.  1.
</event>
<event>
 8    1  0.1131376E+005  0.1043930E+01  0.7957747E-01            NaN
         13   -1    0    0    0    0  0.00000000000E+00  0.00000000000E+00  0.74505805969E-08  0.10566000000E+00  0.10566000000E+00 0. -1.
     999900   -1    0    0    0    0 -0.00000000000E+00 -0.00000000000E+00 -0.74505805969E-08  0.93827000000E+00  0.93827000000E+00 0.  1.
     999902    2    1    2    0    0  0.12785487957E-01  0.18357361427E-01 -0.51897221053E-02  0.10209649257E+01  0.10207066106E+01 0.  0.
     999903    2    3    3    0    0 -0.30196214401E-01  0.32389839929E-01 -0.12271755952E+00  0.13200084897E+00  0.20092576216E-01 0.  0.
         14    1    1    2    0    0 -0.12785487957E-01 -0.18357361427E-01  0.51897221053E-02  0.22965074273E-01  0.00000000000E+00 0. -1.
     999901    1    3    3    0    0  0.42981702358E-01 -0.14032478503E-01  0.11752783742E+00  0.88896407675E+00  0.88000000000E+00 0. -1.
        -11    1    4    4    0    0 -0.13796069739E-01  0.18805688741E-01 -0.37525902021E-01  0.44186422267E-01  0.51100000000E-03 0. -1.
         11    1    4    4    0    0 -0.16400144662E-01  0.13584151189E-01 -0.85191657503E-01  0.87814426706E-01  0.51100000000E-03 0.  1.
</event>
<event>
 7    1  0.1131376E+005  0.1043930E+01  0.7957747E-01            NaN
         13   -1    0    0    0    0  0.00000000000E+00  0.00000000000E+00  0.74505805969E-08  0.10566000000E+00  0.10566000000E+00 0. -1.
     999900   -1    0    0    0    0 -0.00000000000E+00 -0.00000000000E+00 -0.74505805969E-08  0.93827000000E+00  0.93827000000E+00 0. -1.
     999903    2    1    2    0    0 -0.45283943342E-01 -0.42058176307E-01  0.69240992368E-01  0.94053831993E-01  0.15240819190E-01 0.  0.
         14    1    1    2    0    0 -0.14300433680E-01 -0.40648764123E-01  0.38091770474E-01  0.57513541067E-01  0.00000000000E+00 0. -1.
     999901    1    1    2    0    0  0.59584377022E-01  0.82706940430E-01 -0.10733276284E+00  0.89236262694E+00  0.88000000000E+00 0. -1.
        -11    1    3    3    0    0 -0.33084818794E-01 -0.33940903004E-01  0.43021270346E-01  0.64013131110E-01  0.51100000000E-03 0.  1.
         11    1    3    3    0    0 -0.12199124549E-01 -0.81172733027E-02  0.26219722022E-01  0.30040700883E-01  0.51100000000E-03 0. -1.
</event>
<event>
 8    1  0.1131376E+005  0.1043930E+01  0.7957747E-01            NaN
         13   -1    0    0    0    0  0.00000000000E+00  0.00000000000E+00  0.74505805969E-08  0.10566000000E+00  0.10566000000E+00 0. -1.
     999900   -1    0    0    0    0 -0.00000000000E+00 -0.00000000000E+00 -0.74505805969E-08  0.93827000000E+00  0.93827000000E+00 0. -1.
     999902    2    1    2    0    0 -0.16512191701E-01 -0.15472539162E-01  0.98998693879E-02  0.10192306203E+01  0.10189313019E+01 0.  0.
     999903    2    3    3    0    0  0.37497042253E-01 -0.11889863194E+00  0.35525401796E-01  0.13115932705E+00  0.19944975363E-01 0.  0.
         14    1    1    2    0    0  0.16512191701E-01  0.15472539162E-01 -0.98998693879E-02  0.24699379684E-01  0.00000000000E+00 0.  1.
     999901    1    3    3    0    0 -0.54009233954E-01  0.10342609278E+00 -0.25625532408E-01  0.88807129327E+00  0.88000000000E+00 0. -1.
        -11    1    4    4    0    0  0.33500971799E-01 -0.89639898265E-01  0.19892922203E-01  0.97742600473E-01  0.51100000000E-03 0.  1.
         11    1    4    4    0    0  0.39960704543E-02 -0.29258733679E-01  0.15632479593E-01  0.33416726572E-01  0.51100000000E-03 0. -1.
</event>
<event>
 8    1  0.1131376E+005  0.1043930E+01  0.7957747E-01            NaN
         13   -1    0    0    0    0  0.00000000000E+00  0.00000000000E+00  0.74505805969E-08  0.10566000000E+00  0.10566000000E+00 0.  1.
     999900   -1    0    0    0    0 -0.00000000000E+00 -0.00000000000E+00 -0.74505805969E-08  0.93827000000E+00  0.93827000000E+00 0.  1.
     999902    2    1    2    0    0 -0.13767414426E-01  0.11150143064E-01 -0.18298164685E-01  0.10184606023E+01  0.10181420864E+01 0.  0.
     999903    2    3    3    0    0 -0.60934539275E-01 -0.48501057750E-01 -0.10406970139E+00  0.13102623289E+00  0.16492430989E-01 0.  0.
         14    1    1    2    0    0  0.13767414426E-01 -0.11150143064E-01  0.18298164685E-01  0.25469397739E-01  0.00000000000E+00 0.  1.
     999901    1    3    3    0    0  0.47167124849E-01  0.59651200815E-01  0.85771536703E-01  0.88743436937E+00  0.88000000000E+00 0. -1.
        -11    1    4    4    0    0 -0.18744058652E-01 -0.19404469622E-01 -0.24917615316E-01  0.36729032796E-01  0.51100000000E-03 0. -1.
         11    1    4    4    0    0 -0.42190480623E-01 -0.29096588128E-01 -0.79152086072E-01  0.94297200098E-01  0.51100000000E-03 0.  1.
</event>
<event>
 8    1  0.1131376E+005  0.1043930E+01  0.7957747E-01            NaN
         13   -1    0    0    0    0  0.00000000000E+00  0.00000000000E+00  0.74505805969E-08  0.10566000000E+00  0.10566000000E+00 0.  1.
     999900   -1    0    0    0    0 -0.00000000000E+00 -0.00000000000E+00 -0.74505805969E-08  0.93827000000E+00  0.93827000000E+00 0. -1.
     999902    2    1    2    0    0 -0.91185735800E-02 -0.73635361601E-02  0.20537062441E-01  0.10202838379E+01  0.10200097886E+01 0.  0.
     999903    2    3    3    0    0 -0.43584222113E-01  0.10992824611E+00  0.53196978672E-01  0.13123270705E+00  0.20206463051E-01 0.  0.
         14    1    1    2    0    0  0.91185735800E-02  0.73635361601E-02 -0.20537062441E-01  0.23646162112E-01  0.00000000000E+00 0. -1.
     999901    1    3    3    0    0  0.34465648533E-01 -0.11729178227E+00 -0.32659916231E-01  0.88905113084E+00  0.88000000000E+00 0. -1.
        -11    1    4    4    0    0 -0.11604325041E-02  0.24295432614E-01  0.12639374833E-01  0.27415863412E-01  0.51100000000E-03 0. -1.
         11    1    4    4    0    0 -0.42423789609E-01  0.85632813499E-01  0.40557603839E-01  0.10381684364E+00  0.51100000000E-03 0.  1.
</event>
<event>
 8    1  0.1131376E+005  0.1043930E+01  0.7957747E-01            NaN
         13   -1    0    0    0    0  0.00000000000E+00  0.00000000000E+00  0.74505805969E-08  0.10566000000E+00  0.10566000000E+00 0.  1.
     999900   -1    0    0    0    0 -0.00000000000E+00 -0.00000000000E+00 -0.74505805969E-08  0.93827000000E+00  0.93827000000E+00 0. -1.
     999902    2    1    2    0    0 -0.22672814848E-01  0.22846198170E-02 -0.95382985751E-02  0.10192266569E+01  0.10189272413E+01 0.  0.
     999903    2    3    3    0    0 -0.58846225238E-01 -0.10062232272E+00 -0.55687523541E-01  0.13129191526E+00  0.23425129236E-01 0.  0.
         14    1    1    2    0    0  0.22672814848E-01 -0.22846198170E-02  0.95382985751E-02  0.24703343104E-01  0.00000000000E+00 0.  1.
     999901    1    3    3    0    0  0.36173410390E-01  0.10290694254E+00  0.46149224965E-01  0.88793474164E+00  0.88000000000E+00 0. -1.
        -11    1    4    4    0    0 -0.36858738881E-02 -0.13622213000E-01  0.14114488703E-03  0.14122018135E-01  0.51100000000E-03 0.  1.
         11    1    4    4    0    0 -0.55160351350E-01 -0.87000109721E-01 -0.55828668428E-01  0.11716989712E+00  0.51100000000E-03 0. -1.
</event>
<event>
 8    1  0.1131376E+005  0.1043930E+01  0.7957747E-01            NaN
         13   -1    0    0    0    0  0.00000000000E+00  0.00000000000E+00  0.74505805969E-08  0.10566000000E+00  0.10566000000E+00 0. -1.
     999900   -1    0    0    0    0 -0.00000000000E+00 -0.00000000000E+00 -0.74505805969E-08  0.93827000000E+00  0.93827000000E+00 0.  1.
     999902    2    1    2    0    0 -0.35478189872E-02 -0.19116166708E-01 -0.11656983391E-01  0.10212606350E+01  0.10210090031E+01 0.  0.
     999903    2    3    3    0    0  0.37065090283E-01 -0.43650733674E-01 -0.11867940702E+00  0.13350776815E+00  0.21454953730E-01 0.  0.
         14    1    1    2    0    0  0.35478189872E-02  0.19116166708E-01  0.11656983391E-01  0.22669365032E-01  0.00000000000E+00 0.  1.
     999901    1    3    3    0    0 -0.40612909270E-01  0.24534566966E-01  0.10702242363E+00  0.88775286681E+00  0.88000000000E+00 0. -1.
        -11    1    4    4    0    0  0.16723282175E-01 -0.24339154223E-01 -0.38246731524E-01  0.48323246872E-01  0.51100000000E-03 0. -1.
         11    1    4    4    0    0  0.20341808108E-01 -0.19311579451E-01 -0.80432675494E-01  0.85184521283E-01  0.51100000000E-03 0.  1.
</event>
<event>
 8    1  0.1131376E+005  0.1043930E+01  0.7957747E-01            NaN
         13   -1    0    0    0    0  0.00000000000E+00  0.00000000000E+00  0.74505805969E-08  0.10566000000E+00  0.10566000000E+00 0.  1.
     999900   -1    0    0    0    0 -0.00000000000E+00 -0.00000000000E+00 -0.74505805969E-08  0.93827000000E+00  0.93827000000E+00 0. -1.
     999902    2    1    2    0    0 -0.19089252241E-01  0.97871001298E-02 -0.72714437220E-02  0.10212791551E+01  0.10210279388E+01 0.  0.
     999903    2    3    3    0    0 -0.24628458782E-01  0.61546470416E-01 -0.11394111851E+00  0.13331061134E+00  0.19864833415E-01 0.  0.
         14    1    1    2    0    0  0.19089252241E-01 -0.97871001298E-02  0.72714437220E-02  0.22650844882E-01  0.00000000000E+00 0.  1.
     999901    1    3    3    0    0  0.55392065406E-02 -0.51759370286E-01  0.10666967478E+00  0.88796854378E+00  0.88000000000E+00 0.  1.
        -11    1    4    4    0    0 -0.13154470067E-01  0.22503846871E-01 -0.62484763449E-01  0.67705760398E-01  0.51100000000E-03 0. -1.
         11    1    4    4    0    0 -0.11473988716E-01  0.39042623545E-01 -0.51456355056E-01  0.65604850941E-01  0.51100000000E-03 0.  1.
</event>
<event>
 8    1  0.1131376E+005  0.1043930E+01  0.7957747E-01            NaN
         13   -1    0    0    0    0  0.00000000000E+00  0.00000000000E+00  0.74505805969E-08  0.10566000000E+00  0.10566000000E+00 0.  1.
     999900   -1    0    0    0    0 -0.00000000000E+00 -0.00000000000E+00 -0.74505805969E-08  0.93827000000E+00  0.93827000000E+00 0. -1.
     999902    2    1    2    0    0  0.24615217214E-01  0.23231215078E-02  0.57017828348E-02  0.10185564677E+01  0.10182403753E+01 0.  0.
     999903    2    3    3    0    0 -0.90644665865E-01  0.74243457134E-01 -0.44364418362E-01  0.12672464512E+00  0.19036483077E-01 0.  0.
         14    1    1    2    0    0 -0.24615217214E-01 -0.23231215078E-02 -0.57017828348E-02  0.25373532263E-01  0.00000000000E+00 0.  1.
     999901    1    3    3    0    0  0.11525988308E+00 -0.71920335626E-01  0.50066201197E-01  0.89183182261E+00  0.88000000000E+00 0.  1.
        -11    1    4    4    0    0 -0.51146252833E-01  0.30143977802E-01 -0.25182436781E-01  0.64490424249E-01  0.51100000000E-03 0. -1.
         11    1    4    4    0    0 -0.39498413032E-01  0.44099479332E-01 -0.19181981581E-01  0.62234220874E-01  0.51100000000E-03 0.  1.
</event>
<event>
 8    1  0.1131376E+005  0.1043930E+01  0.7957747E-01            NaN
         13   -1    0    0    0    0  0.00000000000E+00  0.00000000000E+00  0.74505805969E-08  0.10566000000E+00  0.10566000000E+00 0.  1.
     999900   -1    0    0    0    0 -0.00000000000E+00 -0.00000000000E+00 -0.74505805969E-08  0.93827000000E+00  0.93827000000E+00 0. -1.
     999902    2    1    2    0    0  0.80097008202E-02  0.17217161642E-01 -0.13923273195E-01  0.10203833761E+01  0.10201116560E+01 0.  0.
     999903    2    3    3    0    0  0.27605490928E-01 -0.11651065440E-02  0.12483393851E+00  0.12910594082E+00  0.17927943259E-01 0.  0.
         14    1    1    2    0    0 -0.80097008202E-02 -0.17217161642E-01  0.13923273195E-01  0.23546623935E-01  0.00000000000E+00 0. -1.
     999901    1    3    3    0    0 -0.19595790108E-01  0.18382268186E-01 -0.13875721170E+00  0.89127743524E+00  0.88000000000E+00 0. -1.
        -11    1    4    4    0    0  0.24465699644E-01  0.27616001074E-02  0.11835132882E+00  0.12088628975E+00  0.51100000000E-03 0. -1.
         11    1    4    4    0    0  0.31397912836E-02 -0.39267066514E-02  0.64826096866E-02  0.82196510741E-02  0.51100000000E-03 0.  1.
</event>
<event>
 8    1  0.1131376E+005  0.1043930E+01  0.7957747E-01            NaN
         13   -1    0    0    0    0  0.00000000000E+00  0.00000000000E+00  0.74505805969E-08  0.10566000000E+00  0.10566000000E+00 0. -1.
     999900   -1    0    0    0    0 -0.00000000000E+00 -0.00000000000E+00 -0.74505805969E-08  0.93827000000E+00  0.93827000000E+00 0.  1.
     999902    2    1    2    0    0 -0.15534908785E-01  0.15695381727E-01 -0.72867258112E-02  0.10206754355E+01  0.10204104908E+01 0.  0.
     999903    2    3    3    0    0  0.68246142665E-01 -0.10600687676E+00  0.11138467138E-01  0.12816762484E+00  0.20196056488E-01 0.  0.
         14    1    1    2    0    0  0.15534908785E-01 -0.15695381727E-01  0.72867258112E-02  0.23254564532E-01  0.00000000000E+00 0.  1.
     999901    1    3    3    0    0 -0.83781051450E-01  0.12170225848E+00 -0.18425192950E-01  0.89250781063E+00  0.88000000000E+00 0.  1.
        -11    1    4    4    0    0  0.22287544720E-01 -0.34448627627E-01  0.13174273770E-01  0.43095999878E-01  0.51100000000E-03 0. -1.
         11    1    4    4    0    0  0.45958597944E-01 -0.71558249130E-01 -0.20358066319E-02  0.85071624959E-01  0.51100000000E-03 0.  1.
</event>
<event>
 8    1  0.1131376E+005  0.1043930E+01  0.7957747E-01            NaN
         13   -1    0    0    0    0  0.00000000000E+00  0.00000000000E+00  0.74505805969E-08  0.10566000000E+00  0.10566000000E+00 0.  1.
     999900   -1    0    0    0    0 -0.00000000000E+00 -0.00000000000E+00 -0.74505805969E-08  0.93827000000E+00  0.93827000000E+00 0. -1.
     999902    2    1    2    0    0  0.31340707161E-02 -0.17756524189E-01  0.18181189396E-01  0.10183239031E+01  0.10180019152E+01 0.  0.
     999903    2    3    3    0    0  0.14090000947E-01  0.10204863862E+00 -0.69321467304E-01  0.12583859545E+00  0.20431189494E-01 0.  0.
         14    1    1    2    0    0 -0.31340707161E-02  0.17756524189E-01 -0.18181189396E-01  0.25606096898E-01  0.00000000000E+00 0. -1.
     999901    1    3    3    0    0 -0.10955930231E-01 -0.11980516281E+00  0.87502656700E-01  0.89248530765E+00  0.88000000000E+00 0.  1.
        -11    1    4    4    0    0  0.11565180768E-01  0.34386918491E-01 -0.32775010993E-01  0.48894539942E-01  0.51100000000E-03 0. -1.
         11    1    4    4    0    0  0.25248201790E-02  0.67661720133E-01 -0.36546456310E-01  0.76944055509E-01  0.51100000000E-03 0.  1.
</event>
<event>
 8    1  0.1131376E+005  0.1043930E+01  0.7957747E-01            NaN
         13   -1    0    0    0    0  0.00000000000E+00  0.00000000000E+00  0.74505805969E-08  0.10566000000E+00  0.10566000000E+00 0.  1.
     999900   -1    0    0    0    0 -0.00000000000E+00 -0.00000000000E+00 -0.74505805969E-08  0.93827000000E+00  0.93827000000E+00 0. -1.
     999902    2    1    2    0    0  0.56591025643E-02 -0.15160700593E-01 -0.16912279307E-01  0.10205227901E+01  0.10202543152E+01 0.  0.
     999903    2    3    3    0    0  0.11046125921E+00  0.40373926197E-01  0.51889223985E-01  0.12990433437E+00  0.18732346927E-01 0.  0.
         14    1    1    2    0    0 -0.56591025643E-02  0.15160700593E-01  0.16912279307E-01  0.23407209908E-01  0.00000000000E+00 0.  1.
     999901    1    3    3    0    0 -0.10480215664E+00 -0.55534626790E-01 -0.68801503292E-01  0.89061845572E+00  0.88000000000E+00 0. -1.
        -11    1    4    4    0    0  0.10132155700E+00  0.40960791457E-01  0.44029758659E-01  0.11782497663E+00  0.51100000000E-03 0.  1.
         11    1    4    4    0    0  0.91397022037E-02 -0.58686526020E-03  0.78594653251E-02  0.12079357740E-01  0.51100000000E-03 0. -1.
</event>
<event>
 8    1  0.1131376E+005  0.1043930E+01  0.7957747E-01            NaN
         13   -1    0    0    0    0  0.00000000000E+00  0.00000000000E+00  0.74505805969E-08  0.10566000000E+00  0.10566000000E+00 0. -1.
     999900   -1    0    0    0    0 -0.00000000000E+00 -0.00000000000E+00 -0.74505805969E-08  0.93827000000E+00  0.93827000000E+00 0. -1.
     999902    2    1    2    0    0  0.19641083755E-01  0.61514928815E-02 -0.11318351212E-01  0.10204413195E+01  0.10201709506E+01 0.  0.
     999903    2    3    3    0    0  0.25253727368E-01  0.11805913571E+00 -0.50825812173E-01  0.13245727589E+00  0.19645775194E-01 0.  0.
         14    1    1    2    0    0 -0.19641083755E-01 -0.61514928815E-02  0.11318351212E-01  0.23488680463E-01  0.00000000000E+00 0. -1.
     999901    1    3    3    0    0 -0.56126436132E-02 -0.11190764283E+00  0.39507460961E-01  0.88798404364E+00  0.88000000000E+00 0.  1.
        -11    1    4    4    0    0 -0.25597343729E-02  0.21725621098E-01 -0.11800270911E-01  0.24860860136E-01  0.51100000000E-03 0. -1.
         11    1    4    4    0    0  0.27813461741E-01  0.96333514615E-01 -0.39025541262E-01  0.10759641576E+00  0.51100000000E-03 0.  1.
</event>
<event>
 8    1  0.1131376E+005  0.1043930E+01  0.7957747E-01            NaN
         13   -1    0    0    0    0  0.00000000000E+00  0.00000000000E+00  0.74505805969E-08  0.10566000000E+00  0.10566000000E+00 0.  1.
     999900   -1    0    0    0    0 -0.00000000000E+00 -0.00000000000E+00 -0.74505805969E-08  0.93827000000E+00  0.93827000000E+00 0. -1.
     999902    2    1    2    0    0 -0.64846636218E-03  0.67861127518E-02 -0.22799286855E-01  0.10201333760E+01  0.10198557866E+01 0.  0.
     999903    2    3    3    0    0  0.15694114336E-01 -0.11493494975E+00 -0.57517612757E-01  0.13092673003E+00  0.19421250252E-01 0.  0.
         14    1    1    2    0    0  0.64846636218E-03 -0.67861127518E-02  0.22799286855E-01  0.23796624046E-01  0.00000000000E+00 0.  1.
     999901    1    3    3    0    0 -0.16342580698E-01  0.12172106250E+00  0.34718325902E-01  0.88920664592E+00  0.88000000000E+00 0. -1.
        -11    1    4    4    0    0  0.94081852267E-02 -0.21133695551E-01 -0.68608529217E-02  0.24134611261E-01  0.51100000000E-03 0. -1.
         11    1    4    4    0    0  0.62859291092E-02 -0.93801254196E-01 -0.50656759835E-01  0.10679211877E+00  0.51100000000E-03 0.  1.
</event>
<event>
 8    1  0.1131376E+005  0.1043930E+01  0.7957747E-01            NaN
         13   -1    0    0    0    0  0.00000000000E+00  0.00000000000E+00  0.74505805969E-08  0.10566000000E+00  0.10566000000E+00 0.  1.
     999900   -1    0    0    0    0 -0.00000000000E+00 -0.00000000000E+00 -0.74505805969E-08  0.93827000000E+00  0.93827000000E+00 0.  1.
     999902    2    1    2    0    0 -0.21224078731E-01  0.11746243609E-02 -0.13466299904E-01  0.10187668823E+01  0.10184560756E+01 0.  0.
     999903    2    3    3    0    0  0.32986305919E-01  0.32731023563E-01  0.11645920471E+00  0.12701848229E+00  0.20286256390E-01 0.  0.
         14    1    1    2    0    0  0.21224078731E-01 -0.11746243609E-02  0.13466299904E-01  0.25163117722E-01  0.00000000000E+00 0. -1.
     999901    1    3    3    0    0 -0.54210384651E-01 -0.31556399203E-01 -0.12992550462E+00  0.89174839999E+00  0.88000000000E+00 0.  1.
        -11    1    4    4    0    0  0.37270122940E-02  0.13891074647E-01  0.21407237817E-01  0.25795029123E-01  0.51100000000E-03 0.  1.
         11    1    4    4    0    0  0.29259293625E-01  0.18839948916E-01  0.95051966897E-01  0.10122345316E+00  0.51100000000E-03 0. -1.
</event>
<event>
 8    1  0.1131376E+005  0.1043930E+01  0.7957747E-01            NaN
         13   -1    0    0    0    0  0.00000000000E+00  0.00000000000E+00  0.74505805969E-08  0.10566000000E+00  0.10566000000E+00 0. -1.
     999900   -1    0    0    0    0 -0.00000000000E+00 -0.00000000000E+00 -0.74505805969E-08  0.93827000000E+00  0.93827000000E+00 0. -1.
     999902    2    1    2    0    0  0.18935323123E-01 -0.49532362212E-02  0.14037496009E-01  0.10198440642E+01  0.10195596024E+01 0.  0.
     999903    2    3    3    0    0  0.11075361491E-02 -0.75917703019E-01 -0.10289963482E+00  0.12909826535E+00  0.17700367319E-01 0.  0.
         14    1    1    2    0    0 -0.18935323123E-01  0.49532362212E-02 -0.14037496009E-01  0.24085935835E-01  0.00000000000E+00 0. -1.
     999901    1    3    3    0    0  0.17827786974E-01  0.70964466797E-01  0.11693713083E+00  0.89074579881E+00  0.88000000000E+00 0.  1.
        -11    1    4    4    0    0 -0.41169937221E-02 -0.44440121933E-01 -0.71775143589E-01  0.84521041362E-01  0.51100000000E-03 0.  1.
         11    1    4    4    0    0  0.52245298712E-02 -0.31477581086E-01 -0.31124491230E-01  0.44577223991E-01  0.51100000000E-03 0. -1.
</event>
<event>
 8    1  0.1131376E+005  0.1043930E+01  0.7957747E-01            NaN
         13   -1    0    0    0    0  0.00000000000E+00  0.00000000000E+00  0.74505805969E-08  0.10566000000E+00  0.10566000000E+00 0. -1.
     999900   -1    0    0    0    0 -0.00000000000E+00 -0.00000000000E+00 -0.74505805969E-08  0.93827000000E+00  0.93827000000E+00 0.  1.
     999902    2    1    2    0    0 -0.25684981232E-02 -0.22005390869E-01  0.53353020649E-02  0.10211418483E+01  0.10208875425E+01 0.  0.
     999903    2    3    3    0    0  0.86375675333E-01  0.68796590470E-01 -0.64196856486E-01  0.12929500781E+00  0.20055785031E-01 0.  0.
         14    1    1    2    0    0  0.25684981232E-02  0.22005390869E-01 -0.53353020649E-02  0.22788151703E-01  0.00000000000E+00 0. -1.
     999901    1    3    3    0    0 -0.88944173457E-01 -0.90801981339E-01  0.69532158551E-01  0.89184684048E+00  0.88000000000E+00 0.  1.
        -11    1    4    4    0    0  0.51514834624E-02  0.11003736658E-01 -0.38093505842E-02  0.12743322768E-01  0.51100000000E-03 0. -1.
         11    1    4    4    0    0  0.81224191871E-01  0.57792853812E-01 -0.60387505902E-01  0.11655168505E+00  0.51100000000E-03 0.  1.
</event>
<event>
 8    1  0.1131376E+005  0.1043930E+01  0.7957747E-01            NaN
         13   -1    0    0    0    0  0.00000000000E+00  0.00000000000E+00  0.74505805969E-08  0.10566000000E+00  0.10566000000E+00 0.  1.
     999900   -1    0    0    0    0 -0.00000000000E+00 -0.00000000000E+00 -0.74505805969E-08  0.93827000000E+00  0.93827000000E+00 0. -1.
     999902    2    1    2    0    0 -0.17673294422E-01  0.13852850925E-01 -0.37191140846E-02  0.10211686594E+01  0.10209149585E+01 0.  0.
     999903    2    3    3    0    0 -0.91714078947E-01 -0.71567478297E-02 -0.94361949094E-01  0.13317115688E+00  0.19175199393E-01 0.  0.
         14    1    1    2    0    0  0.17673294422E-01 -0.13852850925E-01  0.37191140846E-02  0.22761340559E-01  0.00000000000E+00 0. -1.
     999901    1    3    3    0    0  0.74040784525E-01  0.21009598755E-01  0.90642835009E-01  0.88799750256E+00  0.88000000000E+00 0. -1.
        -11    1    4    4    0    0 -0.44347653224E-01  0.54012960553E-02 -0.39827061476E-01  0.59852688264E-01  0.51100000000E-03 0.  1.
         11    1    4    4    0    0 -0.47366425723E-01 -0.12558043885E-01 -0.54534887618E-01  0.73318468618E-01  0.51100000000E-03 0. -1.
</event>
<event>
 8    1  0.1514193E+005  0.1043930E+01  0.7957747E-01            NaN
         13   -1    0    0    0    0  0.00000000000E+00  0.00000000000E+00  0.74505805969E-08  0.10566000000E+00  0.10566000000E+00 0. -1.
     999900   -1    0    0    0    0 -0.00000000000E+00 -0.00000000000E+00 -0.74505805969E-08  0.93827000000E+00  0.93827000000E+00 0. -1.
     999902    2    1    2    0    0 -0.49343665741E-02  0.78373513428E-02  0.21979167399E-01  0.10200793009E+01  0.10198004335E+01 0.  0.
     999903    2    3    3    0    0 -0.31683322705E-01 -0.46757893302E-03 -0.12247103996E+00  0.12786276833E+00  0.18592480424E-01 0.  0.
         14    1    1    2    0    0  0.49343665741E-02 -0.78373513428E-02 -0.21979167399E-01  0.23850699133E-01  0.00000000000E+00 0.  1.
     999901    1    3    3    0    0  0.26748956131E-01  0.83049302759E-02  0.14445020736E+00  0.89221653253E+00  0.88000000000E+00 0.  1.
        -11    1    4    4    0    0 -0.21142102156E-01 -0.86116328763E-02 -0.65957776186E-01  0.69798553457E-01  0.51100000000E-03 0.  1.
         11    1    4    4    0    0 -0.10541220549E-01  0.81440539433E-02 -0.56513263778E-01  0.58064214875E-01  0.51100000000E-03 0. -1.
</event>
<event>
 8    1  0.1131376E+005  0.1043930E+01  0.7957747E-01            NaN
         13   -1    0    0    0    0  0.00000000000E+00  0.00000000000E+00  0.74505805969E-08  0.10566000000E+00  0.10566000000E+00 0. -1.
     999900   -1    0    0    0    0 -0.00000000000E+00 -0.00000000000E+00 -0.74505805969E-08  0.93827000000E+00  0.93827000000E+00 0.  1.
     999902    2    1    2    0    0  0.20364182179E-01  0.82687239317E-03 -0.11728807489E-01  0.10204151417E+01  0.10201441628E+01 0.  0.
     999903    2    3    3    0    0  0.65358164929E-01 -0.11193976497E+00  0.12522286577E-01  0.13174822520E+00  0.19964630686E-01 0.  0.
         14    1    1    2    0    0 -0.20364182179E-01 -0.82687239317E-03  0.11728807489E-01  0.23514858257E-01  0.00000000000E+00 0. -1.
     999901    1    3    3    0    0 -0.44993982751E-01  0.11276663737E+00 -0.24251094066E-01  0.88866691654E+00  0.88000000000E+00 0.  1.
        -11    1    4    4    0    0  0.95702217390E-02 -0.25996341965E-01 -0.38896917541E-02  0.27978380271E-01  0.51100000000E-03 0.  1.
         11    1    4    4    0    0  0.55787943190E-01 -0.85943423008E-01  0.16411978331E-01  0.10376984493E+00  0.51100000000E-03 0. -1.
</event>
<event>
 8    1  0.1131376E+005  0.1043930E+01  0.7957747E-01            NaN
         13   -1    0    0    0    0  0.00000000000E+00  0.00000000000E+00  0.74505805969E-08  0.10566000000E+00  0.10566000000E+00 0. -1.
     999900   -1    0    0    0    0 -0.00000000000E+00 -0.00000000000E+00 -0.74505805969E-08  0.93827000000E+00  0.93827000000E+00 0. -1.
     999902    2    1    2    0    0 -0.75864860084E-02  0.12878827119E-01 -0.17496245290E-01  0.10209183169E+01  0.10206589402E+01 0.  0.
     999903    2    3    3    0    0 -0.58711186964E-01  0.42919723792E-01  0.10615711628E+00  0.13029699205E+00  0.20466231615E-01 0.  0.
         14    1    1    2    0    0  0.75864860084E-02 -0.12878827119E-01  0.17496245290E-01  0.23011683058E-01  0.00000000000E+00 0.  1.
     999901    1    3    3    0    0  0.51124700956E-01 -0.30040896674E-01 -0.12365336157E+00  0.89062132489E+00  0.88000000000E+00 0. -1.
        -11    1    4    4    0    0 -0.28663504944E-01  0.88217023962E-02  0.38867573058E-01  0.49095501884E-01  0.51100000000E-03 0.  1.
         11    1    4    4    0    0 -0.30047682020E-01  0.34098021396E-01  0.67289543219E-01  0.81201490168E-01  0.51100000000E-03 0. -1.
</event>
<event>
 8    1  0.1131376E+005  0.1043930E+01  0.7957747E-01            NaN
         13   -1    0    0    0    0  0.00000000000E+00  0.00000000000E+00  0.74505805969E-08  0.10566000000E+00  0.10566000000E+00 0.  1.
     999900   -1    0    0    0    0 -0.00000000000E+00 -0.00000000000E+00 -0.74505805969E-08  0.93827000000E+00  0.93827000000E+00 0. -1.
     999902    2    1    2    0    0 -0.45519068567E-02 -0.17069646444E-01 -0.17213053291E-01  0.10192646014E+01  0.10189661161E+01 0.  0.
     999903    2    3    3    0    0 -0.10796154211E+00  0.11837622336E-01  0.66419445177E-01  0.12880203751E+00  0.19560119928E-01 0.  0.
         14    1    1    2    0    0  0.45519068567E-02  0.17069646444E-01  0.17213053291E-01  0.24665398625E-01  0.00000000000E+00 0.  1.
     999901    1    3    3    0    0  0.10340963525E+00 -0.28907268780E-01 -0.83632498468E-01  0.89046256387E+00  0.88000000000E+00 0. -1.
        -11    1    4    4    0    0 -0.81168837099E-02 -0.41005903270E-02  0.73333823930E-02  0.11693513609E-01  0.51100000000E-03 0. -1.
         11    1    4    4    0    0 -0.99844658397E-01  0.15938212663E-01  0.59086062784E-01  0.11710852390E+00  0.51100000000E-03 0.  1.
</event>
<event>
 7    1  0.1131376E+005  0.1043930E+01  0.7957747E-01            NaN
         13   -1    0    0    0    0  0.00000000000E+00  0.00000000000E+00  0.74505805969E-08  0.10566000000E+00  0.10566000000E+00 0.  1.
     999900   -1    0    0    0    0 -0.00000000000E+00 -0.00000000000E+00 -0.74505805969E-08  0.93827000000E+00  0.93827000000E+00 0.  1.
     999903    2    1    2    0    0 -0.66876826796E-02 -0.28530168374E-01 -0.47093763470E-01  0.57956783894E-01  0.16806862720E-01 0.  0.
         14    1    1    2    0    0  0.68662914511E-01  0.43126882844E-01  0.64332285715E-01  0.10350442908E+00  0.00000000000E+00 0. -1.
     999901    1    1    2    0    0 -0.61975231831E-01 -0.14596714470E-01 -0.17238522244E-01  0.88246878703E+00  0.88000000000E+00 0. -1.
        -11    1    3    3    0    0 -0.12360763201E-01 -0.19072454058E-01 -0.31133989605E-01  0.38550400781E-01  0.51100000000E-03 0.  1.
         11    1    3    3    0    0  0.56730805211E-02 -0.94577143157E-02 -0.15959773866E-01  0.19406383113E-01  0.51100000000E-03 0. -1.
</event>
<event>
 8    1  0.1131376E+005  0.1043930E+01  0.7957747E-01            NaN
         13   -1    0    0    0    0  0.00000000000E+00  0.00000000000E+00  0.74505805969E-08  0.10566000000E+00  0.10566000000E+00 0. -1.
     999900   -1    0    0    0    0 -0.00000000000E+00 -0.00000000000E+00 -0.74505805969E-08  0.93827000000E+00  0.93827000000E+00 0.  1.
     999902    2    1    2    0    0  0.31491060155E-02 -0.19164200398E-01  0.96088847510E-02  0.10222617257E+01  0.10220320551E+01 0.  0.
     999903    2    3    3    0    0 -0.66293702024E-01 -0.81821152897E-01 -0.78462184577E-01  0.13293349014E+00  0.20626255188E-01 0.  0.
         14    1    1    2    0    0 -0.31491060155E-02  0.19164200398E-01 -0.96088847510E-02  0.21668274314E-01  0.00000000000E+00 0.  1.
     999901    1    3    3    0    0  0.69442808040E-01  0.62656952499E-01  0.88071069328E-01  0.88932823554E+00  0.88000000000E+00 0. -1.
        -11    1    4    4    0    0 -0.61137234136E-01 -0.64523576872E-01 -0.60944266398E-01  0.10777531303E+00  0.51100000000E-03 0.  1.
         11    1    4    4    0    0 -0.51564678888E-02 -0.17297576024E-01 -0.17517918180E-01  0.25158177115E-01  0.51100000000E-03 0. -1.
</event>
<event>
 8    1  0.1131376E+005  0.1043930E+01  0.7957747E-01            NaN
         13   -1    0    0    0    0  0.00000000000E+00  0.00000000000E+00  0.74505805969E-08  0.10566000000E+00  0.10566000000E+00 0. -1.
     999900   -1    0    0    0    0 -0.00000000000E+00 -0.00000000000E+00 -0.74505805969E-08  0.93827000000E+00  0.93827000000E+00 0.  1.
     999902    2    1    2    0    0 -0.28212331175E-02 -0.20848500067E-02 -0.22947256617E-01  0.10207161562E+01  0.10204521493E+01 0.  0.
     999903    2    3    3    0    0 -0.95128689747E-01  0.86095194474E-01  0.14933468225E-01  0.13069855186E+00  0.19931203177E-01 0.  0.
         14    1    1    2    0    0  0.28212331175E-02  0.20848500067E-02  0.22947256617E-01  0.23213843760E-01  0.00000000000E+00 0. -1.
     999901    1    3    3    0    0  0.92307456630E-01 -0.88180044481E-01 -0.37880724843E-01  0.89001760438E+00  0.88000000000E+00 0. -1.
        -11    1    4    4    0    0 -0.18738873868E-01  0.24451347413E-01  0.10080378199E-01  0.32417417075E-01  0.51100000000E-03 0.  1.
         11    1    4    4    0    0 -0.76389815880E-01  0.61643847061E-01  0.48530900261E-02  0.98281134784E-01  0.51100000000E-03 0. -1.
</event>
<event>
 8    1  0.1131376E+005  0.1043930E+01  0.7957747E-01            NaN
         13   -1    0    0    0    0  0.00000000000E+00  0.00000000000E+00  0.74505805969E-08  0.10566000000E+00  0.10566000000E+00 0. -1.
     999900   -1    0    0    0    0 -0.00000000000E+00 -0.00000000000E+00 -0.74505805969E-08  0.93827000000E+00  0.93827000000E+00 0.  1.
     999902    2    1    2    0    0  0.45479230964E-02  0.21886474907E-01  0.44988472304E-02  0.10211277849E+01  0.10208731616E+01 0.  0.
     999903    2    3    3    0    0 -0.12388273667E+00  0.18664138402E-01  0.34888091156E-01  0.13128042495E+00  0.17946825965E-01 0.  0.
         14    1    1    2    0    0 -0.45479230964E-02 -0.21886474907E-01 -0.44988472304E-02  0.22802215128E-01  0.00000000000E+00 0.  1.
     999901    1    3    3    0    0  0.12843065977E+00  0.32223365046E-02 -0.30389243926E-01  0.88984735993E+00  0.88000000000E+00 0. -1.
        -11    1    4    4    0    0 -0.10348205459E+00  0.10565156867E-01  0.33494259437E-01  0.10928076088E+00  0.51100000000E-03 0.  1.
         11    1    4    4    0    0 -0.20400682083E-01  0.80989815350E-02  0.13938317189E-02  0.21999664071E-01  0.51100000000E-03 0. -1.
</event>
<event>
 8    1  0.1131376E+005  0.1043930E+01  0.7957747E-01            NaN
         13   -1    0    0    0    0  0.00000000000E+00  0.00000000000E+00  0.74505805969E-08  0.10566000000E+00  0.10566000000E+00 0.  1.
     999900   -1    0    0    0    0 -0.00000000000E+00 -0.00000000000E+00 -0.74505805969E-08  0.93827000000E+00  0.93827000000E+00 0.  1.
     999902    2    1    2    0    0  0.18649478179E-01 -0.84894815276E-02  0.11868073736E-01  0.10202503567E+01  0.10199755217E+01 0.  0.
     999903    2    3    3    0    0 -0.98991847091E-01  0.31172666527E-02 -0.78272322505E-01  0.12778215611E+00  0.19814636211E-01 0.  0.
         14    1    1    2    0    0 -0.18649478179E-01  0.84894815276E-02 -0.11868073736E-01  0.23679643307E-01  0.00000000000E+00 0. -1.
     999901    1    3    3    0    0  0.11764132527E+00 -0.11606748180E-01  0.90140396241E-01  0.89246820058E+00  0.88000000000E+00 0.  1.
        -11    1    4    4    0    0 -0.89237191291E-01  0.31139496369E-02 -0.77045366826E-01  0.11793736754E+00  0.51100000000E-03 0. -1.
         11    1    4    4    0    0 -0.97546557998E-02  0.33170158084E-05 -0.12269556792E-02  0.98447885713E-02  0.51100000000E-03 0.  1.
</event>
<event>
 8    1  0.1131376E+005  0.1043930E+01  0.7957747E-01            NaN
         13   -1    0    0    0    0  0.00000000000E+00  0.00000000000E+00  0.74505805969E-08  0.10566000000E+00  0.10566000000E+00 0. -1.
     999900   -1    0    0    0    0 -0.00000000000E+00 -0.00000000000E+00 -0.74505805969E-08  0.93827000000E+00  0.93827000000E+00 0. -1.
     999902    2    1    2    0    0  0.17560669920E-01 -0.15671434556E-01  0.65013672221E-02  0.10195119992E+01  0.10192195434E+01 0.  0.
     999903    2    3    3    0    0  0.99907056952E-01 -0.84862125661E-01 -0.67764939855E-02  0.13286405280E+00  0.20589688083E-01 0.  0.
         14    1    1    2    0    0 -0.17560669920E-01  0.15671434556E-01 -0.65013672221E-02  0.24418000836E-01  0.00000000000E+00 0.  1.
     999901    1    3    3    0    0 -0.82346387032E-01  0.69190691105E-01  0.13277861208E-01  0.88664794636E+00  0.88000000000E+00 0. -1.
        -11    1    4    4    0    0  0.65078694156E-01 -0.67439984200E-01 -0.59326065912E-02  0.93908704836E-01  0.51100000000E-03 0. -1.
         11    1    4    4    0    0  0.34828362795E-01 -0.17422141461E-01 -0.84388739430E-03  0.38955347964E-01  0.51100000000E-03 0.  1.
</event>
<event>
 8    1  0.1131376E+005  0.1043930E+01  0.7957747E-01            NaN
         13   -1    0    0    0    0  0.00000000000E+00  0.00000000000E+00  0.74505805969E-08  0.10566000000E+00  0.10566000000E+00 0. -1.
     999900   -1    0    0    0    0 -0.00000000000E+00 -0.00000000000E+00 -0.74505805969E-08  0.93827000000E+00  0.93827000000E+00 0.  1.
     999902    2    1    2    0    0 -0.22989916774E-01  0.39388862455E-02  0.22734278164E-02  0.10204945659E+01  0.10202254356E+01 0.  0.
     999903    2    3    3    0    0  0.80925532327E-02  0.12398662056E+00  0.37462157784E-01  0.13110386143E+00  0.18618209359E-01 0.  0.
         14    1    1    2    0    0  0.22989916774E-01 -0.39388862455E-02 -0.22734278164E-02  0.23435434115E-01  0.00000000000E+00 0.  1.
     999901    1    3    3    0    0 -0.31082470007E-01 -0.12004773432E+00 -0.35188729967E-01  0.88939070446E+00  0.88000000000E+00 0.  1.
        -11    1    4    4    0    0  0.12576678711E-02  0.72413238283E-01  0.30605833926E-01  0.78627202661E-01  0.51100000000E-03 0.  1.
         11    1    4    4    0    0  0.68348853616E-02  0.51573382278E-01  0.68563238579E-02  0.52476658767E-01  0.51100000000E-03 0. -1.
</event>
<event>
 8    1  0.1131376E+005  0.1043930E+01  0.7957747E-01            NaN
         13   -1    0    0    0    0  0.00000000000E+00  0.00000000000E+00  0.74505805969E-08  0.10566000000E+00  0.10566000000E+00 0.  1.
     999900   -1    0    0    0    0 -0.00000000000E+00 -0.00000000000E+00 -0.74505805969E-08  0.93827000000E+00  0.93827000000E+00 0. -1.
     999902    2    1    2    0    0 -0.20435075875E-01 -0.14111430003E-01  0.35087014980E-02  0.10188494145E+01  0.10185406686E+01 0.  0.
     999903    2    3    3    0    0  0.61304869429E-02 -0.10894080694E+00  0.69384866348E-01  0.13090909615E+00  0.20426685735E-01 0.  0.
         14    1    1    2    0    0  0.20435075875E-01  0.14111430003E-01 -0.35087014980E-02  0.25080585498E-01  0.00000000000E+00 0.  1.
     999901    1    3    3    0    0 -0.26565562818E-01  0.94829376937E-01 -0.65876164850E-01  0.88794031835E+00  0.88000000000E+00 0. -1.
        -11    1    4    4    0    0 -0.66212325418E-02 -0.30397437890E-01  0.15117470819E-01  0.34592542486E-01  0.51100000000E-03 0.  1.
         11    1    4    4    0    0  0.12751719485E-01 -0.78543369050E-01  0.54267395529E-01  0.96316553665E-01  0.51100000000E-03 0. -1.
</event>
<event>
 8    1  0.1131376E+005  0.1043930E+01  0.7957747E-01            NaN
         13   -1    0    0    0    0  0.00000000000E+00  0.00000000000E+00  0.74505805969E-08  0.10566000000E+00  0.10566000000E+00 0.  1.
     999900   -1    0    0    0    0 -0.00000000000E+00 -0.00000000000E+00 -0.74505805969E-08  0.93827000000E+00  0.93827000000E+00 0.  1.
     999902    2    1    2    0    0  0.14676870663E-01 -0.67513813426E-02 -0.17874472607E-01  0.10198366720E+01  0.10195520336E+01 0.  0.
     999903    2    3    3    0    0 -0.10599829799E+00  0.69229215486E-01 -0.16048465833E-02  0.12820880785E+00  0.20164310626E-01 0.  0.
         14    1    1    2    0    0 -0.14676870663E-01  0.67513813426E-02  0.17874472607E-01  0.24093327986E-01  0.00000000000E+00 0.  1.
     999901    1    3    3    0    0  0.12067516866E+00 -0.75980596828E-01 -0.16269626023E-01  0.89162786417E+00  0.88000000000E+00 0.  1.
        -11    1    4    4    0    0 -0.27931396724E-01  0.28897108197E-01 -0.32294266684E-02  0.40322401996E-01  0.51100000000E-03 0. -1.
         11    1    4    4    0    0 -0.78066901270E-01  0.40332107288E-01  0.16245800852E-02  0.87886405852E-01  0.51100000000E-03 0.  1.
</event>
<event>
 8    1  0.1131376E+005  0.1043930E+01  0.7957747E-01            NaN
         13   -1    0    0    0    0  0.00000000000E+00  0.00000000000E+00  0.74505805969E-08  0.10566000000E+00  0.10566000000E+00 0.  1.
     999900   -1    0    0    0    0 -0.00000000000E+00 -0.00000000000E+00 -0.74505805969E-08  0.93827000000E+00  0.93827000000E+00 0. -1.
     999902    2    1    2    0    0  0.16892228501E-01 -0.11379938540E-01 -0.10416841770E-01  0.10210529159E+01  0.10207965988E+01 0.  0.
     999903    2    3    3    0    0  0.30032236011E-01 -0.97402415465E-01  0.81415884987E-01  0.13200523661E+00  0.20190850044E-01 0.  0.
         14    1    1    2    0    0 -0.16892228501E-01  0.11379938540E-01  0.10416841770E-01  0.22877084110E-01  0.00000000000E+00 0.  1.
     999901    1    3    3    0    0 -0.13140007511E-01  0.86022476924E-01 -0.91832726757E-01  0.88904767928E+00  0.88000000000E+00 0. -1.
        -11    1    4    4    0    0  0.12493465883E-01 -0.15727928963E-01  0.12102866536E-01  0.23456234537E-01  0.51100000000E-03 0.  1.
         11    1    4    4    0    0  0.17538770128E-01 -0.81674486501E-01  0.69313018450E-01  0.10854900207E+00  0.51100000000E-03 0. -1.
</event>
<event>
 8    1  0.1131376E+005  0.1043930E+01  0.7957747E-01            NaN
         13   -1    0    0    0    0  0.00000000000E+00  0.00000000000E+00  0.74505805969E-08  0.10566000000E+00  0.10566000000E+00 0.  1.
     999900   -1    0    0    0    0 -0.00000000000E+00 -0.00000000000E+00 -0.74505805969E-08  0.93827000000E+00  0.93827000000E+00 0.  1.
     999902    2    1    2    0    0 -0.64243573078E-02  0.22592903180E-01  0.96672829001E-03  0.10204215716E+01  0.10201507426E+01 0.  0.
     999903    2    3    3    0    0  0.75312406717E-02  0.12690841266E+00  0.36057927506E-01  0.13345602749E+00  0.18651336350E-01 0.  0.
         14    1    1    2    0    0  0.64243573078E-02 -0.22592903180E-01 -0.96672829001E-03  0.23508428372E-01  0.00000000000E+00 0. -1.
     999901    1    3    3    0    0 -0.13955597980E-01 -0.10431550948E+00 -0.35091199216E-01  0.88696554414E+00  0.88000000000E+00 0.  1.
        -11    1    4    4    0    0 -0.20737011877E-02  0.58329621146E-01  0.24253490264E-01  0.63207102850E-01  0.51100000000E-03 0. -1.
         11    1    4    4    0    0  0.96049418593E-02  0.68578791509E-01  0.11804437241E-01  0.70248924636E-01  0.51100000000E-03 0.  1.
</event>
<event>
 8    1  0.1131376E+005  0.1043930E+01  0.7957747E-01            NaN
         13   -1    0    0    0    0  0.00000000000E+00  0.00000000000E+00  0.74505805969E-08  0.10566000000E+00  0.10566000000E+00 0. -1.
     999900   -1    0    0    0    0 -0.00000000000E+00 -0.00000000000E+00 -0.74505805969E-08  0.93827000000E+00  0.93827000000E+00 0. -1.
     999902    2    1    2    0    0 -0.10603481104E-01  0.23337239980E-01 -0.16550473419E-01  0.10134180556E+01  0.10129586253E+01 0.  0.
     999903    2    3    3    0    0  0.80656859261E-01  0.67383967630E-01  0.62788799894E-01  0.12405688923E+00  0.20038720852E-01 0.  0.
         14    1    1    2    0    0  0.10603481104E-01 -0.23337239980E-01  0.16550473419E-01  0.30511944411E-01  0.00000000000E+00 0. -1.
     999901    1    3    3    0    0 -0.91260340365E-01 -0.44046727651E-01 -0.79339273313E-01  0.88936116636E+00  0.88000000000E+00 0. -1.
        -11    1    4    4    0    0  0.30453321314E-02  0.16477822468E-02  0.75321323497E-02  0.83056229662E-02  0.51100000000E-03 0. -1.
         11    1    4    4    0    0  0.77611527129E-01  0.65736185383E-01  0.55256667545E-01  0.11575126626E+00  0.51100000000E-03 0.  1.
</event>
<event>
 8    1  0.1131376E+005  0.1043930E+01  0.7957747E-01            NaN
         13   -1    0    0    0    0  0.00000000000E+00  0.00000000000E+00  0.74505805969E-08  0.10566000000E+00  0.10566000000E+00 0.  1.
     999900   -1    0    0    0    0 -0.00000000000E+00 -0.00000000000E+00 -0.74505805969E-08  0.93827000000E+00  0.93827000000E+00 0.  1.
     999902    2    1    2    0    0 -0.84639419463E-02 -0.15179009928E-01 -0.76941248834E-02  0.10249236796E+01  0.10247474366E+01 0.  0.
     999903    2    3    3    0    0 -0.97968794162E-01  0.29432519550E-01 -0.86923099076E-01  0.13572261269E+00  0.20021103985E-01 0.  0.
         14    1    1    2    0    0  0.84639419463E-02  0.15179009928E-01  0.76941248834E-02  0.19006320354E-01  0.00000000000E+00 0. -1.
     999901    1    3    3    0    0  0.89504852215E-01 -0.44611529478E-01  0.79228974192E-01  0.88920106696E+00  0.88000000000E+00 0. -1.
        -11    1    4    4    0    0 -0.75373887983E-01  0.13872435293E-01 -0.67203603898E-01  0.10193259022E+00  0.51100000000E-03 0.  1.
         11    1    4    4    0    0 -0.22594906179E-01  0.15560084258E-01 -0.19719495177E-01  0.33790022468E-01  0.51100000000E-03 0. -1.
</event>
<event>
 8    1  0.1131376E+005  0.1043930E+01  0.7957747E-01            NaN
         13   -1    0    0    0    0  0.00000000000E+00  0.00000000000E+00  0.74505805969E-08  0.10566000000E+00  0.10566000000E+00 0. -1.
     999900   -1    0    0    0    0 -0.00000000000E+00 -0.00000000000E+00 -0.74505805969E-08  0.93827000000E+00  0.93827000000E+00 0.  1.
     999902    2    1    2    0    0  0.17338056038E-01 -0.16269514104E-01 -0.76494395786E-03  0.10201415487E+01  0.10198641522E+01 0.  0.
     999903    2    3    3    0    0  0.11938535018E+00 -0.12502028473E-01 -0.52735151220E-01  0.13271338448E+00  0.20559272677E-01 0.  0.
         14    1    1    2    0    0 -0.17338056038E-01  0.16269514104E-01  0.76494395786E-03  0.23788451308E-01  0.00000000000E+00 0. -1.
     999901    1    3    3    0    0 -0.10204729414E+00 -0.37674856308E-02  0.51970207262E-01  0.88742816421E+00  0.88000000000E+00 0. -1.
        -11    1    4    4    0    0  0.56087631062E-01 -0.11103816147E-01 -0.15423899854E-01  0.59222250033E-01  0.51100000000E-03 0. -1.
         11    1    4    4    0    0  0.63297719118E-01 -0.13982123264E-02 -0.37311251366E-01  0.73491134450E-01  0.51100000000E-03 0.  1.
</event>
<event>
 8    1  0.1131376E+005  0.1043930E+01  0.7957747E-01            NaN
         13   -1    0    0    0    0  0.00000000000E+00  0.00000000000E+00  0.74505805969E-08  0.10566000000E+00  0.10566000000E+00 0.  1.
     999900   -1    0    0    0    0 -0.00000000000E+00 -0.00000000000E+00 -0.74505805969E-08  0.93827000000E+00  0.93827000000E+00 0.  1.
     999902    2    1    2    0    0  0.47625102006E-02 -0.19217979587E-02  0.23214963244E-01  0.10201537655E+01  0.10198766572E+01 0.  0.
     999903    2    3    3    0    0  0.10615235762E+00  0.24268166208E-02  0.78079948370E-01  0.13262405992E+00  0.14780069844E-01 0.  0.
         14    1    1    2    0    0 -0.47625102006E-02  0.19217979587E-02 -0.23214963244E-01  0.23776234547E-01  0.00000000000E+00 0. -1.
     999901    1    3    3    0    0 -0.10138984742E+00 -0.43486145796E-02 -0.54864985125E-01  0.88752970553E+00  0.88000000000E+00 0. -1.
        -11    1    4    4    0    0  0.57655634473E-02 -0.84720754932E-03  0.82320917215E-03  0.59074763510E-02  0.51100000000E-03 0.  1.
         11    1    4    4    0    0  0.10038679418E+00  0.32740241702E-02  0.77256739197E-01  0.12671658357E+00  0.51100000000E-03 0. -1.
</event>
<event>
 8    1  0.1131376E+005  0.1043930E+01  0.7957747E-01            NaN
         13   -1    0    0    0    0  0.00000000000E+00  0.00000000000E+00  0.74505805969E-08  0.10566000000E+00  0.10566000000E+00 0. -1.
     999900   -1    0    0    0    0 -0.00000000000E+00 -0.00000000000E+00 -0.74505805969E-08  0.93827000000E+00  0.93827000000E+00 0.  1.
     999902    2    1    2    0    0  0.72565101912E-02  0.15831472203E-01 -0.14866054594E-01  0.10210325759E+01  0.10207757976E+01 0.  0.
     999903    2    3    3    0    0 -0.33854807694E-01  0.11121891389E+00  0.57826216336E-01  0.13194705089E+00  0.23459712952E-01 0.  0.
         14    1    1    2    0    0 -0.72565101912E-02 -0.15831472203E-01  0.14866054594E-01  0.22897424123E-01  0.00000000000E+00 0. -1.
     999901    1    3    3    0    0  0.41111317885E-01 -0.95387441687E-01 -0.72692270930E-01  0.88908552499E+00  0.88000000000E+00 0.  1.
        -11    1    4    4    0    0 -0.63702743945E-03  0.16246761406E-01  0.16514937672E-01  0.23181185204E-01  0.51100000000E-03 0.  1.
         11    1    4    4    0    0 -0.33217780254E-01  0.94972152484E-01  0.41311278664E-01  0.10876586569E+00  0.51100000000E-03 0. -1.
</event>
<event>
 8    1  0.1131376E+005  0.1043930E+01  0.7957747E-01            NaN
         13   -1    0    0    0    0  0.00000000000E+00  0.00000000000E+00  0.74505805969E-08  0.10566000000E+00  0.10566000000E+00 0. -1.
     999900   -1    0    0    0    0 -0.00000000000E+00 -0.00000000000E+00 -0.74505805969E-08  0.93827000000E+00  0.93827000000E+00 0.  1.
     999902    2    1    2    0    0 -0.47319983896E-03  0.19574601082E-01  0.12706884103E-01  0.10205878958E+01  0.10203209295E+01 0.  0.
     999903    2    3    3    0    0  0.95581755103E-01  0.85386469415E-01  0.28424889036E-01  0.13277890053E+00  0.19888213605E-01 0.  0.
         14    1    1    2    0    0  0.47319983896E-03 -0.19574601082E-01 -0.12706884103E-01  0.23342104216E-01  0.00000000000E+00 0. -1.
     999901    1    3    3    0    0 -0.96054954942E-01 -0.65811868333E-01 -0.15718004933E-01  0.88780899526E+00  0.88000000000E+00 0. -1.
        -11    1    4    4    0    0  0.57244598425E-01  0.44795143369E-01  0.24882627437E-01  0.76830691702E-01  0.51100000000E-03 0.  1.
         11    1    4    4    0    0  0.38337156678E-01  0.40591326046E-01  0.35422615997E-02  0.55948208824E-01  0.51100000000E-03 0. -1.
</event>
<event>
 8    1  0.1131376E+005  0.1043930E+01  0.7957747E-01            NaN
         13   -1    0    0    0    0  0.00000000000E+00  0.00000000000E+00  0.74505805969E-08  0.10566000000E+00  0.10566000000E+00 0. -1.
     999900   -1    0    0    0    0 -0.00000000000E+00 -0.00000000000E+00 -0.74505805969E-08  0.93827000000E+00  0.93827000000E+00 0.  1.
     999902    2    1    2    0    0  0.49217268055E-02  0.19802972419E-01 -0.14017861512E-01  0.10191735553E+01  0.10188728352E+01 0.  0.
     999903    2    3    3    0    0  0.24811843637E-01 -0.11719986568E+00  0.37066212597E-01  0.12688717920E+00  0.19365330623E-01 0.  0.
         14    1    1    2    0    0 -0.49217268055E-02 -0.19802972419E-01  0.14017861512E-01  0.24756444670E-01  0.00000000000E+00 0.  1.
     999901    1    3    3    0    0 -0.19890116831E-01  0.13700283810E+00 -0.51084074108E-01  0.89228637613E+00  0.88000000000E+00 0.  1.
        -11    1    4    4    0    0  0.12711255930E-01 -0.87438309038E-01  0.33749138703E-01  0.94584879336E-01  0.51100000000E-03 0.  1.
         11    1    4    4    0    0  0.12100587707E-01 -0.29761556640E-01  0.33170738941E-02  0.32302299867E-01  0.51100000000E-03 0. -1.
</event>
<event>
 8    1  0.1131376E+005  0.1043930E+01  0.7957747E-01            NaN
         13   -1    0    0    0    0  0.00000000000E+00  0.00000000000E+00  0.74505805969E-08  0.10566000000E+00  0.10566000000E+00 0. -1.
     999900   -1    0    0    0    0 -0.00000000000E+00 -0.00000000000E+00 -0.74505805969E-08  0.93827000000E+00  0.93827000000E+00 0. -1.
     999902    2    1    2    0    0  0.96633786907E-02 -0.16977821481E-01  0.12635280573E-01  0.10206646260E+01  0.10203994322E+01 0.  0.
     999903    2    3    3    0    0 -0.12604282334E+00 -0.25571577008E-01  0.20203066337E-02  0.13015763361E+00  0.19905503805E-01 0.  0.
         14    1    1    2    0    0 -0.96633786907E-02  0.16977821481E-01 -0.12635280573E-01  0.23265373952E-01  0.00000000000E+00 0.  1.
     999901    1    3    3    0    0  0.13570620203E+00  0.85937555271E-02  0.10614973940E-01  0.89050699244E+00  0.88000000000E+00 0.  1.
        -11    1    4    4    0    0 -0.82163030575E-01 -0.81495240626E-02  0.59358653068E-02  0.82780879155E-01  0.51100000000E-03 0.  1.
         11    1    4    4    0    0 -0.43879792768E-01 -0.17422052946E-01 -0.39155586731E-02  0.47376754457E-01  0.51100000000E-03 0. -1.
</event>
<event>
 8    1  0.1131376E+005  0.1043930E+01  0.7957747E-01            NaN
         13   -1    0    0    0    0  0.00000000000E+00  0.00000000000E+00  0.74505805969E-08  0.10566000000E+00  0.10566000000E+00 0.  1.
     999900   -1    0    0    0    0 -0.00000000000E+00 -0.00000000000E+00 -0.74505805969E-08  0.93827000000E+00  0.93827000000E+00 0. -1.
     999902    2    1    2    0    0 -0.18469430677E-01  0.65981375074E-02 -0.97362655768E-02  0.10220336497E+01  0.10217990659E+01 0.  0.
     999903    2    3    3    0    0 -0.12124239209E+00  0.36647776392E-01 -0.40200991492E-01  0.13501991707E+00  0.23905671604E-01 0.  0.
         14    1    1    2    0    0  0.18469430677E-01 -0.65981375074E-02  0.97362655768E-02  0.21896350278E-01  0.00000000000E+00 0.  1.
     999901    1    3    3    0    0  0.10277296141E+00 -0.30049638885E-01  0.30464725915E-01  0.88701373266E+00  0.88000000000E+00 0.  1.
        -11    1    4    4    0    0 -0.78126172921E-02 -0.21941029682E-02  0.11084126574E-02  0.82061426022E-02  0.51100000000E-03 0. -1.
         11    1    4    4    0    0 -0.11342977479E+00  0.38841879361E-01 -0.41309404149E-01  0.12681377446E+00  0.51100000000E-03 0.  1.
</event>
<event>
 8    1  0.1131376E+005  0.1043930E+01  0.7957747E-01            NaN
         13   -1    0    0    0    0  0.00000000000E+00  0.00000000000E+00  0.74505805969E-08  0.10566000000E+00  0.10566000000E+00 0.  1.
     999900   -1    0    0    0    0 -0.00000000000E+00 -0.00000000000E+00 -0.74505805969E-08  0.93827000000E+00  0.93827000000E+00 0.  1.
     999902    2    1    2    0    0 -0.11352978047E-02  0.73344434669E-02 -0.25057436736E-01  0.10177965330E+01  0.10174609695E+01 0.  0.
     999903    2    3    3    0    0  0.56162470296E-01  0.58022421610E-01 -0.10140772339E+00  0.13118406318E+00  0.20122315705E-01 0.  0.
         14    1    1    2    0    0  0.11352978047E-02 -0.73344434669E-02  0.25057436736E-01  0.26133467008E-01  0.00000000000E+00 0.  1.
     999901    1    3    3    0    0 -0.57297768100E-01 -0.50687978143E-01  0.76350286655E-01  0.88661246981E+00  0.88000000000E+00 0. -1.
        -11    1    4    4    0    0  0.33448391509E-01  0.45340457439E-01 -0.60252837456E-01  0.82493742295E-01  0.51100000000E-03 0.  1.
         11    1    4    4    0    0  0.22714078786E-01  0.12681964171E-01 -0.41154885935E-01  0.48690320883E-01  0.51100000000E-03 0. -1.
</event>
<event>
 8    1  0.1131376E+005  0.1043930E+01  0.7957747E-01            NaN
         13   -1    0    0    0    0  0.00000000000E+00  0.00000000000E+00  0.74505805969E-08  0.10566000000E+00  0.10566000000E+00 0.  1.
     999900   -1    0    0    0    0 -0.00000000000E+00 -0.00000000000E+00 -0.74505805969E-08  0.93827000000E+00  0.93827000000E+00 0.  1.
     999902    2    1    2    0    0 -0.30839157916E-01 -0.10785327864E-01 -0.34186768296E-02  0.10110808857E+01  0.10105471256E+01 0.  0.
     999903    2    3    3    0    0  0.10920331831E+00  0.35046750418E-01 -0.22713832404E-01  0.11862092719E+00  0.20034139327E-01 0.  0.
         14    1    1    2    0    0  0.30839157916E-01  0.10785327864E-01  0.34186768296E-02  0.32849114286E-01  0.00000000000E+00 0. -1.
     999901    1    3    3    0    0 -0.14004247623E+00 -0.45832078283E-01  0.19295155574E-01  0.89245995853E+00  0.88000000000E+00 0.  1.
        -11    1    4    4    0    0  0.44357823527E-01  0.91008997110E-02 -0.17613527038E-01  0.48589508531E-01  0.51100000000E-03 0. -1.
         11    1    4    4    0    0  0.64845494786E-01  0.25945850707E-01 -0.51003053658E-02  0.70031418655E-01  0.51100000000E-03 0.  1.
</event>
<event>
 7    1  0.1131376E+005  0.1043930E+01  0.7957747E-01            NaN
         13   -1    0    0    0    0  0.00000000000E+00  0.00000000000E+00  0.74505805969E-08  0.10566000000E+00  0.10566000000E+00 0.  1.
     999900   -1    0    0    0    0 -0.00000000000E+00 -0.00000000000E+00 -0.74505805969E-08  0.93827000000E+00  0.93827000000E+00 0. -1.
     999902    2    1    2    0    0  0.37583960336E-02 -0.13336785295E-01 -0.15279535761E-01  0.10233033280E+01  0.10230954216E+01 0.  0.
         14    1    1    2    0    0 -0.37583960336E-02  0.13336785295E-01  0.15279535761E-01  0.20626671952E-01  0.00000000000E+00 0.  1.
     999901    1    3    3    0    0 -0.18284179768E-01 -0.29616405826E-01  0.11240592224E+00  0.88783249213E+00  0.88000000000E+00 0.  1.
        -11    1    3    3    0    0  0.10998244623E-02  0.21353033062E-01 -0.42205819504E-01  0.47315472689E-01  0.51100000000E-03 0.  1.
         11    1    3    3    0    0  0.20942751339E-01 -0.50734125312E-02 -0.85479638494E-01  0.88155363231E-01  0.51100000000E-03 0. -1.
</event>
<event>
 8    1  0.1131376E+005  0.1043930E+01  0.7957747E-01            NaN
         13   -1    0    0    0    0  0.00000000000E+00  0.00000000000E+00  0.74505805969E-08  0.10566000000E+00  0.10566000000E+00 0. -1.
     999900   -1    0    0    0    0 -0.00000000000E+00 -0.00000000000E+00 -0.74505805969E-08  0.93827000000E+00  0.93827000000E+00 0.  1.
     999902    2    1    2    0    0 -0.95664385454E-02  0.21245885628E-01 -0.46607044030E-02  0.10201681278E+01  0.10198913582E+01 0.  0.
     999903    2    3    3    0    0  0.60697765424E-01  0.34665751067E-01 -0.10925036230E+00  0.13109212003E+00  0.19067491839E-01 0.  0.
         14    1    1    2    0    0  0.95664385454E-02 -0.21245885628E-01  0.46607044030E-02  0.23761872151E-01  0.00000000000E+00 0. -1.
     999901    1    3    3    0    0 -0.70264203969E-01 -0.13419865439E-01  0.10458965790E+00  0.88907600782E+00  0.88000000000E+00 0.  1.
        -11    1    4    4    0    0  0.23409972961E-01  0.87393633707E-02 -0.54484800236E-01  0.59943789369E-01  0.51100000000E-03 0.  1.
         11    1    4    4    0    0  0.37287792462E-01  0.25926387697E-01 -0.54765562067E-01  0.71148330656E-01  0.51100000000E-03 0. -1.
</event>
<event>
 8    1  0.1131376E+005  0.1043930E+01  0.7957747E-01            NaN
         13   -1    0    0    0    0  0.00000000000E+00  0.00000000000E+00  0.74505805969E-08  0.10566000000E+00  0.10566000000E+00 0.  1.
     999900   -1    0    0    0    0 -0.00000000000E+00 -0.00000000000E+00 -0.74505805969E-08  0.93827000000E+00  0.93827000000E+00 0. -1.
     999902    2    1    2    0    0  0.18922634203E-01  0.15794270699E-02 -0.14071054704E-01  0.10202962264E+01  0.10200224676E+01 0.  0.
     999903    2    3    3    0    0 -0.78836670143E-01 -0.80086207325E-01 -0.61792635747E-01  0.12984493253E+00  0.20306538535E-01 0.  0.
         14    1    1    2    0    0 -0.18922634203E-01 -0.15794270699E-02  0.14071054704E-01  0.23633773621E-01  0.00000000000E+00 0.  1.
     999901    1    3    3    0    0  0.97759304347E-01  0.81665634395E-01  0.47721581043E-01  0.89045129385E+00  0.88000000000E+00 0. -1.
        -11    1    4    4    0    0 -0.23085436023E-01 -0.37505182753E-01 -0.24111270907E-01  0.50211458807E-01  0.51100000000E-03 0.  1.
         11    1    4    4    0    0 -0.55751234120E-01 -0.42581024571E-01 -0.37681364840E-01  0.79633473720E-01  0.51100000000E-03 0. -1.
</event>
<event>
 8    1  0.1131376E+005  0.1043930E+01  0.7957747E-01            NaN
         13   -1    0    0    0    0  0.00000000000E+00  0.00000000000E+00  0.74505805969E-08  0.10566000000E+00  0.10566000000E+00 0.  1.
     999900   -1    0    0    0    0 -0.00000000000E+00 -0.00000000000E+00 -0.74505805969E-08  0.93827000000E+00  0.93827000000E+00 0.  1.
     999902    2    1    2    0    0 -0.97796283519E-02  0.23248261665E-01  0.52408415001E-02  0.10181697744E+01  0.10178438487E+01 0.  0.
     999903    2    3    3    0    0  0.11057819581E+00 -0.57178973692E-01  0.81664623756E-02  0.12633845335E+00  0.19943451692E-01 0.  0.
         14    1    1    2    0    0  0.97796283519E-02 -0.23248261665E-01 -0.52408415001E-02  0.25760225557E-01  0.00000000000E+00 0.  1.
     999901    1    3    3    0    0 -0.12035782416E+00  0.80427235357E-01 -0.29256208755E-02  0.89183132109E+00  0.88000000000E+00 0. -1.
        -11    1    4    4    0    0  0.35308206568E-01 -0.86544522433E-02  0.52488081266E-02  0.36733909435E-01  0.51100000000E-03 0. -1.
         11    1    4    4    0    0  0.75269989245E-01 -0.48524521449E-01  0.29176542490E-02  0.89604543914E-01  0.51100000000E-03 0.  1.
</event>
<event>
 8    1  0.1131376E+005  0.1043930E+01  0.7957747E-01            NaN
         13   -1    0    0    0    0  0.00000000000E+00  0.00000000000E+00  0.74505805969E-08  0.10566000000E+00  0.10566000000E+00 0.  1.
     999900   -1    0    0    0    0 -0.00000000000E+00 -0.00000000000E+00 -0.74505805969E-08  0.93827000000E+00  0.93827000000E+00 0.  1.
     999902    2    1    2    0    0 -0.21162868645E-01  0.92358580681E-02  0.27855546844E-02  0.10206721540E+01  0.10204071338E+01 0.  0.
     999903    2    3    3    0    0  0.16989621372E-01 -0.39611542513E-01  0.12163974679E+00  0.13052160497E+00  0.19543280973E-01 0.  0.
         14    1    1    2    0    0  0.21162868645E-01 -0.92358580681E-02 -0.27855546844E-02  0.23257845954E-01  0.00000000000E+00 0.  1.
     999901    1    3    3    0    0 -0.38152490016E-01  0.48847400581E-01 -0.11885419210E+00  0.89015054907E+00  0.88000000000E+00 0.  1.
        -11    1    4    4    0    0  0.21180195713E-01 -0.29188594435E-01  0.91433001932E-01  0.98289519782E-01  0.51100000000E-03 0. -1.
         11    1    4    4    0    0 -0.41905743415E-02 -0.10422948078E-01  0.30206744854E-01  0.32232085189E-01  0.51100000000E-03 0.  1.
</event>
<event>
 8    1  0.1131376E+005  0.1043930E+01  0.7957747E-01            NaN
         13   -1    0    0    0    0  0.00000000000E+00  0.00000000000E+00  0.74505805969E-08  0.10566000000E+00  0.10566000000E+00 0.  1.
     999900   -1    0    0    0    0 -0.00000000000E+00 -0.00000000000E+00 -0.74505805969E-08  0.93827000000E+00  0.93827000000E+00 0. -1.
     999902    2    1    2    0    0 -0.15490204415E-01  0.53665666806E-02 -0.16724728334E-01  0.10205107129E+01  0.10202419576E+01 0.  0.
     999903    2    3    3    0    0  0.26534113227E-01 -0.47782752972E-01  0.11373667926E+00  0.12831618684E+00  0.23275758799E-01 0.  0.
         14    1    1    2    0    0  0.15490204415E-01 -0.53665666806E-02  0.16724728334E-01  0.23419287107E-01  0.00000000000E+00 0.  1.
     999901    1    3    3    0    0 -0.42024317642E-01  0.53149319652E-01 -0.13046140760E+00  0.89219452606E+00  0.88000000000E+00 0. -1.
        -11    1    4    4    0    0  0.79727073505E-02 -0.36228766336E-01  0.63835028585E-01  0.73832645681E-01  0.51100000000E-03 0.  1.
         11    1    4    4    0    0  0.18561405876E-01 -0.11553986636E-01  0.49901650679E-01  0.54483541155E-01  0.51100000000E-03 0. -1.
</event>
<event>
 8    1  0.1131376E+005  0.1043930E+01  0.7957747E-01            NaN
         13   -1    0    0    0    0  0.00000000000E+00  0.00000000000E+00  0.74505805969E-08  0.10566000000E+00  0.10566000000E+00 0.  1.
     999900   -1    0    0    0    0 -0.00000000000E+00 -0.00000000000E+00 -0.74505805969E-08  0.93827000000E+00  0.93827000000E+00 0. -1.
     999902    2    1    2    0    0  0.99488630412E-02 -0.19362154199E-01  0.14979346578E-02  0.10221099015E+01  0.10218769662E+01 0.  0.
     999903    2    3    3    0    0  0.85429745688E-01 -0.31617230479E-01  0.95698659480E-01  0.13378488940E+00  0.21030275637E-01 0.  0.
         14    1    1    2    0    0 -0.99488630412E-02  0.19362154199E-01 -0.14979346578E-02  0.21820098517E-01  0.00000000000E+00 0.  1.
     999901    1    3    3    0    0 -0.75480882647E-01  0.12255076280E-01 -0.94200724823E-01  0.88832501209E+00  0.88000000000E+00 0. -1.
        -11    1    4    4    0    0  0.62429124398E-01 -0.30168026662E-01  0.62376215015E-01  0.93266064173E-01  0.51100000000E-03 0. -1.
         11    1    4    4    0    0  0.23000621290E-01 -0.14492038175E-02  0.33322444466E-01  0.40518825225E-01  0.51100000000E-03 0.  1.
</event>
<event>
 8    1  0.1131376E+005  0.1043930E+01  0.7957747E-01            NaN
         13   -1    0    0    0    0  0.00000000000E+00  0.00000000000E+00  0.74505805969E-08  0.10566000000E+00  0.10566000000E+00 0. -1.
     999900   -1    0    0    0    0 -0.00000000000E+00 -0.00000000000E+00 -0.74505805969E-08  0.93827000000E+00  0.93827000000E+00 0. -1.
     999902    2    1    2    0    0 -0.16191240488E-01  0.15956604179E-01  0.83517617293E-02  0.10197117959E+01  0.10194241636E+01 0.  0.
     999903    2    3    3    0    0  0.45748000696E-02 -0.12558097926E+00  0.12134596327E-01  0.12815224893E+00  0.22005438681E-01 0.  0.
         14    1    1    2    0    0  0.16191240488E-01 -0.15956604179E-01 -0.83517617293E-02  0.24218204092E-01  0.00000000000E+00 0. -1.
     999901    1    3    3    0    0 -0.20766040558E-01  0.14153758344E+00 -0.37828345975E-02  0.89155954698E+00  0.88000000000E+00 0. -1.
        -11    1    4    4    0    0  0.20134507087E-02 -0.83358770225E-01 -0.24080981682E-02  0.83419413897E-01  0.51100000000E-03 0.  1.
         11    1    4    4    0    0  0.25613493608E-02 -0.42222209032E-01  0.14542694495E-01  0.44732835035E-01  0.51100000000E-03 0. -1.
</event>
<event>
 8    1  0.1131376E+005  0.1043930E+01  0.7957747E-01            NaN
         13   -1    0    0    0    0  0.00000000000E+00  0.00000000000E+00  0.74505805969E-08  0.10566000000E+00  0.10566000000E+00 0.  1.
     999900   -1    0    0    0    0 -0.00000000000E+00 -0.00000000000E+00 -0.74505805969E-08  0.93827000000E+00  0.93827000000E+00 0. -1.
     999902    2    1    2    0    0  0.15126023244E-01  0.48224690189E-02  0.17858875555E-01  0.10200345564E+01  0.10197546294E+01 0.  0.
     999903    2    3    3    0    0 -0.30911538488E-01 -0.10302166830E+00 -0.64173632262E-01  0.12847460480E+00  0.28609118297E-01 0.  0.
         14    1    1    2    0    0 -0.15126023244E-01 -0.48224690189E-02 -0.17858875555E-01  0.23895443555E-01  0.00000000000E+00 0. -1.
     999901    1    3    3    0    0  0.46037561732E-01  0.10784413732E+00  0.82032507817E-01  0.89155995165E+00  0.88000000000E+00 0.  1.
        -11    1    4    4    0    0 -0.13697826002E-01 -0.56969894519E-01 -0.18711411324E-01  0.61510790544E-01  0.51100000000E-03 0. -1.
         11    1    4    4    0    0 -0.17213712486E-01 -0.46051773778E-01 -0.45462220938E-01  0.66963814252E-01  0.51100000000E-03 0.  1.
</event>
<event>
 8    1  0.1131376E+005  0.1043930E+01  0.7957747E-01            NaN
         13   -1    0    0    0    0  0.00000000000E+00  0.00000000000E+00  0.74505805969E-08  0.10566000000E+00  0.10566000000E+00 0.  1.
     999900   -1    0    0    0    0 -0.00000000000E+00 -0.00000000000E+00 -0.74505805969E-08  0.93827000000E+00  0.93827000000E+00 0. -1.
     999902    2    1    2    0    0  0.77626498513E-02 -0.21612565856E-01  0.59976730997E-02  0.10201953456E+01  0.10199192171E+01 0.  0.
     999903    2    3    3    0    0 -0.35292727552E-01  0.10131019295E+00  0.67753394900E-01  0.12846806707E+00  0.20104475165E-01 0.  0.
         14    1    1    2    0    0 -0.77626498513E-02  0.21612565856E-01 -0.59976730997E-02  0.23734654373E-01  0.00000000000E+00 0. -1.
     999901    1    3    3    0    0  0.43055377404E-01 -0.12292275880E+00 -0.61755721801E-01  0.89172727856E+00  0.88000000000E+00 0.  1.
        -11    1    4    4    0    0 -0.20514867433E-01  0.48227582065E-01  0.44121488239E-01  0.68510775087E-01  0.51100000000E-03 0.  1.
         11    1    4    4    0    0 -0.14777860119E-01  0.53082610884E-01  0.23631906662E-01  0.59957291979E-01  0.51100000000E-03 0. -1.
</event>
<event>
 8    1  0.1131376E+005  0.1043930E+01  0.7957747E-01            NaN
         13   -1    0    0    0    0  0.00000000000E+00  0.00000000000E+00  0.74505805969E-08  0.10566000000E+00  0.10566000000E+00 0. -1.
     999900   -1    0    0    0    0 -0.00000000000E+00 -0.00000000000E+00 -0.74505805969E-08  0.93827000000E+00  0.93827000000E+00 0.  1.
     999902    2    1    2    0    0 -0.16362014937E-01 -0.14256835148E-01 -0.15461346334E-02  0.10221730835E+01  0.10219415097E+01 0.  0.
     999903    2    3    3    0    0  0.10076884021E+00 -0.32780623264E-01 -0.74698076854E-01  0.13121069680E+00  0.20187021793E-01 0.  0.
         14    1    1    2    0    0  0.16362014937E-01  0.14256835148E-01  0.15461346334E-02  0.21756916452E-01  0.00000000000E+00 0. -1.
     999901    1    3    3    0    0 -0.11713085515E+00  0.18523788116E-01  0.73151942221E-01  0.89096238675E+00  0.88000000000E+00 0. -1.
        -11    1    4    4    0    0  0.79794189479E-01 -0.18040607667E-01 -0.61667091024E-01  0.10244836473E+00  0.51100000000E-03 0.  1.
         11    1    4    4    0    0  0.20974650733E-01 -0.14740015597E-01 -0.13030985831E-01  0.28762332066E-01  0.51100000000E-03 0. -1.
</event>
<event>
 8    1  0.1131376E+005  0.1043930E+01  0.7957747E-01            NaN
         13   -1    0    0    0    0  0.00000000000E+00  0.00000000000E+00  0.74505805969E-08  0.10566000000E+00  0.10566000000E+00 0.  1.
     999900   -1    0    0    0    0 -0.00000000000E+00 -0.00000000000E+00 -0.74505805969E-08  0.93827000000E+00  0.93827000000E+00 0.  1.
     999902    2    1    2    0    0 -0.12341239900E-01  0.17220571888E-01 -0.10270284201E-01  0.10203857218E+01  0.10201140565E+01 0.  0.
     999903    2    3    3    0    0 -0.20885390821E-02 -0.12402042430E+00  0.26232726972E-01  0.12831699872E+00  0.19790617890E-01 0.  0.
         14    1    1    2    0    0  0.12341239900E-01 -0.17220571888E-01  0.10270284201E-01  0.23544278201E-01  0.00000000000E+00 0. -1.
     999901    1    3    3    0    0 -0.10252700818E-01  0.14124099619E+00 -0.36503011173E-01  0.89206872308E+00  0.88000000000E+00 0. -1.
        -11    1    4    4    0    0 -0.11099594730E-03 -0.97491877788E-01  0.12251039704E-01  0.98260000252E-01  0.51100000000E-03 0.  1.
         11    1    4    4    0    0 -0.19775431348E-02 -0.26528546511E-01  0.13981687268E-01  0.30056998464E-01  0.51100000000E-03 0. -1.
</event>
<event>
 8    1  0.1131376E+005  0.1043930E+01  0.7957747E-01            NaN
         13   -1    0    0    0    0  0.00000000000E+00  0.00000000000E+00  0.74505805969E-08  0.10566000000E+00  0.10566000000E+00 0.  1.
     999900   -1    0    0    0    0 -0.00000000000E+00 -0.00000000000E+00 -0.74505805969E-08  0.93827000000E+00  0.93827000000E+00 0.  1.
     999902    2    1    2    0    0 -0.18097255688E-01  0.39888588052E-02  0.14051743730E-01  0.10206733201E+01  0.10204083267E+01 0.  0.
     999903    2    3    3    0    0  0.69707536874E-01 -0.54949355985E-01 -0.90366392526E-01  0.12821237309E+00  0.19843268269E-01 0.  0.
         14    1    1    2    0    0  0.18097255688E-01 -0.39888588052E-02 -0.14051743730E-01  0.23256679898E-01  0.00000000000E+00 0.  1.
     999901    1    3    3    0    0 -0.87804792562E-01  0.58938214790E-01  0.10441813626E+00  0.89246094701E+00  0.88000000000E+00 0. -1.
        -11    1    4    4    0    0  0.28905966031E-01 -0.11071678944E-01 -0.33281694962E-01  0.45454034886E-01  0.51100000000E-03 0. -1.
         11    1    4    4    0    0  0.40801570843E-01 -0.43877677041E-01 -0.57084697564E-01  0.82758338206E-01  0.51100000000E-03 0.  1.
</event>
<event>
 8    1  0.1131376E+005  0.1043930E+01  0.7957747E-01            NaN
         13   -1    0    0    0    0  0.00000000000E+00  0.00000000000E+00  0.74505805969E-08  0.10566000000E+00  0.10566000000E+00 0.  1.
     999900   -1    0    0    0    0 -0.00000000000E+00 -0.00000000000E+00 -0.74505805969E-08  0.93827000000E+00  0.93827000000E+00 0.  1.
     999902    2    1    2    0    0 -0.13236777598E-01 -0.12987060271E-01  0.14039523115E-01  0.10206709324E+01  0.10204058840E+01 0.  0.
     999903    2    3    3    0    0 -0.12202688281E-01  0.12725741877E+00  0.45823772205E-02  0.12951492988E+00  0.20242594868E-01 0.  0.
         14    1    1    2    0    0  0.13236777598E-01  0.12987060271E-01 -0.14039523115E-01  0.23259067586E-01  0.00000000000E+00 0. -1.
     999901    1    3    3    0    0 -0.10340893174E-02 -0.14024447904E+00  0.94571458944E-02  0.89115600253E+00  0.88000000000E+00 0. -1.
        -11    1    4    4    0    0  0.22927861393E-02  0.25369641847E-01  0.74982464215E-02  0.26558622256E-01  0.51100000000E-03 0.  1.
         11    1    4    4    0    0 -0.14495474420E-01  0.10188777693E+00 -0.29158692010E-02  0.10295630762E+00  0.51100000000E-03 0. -1.
</event>
<event>
 7    1  0.1131376E+005  0.1043930E+01  0.7957747E-01            NaN
         13   -1    0    0    0    0  0.00000000000E+00  0.00000000000E+00  0.74505805969E-08  0.10566000000E+00  0.10566000000E+00 0.  1.
     999900   -1    0    0    0    0 -0.00000000000E+00 -0.00000000000E+00 -0.74505805969E-08  0.93827000000E+00  0.93827000000E+00 0.  1.
     999903    2    1    2    0    0 -0.14643237924E-01  0.99019106955E-01  0.52181554512E-02  0.10229561924E+00  0.20443987130E-01 0.  0.
         14    1    1    2    0    0  0.23551784003E-01 -0.52017037340E-01  0.18480156579E-01  0.60016455165E-01  0.00000000000E+00 0. -1.
     999901    1    1    2    0    0 -0.89085460789E-02 -0.47002069615E-01 -0.23698312030E-01  0.88161792560E+00  0.88000000000E+00 0.  1.
        -11    1    3    3    0    0 -0.11800450836E-01  0.72019437612E-01 -0.53049715468E-02  0.73174133941E-01  0.51100000000E-03 0.  1.
         11    1    3    3    0    0 -0.28427870886E-02  0.26999669343E-01  0.10523126998E-01  0.29121485297E-01  0.51100000000E-03 0. -1.
</event>
<event>
 8    1  0.1131376E+005  0.1043930E+01  0.7957747E-01            NaN
         13   -1    0    0    0    0  0.00000000000E+00  0.00000000000E+00  0.74505805969E-08  0.10566000000E+00  0.10566000000E+00 0.  1.
     999900   -1    0    0    0    0 -0.00000000000E+00 -0.00000000000E+00 -0.74505805969E-08  0.93827000000E+00  0.93827000000E+00 0.  1.
     999902    2    1    2    0    0  0.16297988735E-01  0.27771158328E-02 -0.17321273031E-01  0.10199849941E+01  0.10197038908E+01 0.  0.
     999903    2    3    3    0    0  0.12551546447E-02 -0.12344879548E+00 -0.37316494280E-01  0.13062619336E+00  0.20724408974E-01 0.  0.
         14    1    1    2    0    0 -0.16297988735E-01 -0.27771158328E-02  0.17321273031E-01  0.23945005922E-01  0.00000000000E+00 0.  1.
     999901    1    3    3    0    0  0.15042834091E-01  0.12622591131E+00  0.19995221248E-01  0.88935880072E+00  0.88000000000E+00 0. -1.
        -11    1    4    4    0    0 -0.81568838543E-02 -0.73212519298E-01 -0.27156061677E-01  0.78513187065E-01  0.51100000000E-03 0.  1.
         11    1    4    4    0    0  0.94120384990E-02 -0.50236276182E-01 -0.10160432603E-01  0.52113006294E-01  0.51100000000E-03 0. -1.
</event>
<event>
 8    1  0.1131376E+005  0.1043930E+01  0.7957747E-01            NaN
         13   -1    0    0    0    0  0.00000000000E+00  0.00000000000E+00  0.74505805969E-08  0.10566000000E+00  0.10566000000E+00 0.  1.
     999900   -1    0    0    0    0 -0.00000000000E+00 -0.00000000000E+00 -0.74505805969E-08  0.93827000000E+00  0.93827000000E+00 0. -1.
     999902    2    1    2    0    0 -0.22263744625E-01 -0.95034723731E-02 -0.42728935806E-02  0.10193485450E+01  0.10190521126E+01 0.  0.
     999903    2    3    3    0    0  0.35468361991E-01  0.87890542173E-01 -0.84377521613E-01  0.12848641106E+00  0.20160346410E-01 0.  0.
         14    1    1    2    0    0  0.22263744625E-01  0.95034723731E-02  0.42728935806E-02  0.24581455031E-01  0.00000000000E+00 0. -1.
     999901    1    3    3    0    0 -0.57732106616E-01 -0.97394014546E-01  0.80104628032E-01  0.89086213391E+00  0.88000000000E+00 0.  1.
        -11    1    4    4    0    0  0.12702576294E-01  0.57663502707E-01 -0.50786039565E-01  0.77884003008E-01  0.51100000000E-03 0.  1.
         11    1    4    4    0    0  0.22765785697E-01  0.30227039466E-01 -0.33591482048E-01  0.50602408050E-01  0.51100000000E-03 0. -1.
</event>
<event>
 8    1  0.1131376E+005  0.1043930E+01  0.7957747E-01            NaN
         13   -1    0    0    0    0  0.00000000000E+00  0.00000000000E+00  0.74505805969E-08  0.10566000000E+00  0.10566000000E+00 0. -1.
     999900   -1    0    0    0    0 -0.00000000000E+00 -0.00000000000E+00 -0.74505805969E-08  0.93827000000E+00  0.93827000000E+00 0.  1.
     999902    2    1    2    0    0 -0.23571569020E-01  0.15697409256E-02  0.30251679145E-02  0.10201133127E+01  0.10198352495E+01 0.  0.
     999903    2    3    3    0    0 -0.42835498457E-01  0.12258201698E+00 -0.71060096838E-02  0.13156522133E+00  0.19941947595E-01 0.  0.
         14    1    1    2    0    0  0.23571569020E-01 -0.15697409256E-02 -0.30251679145E-02  0.23816687292E-01  0.00000000000E+00 0.  1.
     999901    1    3    3    0    0  0.19263929437E-01 -0.12101227606E+00  0.10131177598E-01  0.88854809138E+00  0.88000000000E+00 0. -1.
        -11    1    4    4    0    0 -0.25965876658E-01  0.46359462220E-01 -0.61263141733E-02  0.53490366743E-01  0.51100000000E-03 0. -1.
         11    1    4    4    0    0 -0.16869621799E-01  0.76222554763E-01 -0.97969551046E-03  0.78074854585E-01  0.51100000000E-03 0.  1.
</event>
<event>
 8    1  0.1131376E+005  0.1043930E+01  0.7957747E-01            NaN
         13   -1    0    0    0    0  0.00000000000E+00  0.00000000000E+00  0.74505805969E-08  0.10566000000E+00  0.10566000000E+00 0.  1.
     999900   -1    0    0    0    0 -0.00000000000E+00 -0.00000000000E+00 -0.74505805969E-08  0.93827000000E+00  0.93827000000E+00 0. -1.
     999902    2    1    2    0    0  0.13256928442E-01 -0.10817637056E-01  0.16750389928E-01  0.10199854184E+01  0.10197043252E+01 0.  0.
     999903    2    3    3    0    0  0.10845307748E+00 -0.62438601055E-01  0.40165093028E-01  0.13303825032E+00  0.20622619509E-01 0.  0.
         14    1    1    2    0    0 -0.13256928442E-01  0.10817637056E-01 -0.16750389928E-01  0.23944581558E-01  0.00000000000E+00 0. -1.
     999901    1    3    3    0    0 -0.95196149033E-01  0.51620963999E-01 -0.23414703099E-01  0.88694716812E+00  0.88000000000E+00 0.  1.
        -11    1    4    4    0    0  0.85803534376E-01 -0.49359998300E-01  0.40300160155E-01  0.10687852906E+00  0.51100000000E-03 0.  1.
         11    1    4    4    0    0  0.22649543099E-01 -0.13078602755E-01 -0.13506712776E-03  0.26159721266E-01  0.51100000000E-03 0. -1.
</event>
<event>
 8    1  0.1131376E+005  0.1043930E+01  0.7957747E-01            NaN
         13   -1    0    0    0    0  0.00000000000E+00  0.00000000000E+00  0.74505805969E-08  0.10566000000E+00  0.10566000000E+00 0.  1.
     999900   -1    0    0    0    0 -0.00000000000E+00 -0.00000000000E+00 -0.74505805969E-08  0.93827000000E+00  0.93827000000E+00 0.  1.
     999902    2    1    2    0    0  0.16760098111E-01  0.44274170656E-02  0.15511706207E-01  0.10206681011E+01  0.10204029874E+01 0.  0.
     999903    2    3    3    0    0  0.11641457328E+00 -0.42219644432E-01 -0.41289546485E-01  0.13199867715E+00  0.19595225743E-01 0.  0.
         14    1    1    2    0    0 -0.16760098111E-01 -0.44274170656E-02 -0.15511706207E-01  0.23261898891E-01  0.00000000000E+00 0. -1.
     999901    1    3    3    0    0 -0.99654475174E-01  0.46647061498E-01  0.56801252692E-01  0.88866942396E+00  0.88000000000E+00 0.  1.
        -11    1    4    4    0    0  0.46106563927E-01 -0.66847677976E-02 -0.15842871354E-01  0.49211371159E-01  0.51100000000E-03 0.  1.
         11    1    4    4    0    0  0.70308009358E-01 -0.35534876634E-01 -0.25446675130E-01  0.82787305992E-01  0.51100000000E-03 0. -1.
</event>
<event>
 8    1  0.1131376E+005  0.1043930E+01  0.7957747E-01            NaN
         13   -1    0    0    0    0  0.00000000000E+00  0.00000000000E+00  0.74505805969E-08  0.10566000000E+00  0.10566000000E+00 0.  1.
     999900   -1    0    0    0    0 -0.00000000000E+00 -0.00000000000E+00 -0.74505805969E-08  0.93827000000E+00  0.93827000000E+00 0. -1.
     999902    2    1    2    0    0 -0.46524126947E-03 -0.14017359575E-01  0.24176873568E-01  0.10159796148E+01  0.10155950736E+01 0.  0.
     999903    2    3    3    0    0 -0.86363444751E-02 -0.45180498153E-01 -0.11394002164E+00  0.12462436299E+00  0.20809600191E-01 0.  0.
         14    1    1    2    0    0  0.46524126947E-03  0.14017359575E-01 -0.24176873568E-01  0.27950385229E-01  0.00000000000E+00 0. -1.
     999901    1    3    3    0    0  0.81711032057E-02  0.31163138578E-01  0.13811689521E+00  0.89135525178E+00  0.88000000000E+00 0.  1.
        -11    1    4    4    0    0  0.66649369620E-02 -0.11960878152E-01 -0.36285980691E-01  0.38786821301E-01  0.51100000000E-03 0.  1.
         11    1    4    4    0    0 -0.15301281437E-01 -0.33219620001E-01 -0.77654040950E-01  0.85837541691E-01  0.51100000000E-03 0. -1.
</event>
<event>
 8    1  0.1131376E+005  0.1043930E+01  0.7957747E-01            NaN
         13   -1    0    0    0    0  0.00000000000E+00  0.00000000000E+00  0.74505805969E-08  0.10566000000E+00  0.10566000000E+00 0. -1.
     999900   -1    0    0    0    0 -0.00000000000E+00 -0.00000000000E+00 -0.74505805969E-08  0.93827000000E+00  0.93827000000E+00 0. -1.
     999902    2    1    2    0    0  0.19167199342E-03 -0.57556597921E-02  0.35063930827E-01  0.10083963033E+01  0.10077700436E+01 0.  0.
     999903    2    3    3    0    0  0.85743691545E-01 -0.49761132855E-01  0.70325325795E-01  0.12245104781E+00  0.14847783626E-01 0.  0.
         14    1    1    2    0    0 -0.19167199342E-03  0.57556597921E-02 -0.35063930827E-01  0.35533696724E-01  0.00000000000E+00 0.  1.
     999901    1    3    3    0    0 -0.85552019552E-01  0.44005473063E-01 -0.35261394968E-01  0.88594525547E+00  0.88000000000E+00 0.  1.
        -11    1    4    4    0    0  0.21585560728E-01 -0.73948910931E-02  0.21614988762E-01  0.31433894229E-01  0.51100000000E-03 0.  1.
         11    1    4    4    0    0  0.64158130817E-01 -0.42366241762E-01  0.48710337033E-01  0.91017153581E-01  0.51100000000E-03 0. -1.
</event>
<event>
 8    1  0.1131376E+005  0.1043930E+01  0.7957747E-01            NaN
         13   -1    0    0    0    0  0.00000000000E+00  0.00000000000E+00  0.74505805969E-08  0.10566000000E+00  0.10566000000E+00 0. -1.
     999900   -1    0    0    0    0 -0.00000000000E+00 -0.00000000000E+00 -0.74505805969E-08  0.93827000000E+00  0.93827000000E+00 0. -1.
     999902    2    1    2    0    0  0.18267261156E-01 -0.14262582027E-01  0.56787250932E-03  0.10207473221E+01  0.10204840317E+01 0.  0.
     999903    2    3    3    0    0 -0.90312529794E-01  0.88684478542E-01 -0.54609768719E-02  0.12809732611E+00  0.18915943442E-01 0.  0.
         14    1    1    2    0    0 -0.18267261156E-01  0.14262582027E-01 -0.56787250932E-03  0.23182677917E-01  0.00000000000E+00 0. -1.
     999901    1    3    3    0    0  0.10857979095E+00 -0.10294706057E+00  0.60288493812E-02  0.89264999597E+00  0.88000000000E+00 0. -1.
        -11    1    4    4    0    0 -0.69365397308E-01  0.69384441245E-01  0.36740438837E-02  0.98181050871E-01  0.51100000000E-03 0.  1.
         11    1    4    4    0    0 -0.20947132486E-01  0.19300037298E-01 -0.91350207556E-02  0.29916275241E-01  0.51100000000E-03 0. -1.
</event>
<event>
 8    1  0.1131376E+005  0.1043930E+01  0.7957747E-01            NaN
         13   -1    0    0    0    0  0.00000000000E+00  0.00000000000E+00  0.74505805969E-08  0.10566000000E+00  0.10566000000E+00 0.  1.
     999900   -1    0    0    0    0 -0.00000000000E+00 -0.00000000000E+00 -0.74505805969E-08  0.93827000000E+00  0.93827000000E+00 0.  1.
     999902    2    1    2    0    0  0.18575302383E-01  0.67990522976E-02 -0.13184301816E-01  0.10201582776E+01  0.10198812757E+01 0.  0.
     999903    2    3    3    0    0 -0.11483427868E+00  0.44371498495E-01  0.30671881387E-01  0.12823161592E+00  0.18623683213E-01 0.  0.
         14    1    1    2    0    0 -0.18575302383E-01 -0.67990522976E-02  0.13184301816E-01  0.23771722385E-01  0.00000000000E+00 0. -1.
     999901    1    3    3    0    0  0.13340958106E+00 -0.37572446197E-01 -0.43856183203E-01  0.89192666169E+00  0.88000000000E+00 0.  1.
        -11    1    4    4    0    0 -0.25894370572E-01  0.18441520386E-01  0.97351760640E-02  0.33251208632E-01  0.51100000000E-03 0. -1.
         11    1    4    4    0    0 -0.88939908105E-01  0.25929978109E-01  0.20936705323E-01  0.94980407291E-01  0.51100000000E-03 0.  1.
</event>
<event>
 8    1  0.1131376E+005  0.1043930E+01  0.7957747E-01            NaN
         13   -1    0    0    0    0  0.00000000000E+00  0.00000000000E+00  0.74505805969E-08  0.10566000000E+00  0.10566000000E+00 0.  1.
     999900   -1    0    0    0    0 -0.00000000000E+00 -0.00000000000E+00 -0.74505805969E-08  0.93827000000E+00  0.93827000000E+00 0.  1.
     999902    2    1    2    0    0  0.98445253235E-02 -0.19962022064E-01  0.80491859622E-02  0.10202617428E+01  0.10199871751E+01 0.  0.
     999903    2    3    3    0    0  0.57234399489E-01 -0.11287556284E+00 -0.36279191579E-01  0.13299417816E+00  0.18830892435E-01 0.  0.
         14    1    1    2    0    0 -0.98445253235E-02  0.19962022064E-01 -0.80491859622E-02  0.23668257189E-01  0.00000000000E+00 0.  1.
     999901    1    3    3    0    0 -0.47389874166E-01  0.92913540778E-01  0.44328377541E-01  0.88726756466E+00  0.88000000000E+00 0. -1.
        -11    1    4    4    0    0  0.27945282511E-01 -0.75201828816E-01 -0.22779419503E-01  0.83399142356E-01  0.51100000000E-03 0.  1.
         11    1    4    4    0    0  0.29289116979E-01 -0.37673734026E-01 -0.13499772076E-01  0.49595035800E-01  0.51100000000E-03 0. -1.
</event>
<event>
 8    1  0.1131376E+005  0.1043930E+01  0.7957747E-01            NaN
         13   -1    0    0    0    0  0.00000000000E+00  0.00000000000E+00  0.74505805969E-08  0.10566000000E+00  0.10566000000E+00 0.  1.
     999900   -1    0    0    0    0 -0.00000000000E+00 -0.00000000000E+00 -0.74505805969E-08  0.93827000000E+00  0.93827000000E+00 0.  1.
     999902    2    1    2    0    0 -0.86390484913E-02  0.77785886194E-02 -0.20947645227E-01  0.10199728833E+01  0.10196914922E+01 0.  0.
     999903    2    3    3    0    0  0.12143433324E+00  0.38835689491E-01  0.89461419008E-02  0.12936788295E+00  0.20037654972E-01 0.  0.
         14    1    1    2    0    0  0.86390484913E-02 -0.77785886194E-02  0.20947645227E-01  0.23957116694E-01  0.00000000000E+00 0. -1.
     999901    1    3    3    0    0 -0.13007338173E+00 -0.31057100872E-01 -0.29893787128E-01  0.89060500036E+00  0.88000000000E+00 0.  1.
        -11    1    4    4    0    0  0.73587565088E-01  0.20649141750E-01 -0.41034398684E-02  0.76541597385E-01  0.51100000000E-03 0. -1.
         11    1    4    4    0    0  0.47846768151E-01  0.18186547742E-01  0.13049581769E-01  0.52826285565E-01  0.51100000000E-03 0.  1.
</event>
<event>
 8    1  0.1131376E+005  0.1043930E+01  0.7957747E-01            NaN
         13   -1    0    0    0    0  0.00000000000E+00  0.00000000000E+00  0.74505805969E-08  0.10566000000E+00  0.10566000000E+00 0.  1.
     999900   -1    0    0    0    0 -0.00000000000E+00 -0.00000000000E+00 -0.74505805969E-08  0.93827000000E+00  0.93827000000E+00 0.  1.
     999902    2    1    2    0    0  0.23151754679E-01 -0.30759691232E-02 -0.77222016195E-02  0.10193312657E+01  0.10190344114E+01 0.  0.
     999903    2    3    3    0    0  0.86899854520E-01  0.14506471788E-01  0.94729886825E-01  0.13092291766E+00  0.20125517912E-01 0.  0.
         14    1    1    2    0    0 -0.23151754679E-01  0.30759691232E-02  0.77222016195E-02  0.24598734289E-01  0.00000000000E+00 0.  1.
     999901    1    3    3    0    0 -0.63748099840E-01 -0.17582440911E-01 -0.10245208844E+00  0.88840834805E+00  0.88000000000E+00 0.  1.
        -11    1    4    4    0    0  0.24566215169E-01 -0.28062227740E-02  0.18168555106E-01  0.30687641317E-01  0.51100000000E-03 0. -1.
         11    1    4    4    0    0  0.62333639351E-01  0.17312694562E-01  0.76561331719E-01  0.10023527634E+00  0.51100000000E-03 0.  1.
</event>
<event>
 7    1  0.1131376E+005  0.1043930E+01  0.7957747E-01            NaN
         13   -1    0    0    0    0  0.00000000000E+00  0.00000000000E+00  0.74505805969E-08  0.10566000000E+00  0.10566000000E+00 0.  1.
     999900   -1    0    0    0    0 -0.00000000000E+00 -0.00000000000E+00 -0.74505805969E-08  0.93827000000E+00  0.93827000000E+00 0. -1.
     999903    2    1    2    0    0 -0.49860949661E-01 -0.95274270142E-01  0.13392866747E-01  0.11014585103E+00  0.19734202969E-01 0.  0.
         14    1    1    2    0    0  0.41683311103E-01 -0.10127850638E-01  0.18884891917E-01  0.46869082834E-01  0.00000000000E+00 0.  1.
     999901    1    1    2    0    0  0.81776385585E-02  0.10540212078E+00 -0.32277758664E-01  0.88691506614E+00  0.88000000000E+00 0. -1.
        -11    1    3    3    0    0 -0.14513054529E-01 -0.45494044320E-01  0.11196594794E-01  0.49050603221E-01  0.51100000000E-03 0.  1.
         11    1    3    3    0    0 -0.35347895132E-01 -0.49780225822E-01  0.21962719531E-02  0.61095247808E-01  0.51100000000E-03 0. -1.
</event>
<event>
 8    1  0.1131376E+005  0.1043930E+01  0.7957747E-01            NaN
         13   -1    0    0    0    0  0.00000000000E+00  0.00000000000E+00  0.74505805969E-08  0.10566000000E+00  0.10566000000E+00 0.  1.
     999900   -1    0    0    0    0 -0.00000000000E+00 -0.00000000000E+00 -0.74505805969E-08  0.93827000000E+00  0.93827000000E+00 0. -1.
     999902    2    1    2    0    0 -0.15577597153E-01  0.10541613079E-01  0.14944958837E-01  0.10199062839E+01  0.10196233074E+01 0.  0.
     999903    2    3    3    0    0  0.56628986783E-01  0.25738249687E-02  0.11650185032E+00  0.13109186088E+00  0.19973185551E-01 0.  0.
         14    1    1    2    0    0  0.15577597153E-01 -0.10541613079E-01 -0.14944958837E-01  0.24023716074E-01  0.00000000000E+00 0. -1.
     999901    1    3    3    0    0 -0.72206583935E-01  0.79677881103E-02 -0.10155689148E+00  0.88881442305E+00  0.88000000000E+00 0. -1.
        -11    1    4    4    0    0  0.40580256205E-01  0.43062464240E-02  0.61829613340E-01  0.74084162671E-01  0.51100000000E-03 0.  1.
         11    1    4    4    0    0  0.16048730578E-01 -0.17324214553E-02  0.54672236981E-01  0.57007698207E-01  0.51100000000E-03 0. -1.
</event>
<event>
 8    1  0.1131376E+005  0.1043930E+01  0.7957747E-01            NaN
         13   -1    0    0    0    0  0.00000000000E+00  0.00000000000E+00  0.74505805969E-08  0.10566000000E+00  0.10566000000E+00 0.  1.
     999900   -1    0    0    0    0 -0.00000000000E+00 -0.00000000000E+00 -0.74505805969E-08  0.93827000000E+00  0.93827000000E+00 0.  1.
     999902    2    1    2    0    0 -0.54697404774E-02 -0.35462348153E-02 -0.23237696257E-01  0.10197952870E+01  0.10195096582E+01 0.  0.
     999903    2    3    3    0    0  0.18691222212E-01  0.12352548108E+00  0.25468379948E-01  0.12900729040E+00  0.19655440342E-01 0.  0.
         14    1    1    2    0    0  0.54697404774E-02  0.35462348153E-02  0.23237696257E-01  0.24134712959E-01  0.00000000000E+00 0.  1.
     999901    1    3    3    0    0 -0.24160962689E-01 -0.12707171590E+00 -0.48706076205E-01  0.89078799664E+00  0.88000000000E+00 0.  1.
        -11    1    4    4    0    0  0.61661402431E-02  0.39312514151E-01 -0.11176138930E-02  0.39812124236E-01  0.51100000000E-03 0.  1.
         11    1    4    4    0    0  0.12525081969E-01  0.84212966931E-01  0.26585993841E-01  0.89195166165E-01  0.51100000000E-03 0. -1.
</event>
<event>
 7    1  0.1131376E+005  0.1043930E+01  0.7957747E-01            NaN
         13   -1    0    0    0    0  0.00000000000E+00  0.00000000000E+00  0.74505805969E-08  0.10566000000E+00  0.10566000000E+00 0. -1.
     999900   -1    0    0    0    0 -0.00000000000E+00 -0.00000000000E+00 -0.74505805969E-08  0.93827000000E+00  0.93827000000E+00 0.  1.
     999903    2    1    2    0    0 -0.65878880667E-01  0.19685242789E-01  0.90383751953E-01  0.11516746185E+00  0.19151656569E-01 0.  0.
         14    1    1    2    0    0 -0.23169414249E-01 -0.30030022063E-01 -0.15735874268E-01  0.41063873669E-01  0.00000000000E+00 0.  1.
     999901    1    1    2    0    0  0.89048294916E-01  0.10344779274E-01 -0.74647877685E-01  0.88769866449E+00  0.88000000000E+00 0. -1.
        -11    1    3    3    0    0 -0.31180254460E-01  0.83766613791E-03  0.32065845245E-01  0.44736891991E-01  0.51100000000E-03 0. -1.
         11    1    3    3    0    0 -0.34698626207E-01  0.18847576651E-01  0.58317906707E-01  0.70430569854E-01  0.51100000000E-03 0.  1.
</event>
<event>
 8    1  0.1131376E+005  0.1043930E+01  0.7957747E-01            NaN
         13   -1    0    0    0    0  0.00000000000E+00  0.00000000000E+00  0.74505805969E-08  0.10566000000E+00  0.10566000000E+00 0. -1.
     999900   -1    0    0    0    0 -0.00000000000E+00 -0.00000000000E+00 -0.74505805969E-08  0.93827000000E+00  0.93827000000E+00 0. -1.
     999902    2    1    2    0    0  0.80009881807E-02  0.13208562142E-01 -0.18094736560E-01  0.10201413175E+01  0.10198639155E+01 0.  0.
     999903    2    3    3    0    0 -0.10586367501E+00  0.14915015006E-03  0.69816484835E-01  0.12836550897E+00  0.19905336102E-01 0.  0.
         14    1    1    2    0    0 -0.80009881807E-02 -0.13208562142E-01  0.18094736560E-01  0.23788682539E-01  0.00000000000E+00 0. -1.
     999901    1    3    3    0    0  0.11386466319E+00  0.13059411992E-01 -0.87911221396E-01  0.89177580849E+00  0.88000000000E+00 0. -1.
        -11    1    4    4    0    0 -0.39183694568E-01  0.59987273533E-02  0.35155075364E-01  0.52985725386E-01  0.51100000000E-03 0. -1.
         11    1    4    4    0    0 -0.66679980444E-01 -0.58495772033E-02  0.34661409471E-01  0.75379783583E-01  0.51100000000E-03 0.  1.
</event>
<event>
 8    1  0.1131376E+005  0.1043930E+01  0.7957747E-01            NaN
         13   -1    0    0    0    0  0.00000000000E+00  0.00000000000E+00  0.74505805969E-08  0.10566000000E+00  0.10566000000E+00 0. -1.
     999900   -1    0    0    0    0 -0.00000000000E+00 -0.00000000000E+00 -0.74505805969E-08  0.93827000000E+00  0.93827000000E+00 0. -1.
     999902    2    1    2    0    0 -0.12958968961E-01 -0.14767293954E-01 -0.12274420285E-01  0.10207638773E+01  0.10205009672E+01 0.  0.
     999903    2    3    3    0    0 -0.85926869436E-01 -0.93386058185E-01  0.35108248760E-01  0.13298555931E+00  0.18659772199E-01 0.  0.
         14    1    1    2    0    0  0.12958968961E-01  0.14767293954E-01  0.12274420285E-01  0.23166122692E-01  0.00000000000E+00 0. -1.
     999901    1    3    3    0    0  0.72967900475E-01  0.78618764231E-01 -0.47382669044E-01  0.88777831800E+00  0.88000000000E+00 0. -1.
        -11    1    4    4    0    0 -0.75530178089E-01 -0.72487123926E-01  0.25572120570E-01  0.10776541843E+00  0.51100000000E-03 0.  1.
         11    1    4    4    0    0 -0.10396691347E-01 -0.20898934259E-01  0.95361281893E-02  0.25220140880E-01  0.51100000000E-03 0. -1.
</event>
<event>
 8    1  0.1131376E+005  0.1043930E+01  0.7957747E-01            NaN
         13   -1    0    0    0    0  0.00000000000E+00  0.00000000000E+00  0.74505805969E-08  0.10566000000E+00  0.10566000000E+00 0. -1.
     999900   -1    0    0    0    0 -0.00000000000E+00 -0.00000000000E+00 -0.74505805969E-08  0.93827000000E+00  0.93827000000E+00 0. -1.
     999902    2    1    2    0    0 -0.19314043860E-01  0.10079050299E-01 -0.88198438908E-02  0.10204266132E+01  0.10201559017E+01 0.  0.
     999903    2    3    3    0    0 -0.36875996374E-01 -0.12237991247E+00  0.14408862886E-01  0.13003716368E+00  0.19114563112E-01 0.  0.
         14    1    1    2    0    0  0.19314043860E-01 -0.10079050299E-01  0.88198438908E-02  0.23503386807E-01  0.00000000000E+00 0. -1.
     999901    1    3    3    0    0  0.17561952514E-01  0.13245896277E+00 -0.23228706777E-01  0.89038944952E+00  0.88000000000E+00 0.  1.
        -11    1    4    4    0    0 -0.30143445763E-01 -0.67609794988E-01  0.69935032398E-02  0.74356451700E-01  0.51100000000E-03 0.  1.
         11    1    4    4    0    0 -0.67325506105E-02 -0.54770117479E-01  0.74153596460E-02  0.55680711976E-01  0.51100000000E-03 0. -1.
</event>
<event>
 8    1  0.1131376E+005  0.1043930E+01  0.7957747E-01            NaN
         13   -1    0    0    0    0  0.00000000000E+00  0.00000000000E+00  0.74505805969E-08  0.10566000000E+00  0.10566000000E+00 0.  1.
     999900   -1    0    0    0    0 -0.00000000000E+00 -0.00000000000E+00 -0.74505805969E-08  0.93827000000E+00  0.93827000000E+00 0.  1.
     999902    2    1    2    0    0 -0.30793222856E-02  0.18376619523E-01  0.14325426557E-01  0.10204268041E+01  0.10201560970E+01 0.  0.
     999903    2    3    3    0    0  0.33333638190E-01  0.80627986421E-01  0.98948881269E-01  0.13343060037E+00  0.20020998500E-01 0.  0.
         14    1    1    2    0    0  0.30793222856E-02 -0.18376619523E-01 -0.14325426557E-01  0.23503195886E-01  0.00000000000E+00 0. -1.
     999901    1    3    3    0    0 -0.36412960476E-01 -0.62251366898E-01 -0.84623454713E-01  0.88699620375E+00  0.88000000000E+00 0.  1.
        -11    1    4    4    0    0  0.31297535080E-01  0.59443823900E-01  0.83270422732E-01  0.10699218815E+00  0.51100000000E-03 0. -1.
         11    1    4    4    0    0  0.20361031105E-02  0.21184162521E-01  0.15678458538E-01  0.26438412220E-01  0.51100000000E-03 0.  1.
</event>
<event>
 8    1  0.1131376E+005  0.1043930E+01  0.7957747E-01            NaN
         13   -1    0    0    0    0  0.00000000000E+00  0.00000000000E+00  0.74505805969E-08  0.10566000000E+00  0.10566000000E+00 0. -1.
     999900   -1    0    0    0    0 -0.00000000000E+00 -0.00000000000E+00 -0.74505805969E-08  0.93827000000E+00  0.93827000000E+00 0.  1.
     999902    2    1    2    0    0 -0.56216740731E-02 -0.38605477301E-02 -0.23503564992E-01  0.10194570636E+01  0.10191632744E+01 0.  0.
     999903    2    3    3    0    0 -0.93678128431E-01 -0.52366919020E-01 -0.74238622201E-01  0.13228129002E+00  0.21658271174E-01 0.  0.
         14    1    1    2    0    0  0.56216740731E-02  0.38605477301E-02  0.23503564992E-01  0.24472936388E-01  0.00000000000E+00 0. -1.
     999901    1    3    3    0    0  0.88056454358E-01  0.48506371290E-01  0.50735057209E-01  0.88717577359E+00  0.88000000000E+00 0. -1.
        -11    1    4    4    0    0 -0.91140122063E-01 -0.45217544398E-01 -0.67291028524E-01  0.12198152242E+00  0.51100000000E-03 0. -1.
         11    1    4    4    0    0 -0.25380063684E-02 -0.71493746224E-02 -0.69475936766E-02  0.10299767605E-01  0.51100000000E-03 0.  1.
</event>
<event>
 8    1  0.1131376E+005  0.1043930E+01  0.7957747E-01            NaN
         13   -1    0    0    0    0  0.00000000000E+00  0.00000000000E+00  0.74505805969E-08  0.10566000000E+00  0.10566000000E+00 0.  1.
     999900   -1    0    0    0    0 -0.00000000000E+00 -0.00000000000E+00 -0.74505805969E-08  0.93827000000E+00  0.93827000000E+00 0. -1.
     999902    2    1    2    0    0  0.12213340962E-01 -0.85863429003E-03  0.94081809881E-02  0.10284892481E+01  0.10283733352E+01 0.  0.
     999903    2    3    3    0    0 -0.47352616536E-01  0.97370434211E-01 -0.80540349439E-01  0.13647591224E+00  0.20387618377E-01 0.  0.
         14    1    1    2    0    0 -0.12213340962E-01  0.85863429003E-03 -0.94081809881E-02  0.15440751918E-01  0.00000000000E+00 0. -1.
     999901    1    3    3    0    0  0.59565957498E-01 -0.98229068501E-01  0.89948530427E-01  0.89201333584E+00  0.88000000000E+00 0.  1.
        -11    1    4    4    0    0 -0.28420068413E-01  0.35945792143E-01 -0.35964691017E-01  0.58253930187E-01  0.51100000000E-03 0.  1.
         11    1    4    4    0    0 -0.18932548124E-01  0.61424642068E-01 -0.44575658422E-01  0.78221982054E-01  0.51100000000E-03 0. -1.
</event>
<event>
 8    1  0.1131376E+005  0.1043930E+01  0.7957747E-01            NaN
         13   -1    0    0    0    0  0.00000000000E+00  0.00000000000E+00  0.74505805969E-08  0.10566000000E+00  0.10566000000E+00 0.  1.
     999900   -1    0    0    0    0 -0.00000000000E+00 -0.00000000000E+00 -0.74505805969E-08  0.93827000000E+00  0.93827000000E+00 0.  1.
     999902    2    1    2    0    0  0.18974129836E-01 -0.13852415585E-01 -0.15744539508E-02  0.10203845986E+01  0.10201129071E+01 0.  0.
     999903    2    3    3    0    0 -0.24981868162E-01 -0.11515547198E+00  0.55231771921E-01  0.13166564064E+00  0.20010393069E-01 0.  0.
         14    1    1    2    0    0 -0.18974129836E-01  0.13852415585E-01  0.15744539508E-02  0.23545401373E-01  0.00000000000E+00 0.  1.
     999901    1    3    3    0    0  0.43955997998E-01  0.10130305640E+00 -0.56806225871E-01  0.88871895799E+00  0.88000000000E+00 0. -1.
        -11    1    4    4    0    0 -0.13678848025E-01 -0.95500520940E-01  0.48662170820E-01  0.10805428438E+00  0.51100000000E-03 0.  1.
         11    1    4    4    0    0 -0.11303020136E-01 -0.19654951040E-01  0.65696011008E-02  0.23611356255E-01  0.51100000000E-03 0. -1.
</event>
<event>
 8    1  0.1131376E+005  0.1043930E+01  0.7957747E-01            NaN
         13   -1    0    0    0    0  0.00000000000E+00  0.00000000000E+00  0.74505805969E-08  0.10566000000E+00  0.10566000000E+00 0. -1.
     999900   -1    0    0    0    0 -0.00000000000E+00 -0.00000000000E+00 -0.74505805969E-08  0.93827000000E+00  0.93827000000E+00 0.  1.
     999902    2    1    2    0    0 -0.21802237943E-02 -0.22415667235E-01  0.71726626168E-02  0.10202939554E+01  0.10200201434E+01 0.  0.
     999903    2    3    3    0    0 -0.12589322560E+00  0.78902145580E-02  0.28375175912E-01  0.13087116517E+00  0.20267005828E-01 0.  0.
         14    1    1    2    0    0  0.21802237943E-02  0.22415667235E-01 -0.71726626168E-02  0.23636044559E-01  0.00000000000E+00 0.  1.
     999901    1    3    3    0    0  0.12371300181E+00 -0.30305881793E-01 -0.21202513295E-01  0.88942279027E+00  0.88000000000E+00 0.  1.
        -11    1    4    4    0    0 -0.51795263528E-01 -0.51183007114E-02  0.17166849780E-01  0.54807920764E-01  0.51100000000E-03 0. -1.
         11    1    4    4    0    0 -0.74097962077E-01  0.13008515269E-01  0.11208326132E-01  0.76063244403E-01  0.51100000000E-03 0.  1.
</event>
<event>
 8    1  0.1131376E+005  0.1043930E+01  0.7957747E-01            NaN
         13   -1    0    0    0    0  0.00000000000E+00  0.00000000000E+00  0.74505805969E-08  0.10566000000E+00  0.10566000000E+00 0.  1.
     999900   -1    0    0    0    0 -0.00000000000E+00 -0.00000000000E+00 -0.74505805969E-08  0.93827000000E+00  0.93827000000E+00 0. -1.
     999902    2    1    2    0    0  0.22835051298E-01  0.54606867175E-02 -0.78268159147E-02  0.10191809048E+01  0.10188803654E+01 0.  0.
     999903    2    3    3    0    0  0.26358674729E-01 -0.99417586942E-01  0.75314086385E-01  0.12905491490E+00  0.20107787684E-01 0.  0.
         14    1    1    2    0    0 -0.22835051298E-01 -0.54606867175E-02  0.78268159147E-02  0.24749095228E-01  0.00000000000E+00 0.  1.
     999901    1    3    3    0    0 -0.35236234302E-02  0.10487827366E+00 -0.83140902300E-01  0.89012598987E+00  0.88000000000E+00 0. -1.
        -11    1    4    4    0    0  0.19578840043E-01 -0.67852168411E-01  0.62530938764E-01  0.94327234451E-01  0.51100000000E-03 0.  1.
         11    1    4    4    0    0  0.67798346851E-02 -0.31565418531E-01  0.12783147621E-01  0.34727680451E-01  0.51100000000E-03 0. -1.
</event>
<event>
 8    1  0.1131376E+005  0.1043930E+01  0.7957747E-01            NaN
         13   -1    0    0    0    0  0.00000000000E+00  0.00000000000E+00  0.74505805969E-08  0.10566000000E+00  0.10566000000E+00 0.  1.
     999900   -1    0    0    0    0 -0.00000000000E+00 -0.00000000000E+00 -0.74505805969E-08  0.93827000000E+00  0.93827000000E+00 0. -1.
     999902    2    1    2    0    0  0.17334253665E-01  0.12565757348E-01 -0.99122020089E-02  0.10203370698E+01  0.10200642674E+01 0.  0.
     999903    2    3    3    0    0  0.40135155554E-01  0.81065530135E-01 -0.95957751310E-01  0.13319788309E+00  0.18743935978E-01 0.  0.
         14    1    1    2    0    0 -0.17334253665E-01 -0.12565757348E-01  0.99122020089E-02  0.23592930223E-01  0.00000000000E+00 0.  1.
     999901    1    3    3    0    0 -0.22800901889E-01 -0.68499772787E-01  0.86045549301E-01  0.88713918669E+00  0.88000000000E+00 0.  1.
        -11    1    4    4    0    0  0.12804277182E-01  0.23060430640E-01 -0.16594904045E-01  0.31167048893E-01  0.51100000000E-03 0.  1.
         11    1    4    4    0    0  0.27330878373E-01  0.58005099495E-01 -0.79362847265E-01  0.10203083420E+00  0.51100000000E-03 0. -1.
</event>
<event>
 8    1  0.1131376E+005  0.1043930E+01  0.7957747E-01            NaN
         13   -1    0    0    0    0  0.00000000000E+00  0.00000000000E+00  0.74505805969E-08  0.10566000000E+00  0.10566000000E+00 0. -1.
     999900   -1    0    0    0    0 -0.00000000000E+00 -0.00000000000E+00 -0.74505805969E-08  0.93827000000E+00  0.93827000000E+00 0. -1.
     999902    2    1    2    0    0 -0.10170215470E-01  0.18714362728E-01 -0.15553065716E-01  0.10175565568E+01  0.10172147205E+01 0.  0.
     999903    2    3    3    0    0 -0.39280736596E-01  0.42193607412E-01  0.11207778619E+00  0.12756311200E+00  0.19688590900E-01 0.  0.
         14    1    1    2    0    0  0.10170215470E-01 -0.18714362728E-01  0.15553065716E-01  0.26373443237E-01  0.00000000000E+00 0. -1.
     999901    1    3    3    0    0  0.29110521125E-01 -0.23479244684E-01 -0.12763085190E+00  0.88999344477E+00  0.88000000000E+00 0. -1.
        -11    1    4    4    0    0 -0.14054374898E-01  0.23453093961E-01  0.35691869684E-01  0.44963804918E-01  0.51100000000E-03 0. -1.
         11    1    4    4    0    0 -0.25226361697E-01  0.18740513451E-01  0.76385916502E-01  0.82599307078E-01  0.51100000000E-03 0.  1.
</event>
<event>
 8    1  0.1131376E+005  0.1043930E+01  0.7957747E-01            NaN
         13   -1    0    0    0    0  0.00000000000E+00  0.00000000000E+00  0.74505805969E-08  0.10566000000E+00  0.10566000000E+00 0. -1.
     999900   -1    0    0    0    0 -0.00000000000E+00 -0.00000000000E+00 -0.74505805969E-08  0.93827000000E+00  0.93827000000E+00 0.  1.
     999902    2    1    2    0    0  0.12613589459E-01  0.51264040315E-02 -0.18996488862E-01  0.10205580243E+01  0.10202903664E+01 0.  0.
     999903    2    3    3    0    0 -0.43453671912E-01  0.54093691776E-01 -0.11131082966E+00  0.13260348125E+00  0.19473914547E-01 0.  0.
         14    1    1    2    0    0 -0.12613589459E-01 -0.51264040315E-02  0.18996488862E-01  0.23371975663E-01  0.00000000000E+00 0. -1.
     999901    1    3    3    0    0  0.56067261371E-01 -0.48967287745E-01  0.92314340800E-01  0.88795454308E+00  0.88000000000E+00 0. -1.
        -11    1    4    4    0    0 -0.17130168244E-01  0.12161123653E-01 -0.46636213618E-01  0.51152058944E-01  0.51100000000E-03 0.  1.
         11    1    4    4    0    0 -0.26323503667E-01  0.41932568123E-01 -0.64674616043E-01  0.81451422308E-01  0.51100000000E-03 0. -1.
</event>
<event>
 8    1  0.1131376E+005  0.1043930E+01  0.7957747E-01            NaN
         13   -1    0    0    0    0  0.00000000000E+00  0.00000000000E+00  0.74505805969E-08  0.10566000000E+00  0.10566000000E+00 0.  1.
     999900   -1    0    0    0    0 -0.00000000000E+00 -0.00000000000E+00 -0.74505805969E-08  0.93827000000E+00  0.93827000000E+00 0. -1.
     999902    2    1    2    0    0 -0.26426890708E-02 -0.24205561849E-01 -0.30834429693E-02  0.10193861484E+01  0.10190906333E+01 0.  0.
     999903    2    3    3    0    0  0.68662919721E-01 -0.10696391543E+00  0.29857141175E-01  0.13202009260E+00  0.19544314297E-01 0.  0.
         14    1    1    2    0    0  0.26426890708E-02  0.24205561849E-01  0.30834429693E-02  0.24543851582E-01  0.00000000000E+00 0. -1.
     999901    1    3    3    0    0 -0.71305608792E-01  0.82758353586E-01 -0.32940584145E-01  0.88736605582E+00  0.88000000000E+00 0. -1.
        -11    1    4    4    0    0  0.34375920039E-01 -0.69274391332E-01  0.13509324887E-01  0.78507376423E-01  0.51100000000E-03 0.  1.
         11    1    4    4    0    0  0.34286999682E-01 -0.37689524103E-01  0.16347816289E-01  0.53512716178E-01  0.51100000000E-03 0. -1.
</event>
<event>
 8    1  0.1131376E+005  0.1043930E+01  0.7957747E-01            NaN
         13   -1    0    0    0    0  0.00000000000E+00  0.00000000000E+00  0.74505805969E-08  0.10566000000E+00  0.10566000000E+00 0. -1.
     999900   -1    0    0    0    0 -0.00000000000E+00 -0.00000000000E+00 -0.74505805969E-08  0.93827000000E+00  0.93827000000E+00 0.  1.
     999902    2    1    2    0    0 -0.32222467198E-02  0.99013503846E-02  0.21594323535E-01  0.10199563807E+01  0.10196745972E+01 0.  0.
     999903    2    3    3    0    0  0.11128447330E+00  0.65130607157E-01 -0.32822028861E-02  0.13047287816E+00  0.19651185510E-01 0.  0.
         14    1    1    2    0    0  0.32222467198E-02 -0.99013503846E-02 -0.21594323535E-01  0.23973619299E-01  0.00000000000E+00 0. -1.
     999901    1    3    3    0    0 -0.11450672002E+00 -0.55229256773E-01  0.24876526421E-01  0.88948350255E+00  0.88000000000E+00 0. -1.
        -11    1    4    4    0    0  0.97953206553E-01  0.56381378110E-01 -0.93405719546E-02  0.11340722145E+00  0.51100000000E-03 0.  1.
         11    1    4    4    0    0  0.13331266747E-01  0.87492290473E-02  0.60583690684E-02  0.17065656705E-01  0.51100000000E-03 0. -1.
</event>
<event>
 8    1  0.1131376E+005  0.1043930E+01  0.7957747E-01            NaN
         13   -1    0    0    0    0  0.00000000000E+00  0.00000000000E+00  0.74505805969E-08  0.10566000000E+00  0.10566000000E+00 0.  1.
     999900   -1    0    0    0    0 -0.00000000000E+00 -0.00000000000E+00 -0.74505805969E-08  0.93827000000E+00  0.93827000000E+00 0.  1.
     999902    2    1    2    0    0 -0.12674641275E-01  0.10462018900E-01  0.18170459063E-01  0.10194296744E+01  0.10191352193E+01 0.  0.
     999903    2    3    3    0    0  0.84609609745E-01 -0.53213311435E-01  0.80007131662E-01  0.12963051322E+00  0.20309757911E-01 0.  0.
         14    1    1    2    0    0  0.12674641275E-01 -0.10462018900E-01 -0.18170459063E-01  0.24500325580E-01  0.00000000000E+00 0. -1.
     999901    1    3    3    0    0 -0.97284251020E-01  0.63675330336E-01 -0.61836672599E-01  0.88979916120E+00  0.88000000000E+00 0.  1.
        -11    1    4    4    0    0  0.23414987926E-01 -0.11289038428E-01  0.32173021138E-01  0.41365063258E-01  0.51100000000E-03 0.  1.
         11    1    4    4    0    0  0.61194621820E-01 -0.41924273007E-01  0.47834110524E-01  0.88265449964E-01  0.51100000000E-03 0. -1.
</event>
<event>
 8    1  0.1131376E+005  0.1043930E+01  0.7957747E-01            NaN
         13   -1    0    0    0    0  0.00000000000E+00  0.00000000000E+00  0.74505805969E-08  0.10566000000E+00  0.10566000000E+00 0.  1.
     999900   -1    0    0    0    0 -0.00000000000E+00 -0.00000000000E+00 -0.74505805969E-08  0.93827000000E+00  0.93827000000E+00 0. -1.
     999902    2    1    2    0    0  0.13514269904E-01 -0.86060931808E-02 -0.17158517009E-01  0.10204541606E+01  0.10201840906E+01 0.  0.
     999903    2    3    3    0    0  0.11974975112E+00 -0.32210202734E-01  0.39639784262E-01  0.13193337945E+00  0.21391682098E-01 0.  0.
         14    1    1    2    0    0 -0.13514269904E-01  0.86060931808E-02  0.17158517009E-01  0.23475839427E-01  0.00000000000E+00 0.  1.
     999901    1    3    3    0    0 -0.10623548122E+00  0.23604109553E-01 -0.56798301271E-01  0.88852078112E+00  0.88000000000E+00 0. -1.
        -11    1    4    4    0    0  0.17053703130E-01  0.24655495186E-02  0.28878945078E-02  0.17478809472E-01  0.51100000000E-03 0. -1.
         11    1    4    4    0    0  0.10269604799E+00 -0.34675752252E-01  0.36751889754E-01  0.11445456998E+00  0.51100000000E-03 0.  1.
</event>
<event>
 8    1  0.1131376E+005  0.1043930E+01  0.7957747E-01            NaN
         13   -1    0    0    0    0  0.00000000000E+00  0.00000000000E+00  0.74505805969E-08  0.10566000000E+00  0.10566000000E+00 0.  1.
     999900   -1    0    0    0    0 -0.00000000000E+00 -0.00000000000E+00 -0.74505805969E-08  0.93827000000E+00  0.93827000000E+00 0.  1.
     999902    2    1    2    0    0  0.14332905898E-01 -0.91735338725E-02 -0.15732010038E-01  0.10207549691E+01  0.10204918544E+01 0.  0.
     999903    2    3    3    0    0 -0.10907561121E+00  0.64273550015E-01 -0.14938093762E-01  0.12911335587E+00  0.20458099281E-01 0.  0.
         14    1    1    2    0    0 -0.14332905898E-01  0.91735338725E-02  0.15732010038E-01  0.23175030853E-01  0.00000000000E+00 0.  1.
     999901    1    3    3    0    0  0.12340851711E+00 -0.73447083888E-01 -0.79391627568E-03  0.89164161328E+00  0.88000000000E+00 0. -1.
        -11    1    4    4    0    0 -0.89341399994E-01  0.44664123035E-01 -0.67699702133E-02  0.10011425102E+00  0.51100000000E-03 0. -1.
         11    1    4    4    0    0 -0.19734211215E-01  0.19609426980E-01 -0.81681235491E-02  0.28999104850E-01  0.51100000000E-03 0.  1.
</event>
<event>
 8    1  0.1131376E+005  0.1043930E+01  0.7957747E-01            NaN
         13   -1    0    0    0    0  0.00000000000E+00  0.00000000000E+00  0.74505805969E-08  0.10566000000E+00  0.10566000000E+00 0. -1.
     999900   -1    0    0    0    0 -0.00000000000E+00 -0.00000000000E+00 -0.74505805969E-08  0.93827000000E+00  0.93827000000E+00 0.  1.
     999902    2    1    2    0    0 -0.23352383633E-01 -0.17099628739E-02 -0.13226144703E-02  0.10204777698E+01  0.10202082491E+01 0.  0.
     999903    2    3    3    0    0  0.16377535576E-01 -0.11470719357E+00  0.56570853961E-01  0.13047861565E+00  0.19961054450E-01 0.  0.
         14    1    1    2    0    0  0.23352383633E-01  0.17099628739E-02  0.13226144703E-02  0.23452230243E-01  0.00000000000E+00 0. -1.
     999901    1    3    3    0    0 -0.39729919208E-01  0.11299723070E+00 -0.57893468431E-01  0.88999915411E+00  0.88000000000E+00 0.  1.
        -11    1    4    4    0    0  0.77202663356E-02 -0.13513255380E-01  0.38264080702E-02  0.16034746739E-01  0.51100000000E-03 0. -1.
         11    1    4    4    0    0  0.86572692402E-02 -0.10119393819E+00  0.52744445891E-01  0.11444386891E+00  0.51100000000E-03 0.  1.
</event>
<event>
 8    1  0.1131376E+005  0.1043930E+01  0.7957747E-01            NaN
         13   -1    0    0    0    0  0.00000000000E+00  0.00000000000E+00  0.74505805969E-08  0.10566000000E+00  0.10566000000E+00 0. -1.
     999900   -1    0    0    0    0 -0.00000000000E+00 -0.00000000000E+00 -0.74505805969E-08  0.93827000000E+00  0.93827000000E+00 0.  1.
     999902    2    1    2    0    0 -0.21212527738E-01  0.48892415144E-02 -0.11147982301E-01  0.10194728226E+01  0.10191794163E+01 0.  0.
     999903    2    3    3    0    0  0.77707405618E-01 -0.92560166924E-01 -0.37567253055E-01  0.12819311441E+00  0.20404673247E-01 0.  0.
         14    1    1    2    0    0  0.21212527738E-01 -0.48892415144E-02  0.11147982301E-01  0.24457177372E-01  0.00000000000E+00 0. -1.
     999901    1    3    3    0    0 -0.98919933356E-01  0.97449408439E-01  0.26419270753E-01  0.89127970822E+00  0.88000000000E+00 0.  1.
        -11    1    4    4    0    0  0.62143110580E-01 -0.60515173972E-01 -0.29888048958E-01  0.91746438977E-01  0.51100000000E-03 0.  1.
         11    1    4    4    0    0  0.15564295038E-01 -0.32044992952E-01 -0.76792040962E-02  0.36446675430E-01  0.51100000000E-03 0. -1.
</event>
<event>
 8    1  0.1131376E+005  0.1043930E+01  0.7957747E-01            NaN
         13   -1    0    0    0    0  0.00000000000E+00  0.00000000000E+00  0.74505805969E-08  0.10566000000E+00  0.10566000000E+00 0. -1.
     999900   -1    0    0    0    0 -0.00000000000E+00 -0.00000000000E+00 -0.74505805969E-08  0.93827000000E+00  0.93827000000E+00 0.  1.
     999902    2    1    2    0    0 -0.99449571552E-02  0.78031401544E-02 -0.19400450599E-01  0.10207746841E+01  0.10205120220E+01 0.  0.
     999903    2    3    3    0    0 -0.68107603556E-01  0.31902219085E-01 -0.10904241090E+00  0.13398308512E+00  0.20120200762E-01 0.  0.
         14    1    1    2    0    0  0.99449571552E-02 -0.78031401544E-02  0.19400450599E-01  0.23155315859E-01  0.00000000000E+00 0. -1.
     999901    1    3    3    0    0  0.58162646401E-01 -0.24099078931E-01  0.89641960304E-01  0.88679159902E+00  0.88000000000E+00 0. -1.
        -11    1    4    4    0    0 -0.33702740079E-01  0.11166989279E-01 -0.67031074541E-01  0.75855140982E-01  0.51100000000E-03 0. -1.
         11    1    4    4    0    0 -0.34404863477E-01  0.20735229806E-01 -0.42011336363E-01  0.58127944140E-01  0.51100000000E-03 0.  1.
</event>
<event>
 8    1  0.1272406E+005  0.1043930E+01  0.7957747E-01            NaN
         13   -1    0    0    0    0  0.00000000000E+00  0.00000000000E+00  0.74505805969E-08  0.10566000000E+00  0.10566000000E+00 0. -1.
     999900   -1    0    0    0    0 -0.00000000000E+00 -0.00000000000E+00 -0.74505805969E-08  0.93827000000E+00  0.93827000000E+00 0. -1.
     999902    2    1    2    0    0  0.10935170162E-01  0.83664763375E-02 -0.23787615849E-01  0.10164449761E+01  0.10160733058E+01 0.  0.
     999903    2    3    3    0    0 -0.34446894641E-01  0.33412735888E-01  0.11264543855E+00  0.12442433435E+00  0.22122854270E-01 0.  0.
         14    1    1    2    0    0 -0.10935170162E-01 -0.83664763375E-02  0.23787615849E-01  0.27485023932E-01  0.00000000000E+00 0. -1.
     999901    1    3    3    0    0  0.45382064803E-01 -0.25046259551E-01 -0.13643305440E+00  0.89202064172E+00  0.88000000000E+00 0. -1.
        -11    1    4    4    0    0 -0.29422532975E-01  0.17940460942E-01  0.58622908013E-01  0.68003323818E-01  0.51100000000E-03 0. -1.
         11    1    4    4    0    0 -0.50243616666E-02  0.15472274946E-01  0.54022530540E-01  0.56421010529E-01  0.51100000000E-03 0.  1.
</event>
<event>
 8    1  0.1131376E+005  0.1043930E+01  0.7957747E-01            NaN
         13   -1    0    0    0    0  0.00000000000E+00  0.00000000000E+00  0.74505805969E-08  0.10566000000E+00  0.10566000000E+00 0.  1.
     999900   -1    0    0    0    0 -0.00000000000E+00 -0.00000000000E+00 -0.74505805969E-08  0.93827000000E+00  0.93827000000E+00 0.  1.
     999902    2    1    2    0    0  0.15842577756E-02 -0.13489400241E-01 -0.18854278440E-01  0.10206930121E+01  0.10204284724E+01 0.  0.
     999903    2    3    3    0    0  0.32913473379E-01 -0.51333215828E-01  0.11253516006E+00  0.12958310940E+00  0.20229290972E-01 0.  0.
         14    1    1    2    0    0 -0.15842577756E-02  0.13489400241E-01  0.18854278440E-01  0.23236987908E-01  0.00000000000E+00 0.  1.
     999901    1    3    3    0    0 -0.31329215603E-01  0.37843815587E-01 -0.13138943850E+00  0.89110990269E+00  0.88000000000E+00 0.  1.
        -11    1    4    4    0    0 -0.28557258635E-04 -0.81075744921E-02  0.64015231122E-02  0.10342833210E-01  0.51100000000E-03 0.  1.
         11    1    4    4    0    0  0.32942030638E-01 -0.43225641336E-01  0.10613363695E+00  0.11924027619E+00  0.51100000000E-03 0. -1.
</event>
<event>
 8    1  0.1131376E+005  0.1043930E+01  0.7957747E-01            NaN
         13   -1    0    0    0    0  0.00000000000E+00  0.00000000000E+00  0.74505805969E-08  0.10566000000E+00  0.10566000000E+00 0.  1.
     999900   -1    0    0    0    0 -0.00000000000E+00 -0.00000000000E+00 -0.74505805969E-08  0.93827000000E+00  0.93827000000E+00 0.  1.
     999902    2    1    2    0    0 -0.96372313189E-02  0.15934257392E-01  0.12190653303E-01  0.10216726683E+01  0.10214301995E+01 0.  0.
     999903    2    3    3    0    0  0.12418878304E-01  0.31769700032E-01  0.12781121715E+00  0.13369443209E+00  0.19363666035E-01 0.  0.
         14    1    1    2    0    0  0.96372313189E-02 -0.15934257392E-01 -0.12190653303E-01  0.22257331693E-01  0.00000000000E+00 0. -1.
     999901    1    3    3    0    0 -0.22056109622E-01 -0.15835442639E-01 -0.11562056385E+00  0.88797823622E+00  0.88000000000E+00 0.  1.
        -11    1    4    4    0    0 -0.52523614881E-02  0.70986814965E-02  0.30971163985E-01  0.32209512567E-01  0.51100000000E-03 0.  1.
         11    1    4    4    0    0  0.17671239792E-01  0.24671018535E-01  0.96840053169E-01  0.10148491952E+00  0.51100000000E-03 0. -1.
</event>
<event>
 8    1  0.1131376E+005  0.1043930E+01  0.7957747E-01            NaN
         13   -1    0    0    0    0  0.00000000000E+00  0.00000000000E+00  0.74505805969E-08  0.10566000000E+00  0.10566000000E+00 0. -1.
     999900   -1    0    0    0    0 -0.00000000000E+00 -0.00000000000E+00 -0.74505805969E-08  0.93827000000E+00  0.93827000000E+00 0.  1.
     999902    2    1    2    0    0  0.24994552096E-03 -0.10217230019E-01  0.21548470180E-01  0.10200806640E+01  0.10198018289E+01 0.  0.
     999903    2    3    3    0    0 -0.12529446029E+00 -0.26244390211E-01 -0.11411930718E-01  0.13041518992E+00  0.22145423917E-01 0.  0.
         14    1    1    2    0    0 -0.24994552096E-03  0.10217230019E-01 -0.21548470180E-01  0.23849336031E-01  0.00000000000E+00 0.  1.
     999901    1    3    3    0    0  0.12554440581E+00  0.16027160193E-01  0.32960400898E-01  0.88966547405E+00  0.88000000000E+00 0. -1.
        -11    1    4    4    0    0 -0.67941353693E-01 -0.80430089665E-02 -0.15328230489E-01  0.70113716959E-01  0.51100000000E-03 0.  1.
         11    1    4    4    0    0 -0.57353106599E-01 -0.18201381245E-01  0.39162997715E-02  0.60301472956E-01  0.51100000000E-03 0. -1.
</event>
<event>
 8    1  0.1131376E+005  0.1043930E+01  0.7957747E-01            NaN
         13   -1    0    0    0    0  0.00000000000E+00  0.00000000000E+00  0.74505805969E-08  0.10566000000E+00  0.10566000000E+00 0. -1.
     999900   -1    0    0    0    0 -0.00000000000E+00 -0.00000000000E+00 -0.74505805969E-08  0.93827000000E+00  0.93827000000E+00 0.  1.
     999902    2    1    2    0    0  0.15305665789E-01 -0.16300431381E-01 -0.74751002039E-02  0.10203536434E+01  0.10200812286E+01 0.  0.
     999903    2    3    3    0    0  0.45258562231E-01  0.82871115288E-01  0.86397777603E-01  0.12931812845E+00  0.18510623088E-01 0.  0.
         14    1    1    2    0    0 -0.15305665789E-01  0.16300431381E-01  0.74751002039E-02  0.23576356621E-01  0.00000000000E+00 0. -1.
     999901    1    3    3    0    0 -0.29952896442E-01 -0.99171546670E-01 -0.93872877807E-01  0.89103551493E+00  0.88000000000E+00 0.  1.
        -11    1    4    4    0    0  0.14945606943E-01  0.21046537972E-01  0.34509160543E-01  0.43098389876E-01  0.51100000000E-03 0. -1.
         11    1    4    4    0    0  0.30312955288E-01  0.61824577316E-01  0.51888617060E-01  0.86219738575E-01  0.51100000000E-03 0.  1.
</event>
<event>
 8    1  0.1131376E+005  0.1043930E+01  0.7957747E-01            NaN
         13   -1    0    0    0    0  0.00000000000E+00  0.00000000000E+00  0.74505805969E-08  0.10566000000E+00  0.10566000000E+00 0.  1.
     999900   -1    0    0    0    0 -0.00000000000E+00 -0.00000000000E+00 -0.74505805969E-08  0.93827000000E+00  0.93827000000E+00 0. -1.
     999902    2    1    2    0    0 -0.24440479177E-02  0.22630309995E-01 -0.28224660638E-02  0.10209937707E+01  0.10207361114E+01 0.  0.
     999903    2    3    3    0    0  0.37669590394E-01  0.29211626461E-01  0.12069112756E+00  0.13143881144E+00  0.20916398347E-01 0.  0.
         14    1    1    2    0    0  0.24440479177E-02 -0.22630309995E-01  0.28224660638E-02  0.22936229319E-01  0.00000000000E+00 0. -1.
     999901    1    3    3    0    0 -0.40113638312E-01 -0.65813164653E-02 -0.12351359362E+00  0.88955495924E+00  0.88000000000E+00 0. -1.
        -11    1    4    4    0    0  0.23039692992E-01  0.14239656233E-01  0.92091077472E-01  0.95992827512E-01  0.51100000000E-03 0.  1.
         11    1    4    4    0    0  0.14629897402E-01  0.14971970228E-01  0.28600050087E-01  0.35445983925E-01  0.51100000000E-03 0. -1.
</event>
<event>
 8    1  0.1131376E+005  0.1043930E+01  0.7957747E-01            NaN
         13   -1    0    0    0    0  0.00000000000E+00  0.00000000000E+00  0.74505805969E-08  0.10566000000E+00  0.10566000000E+00 0. -1.
     999900   -1    0    0    0    0 -0.00000000000E+00 -0.00000000000E+00 -0.74505805969E-08  0.93827000000E+00  0.93827000000E+00 0.  1.
     999902    2    1    2    0    0 -0.86613332738E-02 -0.33030186245E-02  0.18797733092E-01  0.10229709114E+01  0.10227561792E+01 0.  0.
     999903    2    3    3    0    0 -0.11085523501E+00 -0.61644623361E-01  0.41810355511E-01  0.13483977401E+00  0.18566531951E-01 0.  0.
         14    1    1    2    0    0  0.86613332738E-02  0.33030186245E-02 -0.18797733092E-01  0.20959088613E-01  0.00000000000E+00 0.  1.
     999901    1    3    3    0    0  0.10219390173E+00  0.58341604736E-01 -0.23012622419E-01  0.88813113738E+00  0.88000000000E+00 0. -1.
        -11    1    4    4    0    0 -0.91862937803E-01 -0.42493434679E-01  0.32808450618E-01  0.10640087822E+00  0.51100000000E-03 0.  1.
         11    1    4    4    0    0 -0.18992297203E-01 -0.19151188682E-01  0.90019048929E-02  0.28438895788E-01  0.51100000000E-03 0. -1.
</event>
<event>
 8    1  0.1131376E+005  0.1043930E+01  0.7957747E-01            NaN
         13   -1    0    0    0    0  0.00000000000E+00  0.00000000000E+00  0.74505805969E-08  0.10566000000E+00  0.10566000000E+00 0.  1.
     999900   -1    0    0    0    0 -0.00000000000E+00 -0.00000000000E+00 -0.74505805969E-08  0.93827000000E+00  0.93827000000E+00 0. -1.
     999902    2    1    2    0    0  0.39422656632E-02 -0.85355188762E-02  0.19614533018E-01  0.10221785300E+01  0.10219470734E+01 0.  0.
     999903    2    3    3    0    0  0.50887203838E-01  0.41992382124E-01 -0.11021176888E+00  0.12998361596E+00  0.19905746585E-01 0.  0.
         14    1    1    2    0    0 -0.39422656632E-02  0.85355188762E-02 -0.19614533018E-01  0.21751469986E-01  0.00000000000E+00 0. -1.
     999901    1    3    3    0    0 -0.46944938174E-01 -0.50527901001E-01  0.12982630190E+00  0.89219491405E+00  0.88000000000E+00 0.  1.
        -11    1    4    4    0    0  0.58226808118E-02  0.13204164916E-01 -0.15267195651E-01  0.21014327660E-01  0.51100000000E-03 0.  1.
         11    1    4    4    0    0  0.45064523026E-01  0.28788217208E-01 -0.94944573231E-01  0.10896928830E+00  0.51100000000E-03 0. -1.
</event>
<event>
 8    1  0.1131376E+005  0.1043930E+01  0.7957747E-01            NaN
         13   -1    0    0    0    0  0.00000000000E+00  0.00000000000E+00  0.74505805969E-08  0.10566000000E+00  0.10566000000E+00 0. -1.
     999900   -1    0    0    0    0 -0.00000000000E+00 -0.00000000000E+00 -0.74505805969E-08  0.93827000000E+00  0.93827000000E+00 0.  1.
     999902    2    1    2    0    0 -0.17826120191E-01  0.15273861405E-01  0.33911062071E-02  0.10202116315E+01  0.10199358862E+01 0.  0.
     999903    2    3    3    0    0  0.34277806434E-01  0.11108105711E+00  0.57932990768E-01  0.13180369868E+00  0.22405675689E-01 0.  0.
         14    1    1    2    0    0  0.17826120191E-01 -0.15273861405E-01 -0.33911062071E-02  0.23718368506E-01  0.00000000000E+00 0.  1.
     999901    1    3    3    0    0 -0.52103926625E-01 -0.95807195706E-01 -0.54541884561E-01  0.88840793282E+00  0.88000000000E+00 0. -1.
        -11    1    4    4    0    0  0.14705426619E-01  0.18180117845E-01  0.98133714834E-02  0.25363943655E-01  0.51100000000E-03 0. -1.
         11    1    4    4    0    0  0.19572379815E-01  0.92900939267E-01  0.48119619284E-01  0.10643975502E+00  0.51100000000E-03 0.  1.
</event>
<event>
 8    1  0.1131376E+005  0.1043930E+01  0.7957747E-01            NaN
         13   -1    0    0    0    0  0.00000000000E+00  0.00000000000E+00  0.74505805969E-08  0.10566000000E+00  0.10566000000E+00 0. -1.
     999900   -1    0    0    0    0 -0.00000000000E+00 -0.00000000000E+00 -0.74505805969E-08  0.93827000000E+00  0.93827000000E+00 0. -1.
     999902    2    1    2    0    0  0.16185872703E-01  0.13696047331E-01 -0.98000310714E-02  0.10205718152E+01  0.10203044767E+01 0.  0.
     999903    2    3    3    0    0  0.38435768836E-01  0.10247510989E+00  0.71315291863E-01  0.13211445808E+00  0.19745954188E-01 0.  0.
         14    1    1    2    0    0 -0.16185872703E-01 -0.13696047331E-01  0.98000310714E-02  0.23358184789E-01  0.00000000000E+00 0. -1.
     999901    1    3    3    0    0 -0.22249896133E-01 -0.88779062560E-01 -0.81115322934E-01  0.88845735713E+00  0.88000000000E+00 0. -1.
        -11    1    4    4    0    0  0.43638994292E-02  0.25845302790E-01  0.25402923778E-01  0.36504697670E-01  0.51100000000E-03 0.  1.
         11    1    4    4    0    0  0.34071869407E-01  0.76629807101E-01  0.45912368085E-01  0.95609760408E-01  0.51100000000E-03 0. -1.
</event>
<event>
 8    1  0.1131376E+005  0.1043930E+01  0.7957747E-01            NaN
         13   -1    0    0    0    0  0.00000000000E+00  0.00000000000E+00  0.74505805969E-08  0.10566000000E+00  0.10566000000E+00 0.  1.
     999900   -1    0    0    0    0 -0.00000000000E+00 -0.00000000000E+00 -0.74505805969E-08  0.93827000000E+00  0.93827000000E+00 0. -1.
     999902    2    1    2    0    0 -0.13950596703E-01 -0.12021008423E-01  0.15395007946E-01  0.10199272905E+01  0.10196448146E+01 0.  0.
     999903    2    3    3    0    0 -0.48443634889E-01  0.80549502448E-01 -0.85305131820E-01  0.12869242401E+00  0.21207696172E-01 0.  0.
         14    1    1    2    0    0  0.13950596703E-01  0.12021008423E-01 -0.15395007946E-01  0.24002709462E-01  0.00000000000E+00 0. -1.
     999901    1    3    3    0    0  0.34493038186E-01 -0.92570510871E-01  0.10070013977E+00  0.89123486653E+00  0.88000000000E+00 0.  1.
        -11    1    4    4    0    0 -0.88478465850E-02  0.16044376295E-01 -0.65577254676E-02  0.19467184804E-01  0.51100000000E-03 0. -1.
         11    1    4    4    0    0 -0.39595788304E-01  0.64505126153E-01 -0.78747406352E-01  0.10922523921E+00  0.51100000000E-03 0.  1.
</event>
<event>
 8    1  0.1131376E+005  0.1043930E+01  0.7957747E-01            NaN
         13   -1    0    0    0    0  0.00000000000E+00  0.00000000000E+00  0.74505805969E-08  0.10566000000E+00  0.10566000000E+00 0.  1.
     999900   -1    0    0    0    0 -0.00000000000E+00 -0.00000000000E+00 -0.74505805969E-08  0.93827000000E+00  0.93827000000E+00 0. -1.
     999902    2    1    2    0    0  0.11409573406E-01 -0.14492996508E-01 -0.15389994412E-01  0.10199075680E+01  0.10196246221E+01 0.  0.
     999903    2    3    3    0    0 -0.86491568554E-01 -0.61187104803E-02  0.91892312459E-01  0.12796348023E+00  0.20303328191E-01 0.  0.
         14    1    1    2    0    0 -0.11409573406E-01  0.14492996508E-01  0.15389994412E-01  0.24022432039E-01  0.00000000000E+00 0.  1.
     999901    1    3    3    0    0  0.97901141960E-01 -0.83742860273E-02 -0.10728230687E+00  0.89194408773E+00  0.88000000000E+00 0. -1.
        -11    1    4    4    0    0 -0.77378011447E-01 -0.11077940162E-01  0.76346526164E-01  0.10926632872E+00  0.51100000000E-03 0. -1.
         11    1    4    4    0    0 -0.91135571063E-02  0.49592296821E-02  0.15545786295E-01  0.18697151513E-01  0.51100000000E-03 0.  1.
</event>
<event>
 8    1  0.1131376E+005  0.1043930E+01  0.7957747E-01            NaN
         13   -1    0    0    0    0  0.00000000000E+00  0.00000000000E+00  0.74505805969E-08  0.10566000000E+00  0.10566000000E+00 0.  1.
     999900   -1    0    0    0    0 -0.00000000000E+00 -0.00000000000E+00 -0.74505805969E-08  0.93827000000E+00  0.93827000000E+00 0.  1.
     999902    2    1    2    0    0 -0.68788825333E-02  0.22801591611E-01 -0.11286054883E-02  0.10200866497E+01  0.10198079562E+01 0.  0.
     999903    2    3    3    0    0  0.55659016857E-01 -0.10403235440E+00  0.46881277571E-01  0.12750455955E+00  0.11785652243E-01 0.  0.
         14    1    1    2    0    0  0.68788825333E-02 -0.22801591611E-01  0.11286054883E-02  0.23843350337E-01  0.00000000000E+00 0. -1.
     999901    1    3    3    0    0 -0.62537899391E-01  0.12683394601E+00 -0.48009883059E-01  0.89258209011E+00  0.88000000000E+00 0.  1.
        -11    1    4    4    0    0  0.10562004515E-01 -0.13156660922E-01  0.39014325477E-02  0.17324432542E-01  0.51100000000E-03 0. -1.
         11    1    4    4    0    0  0.45097012342E-01 -0.90875693482E-01  0.42979845023E-01  0.11018012701E+00  0.51100000000E-03 0.  1.
</event>
<event>
 8    1  0.1131376E+005  0.1043930E+01  0.7957747E-01            NaN
         13   -1    0    0    0    0  0.00000000000E+00  0.00000000000E+00  0.74505805969E-08  0.10566000000E+00  0.10566000000E+00 0.  1.
     999900   -1    0    0    0    0 -0.00000000000E+00 -0.00000000000E+00 -0.74505805969E-08  0.93827000000E+00  0.93827000000E+00 0.  1.
     999902    2    1    2    0    0  0.21338739233E-01 -0.98137133186E-02  0.15447710542E-02  0.10203920078E+01  0.10201204892E+01 0.  0.
     999903    2    3    3    0    0 -0.96601042310E-01 -0.78570023968E-01 -0.28429594650E-01  0.12936132090E+00  0.20520707863E-01 0.  0.
         14    1    1    2    0    0 -0.21338739233E-01  0.98137133186E-02 -0.15447710542E-02  0.23537992241E-01  0.00000000000E+00 0. -1.
     999901    1    3    3    0    0  0.11793978154E+00  0.68756310650E-01  0.29974365704E-01  0.89103068686E+00  0.88000000000E+00 0.  1.
        -11    1    4    4    0    0 -0.56177050897E-01 -0.39810966944E-01 -0.63021654067E-02  0.69142986241E-01  0.51100000000E-03 0.  1.
         11    1    4    4    0    0 -0.40423991414E-01 -0.38759057024E-01 -0.22127429243E-01  0.60218334659E-01  0.51100000000E-03 0. -1.
</event>
<event>
 8    1  0.1131376E+005  0.1043930E+01  0.7957747E-01            NaN
         13   -1    0    0    0    0  0.00000000000E+00  0.00000000000E+00  0.74505805969E-08  0.10566000000E+00  0.10566000000E+00 0.  1.
     999900   -1    0    0    0    0 -0.00000000000E+00 -0.00000000000E+00 -0.74505805969E-08  0.93827000000E+00  0.93827000000E+00 0. -1.
     999902    2    1    2    0    0 -0.57719864887E-02  0.62815407989E-02 -0.21754391569E-01  0.10205627765E+01  0.10202952286E+01 0.  0.
     999903    2    3    3    0    0  0.95057072935E-02 -0.12263967377E+00 -0.39398134617E-01  0.13086317034E+00  0.21026371198E-01 0.  0.
         14    1    1    2    0    0  0.57719864887E-02 -0.62815407989E-02  0.21754391569E-01  0.23367223527E-01  0.00000000000E+00 0.  1.
     999901    1    3    3    0    0 -0.15277693782E-01  0.12892121457E+00  0.17643743048E-01  0.88969960614E+00  0.88000000000E+00 0.  1.
        -11    1    4    4    0    0  0.45459633000E-02 -0.10908514444E+00 -0.40327689658E-01  0.11639079944E+00  0.51100000000E-03 0. -1.
         11    1    4    4    0    0  0.49597439935E-02 -0.13554529324E-01  0.92955504132E-03  0.14472370892E-01  0.51100000000E-03 0.  1.
</event>
<event>
 8    1  0.1131376E+005  0.1043930E+01  0.7957747E-01            NaN
         13   -1    0    0    0    0  0.00000000000E+00  0.00000000000E+00  0.74505805969E-08  0.10566000000E+00  0.10566000000E+00 0. -1.
     999900   -1    0    0    0    0 -0.00000000000E+00 -0.00000000000E+00 -0.74505805969E-08  0.93827000000E+00  0.93827000000E+00 0.  1.
     999902    2    1    2    0    0  0.20250162217E-01  0.57055850286E-02  0.10331595036E-01  0.10204914713E+01  0.10202222691E+01 0.  0.
     999903    2    3    3    0    0 -0.33239449807E-01  0.10860185801E+00 -0.60008493196E-01  0.13010025978E+00  0.20635739713E-01 0.  0.
         14    1    1    2    0    0 -0.20250162217E-01 -0.57055850286E-02 -0.10331595036E-01  0.23438528672E-01  0.00000000000E+00 0.  1.
     999901    1    3    3    0    0  0.53489612024E-01 -0.10289627298E+00  0.70340088233E-01  0.89039121155E+00  0.88000000000E+00 0. -1.
        -11    1    4    4    0    0 -0.26597902531E-01  0.78604860155E-01 -0.33403214270E-01  0.89455063040E-01  0.51100000000E-03 0. -1.
         11    1    4    4    0    0 -0.66415472764E-02  0.29996997851E-01 -0.26605278927E-01  0.40645196740E-01  0.51100000000E-03 0.  1.
</event>
<event>
 8    1  0.1131376E+005  0.1043930E+01  0.7957747E-01            NaN
         13   -1    0    0    0    0  0.00000000000E+00  0.00000000000E+00  0.74505805969E-08  0.10566000000E+00  0.10566000000E+00 0. -1.
     999900   -1    0    0    0    0 -0.00000000000E+00 -0.00000000000E+00 -0.74505805969E-08  0.93827000000E+00  0.93827000000E+00 0.  1.
     999902    2    1    2    0    0  0.87144632524E-02 -0.95319293761E-02 -0.19026045309E-01  0.10209345668E+01  0.10206755605E+01 0.  0.
     999903    2    3    3    0    0 -0.36378666089E-01  0.12239062942E+00  0.80774208334E-02  0.12954713718E+00  0.20355404876E-01 0.  0.
         14    1    1    2    0    0 -0.87144632524E-02  0.95319293761E-02  0.19026045309E-01  0.22995433188E-01  0.00000000000E+00 0. -1.
     999901    1    3    3    0    0  0.45093129342E-01 -0.13192255879E+00 -0.27103466142E-01  0.89138742963E+00  0.88000000000E+00 0.  1.
        -11    1    4    4    0    0 -0.23365479159E-01  0.69735344096E-01 -0.51114336091E-02  0.73724837789E-01  0.51100000000E-03 0.  1.
         11    1    4    4    0    0 -0.13013186930E-01  0.52655285323E-01  0.13188854443E-01  0.55822299388E-01  0.51100000000E-03 0. -1.
</event>
<event>
 8    1  0.1131376E+005  0.1043930E+01  0.7957747E-01            NaN
         13   -1    0    0    0    0  0.00000000000E+00  0.00000000000E+00  0.74505805969E-08  0.10566000000E+00  0.10566000000E+00 0. -1.
     999900   -1    0    0    0    0 -0.00000000000E+00 -0.00000000000E+00 -0.74505805969E-08  0.93827000000E+00  0.93827000000E+00 0. -1.
     999902    2    1    2    0    0  0.17370439755E-01 -0.10152417578E-01 -0.12948711336E-01  0.10200035944E+01  0.10197229328E+01 0.  0.
     999903    2    3    3    0    0 -0.81144741871E-02  0.78476401256E-01  0.98987395115E-01  0.12813239277E+00  0.19874995315E-01 0.  0.
         14    1    1    2    0    0 -0.17370439755E-01  0.10152417578E-01  0.12948711336E-01  0.23926405606E-01  0.00000000000E+00 0. -1.
     999901    1    3    3    0    0  0.25484913942E-01 -0.88628818834E-01 -0.11193610645E+00  0.89187120163E+00  0.88000000000E+00 0. -1.
        -11    1    4    4    0    0 -0.55916511665E-02  0.21047255859E-01  0.41295180682E-01  0.46688399100E-01  0.51100000000E-03 0. -1.
         11    1    4    4    0    0 -0.25228230206E-02  0.57429145397E-01  0.57692214433E-01  0.81443993666E-01  0.51100000000E-03 0.  1.
</event>
<event>
 8    1  0.1131376E+005  0.1043930E+01  0.7957747E-01            NaN
         13   -1    0    0    0    0  0.00000000000E+00  0.00000000000E+00  0.74505805969E-08  0.10566000000E+00  0.10566000000E+00 0. -1.
     999900   -1    0    0    0    0 -0.00000000000E+00 -0.00000000000E+00 -0.74505805969E-08  0.93827000000E+00  0.93827000000E+00 0.  1.
     999902    2    1    2    0    0 -0.56051848853E-02  0.51732595272E-02  0.21632919227E-01  0.10209917371E+01  0.10207340316E+01 0.  0.
     999903    2    3    3    0    0  0.86433216438E-01  0.29386569545E-01 -0.89087480875E-01  0.12896238851E+00  0.18985442546E-01 0.  0.
         14    1    1    2    0    0  0.56051848853E-02 -0.51732595272E-02 -0.21632919227E-01  0.22938262925E-01  0.00000000000E+00 0.  1.
     999901    1    3    3    0    0 -0.92038401323E-01 -0.24213310018E-01  0.11072040010E+00  0.89202934856E+00  0.88000000000E+00 0. -1.
        -11    1    4    4    0    0  0.36813001481E-01  0.22410752947E-01 -0.42923974239E-01  0.60829003042E-01  0.51100000000E-03 0.  1.
         11    1    4    4    0    0  0.49620214957E-01  0.69758165977E-02 -0.46163506636E-01  0.68133385469E-01  0.51100000000E-03 0. -1.
</event>
<event>
 8    1  0.1131376E+005  0.1043930E+01  0.7957747E-01            NaN
         13   -1    0    0    0    0  0.00000000000E+00  0.00000000000E+00  0.74505805969E-08  0.10566000000E+00  0.10566000000E+00 0. -1.
     999900   -1    0    0    0    0 -0.00000000000E+00 -0.00000000000E+00 -0.74505805969E-08  0.93827000000E+00  0.93827000000E+00 0. -1.
     999902    2    1    2    0    0  0.20627198878E-02  0.69738518318E-02  0.22508588893E-01  0.10202756981E+01  0.10200014579E+01 0.  0.
     999903    2    3    3    0    0  0.59664982854E-01  0.25416995229E-01 -0.10896748391E+00  0.12845501663E+00  0.20514505174E-01 0.  0.
         14    1    1    2    0    0 -0.20627198878E-02 -0.69738518318E-02 -0.22508588893E-01  0.23654301864E-01  0.00000000000E+00 0.  1.
     999901    1    3    3    0    0 -0.57602262966E-01 -0.18443143398E-01  0.13147607281E+00  0.89182068150E+00  0.88000000000E+00 0.  1.
        -11    1    4    4    0    0  0.33752169424E-01  0.87481640933E-02 -0.40970532824E-01  0.53801347536E-01  0.51100000000E-03 0.  1.
         11    1    4    4    0    0  0.25912813430E-01  0.16668831136E-01 -0.67996951088E-01  0.74653669097E-01  0.51100000000E-03 0. -1.
</event>
<event>
 8    1  0.1131376E+005  0.1043930E+01  0.7957747E-01            NaN
         13   -1    0    0    0    0  0.00000000000E+00  0.00000000000E+00  0.74505805969E-08  0.10566000000E+00  0.10566000000E+00 0. -1.
     999900   -1    0    0    0    0 -0.00000000000E+00 -0.00000000000E+00 -0.74505805969E-08  0.93827000000E+00  0.93827000000E+00 0.  1.
     999902    2    1    2    0    0  0.18260803568E-01  0.92728693325E-02 -0.11582917006E-01  0.10204011450E+01  0.10201298396E+01 0.  0.
     999903    2    3    3    0    0 -0.54564303658E-01 -0.76614072652E-01  0.84604723136E-01  0.12802671394E+00  0.19644361596E-01 0.  0.
         14    1    1    2    0    0 -0.18260803568E-01 -0.92728693325E-02  0.11582917006E-01  0.23528855029E-01  0.00000000000E+00 0. -1.
     999901    1    3    3    0    0  0.72825107226E-01  0.85886941985E-01 -0.96187640143E-01  0.89237443103E+00  0.88000000000E+00 0.  1.
        -11    1    4    4    0    0 -0.41000696096E-01 -0.53133106331E-01  0.48200663050E-01  0.82630194894E-01  0.51100000000E-03 0. -1.
         11    1    4    4    0    0 -0.13563607562E-01 -0.23480966321E-01  0.36404060086E-01  0.45396519043E-01  0.51100000000E-03 0.  1.
</event>
<event>
 8    1  0.1131376E+005  0.1043930E+01  0.7957747E-01            NaN
         13   -1    0    0    0    0  0.00000000000E+00  0.00000000000E+00  0.74505805969E-08  0.10566000000E+00  0.10566000000E+00 0.  1.
     999900   -1    0    0    0    0 -0.00000000000E+00 -0.00000000000E+00 -0.74505805969E-08  0.93827000000E+00  0.93827000000E+00 0.  1.
     999902    2    1    2    0    0 -0.20385201502E-01  0.88358965289E-02  0.11350127938E-01  0.10189809537E+01  0.10186754778E+01 0.  0.
     999903    2    3    3    0    0  0.44320434970E-01 -0.11466732746E+00 -0.25960805948E-01  0.12722315500E+00  0.19971749528E-01 0.  0.
         14    1    1    2    0    0  0.20385201502E-01 -0.88358965289E-02 -0.11350127938E-01  0.24949046314E-01  0.00000000000E+00 0. -1.
     999901    1    3    3    0    0 -0.64705636472E-01  0.12350322399E+00  0.37310933886E-01  0.89175779869E+00  0.88000000000E+00 0.  1.
        -11    1    4    4    0    0  0.36423099811E-01 -0.95298726158E-01 -0.13610799511E-01  0.10292718004E+00  0.51100000000E-03 0.  1.
         11    1    4    4    0    0  0.78973351590E-02 -0.19368601307E-01 -0.12350006438E-01  0.24295974959E-01  0.51100000000E-03 0. -1.
</event>
<event>
 8    1  0.1131376E+005  0.1043930E+01  0.7957747E-01            NaN
         13   -1    0    0    0    0  0.00000000000E+00  0.00000000000E+00  0.74505805969E-08  0.10566000000E+00  0.10566000000E+00 0. -1.
     999900   -1    0    0    0    0 -0.00000000000E+00 -0.00000000000E+00 -0.74505805969E-08  0.93827000000E+00  0.93827000000E+00 0.  1.
     999902    2    1    2    0    0  0.11224285234E-01 -0.10610323525E-01  0.18024300299E-01  0.10201931311E+01  0.10199169504E+01 0.  0.
     999903    2    3    3    0    0 -0.10269325691E+00 -0.68640863436E-01 -0.33631229480E-01  0.12945577152E+00  0.19242246124E-01 0.  0.
         14    1    1    2    0    0 -0.11224285234E-01  0.10610323525E-01 -0.18024300299E-01  0.23736868908E-01  0.00000000000E+00 0.  1.
     999901    1    3    3    0    0  0.11391754215E+00  0.58030539911E-01  0.51655529779E-01  0.89073735957E+00  0.88000000000E+00 0. -1.
        -11    1    4    4    0    0 -0.63405868045E-01 -0.46502168897E-01 -0.12379060475E-01  0.79600616040E-01  0.51100000000E-03 0. -1.
         11    1    4    4    0    0 -0.39287388869E-01 -0.22138694539E-01 -0.21252169005E-01  0.49855155485E-01  0.51100000000E-03 0.  1.
</event>
<event>
 8    1  0.1131376E+005  0.1043930E+01  0.7957747E-01            NaN
         13   -1    0    0    0    0  0.00000000000E+00  0.00000000000E+00  0.74505805969E-08  0.10566000000E+00  0.10566000000E+00 0.  1.
     999900   -1    0    0    0    0 -0.00000000000E+00 -0.00000000000E+00 -0.74505805969E-08  0.93827000000E+00  0.93827000000E+00 0. -1.
     999902    2    1    2    0    0  0.10315750993E-01 -0.98549024820E-02 -0.19659584085E-01  0.10196394037E+01  0.10193500285E+01 0.  0.
     999903    2    3    3    0    0  0.12171182734E+00 -0.44786992502E-01 -0.91039087582E-02  0.13186648285E+00  0.22050953133E-01 0.  0.
         14    1    1    2    0    0 -0.10315750993E-01  0.98549024820E-02  0.19659584085E-01  0.24290596285E-01  0.00000000000E+00 0.  1.
     999901    1    3    3    0    0 -0.11139607634E+00  0.34932090020E-01 -0.10555675327E-01  0.88777292086E+00  0.88000000000E+00 0. -1.
        -11    1    4    4    0    0  0.42350304601E-01 -0.11300024689E-01  0.65355740088E-02  0.44319450655E-01  0.51100000000E-03 0. -1.
         11    1    4    4    0    0  0.79361522735E-01 -0.33486967813E-01 -0.15639482767E-01  0.87547032196E-01  0.51100000000E-03 0.  1.
</event>
<event>
 8    1  0.1131376E+005  0.1043930E+01  0.7957747E-01            NaN
         13   -1    0    0    0    0  0.00000000000E+00  0.00000000000E+00  0.74505805969E-08  0.10566000000E+00  0.10566000000E+00 0.  1.
     999900   -1    0    0    0    0 -0.00000000000E+00 -0.00000000000E+00 -0.74505805969E-08  0.93827000000E+00  0.93827000000E+00 0. -1.
     999902    2    1    2    0    0 -0.13073725196E-01  0.27934439604E-02 -0.18754838806E-01  0.10208980744E+01  0.10206382359E+01 0.  0.
     999903    2    3    3    0    0 -0.47970783131E-01 -0.14879016799E-01  0.11821647830E+00  0.12944349772E+00  0.16059333220E-01 0.  0.
         14    1    1    2    0    0  0.13073725196E-01 -0.27934439604E-02  0.18754838806E-01  0.23031925632E-01  0.00000000000E+00 0.  1.
     999901    1    3    3    0    0  0.34897057935E-01  0.17672460759E-01 -0.13697131711E+00  0.89145457665E+00  0.88000000000E+00 0. -1.
        -11    1    4    4    0    0 -0.91364465885E-02  0.27780152007E-02  0.29309318918E-01  0.30830006831E-01  0.51100000000E-03 0. -1.
         11    1    4    4    0    0 -0.38834336542E-01 -0.17657032000E-01  0.88907159386E-01  0.98613490886E-01  0.51100000000E-03 0.  1.
</event>
<event>
 8    1  0.1131376E+005  0.1043930E+01  0.7957747E-01            NaN
         13   -1    0    0    0    0  0.00000000000E+00  0.00000000000E+00  0.74505805969E-08  0.10566000000E+00  0.10566000000E+00 0.  1.
     999900   -1    0    0    0    0 -0.00000000000E+00 -0.00000000000E+00 -0.74505805969E-08  0.93827000000E+00  0.93827000000E+00 0. -1.
     999902    2    1    2    0    0  0.23459271933E-02 -0.22587371422E-01 -0.73272420472E-02  0.10200682901E+01  0.10197891622E+01 0.  0.
     999903    2    3    3    0    0 -0.10459237444E+00 -0.77189537973E-01  0.54112224338E-02  0.13182312947E+00  0.21219485633E-01 0.  0.
         14    1    1    2    0    0 -0.23459271933E-02  0.22587371422E-01  0.73272420472E-02  0.23861709875E-01  0.00000000000E+00 0.  1.
     999901    1    3    3    0    0  0.10693830164E+00  0.54602166551E-01 -0.12738464481E-01  0.88824516065E+00  0.88000000000E+00 0. -1.
        -11    1    4    4    0    0 -0.34156432430E-01 -0.18210062900E-01  0.95101895773E-02  0.39861925367E-01  0.51100000000E-03 0. -1.
         11    1    4    4    0    0 -0.70435942014E-01 -0.58979475073E-01 -0.40989671435E-02  0.91961204102E-01  0.51100000000E-03 0.  1.
</event>
<event>
 8    1  0.1131376E+005  0.1043930E+01  0.7957747E-01            NaN
         13   -1    0    0    0    0  0.00000000000E+00  0.00000000000E+00  0.74505805969E-08  0.10566000000E+00  0.10566000000E+00 0. -1.
     999900   -1    0    0    0    0 -0.00000000000E+00 -0.00000000000E+00 -0.74505805969E-08  0.93827000000E+00  0.93827000000E+00 0.  1.
     999902    2    1    2    0    0 -0.14897767241E-01 -0.19420592020E-01  0.19896623064E-02  0.10193726871E+01  0.10190768438E+01 0.  0.
     999903    2    3    3    0    0 -0.59211680673E-01  0.31925924673E-01 -0.10804618371E+00  0.12993012280E+00  0.26126063618E-01 0.  0.
         14    1    1    2    0    0  0.14897767241E-01  0.19420592020E-01 -0.19896623064E-02  0.24557312949E-01  0.00000000000E+00 0. -1.
     999901    1    3    3    0    0  0.44313913432E-01 -0.51346516693E-01  0.11003584602E+00  0.88944256426E+00  0.88000000000E+00 0. -1.
        -11    1    4    4    0    0 -0.46238534231E-01  0.33661345819E-01 -0.74543774810E-01  0.93958095628E-01  0.51100000000E-03 0. -1.
         11    1    4    4    0    0 -0.12973146441E-01 -0.17354211455E-02 -0.33502408904E-01  0.35972027167E-01  0.51100000000E-03 0.  1.
</event>
<event>
 8    1  0.1131376E+005  0.1043930E+01  0.7957747E-01            NaN
         13   -1    0    0    0    0  0.00000000000E+00  0.00000000000E+00  0.74505805969E-08  0.10566000000E+00  0.10566000000E+00 0.  1.
     999900   -1    0    0    0    0 -0.00000000000E+00 -0.00000000000E+00 -0.74505805969E-08  0.93827000000E+00  0.93827000000E+00 0. -1.
     999902    2    1    2    0    0 -0.18594535312E-01  0.61436739184E-02  0.14083408778E-01  0.10198085598E+01  0.10195232488E+01 0.  0.
     999903    2    3    3    0    0 -0.10906145795E+00  0.17428441595E-02 -0.70016175765E-01  0.13117119200E+00  0.20153848934E-01 0.  0.
         14    1    1    2    0    0  0.18594535312E-01 -0.61436739184E-02 -0.14083408778E-01  0.24121440162E-01  0.00000000000E+00 0. -1.
     999901    1    3    3    0    0  0.90466922637E-01  0.44008297589E-02  0.84099584543E-01  0.88863736784E+00  0.88000000000E+00 0. -1.
        -11    1    4    4    0    0 -0.50439477213E-01 -0.30964555160E-02 -0.21495668853E-01  0.54918610677E-01  0.51100000000E-03 0. -1.
         11    1    4    4    0    0 -0.58621980736E-01  0.48392996755E-02 -0.48520506911E-01  0.76252581325E-01  0.51100000000E-03 0.  1.
</event>
<event>
 7    1  0.1131376E+005  0.1043930E+01  0.7957747E-01            NaN
         13   -1    0    0    0    0  0.00000000000E+00  0.00000000000E+00  0.74505805969E-08  0.10566000000E+00  0.10566000000E+00 0. -1.
     999900   -1    0    0    0    0 -0.00000000000E+00 -0.00000000000E+00 -0.74505805969E-08  0.93827000000E+00  0.93827000000E+00 0.  1.
     999902    2    1    2    0    0 -0.55007206271E-02 -0.32654004849E-02  0.15774407372E-01  0.10269078763E+01  0.10267667864E+01 0.  0.
         14    1    1    2    0    0  0.55007206271E-02  0.32654004849E-02 -0.15774407372E-01  0.17022123713E-01  0.00000000000E+00 0.  1.
     999901    1    3    3    0    0 -0.58983375437E-01 -0.11041730013E+00 -0.40421965760E-01  0.88977803640E+00  0.88000000000E+00 0. -1.
        -11    1    3    3    0    0  0.45343942051E-01  0.10524090502E+00  0.58186466804E-01  0.12852099910E+00  0.51100000000E-03 0. -1.
         11    1    3    3    0    0  0.81387127593E-02  0.19109946300E-02 -0.19900936718E-02  0.86088407859E-02  0.51100000000E-03 0.  1.
</event>
<event>
 8    1  0.1131376E+005  0.1043930E+01  0.7957747E-01            NaN
         13   -1    0    0    0    0  0.00000000000E+00  0.00000000000E+00  0.74505805969E-08  0.10566000000E+00  0.10566000000E+00 0. -1.
     999900   -1    0    0    0    0 -0.00000000000E+00 -0.00000000000E+00 -0.74505805969E-08  0.93827000000E+00  0.93827000000E+00 0.  1.
     999902    2    1    2    0    0  0.10994694076E-01  0.21654488870E-01  0.30502911424E-02  0.10194533895E+01  0.10191595110E+01 0.  0.
     999903    2    3    3    0    0 -0.66402060303E-01 -0.47597736066E-01  0.95886775016E-01  0.12849618458E+00  0.25342015249E-01 0.  0.
         14    1    1    2    0    0 -0.10994694076E-01 -0.21654488870E-01 -0.30502911424E-02  0.24476610510E-01  0.00000000000E+00 0. -1.
     999901    1    3    3    0    0  0.77396754378E-01  0.69252224936E-01 -0.92836483874E-01  0.89095720491E+00  0.88000000000E+00 0.  1.
        -11    1    4    4    0    0 -0.50476083288E-01 -0.27907161050E-01  0.51180140118E-01  0.77112336792E-01  0.51100000000E-03 0. -1.
         11    1    4    4    0    0 -0.15925977014E-01 -0.19690575016E-01  0.44706634899E-01  0.51383847786E-01  0.51100000000E-03 0.  1.
</event>
<event>
 8    1  0.1131376E+005  0.1043930E+01  0.7957747E-01            NaN
         13   -1    0    0    0    0  0.00000000000E+00  0.00000000000E+00  0.74505805969E-08  0.10566000000E+00  0.10566000000E+00 0.  1.
     999900   -1    0    0    0    0 -0.00000000000E+00 -0.00000000000E+00 -0.74505805969E-08  0.93827000000E+00  0.93827000000E+00 0.  1.
     999902    2    1    2    0    0 -0.10572112378E-01 -0.14665292626E-02 -0.22614475635E-01  0.10189233054E+01  0.10186163986E+01 0.  0.
     999903    2    3    3    0    0  0.56656200310E-01  0.69262871964E-01  0.87739873552E-01  0.12667873317E+00  0.18491770094E-01 0.  0.
         14    1    1    2    0    0  0.10572112378E-01  0.14665292626E-02  0.22614475635E-01  0.25006694633E-01  0.00000000000E+00 0.  1.
     999901    1    3    3    0    0 -0.67228312689E-01 -0.70729401227E-01 -0.11035434919E+00  0.89224457219E+00  0.88000000000E+00 0.  1.
        -11    1    4    4    0    0  0.16636083470E-01  0.87231876547E-02  0.17327157228E-01  0.25560609826E-01  0.51100000000E-03 0.  1.
         11    1    4    4    0    0  0.40020116840E-01  0.60539684309E-01  0.70412716324E-01  0.10111812335E+00  0.51100000000E-03 0. -1.
</event>
<event>
 8    1  0.1131376E+005  0.1043930E+01  0.7957747E-01            NaN
         13   -1    0    0    0    0  0.00000000000E+00  0.00000000000E+00  0.74505805969E-08  0.10566000000E+00  0.10566000000E+00 0. -1.
     999900   -1    0    0    0    0 -0.00000000000E+00 -0.00000000000E+00 -0.74505805969E-08  0.93827000000E+00  0.93827000000E+00 0.  1.
     999902    2    1    2    0    0  0.10166008437E-02  0.20795154946E-01  0.11017453111E-01  0.10203746138E+01  0.10201026891E+01 0.  0.
     999903    2    3    3    0    0 -0.25259153415E-01 -0.12089130780E+00 -0.26588661812E-01  0.12786148287E+00  0.19719754829E-01 0.  0.
         14    1    1    2    0    0 -0.10166008437E-02 -0.20795154946E-01 -0.11017453111E-01  0.23555386211E-01  0.00000000000E+00 0.  1.
     999901    1    3    3    0    0  0.26275754259E-01  0.14168646275E+00  0.37606114923E-01  0.89251313092E+00  0.88000000000E+00 0.  1.
        -11    1    4    4    0    0 -0.14175376009E-01 -0.46538834046E-01 -0.19272062407E-01  0.52330467892E-01  0.51100000000E-03 0.  1.
         11    1    4    4    0    0 -0.11083777406E-01 -0.74352473757E-01 -0.73165994056E-02  0.75531014976E-01  0.51100000000E-03 0. -1.
</event>
<event>
 8    1  0.1131376E+005  0.1043930E+01  0.7957747E-01            NaN
         13   -1    0    0    0    0  0.00000000000E+00  0.00000000000E+00  0.74505805969E-08  0.10566000000E+00  0.10566000000E+00 0. -1.
     999900   -1    0    0    0    0 -0.00000000000E+00 -0.00000000000E+00 -0.74505805969E-08  0.93827000000E+00  0.93827000000E+00 0.  1.
     999902    2    1    2    0    0  0.70080468992E-02 -0.20873866633E-01 -0.89964088593E-02  0.10201441554E+01  0.10198668205E+01 0.  0.
     999903    2    3    3    0    0 -0.12524504670E-01  0.23744548315E-01 -0.12668404580E+00  0.13097448466E+00  0.19616354927E-01 0.  0.
         14    1    1    2    0    0 -0.70080468992E-02  0.20873866633E-01  0.89964088593E-02  0.23785844570E-01  0.00000000000E+00 0. -1.
     999901    1    3    3    0    0  0.19532551569E-01 -0.44618414949E-01  0.11768763694E+00  0.88916967077E+00  0.88000000000E+00 0.  1.
        -11    1    4    4    0    0 -0.57416462989E-02 -0.23115704194E-02 -0.28137433170E-01  0.28814685950E-01  0.51100000000E-03 0.  1.
         11    1    4    4    0    0 -0.67828583708E-02  0.26056118735E-01 -0.98546612630E-01  0.10215979871E+00  0.51100000000E-03 0. -1.
</event>
<event>
 8    1  0.1131376E+005  0.1043930E+01  0.7957747E-01            NaN
         13   -1    0    0    0    0  0.00000000000E+00  0.00000000000E+00  0.74505805969E-08  0.10566000000E+00  0.10566000000E+00 0. -1.
     999900   -1    0    0    0    0 -0.00000000000E+00 -0.00000000000E+00 -0.74505805969E-08  0.93827000000E+00  0.93827000000E+00 0. -1.
     999902    2    1    2    0    0 -0.17688053867E-01 -0.12259772785E-01 -0.93401276665E-02  0.10204692399E+01  0.10201995209E+01 0.  0.
     999903    2    3    3    0    0 -0.12163431965E+00 -0.40442770218E-01 -0.32198832394E-01  0.13360869401E+00  0.19595737497E-01 0.  0.
         14    1    1    2    0    0  0.17688053867E-01  0.12259772785E-01  0.93401276665E-02  0.23460760072E-01  0.00000000000E+00 0. -1.
     999901    1    3    3    0    0  0.10394626579E+00  0.28182997433E-01  0.22858704727E-01  0.88686054591E+00  0.88000000000E+00 0.  1.
        -11    1    4    4    0    0 -0.50739721696E-01 -0.24832955946E-01 -0.78291770703E-02  0.57032904479E-01  0.51100000000E-03 0.  1.
         11    1    4    4    0    0 -0.70894597959E-01 -0.15609814272E-01 -0.24369655323E-01  0.76575789535E-01  0.51100000000E-03 0. -1.
</event>
<event>
 8    1  0.1131376E+005  0.1043930E+01  0.7957747E-01            NaN
         13   -1    0    0    0    0  0.00000000000E+00  0.00000000000E+00  0.74505805969E-08  0.10566000000E+00  0.10566000000E+00 0. -1.
     999900   -1    0    0    0    0 -0.00000000000E+00 -0.00000000000E+00 -0.74505805969E-08  0.93827000000E+00  0.93827000000E+00 0.  1.
     999902    2    1    2    0    0  0.73577556877E-02 -0.15280770969E-01  0.16642748593E-01  0.10201682742E+01  0.10198915080E+01 0.  0.
     999903    2    3    3    0    0  0.91021289496E-01 -0.93949700169E-01  0.95554425582E-02  0.13267820826E+00  0.20019469565E-01 0.  0.
         14    1    1    2    0    0 -0.73577556877E-02  0.15280770969E-01 -0.16642748593E-01  0.23761725756E-01  0.00000000000E+00 0.  1.
     999901    1    3    3    0    0 -0.83663533809E-01  0.78668929200E-01  0.70873060347E-02  0.88749006598E+00  0.88000000000E+00 0. -1.
        -11    1    4    4    0    0  0.24681426289E-01 -0.17521887793E-01 -0.41253722666E-02  0.30552727747E-01  0.51100000000E-03 0.  1.
         11    1    4    4    0    0  0.66339863208E-01 -0.76427812376E-01  0.13680814825E-01  0.10212548051E+00  0.51100000000E-03 0. -1.
</event>
<event>
 8    1  0.1131376E+005  0.1043930E+01  0.7957747E-01            NaN
         13   -1    0    0    0    0  0.00000000000E+00  0.00000000000E+00  0.74505805969E-08  0.10566000000E+00  0.10566000000E+00 0.  1.
     999900   -1    0    0    0    0 -0.00000000000E+00 -0.00000000000E+00 -0.74505805969E-08  0.93827000000E+00  0.93827000000E+00 0. -1.
     999902    2    1    2    0    0  0.20732628502E-01  0.56711194532E-02 -0.54564113036E-02  0.10217539791E+01  0.10215132979E+01 0.  0.
     999903    2    3    3    0    0  0.51989388120E-01  0.11420858428E+00 -0.41561693641E-01  0.13380073834E+00  0.20706665648E-01 0.  0.
         14    1    1    2    0    0 -0.20732628502E-01 -0.56711194532E-02  0.54564113036E-02  0.22176020941E-01  0.00000000000E+00 0.  1.
     999901    1    3    3    0    0 -0.31256759618E-01 -0.10853746482E+00  0.36105282337E-01  0.88795324072E+00  0.88000000000E+00 0.  1.
        -11    1    4    4    0    0  0.25670626087E-01  0.45633105265E-01 -0.77236829296E-02  0.52927098341E-01  0.51100000000E-03 0.  1.
         11    1    4    4    0    0  0.26318762033E-01  0.68575479012E-01 -0.33838010711E-01  0.80873639998E-01  0.51100000000E-03 0. -1.
</event>
<event>
 7    1  0.1131376E+005  0.1043930E+01  0.7957747E-01            NaN
         13   -1    0    0    0    0  0.00000000000E+00  0.00000000000E+00  0.74505805969E-08  0.10566000000E+00  0.10566000000E+00 0. -1.
     999900   -1    0    0    0    0 -0.00000000000E+00 -0.00000000000E+00 -0.74505805969E-08  0.93827000000E+00  0.93827000000E+00 0. -1.
     999903    2    1    2    0    0  0.78182344269E-01  0.67950553350E-01  0.25247452247E-01  0.10838125962E+00  0.19475803888E-01 0.  0.
         14    1    1    2    0    0 -0.11038752649E-01  0.23023072729E-01  0.38312428459E-01  0.46040830926E-01  0.00000000000E+00 0. -1.
     999901    1    1    2    0    0 -0.67143591620E-01 -0.90973626079E-01 -0.63559880706E-01  0.88950790945E+00  0.88000000000E+00 0. -1.
        -11    1    3    3    0    0  0.42249039189E-01  0.29327848469E-01  0.42780190361E-02  0.51610721522E-01  0.51100000000E-03 0.  1.
         11    1    3    3    0    0  0.35933305080E-01  0.38622704881E-01  0.20969433211E-01  0.56770538103E-01  0.51100000000E-03 0. -1.
</event>
<event>
 8    1  0.1131376E+005  0.1043930E+01  0.7957747E-01            NaN
         13   -1    0    0    0    0  0.00000000000E+00  0.00000000000E+00  0.74505805969E-08  0.10566000000E+00  0.10566000000E+00 0. -1.
     999900   -1    0    0    0    0 -0.00000000000E+00 -0.00000000000E+00 -0.74505805969E-08  0.93827000000E+00  0.93827000000E+00 0.  1.
     999902    2    1    2    0    0 -0.21420085065E-01  0.79089845525E-02  0.68834908871E-02  0.10200814250E+01  0.10198026080E+01 0.  0.
     999903    2    3    3    0    0  0.13520460290E-01  0.12268584896E+00 -0.37859771826E-01  0.13081401314E+00  0.21078978333E-01 0.  0.
         14    1    1    2    0    0  0.21420085065E-01 -0.79089845525E-02 -0.68834908871E-02  0.23848574961E-01  0.00000000000E+00 0. -1.
     999901    1    3    3    0    0 -0.34940545355E-01 -0.11477686441E+00  0.44743262713E-01  0.88926741190E+00  0.88000000000E+00 0.  1.
        -11    1    4    4    0    0  0.16133491891E-02  0.46959301169E-01 -0.24522729797E-01  0.53003813633E-01  0.51100000000E-03 0. -1.
         11    1    4    4    0    0  0.11907111101E-01  0.75726547795E-01 -0.13337042029E-01  0.77810199504E-01  0.51100000000E-03 0.  1.
</event>
<event>
 8    1  0.1131376E+005  0.1043930E+01  0.7957747E-01            NaN
         13   -1    0    0    0    0  0.00000000000E+00  0.00000000000E+00  0.74505805969E-08  0.10566000000E+00  0.10566000000E+00 0.  1.
     999900   -1    0    0    0    0 -0.00000000000E+00 -0.00000000000E+00 -0.74505805969E-08  0.93827000000E+00  0.93827000000E+00 0.  1.
     999902    2    1    2    0    0 -0.23083295989E-01 -0.57779753307E-02  0.58333974605E-03  0.10201273985E+01  0.10198496680E+01 0.  0.
     999903    2    3    3    0    0  0.11988376165E+00 -0.28821974471E-01 -0.27282356353E-01  0.12785664224E+00  0.20004286454E-01 0.  0.
         14    1    1    2    0    0  0.23083295989E-01  0.57779753307E-02 -0.58333974605E-03  0.23802601495E-01  0.00000000000E+00 0.  1.
     999901    1    3    3    0    0 -0.14296705764E+00  0.23043999141E-01  0.27865696099E-01  0.89227075627E+00  0.88000000000E+00 0.  1.
        -11    1    4    4    0    0  0.75272327729E-01 -0.27598735887E-01 -0.14985720505E-01  0.81562531130E-01  0.51100000000E-03 0.  1.
         11    1    4    4    0    0  0.44611433922E-01 -0.12232385846E-02 -0.12296635849E-01  0.46294111110E-01  0.51100000000E-03 0. -1.
</event>
<event>
 8    1  0.1131376E+005  0.1043930E+01  0.7957747E-01            NaN
         13   -1    0    0    0    0  0.00000000000E+00  0.00000000000E+00  0.74505805969E-08  0.10566000000E+00  0.10566000000E+00 0. -1.
     999900   -1    0    0    0    0 -0.00000000000E+00 -0.00000000000E+00 -0.74505805969E-08  0.93827000000E+00  0.93827000000E+00 0.  1.
     999902    2    1    2    0    0 -0.21644381053E-01 -0.33643729402E-03  0.10263372718E-01  0.10199731797E+01  0.10196917956E+01 0.  0.
     999903    2    3    3    0    0 -0.28067716035E-01 -0.96769974672E-01 -0.79843368164E-01  0.13010807128E+00  0.20023038990E-01 0.  0.
         14    1    1    2    0    0  0.21644381053E-01  0.33643729402E-03 -0.10263372718E-01  0.23956820340E-01  0.00000000000E+00 0. -1.
     999901    1    3    3    0    0  0.64233349818E-02  0.96433537378E-01  0.90106740883E-01  0.88986510838E+00  0.88000000000E+00 0. -1.
        -11    1    4    4    0    0 -0.33937554655E-02 -0.26928606521E-01 -0.12071855229E-01  0.29709564706E-01  0.51100000000E-03 0. -1.
         11    1    4    4    0    0 -0.24673960569E-01 -0.69841368151E-01 -0.67771512936E-01  0.10039850657E+00  0.51100000000E-03 0.  1.
</event>
<event>
 8    1  0.1131376E+005  0.1043930E+01  0.7957747E-01            NaN
         13   -1    0    0    0    0  0.00000000000E+00  0.00000000000E+00  0.74505805969E-08  0.10566000000E+00  0.10566000000E+00 0.  1.
     999900   -1    0    0    0    0 -0.00000000000E+00 -0.00000000000E+00 -0.74505805969E-08  0.93827000000E+00  0.93827000000E+00 0. -1.
     999902    2    1    2    0    0 -0.16994299697E-01 -0.12156413126E-01  0.12986631708E-01  0.10193284308E+01  0.10190315072E+01 0.  0.
     999903    2    3    3    0    0 -0.86442648423E-01 -0.92583376842E-01 -0.30138489239E-01  0.13188753382E+00  0.21023318252E-01 0.  0.
         14    1    1    2    0    0  0.16994299697E-01  0.12156413126E-01 -0.12986631708E-01  0.24601569165E-01  0.00000000000E+00 0. -1.
     999901    1    3    3    0    0  0.69448348726E-01  0.80426963716E-01  0.43125120947E-01  0.88744089701E+00  0.88000000000E+00 0.  1.
        -11    1    4    4    0    0 -0.67281770871E-01 -0.57990999264E-01 -0.22027993874E-01  0.91516590421E-01  0.51100000000E-03 0. -1.
         11    1    4    4    0    0 -0.19160877552E-01 -0.34592377578E-01 -0.81104953654E-02  0.40370943402E-01  0.51100000000E-03 0.  1.
</event>
<event>
 8    1  0.1131376E+005  0.1043930E+01  0.7957747E-01            NaN
         13   -1    0    0    0    0  0.00000000000E+00  0.00000000000E+00  0.74505805969E-08  0.10566000000E+00  0.10566000000E+00 0. -1.
     999900   -1    0    0    0    0 -0.00000000000E+00 -0.00000000000E+00 -0.74505805969E-08  0.93827000000E+00  0.93827000000E+00 0. -1.
     999902    2    1    2    0    0 -0.13155935153E-01 -0.12273531077E-02  0.19668192103E-01  0.10202356377E+01  0.10199604569E+01 0.  0.
     999903    2    3    3    0    0  0.35356645797E-01 -0.98116911885E-01  0.78057408155E-01  0.13166917552E+00  0.19151814930E-01 0.  0.
         14    1    1    2    0    0  0.13155935153E-01  0.12273531077E-02 -0.19668192103E-01  0.23694362325E-01  0.00000000000E+00 0.  1.
     999901    1    3    3    0    0 -0.48512580949E-01  0.96889558777E-01 -0.58389216052E-01  0.88856646215E+00  0.88000000000E+00 0. -1.
        -11    1    4    4    0    0  0.11162056035E-01 -0.50618905641E-01  0.29972821361E-01  0.59879013391E-01  0.51100000000E-03 0.  1.
         11    1    4    4    0    0  0.24194589761E-01 -0.47498006243E-01  0.48084586794E-01  0.71790162132E-01  0.51100000000E-03 0. -1.
</event>
<event>
 8    1  0.1131376E+005  0.1043930E+01  0.7957747E-01            NaN
         13   -1    0    0    0    0  0.00000000000E+00  0.00000000000E+00  0.74505805969E-08  0.10566000000E+00  0.10566000000E+00 0.  1.
     999900   -1    0    0    0    0 -0.00000000000E+00 -0.00000000000E+00 -0.74505805969E-08  0.93827000000E+00  0.93827000000E+00 0.  1.
     999902    2    1    2    0    0 -0.69486944828E-03 -0.22560290873E-01 -0.78933943957E-02  0.10200185960E+01  0.10197382904E+01 0.  0.
     999903    2    3    3    0    0 -0.32846833369E-01 -0.12650935962E+00 -0.14513629668E-01  0.13329260379E+00  0.21742590589E-01 0.  0.
         14    1    1    2    0    0  0.69486944828E-03  0.22560290873E-01  0.78933943957E-02  0.23911404035E-01  0.00000000000E+00 0.  1.
     999901    1    3    3    0    0  0.32151963921E-01  0.10394906875E+00  0.66202352724E-02  0.88672599217E+00  0.88000000000E+00 0. -1.
        -11    1    4    4    0    0 -0.21598599175E-01 -0.87390640341E-01  0.15985798922E-03  0.90021720607E-01  0.51100000000E-03 0.  1.
         11    1    4    4    0    0 -0.11248234194E-01 -0.39118719281E-01 -0.14673487657E-01  0.43270883186E-01  0.51100000000E-03 0. -1.
</event>
<event>
 8    1  0.1131376E+005  0.1043930E+01  0.7957747E-01            NaN
         13   -1    0    0    0    0  0.00000000000E+00  0.00000000000E+00  0.74505805969E-08  0.10566000000E+00  0.10566000000E+00 0.  1.
     999900   -1    0    0    0    0 -0.00000000000E+00 -0.00000000000E+00 -0.74505805969E-08  0.93827000000E+00  0.93827000000E+00 0.  1.
     999902    2    1    2    0    0  0.21383308030E-02  0.57224478211E-02  0.22802808505E-01  0.10203230742E+01  0.10200499443E+01 0.  0.
     999903    2    3    3    0    0  0.95486124409E-01  0.74855836899E-01  0.48700990005E-01  0.13231184016E+00  0.20338150053E-01 0.  0.
         14    1    1    2    0    0 -0.21383308030E-02 -0.57224478211E-02 -0.22802808505E-01  0.23606925751E-01  0.00000000000E+00 0. -1.
     999901    1    3    3    0    0 -0.93347793606E-01 -0.69133389078E-01 -0.25898181500E-01  0.88801123409E+00  0.88000000000E+00 0.  1.
        -11    1    4    4    0    0  0.33717472945E-01  0.36818338543E-01  0.13736266244E-01  0.51782276564E-01  0.51100000000E-03 0.  1.
         11    1    4    4    0    0  0.61768651464E-01  0.38037498356E-01  0.34964723761E-01  0.80529563599E-01  0.51100000000E-03 0. -1.
</event>
<event>
 8    1  0.1131376E+005  0.1043930E+01  0.7957747E-01            NaN
         13   -1    0    0    0    0  0.00000000000E+00  0.00000000000E+00  0.74505805969E-08  0.10566000000E+00  0.10566000000E+00 0. -1.
     999900   -1    0    0    0    0 -0.00000000000E+00 -0.00000000000E+00 -0.74505805969E-08  0.93827000000E+00  0.93827000000E+00 0.  1.
     999902    2    1    2    0    0 -0.15815557585E-02  0.25213253698E-01 -0.84212068594E-02  0.10173005763E+01  0.10169519833E+01 0.  0.
     999903    2    3    3    0    0 -0.37319608060E-01 -0.44710210684E-01  0.11098246881E+00  0.12577170016E+00  0.10471680594E-01 0.  0.
         14    1    1    2    0    0  0.15815557585E-02 -0.25213253698E-01  0.84212068594E-02  0.26629423681E-01  0.00000000000E+00 0.  1.
     999901    1    3    3    0    0  0.35738052302E-01  0.69923464382E-01 -0.11940367567E+00  0.89152887615E+00  0.88000000000E+00 0.  1.
        -11    1    4    4    0    0 -0.17877743276E-01 -0.25786891223E-01  0.68736489392E-01  0.75561521680E-01  0.51100000000E-03 0.  1.
         11    1    4    4    0    0 -0.19441864784E-01 -0.18923319461E-01  0.42245979416E-01  0.50210178485E-01  0.51100000000E-03 0. -1.
</event>
<event>
 8    1  0.1131376E+005  0.1043930E+01  0.7957747E-01            NaN
         13   -1    0    0    0    0  0.00000000000E+00  0.00000000000E+00  0.74505805969E-08  0.10566000000E+00  0.10566000000E+00 0. -1.
     999900   -1    0    0    0    0 -0.00000000000E+00 -0.00000000000E+00 -0.74505805969E-08  0.93827000000E+00  0.93827000000E+00 0. -1.
     999902    2    1    2    0    0 -0.15624736129E-01  0.87604750785E-02  0.15595394453E-01  0.10201793236E+01  0.10199028177E+01 0.  0.
     999903    2    3    3    0    0 -0.19340625501E-01 -0.95775088464E-01 -0.81494599029E-01  0.12868173035E+00  0.19253329338E-01 0.  0.
         14    1    1    2    0    0  0.15624736129E-01 -0.87604750785E-02 -0.15595394453E-01  0.23750676430E-01  0.00000000000E+00 0.  1.
     999901    1    3    3    0    0  0.37158893717E-02  0.10453556354E+00  0.97089993482E-01  0.89149759322E+00  0.88000000000E+00 0.  1.
        -11    1    4    4    0    0 -0.28280005299E-02 -0.29706497099E-01 -0.36085403654E-01  0.46828314455E-01  0.51100000000E-03 0. -1.
         11    1    4    4    0    0 -0.16512624971E-01 -0.66068591365E-01 -0.45409195375E-01  0.81853415897E-01  0.51100000000E-03 0.  1.
</event>
<event>
 8    1  0.1131376E+005  0.1043930E+01  0.7957747E-01            NaN
         13   -1    0    0    0    0  0.00000000000E+00  0.00000000000E+00  0.74505805969E-08  0.10566000000E+00  0.10566000000E+00 0. -1.
     999900   -1    0    0    0    0 -0.00000000000E+00 -0.00000000000E+00 -0.74505805969E-08  0.93827000000E+00  0.93827000000E+00 0. -1.
     999902    2    1    2    0    0  0.79780298714E-02  0.16112574811E-01 -0.15719770401E-01  0.10200474706E+01  0.10197678496E+01 0.  0.
     999903    2    3    3    0    0 -0.10499908253E+00 -0.12783468520E-03 -0.75285741610E-01  0.13067933327E+00  0.19604121488E-01 0.  0.
         14    1    1    2    0    0 -0.79780298714E-02 -0.16112574811E-01  0.15719770401E-01  0.23882529370E-01  0.00000000000E+00 0. -1.
     999901    1    3    3    0    0  0.11297711240E+00  0.16240409496E-01  0.59565971209E-01  0.88936813736E+00  0.88000000000E+00 0. -1.
        -11    1    4    4    0    0 -0.70053713262E-01 -0.92786175400E-02 -0.50979488958E-01  0.87136587612E-01  0.51100000000E-03 0. -1.
         11    1    4    4    0    0 -0.34945369271E-01  0.91507828548E-02 -0.24306252652E-01  0.43542745656E-01  0.51100000000E-03 0.  1.
</event>
<event>
 8    1  0.1131376E+005  0.1043930E+01  0.7957747E-01            NaN
         13   -1    0    0    0    0  0.00000000000E+00  0.00000000000E+00  0.74505805969E-08  0.10566000000E+00  0.10566000000E+00 0.  1.
     999900   -1    0    0    0    0 -0.00000000000E+00 -0.00000000000E+00 -0.74505805969E-08  0.93827000000E+00  0.93827000000E+00 0.  1.
     999902    2    1    2    0    0 -0.84214522030E-02  0.73483824090E-02 -0.20919736882E-01  0.10202117587E+01  0.10199360164E+01 0.  0.
     999903    2    3    3    0    0 -0.23335889666E-01  0.66642233217E-02 -0.12964883363E+00  0.13339445786E+00  0.19906926116E-01 0.  0.
         14    1    1    2    0    0  0.84214522030E-02 -0.73483824090E-02  0.20919736882E-01  0.23718241344E-01  0.00000000000E+00 0.  1.
     999901    1    3    3    0    0  0.14914437463E-01  0.68415908733E-03  0.10872909674E+00  0.88681730080E+00  0.88000000000E+00 0. -1.
        -11    1    4    4    0    0 -0.50142907417E-03  0.75062753067E-02 -0.19668716225E-01  0.21064546495E-01  0.51100000000E-03 0.  1.
         11    1    4    4    0    0 -0.22834460592E-01 -0.84205198496E-03 -0.10998011740E+00  0.11232991136E+00  0.51100000000E-03 0. -1.
</event>
<event>
 8    1  0.1131376E+005  0.1043930E+01  0.7957747E-01            NaN
         13   -1    0    0    0    0  0.00000000000E+00  0.00000000000E+00  0.74505805969E-08  0.10566000000E+00  0.10566000000E+00 0. -1.
     999900   -1    0    0    0    0 -0.00000000000E+00 -0.00000000000E+00 -0.74505805969E-08  0.93827000000E+00  0.93827000000E+00 0.  1.
     999902    2    1    2    0    0 -0.12465241461E-01  0.18641089848E-01 -0.61517143611E-02  0.10206766978E+01  0.10204117822E+01 0.  0.
     999903    2    3    3    0    0 -0.17453787102E-01 -0.40052380320E-01  0.12050551866E+00  0.12965937823E+00  0.19522973182E-01 0.  0.
         14    1    1    2    0    0  0.12465241461E-01 -0.18641089848E-01  0.61517143611E-02  0.23253302239E-01  0.00000000000E+00 0.  1.
     999901    1    3    3    0    0  0.49885456411E-02  0.58693470168E-01 -0.12665723302E+00  0.89101731953E+00  0.88000000000E+00 0.  1.
        -11    1    4    4    0    0 -0.18627925141E-01 -0.21399448844E-01  0.83663567050E-01  0.88344720150E-01  0.51100000000E-03 0.  1.
         11    1    4    4    0    0  0.11741380391E-02 -0.18652931476E-01  0.36841951611E-01  0.41314658080E-01  0.51100000000E-03 0. -1.
</event>
<event>
 8    1  0.1131376E+005  0.1043930E+01  0.7957747E-01            NaN
         13   -1    0    0    0    0  0.00000000000E+00  0.00000000000E+00  0.74505805969E-08  0.10566000000E+00  0.10566000000E+00 0.  1.
     999900   -1    0    0    0    0 -0.00000000000E+00 -0.00000000000E+00 -0.74505805969E-08  0.93827000000E+00  0.93827000000E+00 0. -1.
     999902    2    1    2    0    0 -0.80466381879E-02  0.18203270823E-01 -0.13845959190E-01  0.10196850409E+01  0.10193967651E+01 0.  0.
     999903    2    3    3    0    0 -0.12376104616E+00 -0.22587447295E-01 -0.30803913169E-01  0.13101115299E+00  0.19699030925E-01 0.  0.
         14    1    1    2    0    0  0.80466381879E-02 -0.18203270823E-01  0.13845959190E-01  0.24244959077E-01  0.00000000000E+00 0.  1.
     999901    1    3    3    0    0  0.11571440797E+00  0.40790718117E-01  0.16957953979E-01  0.88867388794E+00  0.88000000000E+00 0. -1.
        -11    1    4    4    0    0 -0.40395080383E-01 -0.70387720824E-03 -0.33071437515E-02  0.40539564416E-01  0.51100000000E-03 0. -1.
         11    1    4    4    0    0 -0.83365965774E-01 -0.21883570086E-01 -0.27496769418E-01  0.90471588571E-01  0.51100000000E-03 0.  1.
</event>
<event>
 8    1  0.1131376E+005  0.1043930E+01  0.7957747E-01            NaN
         13   -1    0    0    0    0  0.00000000000E+00  0.00000000000E+00  0.74505805969E-08  0.10566000000E+00  0.10566000000E+00 0.  1.
     999900   -1    0    0    0    0 -0.00000000000E+00 -0.00000000000E+00 -0.74505805969E-08  0.93827000000E+00  0.93827000000E+00 0.  1.
     999902    2    1    2    0    0 -0.21225335112E-01 -0.20241683255E-02  0.25312926202E-02  0.10224586342E+01  0.10222331628E+01 0.  0.
     999903    2    3    3    0    0  0.11487165304E+00 -0.15687442518E-01 -0.55128624696E-01  0.13002726913E+00  0.20647831194E-01 0.  0.
         14    1    1    2    0    0  0.21225335112E-01  0.20241683255E-02 -0.25312926202E-02  0.21471365824E-01  0.00000000000E+00 0. -1.
     999901    1    3    3    0    0 -0.13609698815E+00  0.13663274193E-01  0.57659917317E-01  0.89243136504E+00  0.88000000000E+00 0. -1.
        -11    1    4    4    0    0  0.22851763161E-01 -0.83938112611E-02 -0.45583231566E-02  0.24772940441E-01  0.51100000000E-03 0.  1.
         11    1    4    4    0    0  0.92019889877E-01 -0.72936312572E-02 -0.50570301540E-01  0.10525432869E+00  0.51100000000E-03 0. -1.
</event>
<event>
 8    1  0.1131376E+005  0.1043930E+01  0.7957747E-01            NaN
         13   -1    0    0    0    0  0.00000000000E+00  0.00000000000E+00  0.74505805969E-08  0.10566000000E+00  0.10566000000E+00 0.  1.
     999900   -1    0    0    0    0 -0.00000000000E+00 -0.00000000000E+00 -0.74505805969E-08  0.93827000000E+00  0.93827000000E+00 0. -1.
     999902    2    1    2    0    0 -0.17489604444E-02  0.21661839715E-01  0.10652855575E-01  0.10197271594E+01  0.10194398963E+01 0.  0.
     999903    2    3    3    0    0  0.11621096139E+00 -0.53012833438E-01  0.40891152246E-02  0.12869745580E+00  0.15197572503E-01 0.  0.
         14    1    1    2    0    0  0.17489604444E-02 -0.21661839715E-01 -0.10652855575E-01  0.24202840626E-01  0.00000000000E+00 0. -1.
     999901    1    3    3    0    0 -0.11795992183E+00  0.74674673153E-01  0.65637403499E-02  0.89102970358E+00  0.88000000000E+00 0.  1.
        -11    1    4    4    0    0  0.29029667680E-01 -0.20321057040E-01 -0.93449261326E-03  0.35451394362E-01  0.51100000000E-03 0.  1.
         11    1    4    4    0    0  0.87181293706E-01 -0.32691776398E-01  0.50236078379E-02  0.93246061435E-01  0.51100000000E-03 0. -1.
</event>
<event>
 8    1  0.1131376E+005  0.1043930E+01  0.7957747E-01            NaN
         13   -1    0    0    0    0  0.00000000000E+00  0.00000000000E+00  0.74505805969E-08  0.10566000000E+00  0.10566000000E+00 0. -1.
     999900   -1    0    0    0    0 -0.00000000000E+00 -0.00000000000E+00 -0.74505805969E-08  0.93827000000E+00  0.93827000000E+00 0.  1.
     999902    2    1    2    0    0  0.37526486260E-02  0.18066320832E-01 -0.24794745390E-01  0.10130228209E+01  0.10125512244E+01 0.  0.
     999903    2    3    3    0    0 -0.33386780751E-01 -0.56182286951E-01 -0.10472175497E+00  0.12550914787E+00  0.22688625813E-01 0.  0.
         14    1    1    2    0    0 -0.37526486260E-02 -0.18066320832E-01  0.24794745390E-01  0.30907179086E-01  0.00000000000E+00 0. -1.
     999901    1    3    3    0    0  0.37139429377E-01  0.74248607782E-01  0.79927009576E-01  0.88751367304E+00  0.88000000000E+00 0. -1.
        -11    1    4    4    0    0 -0.30716980216E-01 -0.57261069521E-01 -0.10376366318E+00  0.12243170290E+00  0.51100000000E-03 0.  1.
         11    1    4    4    0    0 -0.26698005350E-02  0.10787825707E-02 -0.95809178537E-03  0.30774449793E-02  0.51100000000E-03 0. -1.
</event>
<event>
 8    1  0.1131376E+005  0.1043930E+01  0.7957747E-01            NaN
         13   -1    0    0    0    0  0.00000000000E+00  0.00000000000E+00  0.74505805969E-08  0.10566000000E+00  0.10566000000E+00 0.  1.
     999900   -1    0    0    0    0 -0.00000000000E+00 -0.00000000000E+00 -0.74505805969E-08  0.93827000000E+00  0.93827000000E+00 0. -1.
     999902    2    1    2    0    0  0.48657932175E-02  0.16150842110E-01  0.16359313389E-01  0.10204320686E+01  0.10201614842E+01 0.  0.
     999903    2    3    3    0    0 -0.62938338634E-01  0.10293769411E+00  0.50806920967E-01  0.13289840974E+00  0.22874456402E-01 0.  0.
         14    1    1    2    0    0 -0.48657932175E-02 -0.16150842110E-01 -0.16359313389E-01  0.23497931378E-01  0.00000000000E+00 0. -1.
     999901    1    3    3    0    0  0.67804131851E-01 -0.86786851999E-01 -0.34447607579E-01  0.88753365888E+00  0.88000000000E+00 0. -1.
        -11    1    4    4    0    0 -0.80984447284E-02  0.71987037696E-02  0.11404991399E-01  0.15739793289E-01  0.51100000000E-03 0. -1.
         11    1    4    4    0    0 -0.54839893905E-01  0.95738990339E-01  0.39401929569E-01  0.11715861645E+00  0.51100000000E-03 0.  1.
</event>
<event>
 8    1  0.1131376E+005  0.1043930E+01  0.7957747E-01            NaN
         13   -1    0    0    0    0  0.00000000000E+00  0.00000000000E+00  0.74505805969E-08  0.10566000000E+00  0.10566000000E+00 0. -1.
     999900   -1    0    0    0    0 -0.00000000000E+00 -0.00000000000E+00 -0.74505805969E-08  0.93827000000E+00  0.93827000000E+00 0.  1.
     999902    2    1    2    0    0  0.76226471203E-02 -0.17319475703E-01 -0.13701809430E-01  0.10205674537E+01  0.10203000142E+01 0.  0.
     999903    2    3    3    0    0 -0.47657803106E-01 -0.59243302493E-01 -0.10724566371E+00  0.13289409706E+00  0.19446685098E-01 0.  0.
         14    1    1    2    0    0 -0.76226471203E-02  0.17319475703E-01  0.13701809430E-01  0.23362546295E-01  0.00000000000E+00 0. -1.
     999901    1    3    3    0    0  0.55280450226E-01  0.41923826790E-01  0.93543854278E-01  0.88767335665E+00  0.88000000000E+00 0. -1.
        -11    1    4    4    0    0 -0.44411895200E-01 -0.46441802896E-01 -0.96096873502E-01  0.11560332049E+00  0.51100000000E-03 0.  1.
         11    1    4    4    0    0 -0.32459079055E-02 -0.12801499598E-01 -0.11148790205E-01  0.17290776562E-01  0.51100000000E-03 0. -1.
</event>
<event>
 8    1  0.1131376E+005  0.1043930E+01  0.7957747E-01            NaN
         13   -1    0    0    0    0  0.00000000000E+00  0.00000000000E+00  0.74505805969E-08  0.10566000000E+00  0.10566000000E+00 0.  1.
     999900   -1    0    0    0    0 -0.00000000000E+00 -0.00000000000E+00 -0.74505805969E-08  0.93827000000E+00  0.93827000000E+00 0.  1.
     999902    2    1    2    0    0 -0.17019200471E-01 -0.93588443845E-02 -0.13288075871E-01  0.10203967445E+01  0.10201253365E+01 0.  0.
     999903    2    3    3    0    0 -0.38069485707E-01  0.71207321454E-01  0.99155313106E-01  0.12934257260E+00  0.19441105887E-01 0.  0.
         14    1    1    2    0    0  0.17019200471E-01  0.93588443845E-02  0.13288075871E-01  0.23533255475E-01  0.00000000000E+00 0.  1.
     999901    1    3    3    0    0  0.21050285236E-01 -0.80566165838E-01 -0.11244338898E+00  0.89105417193E+00  0.88000000000E+00 0.  1.
        -11    1    4    4    0    0 -0.13458698750E-01  0.94745399949E-02  0.16938847616E-01  0.23623910763E-01  0.51100000000E-03 0. -1.
         11    1    4    4    0    0 -0.24610786957E-01  0.61732781459E-01  0.82216465490E-01  0.10571866183E+00  0.51100000000E-03 0.  1.
</event>
<event>
 8    1  0.1131376E+005  0.1043930E+01  0.7957747E-01            NaN
         13   -1    0    0    0    0  0.00000000000E+00  0.00000000000E+00  0.74505805969E-08  0.10566000000E+00  0.10566000000E+00 0.  1.
     999900   -1    0    0    0    0 -0.00000000000E+00 -0.00000000000E+00 -0.74505805969E-08  0.93827000000E+00  0.93827000000E+00 0. -1.
     999902    2    1    2    0    0 -0.22086887508E-01  0.90222027808E-02  0.33513324622E-02  0.10198372174E+01  0.10195525920E+01 0.  0.
     999903    2    3    3    0    0  0.58372203879E-01  0.93400576125E-01  0.66043228572E-01  0.12993629647E+00  0.19767430155E-01 0.  0.
         14    1    1    2    0    0  0.22086887508E-01 -0.90222027808E-02 -0.33513324622E-02  0.24092782573E-01  0.00000000000E+00 0.  1.
     999901    1    3    3    0    0 -0.80459091388E-01 -0.84378373345E-01 -0.62691896110E-01  0.88990092095E+00  0.88000000000E+00 0. -1.
        -11    1    4    4    0    0  0.18346898257E-01  0.35930910473E-01  0.34659493536E-01  0.53190042454E-01  0.51100000000E-03 0. -1.
         11    1    4    4    0    0  0.40025305622E-01  0.57469665653E-01  0.31383735036E-01  0.76746254021E-01  0.51100000000E-03 0.  1.
</event>
<event>
 8    1  0.1131376E+005  0.1043930E+01  0.7957747E-01            NaN
         13   -1    0    0    0    0  0.00000000000E+00  0.00000000000E+00  0.74505805969E-08  0.10566000000E+00  0.10566000000E+00 0. -1.
     999900   -1    0    0    0    0 -0.00000000000E+00 -0.00000000000E+00 -0.74505805969E-08  0.93827000000E+00  0.93827000000E+00 0. -1.
     999902    2    1    2    0    0  0.14317425953E-01  0.41374600278E-02 -0.14409875146E-01  0.10231995450E+01  0.10229895196E+01 0.  0.
     999903    2    3    3    0    0 -0.90209026715E-01 -0.31790155196E-01  0.86718790399E-01  0.13053859045E+00  0.19284515038E-01 0.  0.
         14    1    1    2    0    0 -0.14317425953E-01 -0.41374600278E-02  0.14409875146E-01  0.20730454966E-01  0.00000000000E+00 0.  1.
     999901    1    3    3    0    0  0.10452645267E+00  0.35927615223E-01 -0.10112866554E+00  0.89266095458E+00  0.88000000000E+00 0. -1.
        -11    1    4    4    0    0 -0.39841322382E-01 -0.19476440925E-01  0.50929807235E-01  0.67533466564E-01  0.51100000000E-03 0. -1.
         11    1    4    4    0    0 -0.50367704334E-01 -0.12313714271E-01  0.35788983164E-01  0.63005123886E-01  0.51100000000E-03 0.  1.
</event>
<event>
 8    1  0.1131376E+005  0.1043930E+01  0.7957747E-01            NaN
         13   -1    0    0    0    0  0.00000000000E+00  0.00000000000E+00  0.74505805969E-08  0.10566000000E+00  0.10566000000E+00 0.  1.
     999900   -1    0    0    0    0 -0.00000000000E+00 -0.00000000000E+00 -0.74505805969E-08  0.93827000000E+00  0.93827000000E+00 0. -1.
     999902    2    1    2    0    0  0.48635846891E-02 -0.21884337197E-01  0.35314855127E-02  0.10212352856E+01  0.10209830844E+01 0.  0.
     999903    2    3    3    0    0  0.10769789100E+00  0.68969809622E-01  0.16302042997E-01  0.13050948175E+00  0.20280479661E-01 0.  0.
         14    1    1    2    0    0 -0.48635846891E-02  0.21884337197E-01 -0.35314855127E-02  0.22694714373E-01  0.00000000000E+00 0.  1.
     999901    1    3    3    0    0 -0.10283430631E+00 -0.90854146819E-01 -0.12770557485E-01  0.89072580387E+00  0.88000000000E+00 0. -1.
        -11    1    4    4    0    0  0.32600044876E-01  0.11854964105E-01  0.92017061889E-02  0.35891999354E-01  0.51100000000E-03 0. -1.
         11    1    4    4    0    0  0.75097846128E-01  0.57114845518E-01  0.71003368084E-02  0.94617482398E-01  0.51100000000E-03 0.  1.
</event>
<event>
 8    1  0.1131376E+005  0.1043930E+01  0.7957747E-01            NaN
         13   -1    0    0    0    0  0.00000000000E+00  0.00000000000E+00  0.74505805969E-08  0.10566000000E+00  0.10566000000E+00 0.  1.
     999900   -1    0    0    0    0 -0.00000000000E+00 -0.00000000000E+00 -0.74505805969E-08  0.93827000000E+00  0.93827000000E+00 0. -1.
     999902    2    1    2    0    0 -0.80017298932E-02  0.13260457642E-01 -0.16649670915E-01  0.10211906297E+01  0.10209374238E+01 0.  0.
     999903    2    3    3    0    0 -0.37527238558E-01 -0.42161680144E-01 -0.11874383988E+00  0.13306530730E+00  0.20503063015E-01 0.  0.
         14    1    1    2    0    0  0.80017298932E-02 -0.13260457642E-01  0.16649670915E-01  0.22739370258E-01  0.00000000000E+00 0.  1.
     999901    1    3    3    0    0  0.29525508665E-01  0.55422137787E-01  0.10209416896E+00  0.88812532244E+00  0.88000000000E+00 0.  1.
        -11    1    4    4    0    0 -0.33774929740E-01 -0.28757129457E-01 -0.74788713728E-01  0.86955915243E-01  0.51100000000E-03 0.  1.
         11    1    4    4    0    0 -0.37523088178E-02 -0.13404550688E-01 -0.43955126148E-01  0.46109392062E-01  0.51100000000E-03 0. -1.
</event>
<event>
 8    1  0.1131376E+005  0.1043930E+01  0.7957747E-01            NaN
         13   -1    0    0    0    0  0.00000000000E+00  0.00000000000E+00  0.74505805969E-08  0.10566000000E+00  0.10566000000E+00 0.  1.
     999900   -1    0    0    0    0 -0.00000000000E+00 -0.00000000000E+00 -0.74505805969E-08  0.93827000000E+00  0.93827000000E+00 0. -1.
     999902    2    1    2    0    0  0.18134191029E-01  0.64375896178E-02 -0.12402925200E-01  0.10210362454E+01  0.10207795504E+01 0.  0.
     999903    2    3    3    0    0 -0.10531800250E+00  0.18530778036E-01 -0.71800346173E-01  0.13035406704E+00  0.20040501497E-01 0.  0.
         14    1    1    2    0    0 -0.18134191029E-01 -0.64375896178E-02  0.12402925200E-01  0.22893754561E-01  0.00000000000E+00 0.  1.
     999901    1    3    3    0    0  0.12345219352E+00 -0.12093188418E-01  0.59397420973E-01  0.89068217839E+00  0.88000000000E+00 0.  1.
        -11    1    4    4    0    0 -0.75559747830E-01  0.51468204099E-02 -0.44767669689E-01  0.87978239485E-01  0.51100000000E-03 0.  1.
         11    1    4    4    0    0 -0.29758254665E-01  0.13383957626E-01 -0.27032676484E-01  0.42375827559E-01  0.51100000000E-03 0. -1.
</event>
<event>
 8    1  0.1131376E+005  0.1043930E+01  0.7957747E-01            NaN
         13   -1    0    0    0    0  0.00000000000E+00  0.00000000000E+00  0.74505805969E-08  0.10566000000E+00  0.10566000000E+00 0.  1.
     999900   -1    0    0    0    0 -0.00000000000E+00 -0.00000000000E+00 -0.74505805969E-08  0.93827000000E+00  0.93827000000E+00 0.  1.
     999902    2    1    2    0    0 -0.14095141184E-01 -0.84896549534E-02 -0.16470172284E-01  0.10206488097E+01  0.10203832510E+01 0.  0.
     999903    2    3    3    0    0 -0.76655852542E-03 -0.23602803590E-01  0.12536629205E+00  0.12906390574E+00  0.19573058843E-01 0.  0.
         14    1    1    2    0    0  0.14095141184E-01  0.84896549534E-02  0.16470172284E-01  0.23281190290E-01  0.00000000000E+00 0.  1.
     999901    1    3    3    0    0 -0.13328582659E-01  0.15113148636E-01 -0.14183646433E+00  0.89158490397E+00  0.88000000000E+00 0.  1.
        -11    1    4    4    0    0  0.90070920693E-02 -0.10514359330E-01  0.46400473525E-01  0.48424627247E-01  0.51100000000E-03 0. -1.
         11    1    4    4    0    0 -0.97736505947E-02 -0.13088444260E-01  0.78965818525E-01  0.80639278490E-01  0.51100000000E-03 0.  1.
</event>
<event>
 8    1  0.1131376E+005  0.1043930E+01  0.7957747E-01            NaN
         13   -1    0    0    0    0  0.00000000000E+00  0.00000000000E+00  0.74505805969E-08  0.10566000000E+00  0.10566000000E+00 0.  1.
     999900   -1    0    0    0    0 -0.00000000000E+00 -0.00000000000E+00 -0.74505805969E-08  0.93827000000E+00  0.93827000000E+00 0. -1.
     999902    2    1    2    0    0  0.24403044029E-01 -0.27260329978E-02  0.69182105601E-02  0.10184191895E+01  0.10180996239E+01 0.  0.
     999903    2    3    3    0    0 -0.83426195759E-01 -0.93298144459E-01 -0.84357636634E-02  0.12709085672E+00  0.20407103076E-01 0.  0.
         14    1    1    2    0    0 -0.24403044029E-01  0.27260329978E-02 -0.69182105601E-02  0.25510810476E-01  0.00000000000E+00 0. -1.
     999901    1    3    3    0    0  0.10782923979E+00  0.90572111461E-01  0.15353974224E-01  0.89132833280E+00  0.88000000000E+00 0. -1.
        -11    1    4    4    0    0 -0.18103653551E-01 -0.18585743029E-01  0.64428264248E-02  0.26738422713E-01  0.51100000000E-03 0. -1.
         11    1    4    4    0    0 -0.65322542208E-01 -0.74712401430E-01 -0.14878590088E-01  0.10035243401E+00  0.51100000000E-03 0.  1.
</event>
<event>
 8    1  0.1131376E+005  0.1043930E+01  0.7957747E-01            NaN
         13   -1    0    0    0    0  0.00000000000E+00  0.00000000000E+00  0.74505805969E-08  0.10566000000E+00  0.10566000000E+00 0.  1.
     999900   -1    0    0    0    0 -0.00000000000E+00 -0.00000000000E+00 -0.74505805969E-08  0.93827000000E+00  0.93827000000E+00 0.  1.
     999902    2    1    2    0    0 -0.60251228667E-02  0.21551128411E-01  0.80340465704E-02  0.10201539796E+01  0.10198768764E+01 0.  0.
     999903    2    3    3    0    0 -0.45346582230E-01 -0.10930587706E+00 -0.47628185444E-01  0.12787150353E+00  0.88651049728E-02 0.  0.
         14    1    1    2    0    0  0.60251228667E-02 -0.21551128411E-01 -0.80340465704E-02  0.23776020391E-01  0.00000000000E+00 0.  1.
     999901    1    3    3    0    0  0.39321459363E-01  0.13085700547E+00  0.55662232014E-01  0.89228247608E+00  0.88000000000E+00 0.  1.
        -11    1    4    4    0    0 -0.27678616468E-01 -0.70062131715E-01 -0.34626989871E-01  0.82910178257E-01  0.51100000000E-03 0. -1.
         11    1    4    4    0    0 -0.17667965762E-01 -0.39243745345E-01 -0.13001195572E-01  0.44961325272E-01  0.51100000000E-03 0.  1.
</event>
<event>
 8    1  0.1131376E+005  0.1043930E+01  0.7957747E-01            NaN
         13   -1    0    0    0    0  0.00000000000E+00  0.00000000000E+00  0.74505805969E-08  0.10566000000E+00  0.10566000000E+00 0.  1.
     999900   -1    0    0    0    0 -0.00000000000E+00 -0.00000000000E+00 -0.74505805969E-08  0.93827000000E+00  0.93827000000E+00 0. -1.
     999902    2    1    2    0    0 -0.23424949897E-01 -0.37620044071E-02 -0.20114439802E-02  0.10201197740E+01  0.10198418635E+01 0.  0.
     999903    2    3    3    0    0 -0.19396832892E-01 -0.59298406195E-01 -0.11368626817E+00  0.13131620516E+00  0.20660107989E-01 0.  0.
         14    1    1    2    0    0  0.23424949897E-01  0.37620044071E-02  0.20114439802E-02  0.23810225991E-01  0.00000000000E+00 0. -1.
     999901    1    3    3    0    0 -0.40281170045E-02  0.55536401788E-01  0.11167482419E+00  0.88880356885E+00  0.88000000000E+00 0.  1.
        -11    1    4    4    0    0 -0.14517708230E-01 -0.42656269281E-01 -0.98259538268E-01  0.10809957975E+00  0.51100000000E-03 0. -1.
         11    1    4    4    0    0 -0.48791246627E-02 -0.16642136914E-01 -0.15426729903E-01  0.23216625402E-01  0.51100000000E-03 0.  1.
</event>
<event>
 8    1  0.1131376E+005  0.1043930E+01  0.7957747E-01            NaN
         13   -1    0    0    0    0  0.00000000000E+00  0.00000000000E+00  0.74505805969E-08  0.10566000000E+00  0.10566000000E+00 0.  1.
     999900   -1    0    0    0    0 -0.00000000000E+00 -0.00000000000E+00 -0.74505805969E-08  0.93827000000E+00  0.93827000000E+00 0.  1.
     999902    2    1    2    0    0  0.94348294145E-02 -0.55175660912E-02 -0.21540473217E-01  0.10197752587E+01  0.10194891499E+01 0.  0.
     999903    2    3    3    0    0  0.93825640217E-01  0.42475077712E-02 -0.91977983878E-01  0.13288258845E+00  0.19404656896E-01 0.  0.
         14    1    1    2    0    0 -0.94348294145E-02  0.55175660912E-02  0.21540473217E-01  0.24154741316E-01  0.00000000000E+00 0.  1.
     999901    1    3    3    0    0 -0.84390810803E-01 -0.97650738624E-02  0.70437510661E-01  0.88689267024E+00  0.88000000000E+00 0.  1.
        -11    1    4    4    0    0  0.34254283057E-01  0.24721679699E-02 -0.21240685168E-01  0.40384345353E-01  0.51100000000E-03 0.  1.
         11    1    4    4    0    0  0.59571357160E-01  0.17753398013E-02 -0.70737298710E-01  0.92498243092E-01  0.51100000000E-03 0. -1.
</event>
<event>
 8    1  0.1131376E+005  0.1043930E+01  0.7957747E-01            NaN
         13   -1    0    0    0    0  0.00000000000E+00  0.00000000000E+00  0.74505805969E-08  0.10566000000E+00  0.10566000000E+00 0.  1.
     999900   -1    0    0    0    0 -0.00000000000E+00 -0.00000000000E+00 -0.74505805969E-08  0.93827000000E+00  0.93827000000E+00 0.  1.
     999902    2    1    2    0    0 -0.30985759272E-02 -0.49467106764E-04 -0.22475599805E-01  0.10212417606E+01  0.10209897049E+01 0.  0.
     999903    2    3    3    0    0 -0.11987060192E+00  0.91721575647E-02 -0.53156175725E-01  0.13295011811E+00  0.19926495126E-01 0.  0.
         14    1    1    2    0    0  0.30985759272E-02  0.49467106764E-04  0.22475599805E-01  0.22688239384E-01  0.00000000000E+00 0.  1.
     999901    1    3    3    0    0  0.11677202599E+00 -0.92216246715E-02  0.30680575920E-01  0.88829164251E+00  0.88000000000E+00 0. -1.
        -11    1    4    4    0    0 -0.68289741682E-01 -0.40937352984E-02 -0.26244046362E-01  0.73275224859E-01  0.51100000000E-03 0. -1.
         11    1    4    4    0    0 -0.51580860236E-01  0.13265892863E-01 -0.26912129362E-01  0.59674893246E-01  0.51100000000E-03 0.  1.
</event>
<event>
 8    1  0.1131376E+005  0.1043930E+01  0.7957747E-01            NaN
         13   -1    0    0    0    0  0.00000000000E+00  0.00000000000E+00  0.74505805969E-08  0.10566000000E+00  0.10566000000E+00 0. -1.
     999900   -1    0    0    0    0 -0.00000000000E+00 -0.00000000000E+00 -0.74505805969E-08  0.93827000000E+00  0.93827000000E+00 0. -1.
     999902    2    1    2    0    0  0.90489332504E-02 -0.33018983129E-02  0.23783062488E-01  0.10182703081E+01  0.10179469537E+01 0.  0.
     999903    2    3    3    0    0 -0.44613669823E-01  0.10975833971E+00 -0.41196181099E-01  0.12704385291E+00  0.20143052279E-01 0.  0.
         14    1    1    2    0    0 -0.90489332504E-02  0.33018983129E-02 -0.23783062488E-01  0.25659691868E-01  0.00000000000E+00 0. -1.
     999901    1    3    3    0    0  0.53662603073E-01 -0.11306023802E+00  0.64979243587E-01  0.89122645522E+00  0.88000000000E+00 0. -1.
        -11    1    4    4    0    0 -0.91472702087E-02  0.25522904411E-01 -0.83538483401E-03  0.27130244943E-01  0.51100000000E-03 0. -1.
         11    1    4    4    0    0 -0.35466399614E-01  0.84235435295E-01 -0.40360796265E-01  0.99913607968E-01  0.51100000000E-03 0.  1.
</event>
<event>
 8    1  0.1131376E+005  0.1043930E+01  0.7957747E-01            NaN
         13   -1    0    0    0    0  0.00000000000E+00  0.00000000000E+00  0.74505805969E-08  0.10566000000E+00  0.10566000000E+00 0. -1.
     999900   -1    0    0    0    0 -0.00000000000E+00 -0.00000000000E+00 -0.74505805969E-08  0.93827000000E+00  0.93827000000E+00 0.  1.
     999902    2    1    2    0    0  0.65462137023E-03 -0.20838084068E-01  0.12251147135E-01  0.10197485012E+01  0.10194617506E+01 0.  0.
     999903    2    3    3    0    0  0.47118617591E-01  0.88609559692E-01  0.78737546926E-01  0.12926653565E+00  0.20938427574E-01 0.  0.
         14    1    1    2    0    0 -0.65462137023E-03  0.20838084068E-01 -0.12251147135E-01  0.24181498773E-01  0.00000000000E+00 0.  1.
     999901    1    3    3    0    0 -0.46463996221E-01 -0.10944764376E+00 -0.66486399791E-01  0.89048196558E+00  0.88000000000E+00 0. -1.
        -11    1    4    4    0    0  0.79274328663E-02  0.64382085699E-02  0.25134821791E-02  0.10529645536E-01  0.51100000000E-03 0. -1.
         11    1    4    4    0    0  0.39191184725E-01  0.82171351122E-01  0.76224064747E-01  0.11873689011E+00  0.51100000000E-03 0.  1.
</event>
<event>
 8    1  0.1131376E+005  0.1043930E+01  0.7957747E-01            NaN
         13   -1    0    0    0    0  0.00000000000E+00  0.00000000000E+00  0.74505805969E-08  0.10566000000E+00  0.10566000000E+00 0. -1.
     999900   -1    0    0    0    0 -0.00000000000E+00 -0.00000000000E+00 -0.74505805969E-08  0.93827000000E+00  0.93827000000E+00 0. -1.
     999902    2    1    2    0    0  0.79885328778E-02  0.19792393142E-01  0.10474163315E-01  0.10201547275E+01  0.10198776419E+01 0.  0.
     999903    2    3    3    0    0  0.11936456252E+00 -0.43528529558E-01  0.22490656495E-01  0.13079621976E+00  0.21428714474E-01 0.  0.
         14    1    1    2    0    0 -0.79885328778E-02 -0.19792393142E-01 -0.10474163315E-01  0.23775272469E-01  0.00000000000E+00 0.  1.
     999901    1    3    3    0    0 -0.11137602964E+00  0.63320922700E-01 -0.12016493180E-01  0.88935850777E+00  0.88000000000E+00 0.  1.
        -11    1    4    4    0    0  0.11412901817E-01 -0.31319764655E-02  0.87276383757E-02  0.14713816537E-01  0.51100000000E-03 0.  1.
         11    1    4    4    0    0  0.10795166070E+00 -0.40396553093E-01  0.13763018119E-01  0.11608240323E+00  0.51100000000E-03 0. -1.
</event>
<event>
 8    1  0.1131376E+005  0.1043930E+01  0.7957747E-01            NaN
         13   -1    0    0    0    0  0.00000000000E+00  0.00000000000E+00  0.74505805969E-08  0.10566000000E+00  0.10566000000E+00 0. -1.
     999900   -1    0    0    0    0 -0.00000000000E+00 -0.00000000000E+00 -0.74505805969E-08  0.93827000000E+00  0.93827000000E+00 0. -1.
     999902    2    1    2    0    0  0.74145485736E-02  0.22750374298E-01  0.60562794960E-02  0.10192473425E+01  0.10189484342E+01 0.  0.
     999903    2    3    3    0    0  0.52843329745E-01  0.53505567201E-01 -0.10623438956E+00  0.13041729662E+00  0.82257226198E-02 0.  0.
         14    1    1    2    0    0 -0.74145485736E-02 -0.22750374298E-01 -0.60562794960E-02  0.24682657526E-01  0.00000000000E+00 0. -1.
     999901    1    3    3    0    0 -0.45428781172E-01 -0.30755192903E-01  0.11229066906E+00  0.88883004585E+00  0.88000000000E+00 0. -1.
        -11    1    4    4    0    0  0.23802252791E-01  0.18897534823E-01 -0.45544073912E-01  0.54755710660E-01  0.51100000000E-03 0. -1.
         11    1    4    4    0    0  0.29041076954E-01  0.34608032378E-01 -0.60690315651E-01  0.75661585963E-01  0.51100000000E-03 0.  1.
</event>
<event>
 8    1  0.1131376E+005  0.1043930E+01  0.7957747E-01            NaN
         13   -1    0    0    0    0  0.00000000000E+00  0.00000000000E+00  0.74505805969E-08  0.10566000000E+00  0.10566000000E+00 0. -1.
     999900   -1    0    0    0    0 -0.00000000000E+00 -0.00000000000E+00 -0.74505805969E-08  0.93827000000E+00  0.93827000000E+00 0.  1.
     999902    2    1    2    0    0 -0.87611646129E-02  0.20684633204E-01  0.64140337329E-02  0.10205686669E+01  0.10203012555E+01 0.  0.
     999903    2    3    3    0    0 -0.16769427586E-01  0.12864348111E+00 -0.23717662539E-01  0.13342315219E+00  0.20220066582E-01 0.  0.
         14    1    1    2    0    0  0.87611646129E-02 -0.20684633204E-01 -0.64140337329E-02  0.23361333115E-01  0.00000000000E+00 0.  1.
     999901    1    3    3    0    0  0.80082629730E-02 -0.10795884790E+00  0.30131696272E-01  0.88714551469E+00  0.88000000000E+00 0.  1.
        -11    1    4    4    0    0 -0.93656389144E-02  0.46824871493E-01 -0.18123421665E-01  0.51078403621E-01  0.51100000000E-03 0. -1.
         11    1    4    4    0    0 -0.74037886716E-02  0.81818609613E-01 -0.55942408740E-02  0.82344748574E-01  0.51100000000E-03 0.  1.
</event>
<event>
 8    1  0.1131376E+005  0.1043930E+01  0.7957747E-01            NaN
         13   -1    0    0    0    0  0.00000000000E+00  0.00000000000E+00  0.74505805969E-08  0.10566000000E+00  0.10566000000E+00 0. -1.
     999900   -1    0    0    0    0 -0.00000000000E+00 -0.00000000000E+00 -0.74505805969E-08  0.93827000000E+00  0.93827000000E+00 0. -1.
     999902    2    1    2    0    0 -0.31087364869E-01 -0.66469148895E-02 -0.15999311136E-01  0.10083409049E+01  0.10077126559E+01 0.  0.
     999903    2    3    3    0    0  0.48880070199E-01  0.15830927732E-01 -0.10650398562E+00  0.11980776531E+00  0.19259339047E-01 0.  0.
         14    1    1    2    0    0  0.31087364869E-01  0.66469148895E-02  0.15999311136E-01  0.35589095084E-01  0.00000000000E+00 0. -1.
     999901    1    3    3    0    0 -0.79967435068E-01 -0.22477842621E-01  0.90504674479E-01  0.88853313961E+00  0.88000000000E+00 0. -1.
        -11    1    4    4    0    0  0.36388784508E-01  0.23814368301E-02 -0.72918701058E-01  0.81530441949E-01  0.51100000000E-03 0. -1.
         11    1    4    4    0    0  0.12491285691E-01  0.13449490901E-01 -0.33585284557E-01  0.38277323358E-01  0.51100000000E-03 0.  1.
</event>
<event>
 8    1  0.1131376E+005  0.1043930E+01  0.7957747E-01            NaN
         13   -1    0    0    0    0  0.00000000000E+00  0.00000000000E+00  0.74505805969E-08  0.10566000000E+00  0.10566000000E+00 0.  1.
     999900   -1    0    0    0    0 -0.00000000000E+00 -0.00000000000E+00 -0.74505805969E-08  0.93827000000E+00  0.93827000000E+00 0. -1.
     999902    2    1    2    0    0 -0.79138044512E-02 -0.18364701291E-01 -0.73844082514E-02  0.10226128698E+01  0.10223906599E+01 0.  0.
     999903    2    3    3    0    0 -0.76041572466E-01 -0.41245148950E-02  0.10608200939E+00  0.13260230604E+00  0.23035765353E-01 0.  0.
         14    1    1    2    0    0  0.79138044512E-02  0.18364701291E-01  0.73844082514E-02  0.21317130192E-01  0.00000000000E+00 0. -1.
     999901    1    3    3    0    0  0.68127768015E-01 -0.14240186396E-01 -0.11346641764E+00  0.89001056377E+00  0.88000000000E+00 0. -1.
        -11    1    4    4    0    0 -0.14954734284E-01 -0.86290053577E-02  0.32975178959E-01  0.37225359090E-01  0.51100000000E-03 0.  1.
         11    1    4    4    0    0 -0.61086838182E-01  0.45044904627E-02  0.73106830430E-01  0.95376946952E-01  0.51100000000E-03 0. -1.
</event>
<event>
 8    1  0.1131376E+005  0.1043930E+01  0.7957747E-01            NaN
         13   -1    0    0    0    0  0.00000000000E+00  0.00000000000E+00  0.74505805969E-08  0.10566000000E+00  0.10566000000E+00 0. -1.
     999900   -1    0    0    0    0 -0.00000000000E+00 -0.00000000000E+00 -0.74505805969E-08  0.93827000000E+00  0.93827000000E+00 0. -1.
     999902    2    1    2    0    0 -0.26962979852E-02  0.16961985769E-01  0.17400270151E-01  0.10194811067E+01  0.10191879014E+01 0.  0.
     999903    2    3    3    0    0 -0.11813126689E+00  0.30741938936E-01 -0.39653659188E-01  0.13000358024E+00  0.20699158464E-01 0.  0.
         14    1    1    2    0    0  0.26962979852E-02 -0.16961985769E-01 -0.17400270151E-01  0.24448893336E-01  0.00000000000E+00 0.  1.
     999901    1    3    3    0    0  0.11543496891E+00 -0.13779953167E-01  0.57053929338E-01  0.88947752642E+00  0.88000000000E+00 0.  1.
        -11    1    4    4    0    0 -0.46611801778E-01  0.31408336586E-02 -0.20274491175E-01  0.50929765506E-01  0.51100000000E-03 0. -1.
         11    1    4    4    0    0 -0.71519465116E-01  0.27601105278E-01 -0.19379168013E-01  0.79073814736E-01  0.51100000000E-03 0.  1.
</event>
<event>
 8    1  0.1131376E+005  0.1043930E+01  0.7957747E-01            NaN
         13   -1    0    0    0    0  0.00000000000E+00  0.00000000000E+00  0.74505805969E-08  0.10566000000E+00  0.10566000000E+00 0. -1.
     999900   -1    0    0    0    0 -0.00000000000E+00 -0.00000000000E+00 -0.74505805969E-08  0.93827000000E+00  0.93827000000E+00 0. -1.
     999902    2    1    2    0    0 -0.11253229678E-04  0.15026400041E-01  0.18523127234E-01  0.10200783949E+01  0.10197995061E+01 0.  0.
     999903    2    3    3    0    0 -0.42841499821E-01  0.60662482966E-01  0.10873818167E+00  0.13325494111E+00  0.20434192691E-01 0.  0.
         14    1    1    2    0    0  0.11253229678E-04 -0.15026400041E-01 -0.18523127234E-01  0.23851605131E-01  0.00000000000E+00 0.  1.
     999901    1    3    3    0    0  0.42830246591E-01 -0.45636082925E-01 -0.90215054437E-01  0.88682345376E+00  0.88000000000E+00 0. -1.
        -11    1    4    4    0    0 -0.24644327766E-01  0.49698433306E-01  0.73182558551E-01  0.91832593131E-01  0.51100000000E-03 0. -1.
         11    1    4    4    0    0 -0.18197172055E-01  0.10964049660E-01  0.35555623120E-01  0.41422347980E-01  0.51100000000E-03 0.  1.
</event>
<event>
 8    1  0.1131376E+005  0.1043930E+01  0.7957747E-01            NaN
         13   -1    0    0    0    0  0.00000000000E+00  0.00000000000E+00  0.74505805969E-08  0.10566000000E+00  0.10566000000E+00 0.  1.
     999900   -1    0    0    0    0 -0.00000000000E+00 -0.00000000000E+00 -0.74505805969E-08  0.93827000000E+00  0.93827000000E+00 0. -1.
     999902    2    1    2    0    0  0.22989659146E-01 -0.15396674589E-01 -0.97534097964E-02  0.10145921231E+01  0.10141678684E+01 0.  0.
     999903    2    3    3    0    0  0.96776332950E-01  0.28504624074E-01 -0.75674443818E-01  0.12795951603E+00  0.21652807759E-01 0.  0.
         14    1    1    2    0    0 -0.22989659146E-01  0.15396674589E-01  0.97534097964E-02  0.29337876860E-01  0.00000000000E+00 0.  1.
     999901    1    3    3    0    0 -0.73786673805E-01 -0.43901298663E-01  0.65921034021E-01  0.88663260711E+00  0.88000000000E+00 0.  1.
        -11    1    4    4    0    0  0.87996866323E-01  0.18784165543E-01 -0.64166871673E-01  0.11051670416E+00  0.51100000000E-03 0.  1.
         11    1    4    4    0    0  0.87794666270E-02  0.97204585315E-02 -0.11507572144E-01  0.17442811871E-01  0.51100000000E-03 0. -1.
</event>
<event>
 8    1  0.1131376E+005  0.1043930E+01  0.7957747E-01            NaN
         13   -1    0    0    0    0  0.00000000000E+00  0.00000000000E+00  0.74505805969E-08  0.10566000000E+00  0.10566000000E+00 0. -1.
     999900   -1    0    0    0    0 -0.00000000000E+00 -0.00000000000E+00 -0.74505805969E-08  0.93827000000E+00  0.93827000000E+00 0.  1.
     999902    2    1    2    0    0  0.93054719937E-02 -0.15339490247E-01  0.15271917484E-01  0.10203689467E+01  0.10200968896E+01 0.  0.
     999903    2    3    3    0    0  0.69034865507E-01  0.89108317259E-02 -0.10735144689E+00  0.12953104444E+00  0.20217387240E-01 0.  0.
         14    1    1    2    0    0 -0.93054719937E-02  0.15339490247E-01 -0.15271917484E-01  0.23561053323E-01  0.00000000000E+00 0.  1.
     999901    1    3    3    0    0 -0.59729393513E-01 -0.24250321973E-01  0.12262336438E+00  0.89083790223E+00  0.88000000000E+00 0. -1.
        -11    1    4    4    0    0  0.67592611157E-01  0.63130623246E-02 -0.10666829041E+00  0.12643971346E+00  0.51100000000E-03 0. -1.
         11    1    4    4    0    0  0.14422543494E-02  0.25977694013E-02 -0.68315647910E-03  0.30913309828E-02  0.51100000000E-03 0.  1.
</event>
<event>
 8    1  0.1131376E+005  0.1043930E+01  0.7957747E-01            NaN
         13   -1    0    0    0    0  0.00000000000E+00  0.00000000000E+00  0.74505805969E-08  0.10566000000E+00  0.10566000000E+00 0. -1.
     999900   -1    0    0    0    0 -0.00000000000E+00 -0.00000000000E+00 -0.74505805969E-08  0.93827000000E+00  0.93827000000E+00 0.  1.
     999902    2    1    2    0    0  0.10790787732E-01 -0.17825150827E-01  0.14341432524E-01  0.10186346686E+01  0.10183205460E+01 0.  0.
     999903    2    3    3    0    0  0.10676119847E+00  0.15991885281E-01 -0.67564916668E-01  0.12899285211E+00  0.20504732125E-01 0.  0.
         14    1    1    2    0    0 -0.10790787732E-01  0.17825150827E-01 -0.14341432524E-01  0.25295331362E-01  0.00000000000E+00 0.  1.
     999901    1    3    3    0    0 -0.95970410735E-01 -0.33817036109E-01  0.81906349192E-01  0.88964181652E+00  0.88000000000E+00 0.  1.
        -11    1    4    4    0    0  0.45588440951E-01 -0.28688174659E-02 -0.31839136208E-01  0.55682383008E-01  0.51100000000E-03 0.  1.
         11    1    4    4    0    0  0.61172757516E-01  0.18860702747E-01 -0.35725780460E-01  0.73310469107E-01  0.51100000000E-03 0. -1.
</event>
<event>
 8    1  0.1131376E+005  0.1043930E+01  0.7957747E-01            NaN
         13   -1    0    0    0    0  0.00000000000E+00  0.00000000000E+00  0.74505805969E-08  0.10566000000E+00  0.10566000000E+00 0.  1.
     999900   -1    0    0    0    0 -0.00000000000E+00 -0.00000000000E+00 -0.74505805969E-08  0.93827000000E+00  0.93827000000E+00 0. -1.
     999902    2    1    2    0    0 -0.20524870239E-01  0.25048270147E-02  0.14281879437E-01  0.10188000072E+01  0.10184900285E+01 0.  0.
     999903    2    3    3    0    0 -0.38766992200E-01  0.81578208187E-01 -0.89741516270E-01  0.12896505540E+00  0.20507609264E-01 0.  0.
         14    1    1    2    0    0  0.20524870239E-01 -0.25048270147E-02 -0.14281879437E-01  0.25129992777E-01  0.00000000000E+00 0. -1.
     999901    1    3    3    0    0  0.18242121961E-01 -0.79073381173E-01  0.10402339571E+00  0.88983495182E+00  0.88000000000E+00 0.  1.
        -11    1    4    4    0    0 -0.17479919375E-01  0.21141037537E-01 -0.18209854702E-01  0.32929484945E-01  0.51100000000E-03 0. -1.
         11    1    4    4    0    0 -0.21287072825E-01  0.60437170650E-01 -0.71531661568E-01  0.96035570459E-01  0.51100000000E-03 0.  1.
</event>
<event>
 8    1  0.1131376E+005  0.1043930E+01  0.7957747E-01            NaN
         13   -1    0    0    0    0  0.00000000000E+00  0.00000000000E+00  0.74505805969E-08  0.10566000000E+00  0.10566000000E+00 0.  1.
     999900   -1    0    0    0    0 -0.00000000000E+00 -0.00000000000E+00 -0.74505805969E-08  0.93827000000E+00  0.93827000000E+00 0. -1.
     999902    2    1    2    0    0  0.44170589354E-02 -0.97322305709E-02  0.19546002706E-01  0.10216528156E+01  0.10214099093E+01 0.  0.
     999903    2    3    3    0    0  0.21279443026E-01 -0.85871967582E-01  0.99970766906E-01  0.13455093747E+00  0.16822337104E-01 0.  0.
         14    1    1    2    0    0 -0.44170589354E-02  0.97322305709E-02 -0.19546002706E-01  0.22277184367E-01  0.00000000000E+00 0. -1.
     999901    1    3    3    0    0 -0.16862384091E-01  0.76139737011E-01 -0.80424764199E-01  0.88710187817E+00  0.88000000000E+00 0. -1.
        -11    1    4    4    0    0  0.12406134841E-01 -0.29384527118E-01  0.45564112557E-01  0.55621147864E-01  0.51100000000E-03 0.  1.
         11    1    4    4    0    0  0.88733081850E-02 -0.56487440463E-01  0.54406654349E-01  0.78929789602E-01  0.51100000000E-03 0. -1.
</event>
<event>
 8    1  0.1131376E+005  0.1043930E+01  0.7957747E-01            NaN
         13   -1    0    0    0    0  0.00000000000E+00  0.00000000000E+00  0.74505805969E-08  0.10566000000E+00  0.10566000000E+00 0. -1.
     999900   -1    0    0    0    0 -0.00000000000E+00 -0.00000000000E+00 -0.74505805969E-08  0.93827000000E+00  0.93827000000E+00 0.  1.
     999902    2    1    2    0    0  0.10280693752E-01 -0.71870662639E-03  0.21363289953E-01  0.10202108229E+01  0.10199350587E+01 0.  0.
     999903    2    3    3    0    0  0.31569685899E-01  0.10519271014E+00 -0.64892777163E-01  0.12941872681E+00  0.21817034352E-01 0.  0.
         14    1    1    2    0    0 -0.10280693752E-01  0.71870662639E-03 -0.21363289953E-01  0.23719177069E-01  0.00000000000E+00 0.  1.
     999901    1    3    3    0    0 -0.21288992147E-01 -0.10591141677E+00  0.86256067115E-01  0.89079209612E+00  0.88000000000E+00 0. -1.
        -11    1    4    4    0    0  0.15579483571E-01  0.47312548020E-01 -0.17088291386E-01  0.52663728809E-01  0.51100000000E-03 0.  1.
         11    1    4    4    0    0  0.15990202328E-01  0.57880162121E-01 -0.47804485777E-01  0.76754998006E-01  0.51100000000E-03 0. -1.
</event>
<event>
 8    1  0.1131376E+005  0.1043930E+01  0.7957747E-01            NaN
         13   -1    0    0    0    0  0.00000000000E+00  0.00000000000E+00  0.74505805969E-08  0.10566000000E+00  0.10566000000E+00 0. -1.
     999900   -1    0    0    0    0 -0.00000000000E+00 -0.00000000000E+00 -0.74505805969E-08  0.93827000000E+00  0.93827000000E+00 0.  1.
     999902    2    1    2    0    0  0.85765688144E-02  0.29016099725E-02  0.21600750596E-01  0.10205084437E+01  0.10202396358E+01 0.  0.
     999903    2    3    3    0    0 -0.12586823403E-01 -0.47325953689E-01 -0.11669863670E+00  0.12804140350E+00  0.19438497516E-01 0.  0.
         14    1    1    2    0    0 -0.85765688144E-02 -0.29016099725E-02 -0.21600750596E-01  0.23421556297E-01  0.00000000000E+00 0.  1.
     999901    1    3    3    0    0  0.21163392218E-01  0.50227563662E-01  0.13829938730E+00  0.89246704020E+00  0.88000000000E+00 0. -1.
        -11    1    4    4    0    0 -0.26679289592E-02 -0.25405045223E-01 -0.81429888121E-01  0.85344138452E-01  0.51100000000E-03 0. -1.
         11    1    4    4    0    0 -0.99188944441E-02 -0.21920908466E-01 -0.35268748583E-01  0.42697265048E-01  0.51100000000E-03 0.  1.
</event>
<event>
 8    1  0.1131376E+005  0.1043930E+01  0.7957747E-01            NaN
         13   -1    0    0    0    0  0.00000000000E+00  0.00000000000E+00  0.74505805969E-08  0.10566000000E+00  0.10566000000E+00 0.  1.
     999900   -1    0    0    0    0 -0.00000000000E+00 -0.00000000000E+00 -0.74505805969E-08  0.93827000000E+00  0.93827000000E+00 0. -1.
     999902    2    1    2    0    0  0.62704463010E-02  0.19970517319E-01  0.11152694169E-01  0.10202124401E+01  0.10199367139E+01 0.  0.
     999903    2    3    3    0    0  0.33292208153E-01  0.59320984646E-01  0.11287909308E+00  0.13306707711E+00  0.18379527006E-01 0.  0.
         14    1    1    2    0    0 -0.62704463010E-02 -0.19970517319E-01 -0.11152694169E-01  0.23717559867E-01  0.00000000000E+00 0. -1.
     999901    1    3    3    0    0 -0.27021761852E-01 -0.39350467328E-01 -0.10172639891E+00  0.88714536302E+00  0.88000000000E+00 0. -1.
        -11    1    4    4    0    0  0.39905137461E-02  0.25048893100E-01  0.40418562001E-01  0.47720986167E-01  0.51100000000E-03 0.  1.
         11    1    4    4    0    0  0.29301694407E-01  0.34272091546E-01  0.72460531082E-01  0.85346090946E-01  0.51100000000E-03 0. -1.
</event>
<event>
 8    1  0.1131376E+005  0.1043930E+01  0.7957747E-01            NaN
         13   -1    0    0    0    0  0.00000000000E+00  0.00000000000E+00  0.74505805969E-08  0.10566000000E+00  0.10566000000E+00 0.  1.
     999900   -1    0    0    0    0 -0.00000000000E+00 -0.00000000000E+00 -0.74505805969E-08  0.93827000000E+00  0.93827000000E+00 0. -1.
     999902    2    1    2    0    0  0.22250566533E-01  0.57432927832E-03 -0.47694215342E-02  0.10211667633E+01  0.10209130195E+01 0.  0.
     999903    2    3    3    0    0  0.45749480589E-03  0.30403970386E-01  0.12560393087E+00  0.13079495526E+00  0.20158426417E-01 0.  0.
         14    1    1    2    0    0 -0.22250566533E-01 -0.57432927832E-03  0.47694215342E-02  0.22763236741E-01  0.00000000000E+00 0.  1.
     999901    1    3    3    0    0  0.21793071727E-01 -0.29829641108E-01 -0.13037335240E+00  0.89037180800E+00  0.88000000000E+00 0. -1.
        -11    1    4    4    0    0  0.49871767241E-02  0.23778427244E-02  0.44902256014E-01  0.45243781714E-01  0.51100000000E-03 0. -1.
         11    1    4    4    0    0 -0.45296819183E-02  0.28026127662E-01  0.80701674852E-01  0.85551173545E-01  0.51100000000E-03 0.  1.
</event>
<event>
 8    1  0.1131376E+005  0.1043930E+01  0.7957747E-01            NaN
         13   -1    0    0    0    0  0.00000000000E+00  0.00000000000E+00  0.74505805969E-08  0.10566000000E+00  0.10566000000E+00 0.  1.
     999900   -1    0    0    0    0 -0.00000000000E+00 -0.00000000000E+00 -0.74505805969E-08  0.93827000000E+00  0.93827000000E+00 0.  1.
     999902    2    1    2    0    0 -0.16565549306E-01 -0.74252058448E-02  0.15805373571E-01  0.10198600823E+01  0.10195760033E+01 0.  0.
     999903    2    3    3    0    0 -0.30922604094E-02  0.12733316785E+00 -0.51741839320E-02  0.12925271052E+00  0.21358681754E-01 0.  0.
         14    1    1    2    0    0  0.16565549306E-01  0.74252058448E-02 -0.15805373571E-01  0.24069917726E-01  0.00000000000E+00 0. -1.
     999901    1    3    3    0    0 -0.13473288896E-01 -0.13475837370E+00  0.20979557503E-01  0.89060737176E+00  0.88000000000E+00 0.  1.
        -11    1    4    4    0    0 -0.10292803531E-01  0.10449909859E+00 -0.14436104426E-02  0.10501594423E+00  0.51100000000E-03 0. -1.
         11    1    4    4    0    0  0.72005431219E-02  0.22834069267E-01 -0.37305734894E-02  0.24236766288E-01  0.51100000000E-03 0.  1.
</event>
<event>
 8    1  0.1131376E+005  0.1043930E+01  0.7957747E-01            NaN
         13   -1    0    0    0    0  0.00000000000E+00  0.00000000000E+00  0.74505805969E-08  0.10566000000E+00  0.10566000000E+00 0.  1.
     999900   -1    0    0    0    0 -0.00000000000E+00 -0.00000000000E+00 -0.74505805969E-08  0.93827000000E+00  0.93827000000E+00 0.  1.
     999902    2    1    2    0    0  0.14707590376E-01 -0.18290233368E-01  0.85446322907E-03  0.10204443457E+01  0.10201740472E+01 0.  0.
     999903    2    3    3    0    0  0.21408920678E-01 -0.12962313314E+00 -0.47839572139E-02  0.13338644781E+00  0.22551267873E-01 0.  0.
         14    1    1    2    0    0 -0.14707590376E-01  0.18290233368E-01 -0.85446322907E-03  0.23485654318E-01  0.00000000000E+00 0. -1.
     999901    1    3    3    0    0 -0.67013303016E-02  0.11133289977E+00  0.56384204430E-02  0.88705789788E+00  0.88000000000E+00 0. -1.
        -11    1    4    4    0    0  0.13511730042E-01 -0.55532786811E-01 -0.12405067353E-01  0.58485930588E-01  0.51100000000E-03 0. -1.
         11    1    4    4    0    0  0.78971906362E-02 -0.74090346327E-01  0.76211101395E-02  0.74900517218E-01  0.51100000000E-03 0.  1.
</event>
<event>
 8    1  0.1131376E+005  0.1043930E+01  0.7957747E-01            NaN
         13   -1    0    0    0    0  0.00000000000E+00  0.00000000000E+00  0.74505805969E-08  0.10566000000E+00  0.10566000000E+00 0. -1.
     999900   -1    0    0    0    0 -0.00000000000E+00 -0.00000000000E+00 -0.74505805969E-08  0.93827000000E+00  0.93827000000E+00 0. -1.
     999902    2    1    2    0    0 -0.14643284105E-01 -0.70047473293E-02 -0.14943881063E-01  0.10218661872E+01  0.10216279620E+01 0.  0.
     999903    2    3    3    0    0 -0.71929499760E-01 -0.90233851959E-01 -0.66420946737E-01  0.13459019706E+00  0.19666672455E-01 0.  0.
         14    1    1    2    0    0  0.14643284105E-01  0.70047473293E-02  0.14943881063E-01  0.22063812811E-01  0.00000000000E+00 0. -1.
     999901    1    3    3    0    0  0.57286215655E-01  0.83229104630E-01  0.51477065674E-01  0.88727599012E+00  0.88000000000E+00 0.  1.
        -11    1    4    4    0    0 -0.49388247007E-01 -0.60368404511E-01 -0.34034451295E-01  0.85100811991E-01  0.51100000000E-03 0.  1.
         11    1    4    4    0    0 -0.22541252753E-01 -0.29865447448E-01 -0.32386495442E-01  0.49489385073E-01  0.51100000000E-03 0. -1.
</event>
<event>
 8    1  0.1131376E+005  0.1043930E+01  0.7957747E-01            NaN
         13   -1    0    0    0    0  0.00000000000E+00  0.00000000000E+00  0.74505805969E-08  0.10566000000E+00  0.10566000000E+00 0.  1.
     999900   -1    0    0    0    0 -0.00000000000E+00 -0.00000000000E+00 -0.74505805969E-08  0.93827000000E+00  0.93827000000E+00 0.  1.
     999902    2    1    2    0    0 -0.11851103474E-01 -0.19136672492E-01 -0.76935461403E-02  0.10201423658E+01  0.10198649886E+01 0.  0.
     999903    2    3    3    0    0  0.36733331399E-01  0.11461088564E+00 -0.39239386517E-01  0.12815357852E+00  0.19965407363E-01 0.  0.
         14    1    1    2    0    0  0.11851103474E-01  0.19136672492E-01  0.76935461403E-02  0.23787634179E-01  0.00000000000E+00 0. -1.
     999901    1    3    3    0    0 -0.48584434873E-01 -0.13374755813E+00  0.31545840377E-01  0.89198878730E+00  0.88000000000E+00 0.  1.
        -11    1    4    4    0    0  0.24083787710E-01  0.46697287499E-01 -0.12024756280E-01  0.53902888372E-01  0.51100000000E-03 0.  1.
         11    1    4    4    0    0  0.12649543689E-01  0.67913598142E-01 -0.27214630237E-01  0.74250690152E-01  0.51100000000E-03 0. -1.
</event>
<event>
 8    1  0.1131376E+005  0.1043930E+01  0.7957747E-01            NaN
         13   -1    0    0    0    0  0.00000000000E+00  0.00000000000E+00  0.74505805969E-08  0.10566000000E+00  0.10566000000E+00 0. -1.
     999900   -1    0    0    0    0 -0.00000000000E+00 -0.00000000000E+00 -0.74505805969E-08  0.93827000000E+00  0.93827000000E+00 0. -1.
     999902    2    1    2    0    0 -0.12587046281E-01 -0.63337620001E-02 -0.19756735559E-01  0.10196631734E+01  0.10193743710E+01 0.  0.
     999903    2    3    3    0    0 -0.11786878673E+00  0.17809347846E-01  0.49028730584E-01  0.13039461158E+00  0.19715845113E-01 0.  0.
         14    1    1    2    0    0  0.12587046281E-01  0.63337620001E-02  0.19756735559E-01  0.24266826639E-01  0.00000000000E+00 0. -1.
     999901    1    3    3    0    0  0.10528174045E+00 -0.24143109846E-01 -0.68785466143E-01  0.88926856178E+00  0.88000000000E+00 0. -1.
        -11    1    4    4    0    0 -0.32913873650E-01  0.18034557253E-02  0.48911292690E-02  0.33328063216E-01  0.51100000000E-03 0.  1.
         11    1    4    4    0    0 -0.84954913084E-01  0.16005892121E-01  0.44137601315E-01  0.97066548360E-01  0.51100000000E-03 0. -1.
</event>
<event>
 8    1  0.1131376E+005  0.1043930E+01  0.7957747E-01            NaN
         13   -1    0    0    0    0  0.00000000000E+00  0.00000000000E+00  0.74505805969E-08  0.10566000000E+00  0.10566000000E+00 0.  1.
     999900   -1    0    0    0    0 -0.00000000000E+00 -0.00000000000E+00 -0.74505805969E-08  0.93827000000E+00  0.93827000000E+00 0. -1.
     999902    2    1    2    0    0  0.22274838199E-01  0.10972317861E-01 -0.29192361721E-02  0.10189283577E+01  0.10186215765E+01 0.  0.
     999903    2    3    3    0    0  0.11813343572E+00  0.56647496596E-01  0.33524533670E-02  0.13252301775E+00  0.19663768289E-01 0.  0.
         14    1    1    2    0    0 -0.22274838199E-01 -0.10972317861E-01  0.29192361721E-02  0.25001642264E-01  0.00000000000E+00 0.  1.
     999901    1    3    3    0    0 -0.95858597522E-01 -0.45675178735E-01 -0.62716895391E-02  0.88640533999E+00  0.88000000000E+00 0. -1.
        -11    1    4    4    0    0  0.52748206398E-01  0.16688398778E-01 -0.43957789194E-02  0.55501891186E-01  0.51100000000E-03 0. -1.
         11    1    4    4    0    0  0.65385229324E-01  0.39959097818E-01  0.77482322864E-02  0.77021126561E-01  0.51100000000E-03 0.  1.
</event>
<event>
 8    1  0.1131376E+005  0.1043930E+01  0.7957747E-01            NaN
         13   -1    0    0    0    0  0.00000000000E+00  0.00000000000E+00  0.74505805969E-08  0.10566000000E+00  0.10566000000E+00 0. -1.
     999900   -1    0    0    0    0 -0.00000000000E+00 -0.00000000000E+00 -0.74505805969E-08  0.93827000000E+00  0.93827000000E+00 0.  1.
     999902    2    1    2    0    0  0.21923568350E-02  0.75799127148E-02 -0.24479855163E-01  0.10182098753E+01  0.10178849765E+01 0.  0.
     999903    2    3    3    0    0  0.88795700026E-01  0.86465908571E-01 -0.35781488119E-01  0.13037494341E+00  0.18875414942E-01 0.  0.
         14    1    1    2    0    0 -0.21923568350E-02 -0.75799127148E-02  0.24479855163E-01  0.25720124689E-01  0.00000000000E+00 0. -1.
     999901    1    3    3    0    0 -0.86603343191E-01 -0.78885995856E-01  0.11301632956E-01  0.88783493190E+00  0.88000000000E+00 0. -1.
        -11    1    4    4    0    0  0.28876354104E-01  0.16593472411E-01 -0.10332016700E-01  0.34874042540E-01  0.51100000000E-03 0. -1.
         11    1    4    4    0    0  0.59919345923E-01  0.69872436159E-01 -0.25449471418E-01  0.95500900871E-01  0.51100000000E-03 0.  1.
</event>
<event>
 8    1  0.1131376E+005  0.1043930E+01  0.7957747E-01            NaN
         13   -1    0    0    0    0  0.00000000000E+00  0.00000000000E+00  0.74505805969E-08  0.10566000000E+00  0.10566000000E+00 0.  1.
     999900   -1    0    0    0    0 -0.00000000000E+00 -0.00000000000E+00 -0.74505805969E-08  0.93827000000E+00  0.93827000000E+00 0. -1.
     999902    2    1    2    0    0 -0.17035512160E-01  0.11586929021E-01 -0.31643324412E-02  0.10230858498E+01  0.10228734904E+01 0.  0.
     999903    2    3    3    0    0 -0.70480595042E-01  0.65252451834E-02  0.11220653537E+00  0.13393319997E+00  0.18376680088E-01 0.  0.
         14    1    1    2    0    0  0.17035512160E-01 -0.11586929021E-01  0.31643324412E-02  0.20844150222E-01  0.00000000000E+00 0.  1.
     999901    1    3    3    0    0  0.53445082881E-01  0.50616838374E-02 -0.11537086781E+00  0.88915264981E+00  0.88000000000E+00 0. -1.
        -11    1    4    4    0    0 -0.59031681845E-01  0.16160338514E-02  0.10181618971E+00  0.11770364750E+00  0.51100000000E-03 0. -1.
         11    1    4    4    0    0 -0.11448913197E-01  0.49092113320E-02  0.10390345663E-01  0.16229552467E-01  0.51100000000E-03 0.  1.
</event>
<event>
 8    1  0.1131376E+005  0.1043930E+01  0.7957747E-01            NaN
         13   -1    0    0    0    0  0.00000000000E+00  0.00000000000E+00  0.74505805969E-08  0.10566000000E+00  0.10566000000E+00 0.  1.
     999900   -1    0    0    0    0 -0.00000000000E+00 -0.00000000000E+00 -0.74505805969E-08  0.93827000000E+00  0.93827000000E+00 0.  1.
     999902    2    1    2    0    0  0.27032258230E-02 -0.12245724155E-01 -0.19826134120E-01  0.10204706568E+01  0.10202009707E+01 0.  0.
     999903    2    3    3    0    0 -0.76101826807E-01  0.20480180035E-01  0.99436678227E-01  0.12833566726E+00  0.19273419435E-01 0.  0.
         14    1    1    2    0    0 -0.27032258230E-02  0.12245724155E-01  0.19826134120E-01  0.23459343215E-01  0.00000000000E+00 0.  1.
     999901    1    3    3    0    0  0.78805052630E-01 -0.32725904190E-01 -0.11926281235E+00  0.89213498952E+00  0.88000000000E+00 0.  1.
        -11    1    4    4    0    0 -0.23635348911E-01  0.39083383499E-02  0.44731836548E-01  0.50745474170E-01  0.51100000000E-03 0.  1.
         11    1    4    4    0    0 -0.52466477896E-01  0.16571841685E-01  0.54704841679E-01  0.77590193091E-01  0.51100000000E-03 0. -1.
</event>
<event>
 8    1  0.1188351E+005  0.1043930E+01  0.7957747E-01            NaN
         13   -1    0    0    0    0  0.00000000000E+00  0.00000000000E+00  0.74505805969E-08  0.10566000000E+00  0.10566000000E+00 0.  1.
     999900   -1    0    0    0    0 -0.00000000000E+00 -0.00000000000E+00 -0.74505805969E-08  0.93827000000E+00  0.93827000000E+00 0.  1.
     999902    2    1    2    0    0 -0.18028089016E-01 -0.10236353127E-01 -0.10216367217E-01  0.10208179019E+01  0.10205562306E+01 0.  0.
     999903    2    3    3    0    0 -0.15199098231E-01  0.99977753507E-01  0.78545871701E-01  0.12950769354E+00  0.19396518801E-01 0.  0.
         14    1    1    2    0    0  0.18028089016E-01  0.10236353127E-01  0.10216367217E-01  0.23112098088E-01  0.00000000000E+00 0.  1.
     999901    1    3    3    0    0 -0.28289907851E-02 -0.11021410663E+00 -0.88762238918E-01  0.89131020837E+00  0.88000000000E+00 0. -1.
        -11    1    4    4    0    0  0.22766093059E-02  0.49040808511E-01  0.36192160002E-01  0.60994404792E-01  0.51100000000E-03 0. -1.
         11    1    4    4    0    0 -0.17475707537E-01  0.50936944996E-01  0.42353711699E-01  0.68513288748E-01  0.51100000000E-03 0.  1.
</event>
<event>
 8    1  0.1131376E+005  0.1043930E+01  0.7957747E-01            NaN
         13   -1    0    0    0    0  0.00000000000E+00  0.00000000000E+00  0.74505805969E-08  0.10566000000E+00  0.10566000000E+00 0.  1.
     999900   -1    0    0    0    0 -0.00000000000E+00 -0.00000000000E+00 -0.74505805969E-08  0.93827000000E+00  0.93827000000E+00 0.  1.
     999902    2    1    2    0    0 -0.29363315610E-02  0.23273505138E-01  0.59612943906E-02  0.10197263822E+01  0.10194391004E+01 0.  0.
     999903    2    3    3    0    0 -0.60786250544E-01 -0.10919430986E+00 -0.15685064741E-01  0.12767094669E+00  0.20868248893E-01 0.  0.
         14    1    1    2    0    0  0.29363315610E-02 -0.23273505138E-01 -0.59612943906E-02  0.24203617813E-01  0.00000000000E+00 0. -1.
     999901    1    3    3    0    0  0.57849918983E-01  0.13246781500E+00  0.21646359131E-01  0.89205543550E+00  0.88000000000E+00 0. -1.
        -11    1    4    4    0    0 -0.29651896464E-01 -0.36829390689E-01  0.29652482414E-03  0.47286235105E-01  0.51100000000E-03 0. -1.
         11    1    4    4    0    0 -0.31134354080E-01 -0.72364919170E-01 -0.15981589565E-01  0.80384711584E-01  0.51100000000E-03 0.  1.
</event>
<event>
 8    1  0.1131376E+005  0.1043930E+01  0.7957747E-01            NaN
         13   -1    0    0    0    0  0.00000000000E+00  0.00000000000E+00  0.74505805969E-08  0.10566000000E+00  0.10566000000E+00 0.  1.
     999900   -1    0    0    0    0 -0.00000000000E+00 -0.00000000000E+00 -0.74505805969E-08  0.93827000000E+00  0.93827000000E+00 0. -1.
     999902    2    1    2    0    0 -0.19278336734E-01 -0.10249723676E-01  0.67918515588E-02  0.10210642975E+01  0.10208082383E+01 0.  0.
     999903    2    3    3    0    0  0.11029360737E-01 -0.92390120227E-01 -0.90961766910E-01  0.13133323073E+00  0.17798689309E-01 0.  0.
         14    1    1    2    0    0  0.19278336734E-01  0.10249723676E-01 -0.67918515588E-02  0.22865702488E-01  0.00000000000E+00 0.  1.
     999901    1    3    3    0    0 -0.30307697471E-01  0.82140396550E-01  0.97753618469E-01  0.88973106678E+00  0.88000000000E+00 0.  1.
        -11    1    4    4    0    0  0.57791964696E-02 -0.41777323666E-01 -0.29157156202E-01  0.51275186624E-01  0.51100000000E-03 0.  1.
         11    1    4    4    0    0  0.52501642669E-02 -0.50612796561E-01 -0.61804610708E-01  0.80058044107E-01  0.51100000000E-03 0. -1.
</event>
<event>
 8    1  0.1131376E+005  0.1043930E+01  0.7957747E-01            NaN
         13   -1    0    0    0    0  0.00000000000E+00  0.00000000000E+00  0.74505805969E-08  0.10566000000E+00  0.10566000000E+00 0. -1.
     999900   -1    0    0    0    0 -0.00000000000E+00 -0.00000000000E+00 -0.74505805969E-08  0.93827000000E+00  0.93827000000E+00 0. -1.
     999902    2    1    2    0    0  0.12142049031E-01 -0.17887436535E-01 -0.90871140389E-02  0.10204786593E+01  0.10202091593E+01 0.  0.
     999903    2    3    3    0    0 -0.28833212755E-01  0.11181798576E+00  0.51426591885E-01  0.12797410620E+00  0.19951476340E-01 0.  0.
         14    1    1    2    0    0 -0.12142049031E-01  0.17887436535E-01  0.90871140389E-02  0.23451340729E-01  0.00000000000E+00 0. -1.
     999901    1    3    3    0    0  0.40975261786E-01 -0.12970542229E+00 -0.60513705924E-01  0.89250455307E+00  0.88000000000E+00 0. -1.
        -11    1    4    4    0    0 -0.20054813696E-01  0.10220687225E+00  0.45435381941E-01  0.11363571332E+00  0.51100000000E-03 0. -1.
         11    1    4    4    0    0 -0.87783990591E-02  0.96111135019E-02  0.59912099438E-02  0.14338392880E-01  0.51100000000E-03 0.  1.
</event>
<event>
 8    1  0.1131376E+005  0.1043930E+01  0.7957747E-01            NaN
         13   -1    0    0    0    0  0.00000000000E+00  0.00000000000E+00  0.74505805969E-08  0.10566000000E+00  0.10566000000E+00 0. -1.
     999900   -1    0    0    0    0 -0.00000000000E+00 -0.00000000000E+00 -0.74505805969E-08  0.93827000000E+00  0.93827000000E+00 0.  1.
     999902    2    1    2    0    0  0.18642182018E-01  0.11821118516E-01 -0.17462333006E-01  0.10157839014E+01  0.10153938799E+01 0.  0.
     999903    2    3    3    0    0  0.79751101402E-01 -0.37886890153E-01  0.87471288480E-01  0.12605571195E+00  0.21051403432E-01 0.  0.
         14    1    1    2    0    0 -0.18642182018E-01 -0.11821118516E-01  0.17462333006E-01  0.28146098618E-01  0.00000000000E+00 0. -1.
     999901    1    3    3    0    0 -0.61108919383E-01  0.49708008669E-01 -0.10493362149E+00  0.88972818943E+00  0.88000000000E+00 0.  1.
        -11    1    4    4    0    0  0.50260339986E-01 -0.19539795429E-01  0.65957257138E-01  0.85196985106E-01  0.51100000000E-03 0.  1.
         11    1    4    4    0    0  0.29490761415E-01 -0.18347094724E-01  0.21514031341E-01  0.40858726843E-01  0.51100000000E-03 0. -1.
</event>
<event>
 8    1  0.1131376E+005  0.1043930E+01  0.7957747E-01            NaN
         13   -1    0    0    0    0  0.00000000000E+00  0.00000000000E+00  0.74505805969E-08  0.10566000000E+00  0.10566000000E+00 0. -1.
     999900   -1    0    0    0    0 -0.00000000000E+00 -0.00000000000E+00 -0.74505805969E-08  0.93827000000E+00  0.93827000000E+00 0.  1.
     999902    2    1    2    0    0 -0.21711440800E-01 -0.56231791233E-02 -0.52587716771E-02  0.10208939091E+01  0.10206339756E+01 0.  0.
     999903    2    3    3    0    0  0.15912216697E-01  0.20900019260E-01 -0.12705507877E+00  0.13131346861E+00  0.20254000891E-01 0.  0.
         14    1    1    2    0    0  0.21711440800E-01  0.56231791233E-02  0.52587716771E-02  0.23036090915E-01  0.00000000000E+00 0. -1.
     999901    1    3    3    0    0 -0.37623657497E-01 -0.26523198384E-01  0.12179630709E+00  0.88958044048E+00  0.88000000000E+00 0.  1.
        -11    1    4    4    0    0  0.39564328854E-02  0.10580678263E-01 -0.19009082017E-01  0.22118101949E-01  0.51100000000E-03 0. -1.
         11    1    4    4    0    0  0.11955783812E-01  0.10319340997E-01 -0.10804599675E+00  0.10919536666E+00  0.51100000000E-03 0.  1.
</event>
<event>
 8    1  0.1131376E+005  0.1043930E+01  0.7957747E-01            NaN
         13   -1    0    0    0    0  0.00000000000E+00  0.00000000000E+00  0.74505805969E-08  0.10566000000E+00  0.10566000000E+00 0. -1.
     999900   -1    0    0    0    0 -0.00000000000E+00 -0.00000000000E+00 -0.74505805969E-08  0.93827000000E+00  0.93827000000E+00 0. -1.
     999902    2    1    2    0    0  0.10491552109E-01  0.94337926565E-02 -0.11856735539E-01  0.10255003693E+01  0.10253347532E+01 0.  0.
     999903    2    3    3    0    0 -0.11397619787E+00  0.58191273414E-01  0.35305765166E-01  0.13415654441E+00  0.19356739715E-01 0.  0.
         14    1    1    2    0    0 -0.10491552109E-01 -0.94337926565E-02  0.11856735539E-01  0.18429630685E-01  0.00000000000E+00 0. -1.
     999901    1    3    3    0    0  0.12446774998E+00 -0.48757480758E-01 -0.47162500705E-01  0.89134382490E+00  0.88000000000E+00 0. -1.
        -11    1    4    4    0    0 -0.80635369834E-01  0.35712274588E-01  0.31959107875E-01  0.93803385449E-01  0.51100000000E-03 0. -1.
         11    1    4    4    0    0 -0.33340828038E-01  0.22478998826E-01  0.33466572908E-02  0.40353158966E-01  0.51100000000E-03 0.  1.
</event>
<event>
 8    1  0.1131376E+005  0.1043930E+01  0.7957747E-01            NaN
         13   -1    0    0    0    0  0.00000000000E+00  0.00000000000E+00  0.74505805969E-08  0.10566000000E+00  0.10566000000E+00 0.  1.
     999900   -1    0    0    0    0 -0.00000000000E+00 -0.00000000000E+00 -0.74505805969E-08  0.93827000000E+00  0.93827000000E+00 0.  1.
     999902    2    1    2    0    0 -0.22599920569E-01  0.93524439488E-02 -0.16660732077E-03  0.10194708018E+01  0.10191773464E+01 0.  0.
     999903    2    3    3    0    0  0.44891200412E-01 -0.75858928308E-01  0.90881938265E-01  0.12812021590E+00  0.19633291631E-01 0.  0.
         14    1    1    2    0    0  0.22599920569E-01 -0.93524439488E-02  0.16660732077E-03  0.24459198179E-01  0.00000000000E+00 0. -1.
     999901    1    3    3    0    0 -0.67491120982E-01  0.85211372257E-01 -0.91048545586E-01  0.89135058592E+00  0.88000000000E+00 0.  1.
        -11    1    4    4    0    0  0.39416009767E-01 -0.49945250624E-01  0.60315926116E-01  0.87672241616E-01  0.51100000000E-03 0.  1.
         11    1    4    4    0    0  0.54751906451E-02 -0.25913677684E-01  0.30566012149E-01  0.40447974281E-01  0.51100000000E-03 0. -1.
</event>
<event>
 8    1  0.1131376E+005  0.1043930E+01  0.7957747E-01            NaN
         13   -1    0    0    0    0  0.00000000000E+00  0.00000000000E+00  0.74505805969E-08  0.10566000000E+00  0.10566000000E+00 0. -1.
     999900   -1    0    0    0    0 -0.00000000000E+00 -0.00000000000E+00 -0.74505805969E-08  0.93827000000E+00  0.93827000000E+00 0.  1.
     999902    2    1    2    0    0  0.16904036063E-01 -0.14694556670E-01  0.10496853627E-01  0.10191941886E+01  0.10188939757E+01 0.  0.
     999903    2    3    3    0    0  0.78029090838E-02  0.12555676761E+00  0.12277074562E-01  0.12803963763E+00  0.20445903342E-01 0.  0.
         14    1    1    2    0    0 -0.16904036063E-01  0.14694556670E-01 -0.10496853627E-01  0.24735811429E-01  0.00000000000E+00 0.  1.
     999901    1    3    3    0    0  0.91011269793E-02 -0.14025132428E+00 -0.17802209345E-02  0.89115455094E+00  0.88000000000E+00 0. -1.
        -11    1    4    4    0    0  0.99313383158E-02  0.11160515714E+00  0.16600501942E-01  0.11327038610E+00  0.51100000000E-03 0.  1.
         11    1    4    4    0    0 -0.21284292321E-02  0.13951610463E-01 -0.43234273801E-02  0.14769251532E-01  0.51100000000E-03 0. -1.
</event>
<event>
 8    1  0.1131376E+005  0.1043930E+01  0.7957747E-01            NaN
         13   -1    0    0    0    0  0.00000000000E+00  0.00000000000E+00  0.74505805969E-08  0.10566000000E+00  0.10566000000E+00 0.  1.
     999900   -1    0    0    0    0 -0.00000000000E+00 -0.00000000000E+00 -0.74505805969E-08  0.93827000000E+00  0.93827000000E+00 0. -1.
     999902    2    1    2    0    0 -0.72333920867E-03 -0.12751511817E-01 -0.18681225176E-01  0.10213000984E+01  0.10210493516E+01 0.  0.
     999903    2    3    3    0    0 -0.47616083376E-01  0.10117817302E+00  0.61663518482E-01  0.12909262230E+00  0.18926212754E-01 0.  0.
         14    1    1    2    0    0  0.72333920867E-03  0.12751511817E-01  0.18681225176E-01  0.22629901620E-01  0.00000000000E+00 0. -1.
     999901    1    3    3    0    0  0.46892744167E-01 -0.11392968483E+00 -0.80344743658E-01  0.89220747608E+00  0.88000000000E+00 0.  1.
        -11    1    4    4    0    0 -0.36259239392E-01  0.61327618183E-01  0.45918619102E-01  0.84761960186E-01  0.51100000000E-03 0.  1.
         11    1    4    4    0    0 -0.11356843984E-01  0.39850554835E-01  0.15744899379E-01  0.44330662113E-01  0.51100000000E-03 0. -1.
</event>
<event>
 8    1  0.1131376E+005  0.1043930E+01  0.7957747E-01            NaN
         13   -1    0    0    0    0  0.00000000000E+00  0.00000000000E+00  0.74505805969E-08  0.10566000000E+00  0.10566000000E+00 0. -1.
     999900   -1    0    0    0    0 -0.00000000000E+00 -0.00000000000E+00 -0.74505805969E-08  0.93827000000E+00  0.93827000000E+00 0. -1.
     999902    2    1    2    0    0 -0.18767748148E-01 -0.10636313271E-01 -0.77387541459E-02  0.10210117137E+01  0.10207544620E+01 0.  0.
     999903    2    3    3    0    0 -0.28999079736E-01 -0.12597745733E+00 -0.25443109741E-01  0.13324952491E+00  0.19920283030E-01 0.  0.
         14    1    1    2    0    0  0.18767748148E-01  0.10636313271E-01  0.77387541459E-02  0.22918286285E-01  0.00000000000E+00 0. -1.
     999901    1    3    3    0    0  0.10231331588E-01  0.11534114406E+00  0.17704355596E-01  0.88776218880E+00  0.88000000000E+00 0.  1.
        -11    1    4    4    0    0  0.23715660463E-03 -0.10008174666E-01  0.27056409822E-02  0.10382746145E-01  0.51100000000E-03 0. -1.
         11    1    4    4    0    0 -0.29236236340E-01 -0.11596928266E+00 -0.28148750724E-01  0.12286677877E+00  0.51100000000E-03 0.  1.
</event>
<event>
 8    1  0.1131376E+005  0.1043930E+01  0.7957747E-01            NaN
         13   -1    0    0    0    0  0.00000000000E+00  0.00000000000E+00  0.74505805969E-08  0.10566000000E+00  0.10566000000E+00 0.  1.
     999900   -1    0    0    0    0 -0.00000000000E+00 -0.00000000000E+00 -0.74505805969E-08  0.93827000000E+00  0.93827000000E+00 0. -1.
     999902    2    1    2    0    0 -0.78089340185E-02  0.21067419692E-01  0.94799741685E-02  0.10195438250E+01  0.10192521403E+01 0.  0.
     999903    2    3    3    0    0 -0.89600025355E-01  0.79190324226E-01 -0.51628028985E-01  0.13173627672E+00  0.19741358439E-01 0.  0.
         14    1    1    2    0    0  0.78089340185E-02 -0.21067419692E-01 -0.94799741685E-02  0.24386175043E-01  0.00000000000E+00 0. -1.
     999901    1    3    3    0    0  0.81791091337E-01 -0.58122904534E-01  0.61108003153E-01  0.88780754823E+00  0.88000000000E+00 0.  1.
        -11    1    4    4    0    0 -0.19684898652E-01  0.22690916258E-01 -0.49546069526E-02  0.30449666117E-01  0.51100000000E-03 0.  1.
         11    1    4    4    0    0 -0.69915126704E-01  0.56499407968E-01 -0.46673422032E-01  0.10128661061E+00  0.51100000000E-03 0. -1.
</event>
<event>
 8    1  0.1131376E+005  0.1043930E+01  0.7957747E-01            NaN
         13   -1    0    0    0    0  0.00000000000E+00  0.00000000000E+00  0.74505805969E-08  0.10566000000E+00  0.10566000000E+00 0.  1.
     999900   -1    0    0    0    0 -0.00000000000E+00 -0.00000000000E+00 -0.74505805969E-08  0.93827000000E+00  0.93827000000E+00 0. -1.
     999902    2    1    2    0    0 -0.11549481925E-01 -0.32303968742E-02  0.21824048979E-01  0.10190278894E+01  0.10187235760E+01 0.  0.
     999903    2    3    3    0    0 -0.59281191320E-01 -0.10811670319E+00  0.40442596692E-01  0.13131954564E+00  0.20142946291E-01 0.  0.
         14    1    1    2    0    0  0.11549481925E-01  0.32303968742E-02 -0.21824048979E-01  0.24902110564E-01  0.00000000000E+00 0. -1.
     999901    1    3    3    0    0  0.47731709395E-01  0.10488630632E+00 -0.18618547713E-01  0.88770834380E+00  0.88000000000E+00 0.  1.
        -11    1    4    4    0    0 -0.35421063472E-01 -0.83231381975E-01  0.29481807345E-01  0.95139648771E-01  0.51100000000E-03 0. -1.
         11    1    4    4    0    0 -0.23860127849E-01 -0.24885321216E-01  0.10960789347E-01  0.36179896864E-01  0.51100000000E-03 0.  1.
</event>
<event>
 8    1  0.1131376E+005  0.1043930E+01  0.7957747E-01            NaN
         13   -1    0    0    0    0  0.00000000000E+00  0.00000000000E+00  0.74505805969E-08  0.10566000000E+00  0.10566000000E+00 0.  1.
     999900   -1    0    0    0    0 -0.00000000000E+00 -0.00000000000E+00 -0.74505805969E-08  0.93827000000E+00  0.93827000000E+00 0. -1.
     999902    2    1    2    0    0  0.38466059022E-02 -0.10928310853E-01  0.21047761888E-01  0.10199043338E+01  0.10196213108E+01 0.  0.
     999903    2    3    3    0    0  0.26881656636E-01 -0.31215335124E-01 -0.11970843670E+00  0.12818998249E+00  0.20138053104E-01 0.  0.
         14    1    1    2    0    0 -0.38466059022E-02  0.10928310853E-01 -0.21047761888E-01  0.24025666184E-01  0.00000000000E+00 0. -1.
     999901    1    3    3    0    0 -0.23035050734E-01  0.20287024271E-01  0.14075619859E+00  0.89171435132E+00  0.88000000000E+00 0.  1.
        -11    1    4    4    0    0  0.27580999826E-01 -0.19365754594E-01 -0.82090902955E-01  0.88740754287E-01  0.51100000000E-03 0.  1.
         11    1    4    4    0    0 -0.69934319053E-03 -0.11849580531E-01 -0.37617533749E-01  0.39449228205E-01  0.51100000000E-03 0. -1.
</event>
<event>
 8    1  0.1131376E+005  0.1043930E+01  0.7957747E-01            NaN
         13   -1    0    0    0    0  0.00000000000E+00  0.00000000000E+00  0.74505805969E-08  0.10566000000E+00  0.10566000000E+00 0. -1.
     999900   -1    0    0    0    0 -0.00000000000E+00 -0.00000000000E+00 -0.74505805969E-08  0.93827000000E+00  0.93827000000E+00 0.  1.
     999902    2    1    2    0    0 -0.10966769773E-01  0.13292930343E-01  0.18051980325E-01  0.10189731166E+01  0.10186674464E+01 0.  0.
     999903    2    3    3    0    0  0.10215921270E+00  0.51567752951E-01 -0.53713367557E-01  0.12801143665E+00  0.20151034051E-01 0.  0.
         14    1    1    2    0    0  0.10966769773E-01 -0.13292930343E-01 -0.18051980325E-01  0.24956883419E-01  0.00000000000E+00 0.  1.
     999901    1    3    3    0    0 -0.11312598248E+00 -0.38274822608E-01  0.71765347882E-01  0.89096167994E+00  0.88000000000E+00 0.  1.
        -11    1    4    4    0    0  0.38819315352E-01  0.12324776481E-01 -0.26936120775E-01  0.48832930315E-01  0.51100000000E-03 0. -1.
         11    1    4    4    0    0  0.63339897350E-01  0.39242976470E-01 -0.26777246782E-01  0.79178506331E-01  0.51100000000E-03 0.  1.
</event>
<event>
 8    1  0.1131376E+005  0.1043930E+01  0.7957747E-01            NaN
         13   -1    0    0    0    0  0.00000000000E+00  0.00000000000E+00  0.74505805969E-08  0.10566000000E+00  0.10566000000E+00 0. -1.
     999900   -1    0    0    0    0 -0.00000000000E+00 -0.00000000000E+00 -0.74505805969E-08  0.93827000000E+00  0.93827000000E+00 0.  1.
     999902    2    1    2    0    0  0.32792123633E-02  0.18518272065E-01 -0.15761948015E-01  0.10193918941E+01  0.10190965191E+01 0.  0.
     999903    2    3    3    0    0 -0.61413055877E-01 -0.97629450258E-01  0.50666709901E-01  0.12693004646E+00  0.15525727431E-01 0.  0.
         14    1    1    2    0    0 -0.32792123633E-02 -0.18518272065E-01  0.15761948015E-01  0.24538105861E-01  0.00000000000E+00 0. -1.
     999901    1    3    3    0    0  0.64692268240E-01  0.11614772232E+00 -0.66428657915E-01  0.89246184768E+00  0.88000000000E+00 0.  1.
        -11    1    4    4    0    0 -0.56458895301E-01 -0.80125061843E-01  0.40262144929E-01  0.10596666376E+00  0.51100000000E-03 0.  1.
         11    1    4    4    0    0 -0.49541605756E-02 -0.17504388416E-01  0.10404564971E-01  0.20963382696E-01  0.51100000000E-03 0. -1.
</event>
<event>
 8    1  0.1131376E+005  0.1043930E+01  0.7957747E-01            NaN
         13   -1    0    0    0    0  0.00000000000E+00  0.00000000000E+00  0.74505805969E-08  0.10566000000E+00  0.10566000000E+00 0. -1.
     999900   -1    0    0    0    0 -0.00000000000E+00 -0.00000000000E+00 -0.74505805969E-08  0.93827000000E+00  0.93827000000E+00 0. -1.
     999902    2    1    2    0    0 -0.33161914998E-02  0.14267387559E-01  0.18224026671E-01  0.10205490115E+01  0.10202811447E+01 0.  0.
     999903    2    3    3    0    0  0.75220136547E-01 -0.46799969838E-02  0.10705781158E+00  0.13239452072E+00  0.19671369597E-01 0.  0.
         14    1    1    2    0    0  0.33161914998E-02 -0.14267387559E-01 -0.18224026671E-01  0.23380988472E-01  0.00000000000E+00 0.  1.
     999901    1    3    3    0    0 -0.78536328047E-01  0.18947384543E-01 -0.88833784910E-01  0.88815449081E+00  0.88000000000E+00 0. -1.
        -11    1    4    4    0    0  0.21464955658E-01  0.64749829875E-02  0.24158330277E-01  0.32962945392E-01  0.51100000000E-03 0. -1.
         11    1    4    4    0    0  0.53755180889E-01 -0.11154979971E-01  0.82899481304E-01  0.99431575327E-01  0.51100000000E-03 0.  1.
</event>
<event>
 8    1  0.1131376E+005  0.1043930E+01  0.7957747E-01            NaN
         13   -1    0    0    0    0  0.00000000000E+00  0.00000000000E+00  0.74505805969E-08  0.10566000000E+00  0.10566000000E+00 0.  1.
     999900   -1    0    0    0    0 -0.00000000000E+00 -0.00000000000E+00 -0.74505805969E-08  0.93827000000E+00  0.93827000000E+00 0.  1.
     999902    2    1    2    0    0 -0.19734714212E-01  0.52221377668E-03 -0.14849159632E-01  0.10192271825E+01  0.10189277797E+01 0.  0.
     999903    2    3    3    0    0 -0.22302516113E-01 -0.10002817664E+00 -0.78846585946E-01  0.13118853173E+00  0.22149681612E-01 0.  0.
         14    1    1    2    0    0  0.19734714212E-01 -0.52221377668E-03  0.14849159632E-01  0.24702817533E-01  0.00000000000E+00 0.  1.
     999901    1    3    3    0    0  0.25678019003E-02  0.10055039042E+00  0.63997426314E-01  0.88803865073E+00  0.88000000000E+00 0.  1.
        -11    1    4    4    0    0 -0.20248119345E-01 -0.87081765357E-01 -0.58045249595E-01  0.10659611774E+00  0.51100000000E-03 0. -1.
         11    1    4    4    0    0 -0.20543967679E-02 -0.12946411287E-01 -0.20801336352E-01  0.24592413999E-01  0.51100000000E-03 0.  1.
</event>
<event>
 8    1  0.1131376E+005  0.1043930E+01  0.7957747E-01            NaN
         13   -1    0    0    0    0  0.00000000000E+00  0.00000000000E+00  0.74505805969E-08  0.10566000000E+00  0.10566000000E+00 0.  1.
     999900   -1    0    0    0    0 -0.00000000000E+00 -0.00000000000E+00 -0.74505805969E-08  0.93827000000E+00  0.93827000000E+00 0. -1.
     999902    2    1    2    0    0 -0.61803393984E-02  0.40614605227E-02  0.22398830003E-01  0.10203418750E+01  0.10200691850E+01 0.  0.
     999903    2    3    3    0    0 -0.22798080473E-02  0.47814343007E-01 -0.11738391119E+00  0.12822711576E+00  0.19282159856E-01 0.  0.
         14    1    1    2    0    0  0.61803393984E-02 -0.40614605227E-02 -0.22398830003E-01  0.23588125024E-01  0.00000000000E+00 0. -1.
     999901    1    3    3    0    0 -0.39005313512E-02 -0.43752882484E-01  0.13978274119E+00  0.89211475921E+00  0.88000000000E+00 0.  1.
        -11    1    4    4    0    0 -0.65759025473E-02  0.43375086319E-02 -0.16691279932E-01  0.18463922179E-01  0.51100000000E-03 0. -1.
         11    1    4    4    0    0  0.42960945000E-02  0.43476834375E-01 -0.10069263126E+00  0.10976319358E+00  0.51100000000E-03 0.  1.
</event>
<event>
 8    1  0.1131376E+005  0.1043930E+01  0.7957747E-01            NaN
         13   -1    0    0    0    0  0.00000000000E+00  0.00000000000E+00  0.74505805969E-08  0.10566000000E+00  0.10566000000E+00 0. -1.
     999900   -1    0    0    0    0 -0.00000000000E+00 -0.00000000000E+00 -0.74505805969E-08  0.93827000000E+00  0.93827000000E+00 0. -1.
     999902    2    1    2    0    0 -0.80035651608E-02 -0.18109198085E-01  0.15194031922E-01  0.10189728624E+01  0.10186671859E+01 0.  0.
     999903    2    3    3    0    0  0.33388850059E-01  0.11542822719E+00  0.38676322244E-01  0.12762725383E+00  0.18824640150E-01 0.  0.
         14    1    1    2    0    0  0.80035651608E-02  0.18109198085E-01 -0.15194031922E-01  0.24957137588E-01  0.00000000000E+00 0.  1.
     999901    1    3    3    0    0 -0.41392415220E-01 -0.13353742527E+00 -0.23482290323E-01  0.89134560859E+00  0.88000000000E+00 0. -1.
        -11    1    4    4    0    0  0.46834238761E-02  0.20822663248E-01 -0.31227899453E-03  0.21351262331E-01  0.51100000000E-03 0.  1.
         11    1    4    4    0    0  0.28705426183E-01  0.94605563940E-01  0.38988601239E-01  0.10627599150E+00  0.51100000000E-03 0. -1.
</event>
<event>
 8    1  0.1131376E+005  0.1043930E+01  0.7957747E-01            NaN
         13   -1    0    0    0    0  0.00000000000E+00  0.00000000000E+00  0.74505805969E-08  0.10566000000E+00  0.10566000000E+00 0. -1.
     999900   -1    0    0    0    0 -0.00000000000E+00 -0.00000000000E+00 -0.74505805969E-08  0.93827000000E+00  0.93827000000E+00 0.  1.
     999902    2    1    2    0    0 -0.16372777523E-01  0.14178136947E-01  0.46818073408E-02  0.10217713283E+01  0.10215310277E+01 0.  0.
     999903    2    3    3    0    0 -0.11411666850E+00  0.66006890963E-01 -0.11850126290E-02  0.13482459510E+00  0.28226645337E-01 0.  0.
         14    1    1    2    0    0  0.16372777523E-01 -0.14178136947E-01 -0.46818073408E-02  0.22158671691E-01  0.00000000000E+00 0.  1.
     999901    1    3    3    0    0  0.97743890973E-01 -0.51828754016E-01  0.58668199698E-02  0.88694673320E+00  0.88000000000E+00 0.  1.
        -11    1    4    4    0    0 -0.62474042270E-01  0.41715324169E-01 -0.13786030043E-01  0.76377287026E-01  0.51100000000E-03 0.  1.
         11    1    4    4    0    0 -0.51642626226E-01  0.24291566794E-01  0.12601017414E-01  0.58447308079E-01  0.51100000000E-03 0. -1.
</event>
<event>
 8    1  0.1131376E+005  0.1043930E+01  0.7957747E-01            NaN
         13   -1    0    0    0    0  0.00000000000E+00  0.00000000000E+00  0.74505805969E-08  0.10566000000E+00  0.10566000000E+00 0. -1.
     999900   -1    0    0    0    0 -0.00000000000E+00 -0.00000000000E+00 -0.74505805969E-08  0.93827000000E+00  0.93827000000E+00 0. -1.
     999902    2    1    2    0    0 -0.11750848192E-02 -0.19178870066E-01 -0.11587717181E-01  0.10214915270E+01  0.10212450512E+01 0.  0.
     999903    2    3    3    0    0  0.14054985252E-01 -0.12935237956E-01  0.12770689489E+00  0.13038326930E+00  0.18052227595E-01 0.  0.
         14    1    1    2    0    0  0.11750848192E-02  0.19178870066E-01  0.11587717181E-01  0.22438473005E-01  0.00000000000E+00 0. -1.
     999901    1    3    3    0    0 -0.15230070071E-01 -0.62436321098E-02 -0.13929461207E+00  0.89110825769E+00  0.88000000000E+00 0. -1.
        -11    1    4    4    0    0  0.11615975335E-02  0.15729815372E-02  0.57653924019E-01  0.57689337451E-01  0.51100000000E-03 0.  1.
         11    1    4    4    0    0  0.12893387718E-01 -0.14508219493E-01  0.70052970867E-01  0.72693931851E-01  0.51100000000E-03 0. -1.
</event>
<event>
 8    1  0.1131376E+005  0.1043930E+01  0.7957747E-01            NaN
         13   -1    0    0    0    0  0.00000000000E+00  0.00000000000E+00  0.74505805969E-08  0.10566000000E+00  0.10566000000E+00 0.  1.
     999900   -1    0    0    0    0 -0.00000000000E+00 -0.00000000000E+00 -0.74505805969E-08  0.93827000000E+00  0.93827000000E+00 0.  1.
     999902    2    1    2    0    0  0.22973568333E-01 -0.46061322176E-02  0.11889447033E-02  0.10204690775E+01  0.10201993546E+01 0.  0.
     999903    2    3    3    0    0  0.12618622273E+00 -0.21584747583E-01 -0.32957043392E-01  0.13361673695E+00  0.19452546059E-01 0.  0.
         14    1    1    2    0    0 -0.22973568333E-01  0.46061322176E-02 -0.11889447033E-02  0.23460922519E-01  0.00000000000E+00 0.  1.
     999901    1    3    3    0    0 -0.10321265440E+00  0.16978615366E-01  0.34145988095E-01  0.88685234053E+00  0.88000000000E+00 0. -1.
        -11    1    4    4    0    0  0.70005476292E-01 -0.60225031248E-02 -0.25923488383E-01  0.74895431274E-01  0.51100000000E-03 0.  1.
         11    1    4    4    0    0  0.56180746437E-01 -0.15562244458E-01 -0.70335550086E-02  0.58721305673E-01  0.51100000000E-03 0. -1.
</event>
<event>
 8    1  0.1131376E+005  0.1043930E+01  0.7957747E-01            NaN
         13   -1    0    0    0    0  0.00000000000E+00  0.00000000000E+00  0.74505805969E-08  0.10566000000E+00  0.10566000000E+00 0. -1.
     999900   -1    0    0    0    0 -0.00000000000E+00 -0.00000000000E+00 -0.74505805969E-08  0.93827000000E+00  0.93827000000E+00 0.  1.
     999902    2    1    2    0    0  0.11732341748E-01 -0.20317964712E-01 -0.25635495311E-03  0.10204665550E+01  0.10201967735E+01 0.  0.
     999903    2    3    3    0    0  0.12709160782E+00 -0.23832906872E-02  0.30561558387E-01  0.13222156821E+00  0.19763030991E-01 0.  0.
         14    1    1    2    0    0 -0.11732341748E-01  0.20317964712E-01  0.25635495311E-03  0.23463444990E-01  0.00000000000E+00 0.  1.
     999901    1    3    3    0    0 -0.11535926607E+00 -0.17934674025E-01 -0.30817913340E-01  0.88824498681E+00  0.88000000000E+00 0.  1.
        -11    1    4    4    0    0  0.69856011335E-01 -0.10973932489E-01  0.18593796075E-01  0.73118259603E-01  0.51100000000E-03 0. -1.
         11    1    4    4    0    0  0.57235596489E-01  0.85906418020E-02  0.11967762312E-01  0.59103308602E-01  0.51100000000E-03 0.  1.
</event>
<event>
 8    1  0.1131376E+005  0.1043930E+01  0.7957747E-01            NaN
         13   -1    0    0    0    0  0.00000000000E+00  0.00000000000E+00  0.74505805969E-08  0.10566000000E+00  0.10566000000E+00 0. -1.
     999900   -1    0    0    0    0 -0.00000000000E+00 -0.00000000000E+00 -0.74505805969E-08  0.93827000000E+00  0.93827000000E+00 0.  1.
     999902    2    1    2    0    0 -0.18259019846E-01  0.14393643001E-01  0.66366552760E-02  0.10197512085E+01  0.10194645228E+01 0.  0.
     999903    2    3    3    0    0 -0.37337781571E-01  0.11391535098E+00 -0.51820833167E-01  0.13200921476E+00  0.19241021577E-01 0.  0.
         14    1    1    2    0    0  0.18259019846E-01 -0.14393643001E-01 -0.66366552760E-02  0.24178791488E-01  0.00000000000E+00 0.  1.
     999901    1    3    3    0    0  0.19078761725E-01 -0.99521707979E-01  0.58457488443E-01  0.88774199375E+00  0.88000000000E+00 0. -1.
        -11    1    4    4    0    0 -0.33658745533E-01  0.90523083859E-01 -0.34078503570E-01  0.10241555248E+00  0.51100000000E-03 0. -1.
         11    1    4    4    0    0 -0.36790360381E-02  0.23392267120E-01 -0.17742329597E-01  0.29593662290E-01  0.51100000000E-03 0.  1.
</event>
<event>
 8    1  0.1131376E+005  0.1043930E+01  0.7957747E-01            NaN
         13   -1    0    0    0    0  0.00000000000E+00  0.00000000000E+00  0.74505805969E-08  0.10566000000E+00  0.10566000000E+00 0.  1.
     999900   -1    0    0    0    0 -0.00000000000E+00 -0.00000000000E+00 -0.74505805969E-08  0.93827000000E+00  0.93827000000E+00 0. -1.
     999902    2    1    2    0    0 -0.20332424429E-01 -0.80161498638E-02  0.83594686241E-02  0.10205302808E+01  0.10202619797E+01 0.  0.
     999903    2    3    3    0    0  0.12949232717E-02 -0.61172107864E-01  0.11536320023E+00  0.13219301570E+00  0.20557768013E-01 0.  0.
         14    1    1    2    0    0  0.20332424429E-01  0.80161498638E-02 -0.83594686241E-02  0.23399719175E-01  0.00000000000E+00 0.  1.
     999901    1    3    3    0    0 -0.21627347701E-01  0.53155958001E-01 -0.10700373160E+00  0.88833726513E+00  0.88000000000E+00 0.  1.
        -11    1    4    4    0    0  0.69364599427E-02 -0.32257730061E-01  0.44103797402E-01  0.55082498958E-01  0.51100000000E-03 0.  1.
         11    1    4    4    0    0 -0.56415366710E-02 -0.28914377803E-01  0.71259402824E-01  0.77110516738E-01  0.51100000000E-03 0. -1.
</event>
<event>
 8    1  0.1131376E+005  0.1043930E+01  0.7957747E-01            NaN
         13   -1    0    0    0    0  0.00000000000E+00  0.00000000000E+00  0.74505805969E-08  0.10566000000E+00  0.10566000000E+00 0. -1.
     999900   -1    0    0    0    0 -0.00000000000E+00 -0.00000000000E+00 -0.74505805969E-08  0.93827000000E+00  0.93827000000E+00 0. -1.
     999902    2    1    2    0    0 -0.15387555558E-01 -0.11831449318E-02  0.17058852684E-01  0.10209260622E+01  0.10206668621E+01 0.  0.
     999903    2    3    3    0    0 -0.69574419864E-01  0.41596341196E-02 -0.10836157356E+00  0.13036722371E+00  0.19886677363E-01 0.  0.
         14    1    1    2    0    0  0.15387555558E-01  0.11831449318E-02 -0.17058852684E-01  0.23003937769E-01  0.00000000000E+00 0.  1.
     999901    1    3    3    0    0  0.54186864306E-01 -0.53427790514E-02  0.12542042625E+00  0.89055883852E+00  0.88000000000E+00 0.  1.
        -11    1    4    4    0    0 -0.46101677327E-01  0.12127250035E-01 -0.70064797751E-01  0.84745335274E-01  0.51100000000E-03 0.  1.
         11    1    4    4    0    0 -0.23472742538E-01 -0.79676159157E-02 -0.38296775813E-01  0.45621888434E-01  0.51100000000E-03 0. -1.
</event>
<event>
 8    1  0.1131376E+005  0.1043930E+01  0.7957747E-01            NaN
         13   -1    0    0    0    0  0.00000000000E+00  0.00000000000E+00  0.74505805969E-08  0.10566000000E+00  0.10566000000E+00 0. -1.
     999900   -1    0    0    0    0 -0.00000000000E+00 -0.00000000000E+00 -0.74505805969E-08  0.93827000000E+00  0.93827000000E+00 0. -1.
     999902    2    1    2    0    0  0.12454486256E-01 -0.16068565136E-01  0.13303905811E-01  0.10196337673E+01  0.10193442561E+01 0.  0.
     999903    2    3    3    0    0  0.69983700372E-01 -0.75720377711E-01  0.81806335611E-01  0.13308961606E+00  0.19730064310E-01 0.  0.
         14    1    1    2    0    0 -0.12454486256E-01  0.16068565136E-01 -0.13303905811E-01  0.24296232698E-01  0.00000000000E+00 0.  1.
     999901    1    3    3    0    0 -0.57529214115E-01  0.59651812574E-01 -0.68502429799E-01  0.88654415125E+00  0.88000000000E+00 0. -1.
        -11    1    4    4    0    0  0.38444439963E-01 -0.27966404849E-01  0.33003408028E-01  0.57875563295E-01  0.51100000000E-03 0.  1.
         11    1    4    4    0    0  0.31539260409E-01 -0.47753972861E-01  0.48802927583E-01  0.75214052762E-01  0.51100000000E-03 0. -1.
</event>
<event>
 8    1  0.1131376E+005  0.1043930E+01  0.7957747E-01            NaN
         13   -1    0    0    0    0  0.00000000000E+00  0.00000000000E+00  0.74505805969E-08  0.10566000000E+00  0.10566000000E+00 0.  1.
     999900   -1    0    0    0    0 -0.00000000000E+00 -0.00000000000E+00 -0.74505805969E-08  0.93827000000E+00  0.93827000000E+00 0. -1.
     999902    2    1    2    0    0 -0.22675260499E-01 -0.40497176149E-02 -0.63190183288E-02  0.10200449075E+01  0.10197652258E+01 0.  0.
     999903    2    3    3    0    0  0.54710154033E-01  0.11439659129E+00  0.11565081699E-01  0.12856418896E+00  0.17754394245E-01 0.  0.
         14    1    1    2    0    0  0.22675260499E-01  0.40497176149E-02  0.63190183288E-02  0.23885092508E-01  0.00000000000E+00 0. -1.
     999901    1    3    3    0    0 -0.77385414532E-01 -0.11844630891E+00 -0.17884100028E-01  0.89148071853E+00  0.88000000000E+00 0.  1.
        -11    1    4    4    0    0  0.14631665045E-01  0.24644923055E-01  0.96639462943E-02  0.30250798888E-01  0.51100000000E-03 0. -1.
         11    1    4    4    0    0  0.40078488988E-01  0.89751668239E-01  0.19011354048E-02  0.98313390075E-01  0.51100000000E-03 0.  1.
</event>
<event>
 7    1  0.1131376E+005  0.1043930E+01  0.7957747E-01            NaN
         13   -1    0    0    0    0  0.00000000000E+00  0.00000000000E+00  0.74505805969E-08  0.10566000000E+00  0.10566000000E+00 0.  1.
     999900   -1    0    0    0    0 -0.00000000000E+00 -0.00000000000E+00 -0.74505805969E-08  0.93827000000E+00  0.93827000000E+00 0. -1.
     999903    2    1    2    0    0 -0.59401157471E-02 -0.10367792382E+00  0.97598857101E-01  0.14385688200E+00  0.19618071456E-01 0.  0.
         14    1    1    2    0    0 -0.40926241200E-02  0.20212388069E-04  0.66631713937E-02  0.78197080348E-02  0.00000000000E+00 0.  1.
     999901    1    1    2    0    0  0.10032739867E-01  0.10365771144E+00 -0.10426202849E+00  0.89225340997E+00  0.88000000000E+00 0.  1.
        -11    1    3    3    0    0 -0.43202148713E-02 -0.30647902015E-01  0.17954754300E-01  0.35785366806E-01  0.51100000000E-03 0. -1.
         11    1    3    3    0    0 -0.16199008758E-02 -0.73030021809E-01  0.79644102801E-01  0.10807151519E+00  0.51100000000E-03 0.  1.
</event>
<event>
 8    1  0.1131376E+005  0.1043930E+01  0.7957747E-01            NaN
         13   -1    0    0    0    0  0.00000000000E+00  0.00000000000E+00  0.74505805969E-08  0.10566000000E+00  0.10566000000E+00 0.  1.
     999900   -1    0    0    0    0 -0.00000000000E+00 -0.00000000000E+00 -0.74505805969E-08  0.93827000000E+00  0.93827000000E+00 0. -1.
     999902    2    1    2    0    0 -0.83618175781E-02 -0.20658618464E-01  0.46261816418E-02  0.10211681884E+01  0.10209144768E+01 0.  0.
     999903    2    3    3    0    0 -0.38641214344E-01 -0.11265059144E+00 -0.57335366441E-01  0.13368940084E+00  0.20055235053E-01 0.  0.
         14    1    1    2    0    0  0.83618175781E-02  0.20658618464E-01 -0.46261816418E-02  0.22761811585E-01  0.00000000000E+00 0.  1.
     999901    1    3    3    0    0  0.30279396766E-01  0.91991972977E-01  0.61961548083E-01  0.88747878758E+00  0.88000000000E+00 0. -1.
        -11    1    4    4    0    0 -0.39012175046E-01 -0.10126505891E+00 -0.56255246696E-01  0.12223532983E+00  0.51100000000E-03 0. -1.
         11    1    4    4    0    0  0.37096070123E-03 -0.11385532531E-01 -0.10801197449E-02  0.11454071002E-01  0.51100000000E-03 0.  1.
</event>
<event>
 8    1  0.1131376E+005  0.1043930E+01  0.7957747E-01            NaN
         13   -1    0    0    0    0  0.00000000000E+00  0.00000000000E+00  0.74505805969E-08  0.10566000000E+00  0.10566000000E+00 0.  1.
     999900   -1    0    0    0    0 -0.00000000000E+00 -0.00000000000E+00 -0.74505805969E-08  0.93827000000E+00  0.93827000000E+00 0.  1.
     999902    2    1    2    0    0 -0.16132737497E-01  0.23741802755E-02  0.16421854646E-01  0.10207874146E+01  0.10205250445E+01 0.  0.
     999903    2    3    3    0    0 -0.67191596983E-01 -0.11140219711E+00 -0.11319023808E-02  0.13182160780E+00  0.21224864072E-01 0.  0.
         14    1    1    2    0    0  0.16132737497E-01 -0.23741802755E-02 -0.16421854646E-01  0.23142585446E-01  0.00000000000E+00 0. -1.
     999901    1    3    3    0    0  0.51058859487E-01  0.11377637739E+00  0.17553757027E-01  0.88896580675E+00  0.88000000000E+00 0. -1.
        -11    1    4    4    0    0 -0.52285275509E-01 -0.67075525272E-01 -0.83254584094E-03  0.85051927545E-01  0.51100000000E-03 0.  1.
         11    1    4    4    0    0 -0.14906321474E-01 -0.44326671840E-01 -0.29935653982E-03  0.46769680260E-01  0.51100000000E-03 0. -1.
</event>
<event>
 8    1  0.1131376E+005  0.1043930E+01  0.7957747E-01            NaN
         13   -1    0    0    0    0  0.00000000000E+00  0.00000000000E+00  0.74505805969E-08  0.10566000000E+00  0.10566000000E+00 0.  1.
     999900   -1    0    0    0    0 -0.00000000000E+00 -0.00000000000E+00 -0.74505805969E-08  0.93827000000E+00  0.93827000000E+00 0.  1.
     999902    2    1    2    0    0 -0.17552438818E-01  0.18558413671E-01 -0.55302679771E-02  0.10177940728E+01  0.10174584453E+01 0.  0.
     999903    2    3    3    0    0 -0.10393628616E+00  0.52171547961E-01 -0.58136816392E-01  0.13136333055E+00  0.18756683999E-01 0.  0.
         14    1    1    2    0    0  0.17552438818E-01 -0.18558413671E-01  0.55302679771E-02  0.26135927195E-01  0.00000000000E+00 0.  1.
     999901    1    3    3    0    0  0.86383847345E-01 -0.33613134290E-01  0.52606548415E-01  0.88643074226E+00  0.88000000000E+00 0. -1.
        -11    1    4    4    0    0 -0.47125645120E-01  0.17289052007E-01 -0.33200204355E-01  0.60185151304E-01  0.51100000000E-03 0. -1.
         11    1    4    4    0    0 -0.56810641043E-01  0.34882495954E-01 -0.24936612037E-01  0.71178179245E-01  0.51100000000E-03 0.  1.
</event>
<event>
 8    1  0.1131376E+005  0.1043930E+01  0.7957747E-01            NaN
         13   -1    0    0    0    0  0.00000000000E+00  0.00000000000E+00  0.74505805969E-08  0.10566000000E+00  0.10566000000E+00 0. -1.
     999900   -1    0    0    0    0 -0.00000000000E+00 -0.00000000000E+00 -0.74505805969E-08  0.93827000000E+00  0.93827000000E+00 0.  1.
     999902    2    1    2    0    0 -0.22886319520E-02  0.29451896744E-02 -0.22974062977E-01  0.10206551305E+01  0.10203897177E+01 0.  0.
     999903    2    3    3    0    0 -0.69355300046E-01  0.55011245902E-01  0.91910581749E-01  0.12913547637E+00  0.19799530316E-01 0.  0.
         14    1    1    2    0    0  0.22886319520E-02 -0.29451896744E-02  0.22974062977E-01  0.23274869454E-01  0.00000000000E+00 0. -1.
     999901    1    3    3    0    0  0.67066668094E-01 -0.52066056228E-01 -0.11488464473E+00  0.89151965417E+00  0.88000000000E+00 0.  1.
        -11    1    4    4    0    0 -0.12270369325E-01  0.45311452890E-02  0.22640107847E-01  0.26152033293E-01  0.51100000000E-03 0.  1.
         11    1    4    4    0    0 -0.57084930722E-01  0.50480100613E-01  0.69270473902E-01  0.10298344308E+00  0.51100000000E-03 0. -1.
</event>
<event>
 8    1  0.1131376E+005  0.1043930E+01  0.7957747E-01            NaN
         13   -1    0    0    0    0  0.00000000000E+00  0.00000000000E+00  0.74505805969E-08  0.10566000000E+00  0.10566000000E+00 0.  1.
     999900   -1    0    0    0    0 -0.00000000000E+00 -0.00000000000E+00 -0.74505805969E-08  0.93827000000E+00  0.93827000000E+00 0. -1.
     999902    2    1    2    0    0 -0.18191593598E-01  0.14075755121E-01  0.27929598180E-02  0.10207597263E+01  0.10204967208E+01 0.  0.
     999903    2    3    3    0    0  0.93675540462E-01 -0.84998490979E-01  0.26229201824E-03  0.12815882654E+00  0.20609844124E-01 0.  0.
         14    1    1    2    0    0  0.18191593598E-01 -0.14075755121E-01 -0.27929598180E-02  0.23170273723E-01  0.00000000000E+00 0.  1.
     999901    1    3    3    0    0 -0.11186713406E+00  0.99074246100E-01  0.25306677997E-02  0.89260089973E+00  0.88000000000E+00 0. -1.
        -11    1    4    4    0    0  0.73874479282E-01 -0.67629719670E-01 -0.81908726773E-02  0.10049163740E+00  0.51100000000E-03 0.  1.
         11    1    4    4    0    0  0.19801061180E-01 -0.17368771308E-01  0.84531646956E-02  0.27667189141E-01  0.51100000000E-03 0. -1.
</event>
<event>
 8    1  0.1131376E+005  0.1043930E+01  0.7957747E-01            NaN
         13   -1    0    0    0    0  0.00000000000E+00  0.00000000000E+00  0.74505805969E-08  0.10566000000E+00  0.10566000000E+00 0.  1.
     999900   -1    0    0    0    0 -0.00000000000E+00 -0.00000000000E+00 -0.74505805969E-08  0.93827000000E+00  0.93827000000E+00 0.  1.
     999902    2    1    2    0    0  0.22602978346E-01  0.64762418450E-02  0.35570512520E-02  0.10201499884E+01  0.10198727910E+01 0.  0.
     999903    2    3    3    0    0  0.13111161645E+00 -0.94029333101E-02  0.96659146474E-02  0.13332216352E+00  0.20067343084E-01 0.  0.
         14    1    1    2    0    0 -0.22602978346E-01 -0.64762418450E-02 -0.35570512520E-02  0.23780011609E-01  0.00000000000E+00 0.  1.
     999901    1    3    3    0    0 -0.10850863810E+00  0.15879175155E-01 -0.61088633954E-02  0.88682782487E+00  0.88000000000E+00 0.  1.
        -11    1    4    4    0    0  0.37017697839E-01 -0.38692210897E-02 -0.62078987986E-02  0.37736983897E-01  0.51100000000E-03 0.  1.
         11    1    4    4    0    0  0.94093918608E-01 -0.55337122205E-02  0.15873813446E-01  0.95585179627E-01  0.51100000000E-03 0. -1.
</event>
<event>
 8    1  0.1131376E+005  0.1043930E+01  0.7957747E-01            NaN
         13   -1    0    0    0    0  0.00000000000E+00  0.00000000000E+00  0.74505805969E-08  0.10566000000E+00  0.10566000000E+00 0. -1.
     999900   -1    0    0    0    0 -0.00000000000E+00 -0.00000000000E+00 -0.74505805969E-08  0.93827000000E+00  0.93827000000E+00 0.  1.
     999902    2    1    2    0    0 -0.18457320292E-01 -0.10305984774E-01  0.90502287541E-02  0.10209345084E+01  0.10206755007E+01 0.  0.
     999903    2    3    3    0    0 -0.97856974858E-01  0.89165769076E-02 -0.85511475490E-01  0.13210621904E+00  0.22007903021E-01 0.  0.
         14    1    1    2    0    0  0.18457320292E-01  0.10305984774E-01 -0.90502287541E-02  0.22995491623E-01  0.00000000000E+00 0.  1.
     999901    1    3    3    0    0  0.79399654566E-01 -0.19222561681E-01  0.94561704244E-01  0.88882828934E+00  0.88000000000E+00 0. -1.
        -11    1    4    4    0    0 -0.46210010469E-01  0.27378065406E-02 -0.54651132473E-01  0.71623097208E-01  0.51100000000E-03 0. -1.
         11    1    4    4    0    0 -0.51646964389E-01  0.61787703670E-02 -0.30860343017E-01  0.60483121827E-01  0.51100000000E-03 0.  1.
</event>
<event>
 8    1  0.1131376E+005  0.1043930E+01  0.7957747E-01            NaN
         13   -1    0    0    0    0  0.00000000000E+00  0.00000000000E+00  0.74505805969E-08  0.10566000000E+00  0.10566000000E+00 0.  1.
     999900   -1    0    0    0    0 -0.00000000000E+00 -0.00000000000E+00 -0.74505805969E-08  0.93827000000E+00  0.93827000000E+00 0.  1.
     999902    2    1    2    0    0  0.17809287812E-01  0.70902183185E-02  0.16734374907E-01  0.10184843475E+01  0.10181664328E+01 0.  0.
     999903    2    3    3    0    0  0.61810061549E-01 -0.22683266878E-01  0.11238840785E+00  0.13170803831E+00  0.19515092362E-01 0.  0.
         14    1    1    2    0    0 -0.17809287812E-01 -0.70902183185E-02 -0.16734374907E-01  0.25445652511E-01  0.00000000000E+00 0. -1.
     999901    1    3    3    0    0 -0.44000773737E-01  0.29773485197E-01 -0.95654032946E-01  0.88677630918E+00  0.88000000000E+00 0.  1.
        -11    1    4    4    0    0  0.34289529752E-01 -0.17006400869E-01  0.80916525789E-01  0.89513880420E-01  0.51100000000E-03 0.  1.
         11    1    4    4    0    0  0.27520531797E-01 -0.56768660097E-02  0.31471882063E-01  0.42194157886E-01  0.51100000000E-03 0. -1.
</event>
<event>
 8    1  0.1131376E+005  0.1043930E+01  0.7957747E-01            NaN
         13   -1    0    0    0    0  0.00000000000E+00  0.00000000000E+00  0.74505805969E-08  0.10566000000E+00  0.10566000000E+00 0.  1.
     999900   -1    0    0    0    0 -0.00000000000E+00 -0.00000000000E+00 -0.74505805969E-08  0.93827000000E+00  0.93827000000E+00 0. -1.
     999902    2    1    2    0    0 -0.35597495456E-02 -0.14177689888E-02 -0.23658477730E-01  0.10199632427E+01  0.10196816224E+01 0.  0.
     999903    2    3    3    0    0 -0.12272421555E+00  0.37135086314E-01  0.12676535212E-01  0.13035280789E+00  0.19771501257E-01 0.  0.
         14    1    1    2    0    0  0.35597495456E-02  0.14177689888E-02  0.23658477730E-01  0.23966757274E-01  0.00000000000E+00 0.  1.
     999901    1    3    3    0    0  0.11916446600E+00 -0.38552855303E-01 -0.36335012942E-01  0.88961043484E+00  0.88000000000E+00 0. -1.
        -11    1    4    4    0    0 -0.65602814711E-01  0.29538229505E-01  0.10257840028E-01  0.72675447734E-01  0.51100000000E-03 0. -1.
         11    1    4    4    0    0 -0.57121400836E-01  0.75968568084E-02  0.24186951842E-02  0.57677360153E-01  0.51100000000E-03 0.  1.
</event>
<event>
 7    1  0.1399891E+005  0.1043930E+01  0.7957747E-01            NaN
         13   -1    0    0    0    0  0.00000000000E+00  0.00000000000E+00  0.74505805969E-08  0.10566000000E+00  0.10566000000E+00 0.  1.
     999900   -1    0    0    0    0 -0.00000000000E+00 -0.00000000000E+00 -0.74505805969E-08  0.93827000000E+00  0.93827000000E+00 0.  1.
     999902    2    1    2    0    0 -0.19795557057E-01 -0.94083823490E-03  0.16498330053E-01  0.10181434890E+01  0.10178168892E+01 0.  0.
         14    1    1    2    0    0  0.19795557057E-01  0.94083823490E-03 -0.16498330053E-01  0.25786511015E-01  0.00000000000E+00 0. -1.
     999901    1    3    3    0    0 -0.63146719989E-01  0.16227142230E-01 -0.99333480917E-01  0.88798534268E+00  0.88000000000E+00 0.  1.
        -11    1    3    3    0    0  0.42129591148E-01 -0.18288196764E-01  0.66636937425E-01  0.80932707489E-01  0.51100000000E-03 0.  1.
         11    1    3    3    0    0  0.12215717843E-02  0.11202162989E-02  0.49194873545E-01  0.49225438812E-01  0.51100000000E-03 0. -1.
</event>
<event>
 8    1  0.1131376E+005  0.1043930E+01  0.7957747E-01            NaN
         13   -1    0    0    0    0  0.00000000000E+00  0.00000000000E+00  0.74505805969E-08  0.10566000000E+00  0.10566000000E+00 0.  1.
     999900   -1    0    0    0    0 -0.00000000000E+00 -0.00000000000E+00 -0.74505805969E-08  0.93827000000E+00  0.93827000000E+00 0.  1.
     999902    2    1    2    0    0  0.46379904739E-02 -0.25023628562E-02 -0.23035415959E-01  0.10202994443E+01  0.10200257609E+01 0.  0.
     999903    2    3    3    0    0  0.46432608194E-01  0.97564693590E-01 -0.73411840450E-01  0.13221274243E+00  0.20397411656E-01 0.  0.
         14    1    1    2    0    0 -0.46379904739E-02  0.25023628562E-02  0.23035415959E-01  0.23630555726E-01  0.00000000000E+00 0.  1.
     999901    1    3    3    0    0 -0.41794617720E-01 -0.10006705645E+00  0.50376424491E-01  0.88808670185E+00  0.88000000000E+00 0. -1.
        -11    1    4    4    0    0  0.25919693917E-01  0.36656052403E-01 -0.22501509616E-01  0.50220272466E-01  0.51100000000E-03 0. -1.
         11    1    4    4    0    0  0.20512914276E-01  0.60908641187E-01 -0.50910330835E-01  0.81992469959E-01  0.51100000000E-03 0.  1.
</event>
<event>
 8    1  0.1131376E+005  0.1043930E+01  0.7957747E-01            NaN
         13   -1    0    0    0    0  0.00000000000E+00  0.00000000000E+00  0.74505805969E-08  0.10566000000E+00  0.10566000000E+00 0. -1.
     999900   -1    0    0    0    0 -0.00000000000E+00 -0.00000000000E+00 -0.74505805969E-08  0.93827000000E+00  0.93827000000E+00 0. -1.
     999902    2    1    2    0    0 -0.11687007150E-01 -0.17253521031E-01 -0.12047033705E-01  0.10198592471E+01  0.10195751482E+01 0.  0.
     999903    2    3    3    0    0 -0.90938682025E-01  0.87420433082E-01 -0.24835095138E-01  0.13002724096E+00  0.19445447586E-01 0.  0.
         14    1    1    2    0    0  0.11687007150E-01  0.17253521031E-01  0.12047033705E-01  0.24070752900E-01  0.00000000000E+00 0.  1.
     999901    1    3    3    0    0  0.79251674876E-01 -0.10467395411E+00  0.12788061432E-01  0.88983200614E+00  0.88000000000E+00 0.  1.
        -11    1    4    4    0    0 -0.29814608025E-01  0.23598553152E-01  0.72100783926E-03  0.38033978701E-01  0.51100000000E-03 0.  1.
         11    1    4    4    0    0 -0.61124074000E-01  0.63821879930E-01 -0.25556102977E-01  0.91993262256E-01  0.51100000000E-03 0. -1.
</event>
<event>
 8    1  0.1131376E+005  0.1043930E+01  0.7957747E-01            NaN
         13   -1    0    0    0    0  0.00000000000E+00  0.00000000000E+00  0.74505805969E-08  0.10566000000E+00  0.10566000000E+00 0.  1.
     999900   -1    0    0    0    0 -0.00000000000E+00 -0.00000000000E+00 -0.74505805969E-08  0.93827000000E+00  0.93827000000E+00 0.  1.
     999902    2    1    2    0    0 -0.31931616522E-02  0.70383373905E-02  0.22204820552E-01  0.10204185447E+01  0.10201476451E+01 0.  0.
     999903    2    3    3    0    0  0.12733491513E-01  0.12131324834E+00  0.48038215412E-01  0.13251101695E+00  0.19299052929E-01 0.  0.
         14    1    1    2    0    0  0.31931616522E-02 -0.70383373905E-02 -0.22204820552E-01  0.23511455300E-01  0.00000000000E+00 0. -1.
     999901    1    3    3    0    0 -0.15926653165E-01 -0.11427491095E+00 -0.25833394860E-01  0.88790752775E+00  0.88000000000E+00 0.  1.
        -11    1    4    4    0    0  0.48170504043E-02  0.10288009544E+00  0.44208846682E-01  0.11208122617E+00  0.51100000000E-03 0. -1.
         11    1    4    4    0    0  0.79164411088E-02  0.18433152892E-01  0.38293687297E-02  0.20429790778E-01  0.51100000000E-03 0.  1.
</event>
<event>
 8    1  0.1131376E+005  0.1043930E+01  0.7957747E-01            NaN
         13   -1    0    0    0    0  0.00000000000E+00  0.00000000000E+00  0.74505805969E-08  0.10566000000E+00  0.10566000000E+00 0.  1.
     999900   -1    0    0    0    0 -0.00000000000E+00 -0.00000000000E+00 -0.74505805969E-08  0.93827000000E+00  0.93827000000E+00 0.  1.
     999902    2    1    2    0    0 -0.13972010103E-01 -0.67566368526E-02 -0.16420172913E-01  0.10213359458E+01  0.10210860017E+01 0.  0.
     999903    2    3    3    0    0 -0.39176226283E-01  0.41563089245E-01 -0.11913185418E+00  0.13368751429E+00  0.20437360464E-01 0.  0.
         14    1    1    2    0    0  0.13972010103E-01  0.67566368526E-02  0.16420172913E-01  0.22594054226E-01  0.00000000000E+00 0.  1.
     999901    1    3    3    0    0  0.25204216180E-01 -0.48319726098E-01  0.10271168127E+00  0.88764843148E+00  0.88000000000E+00 0. -1.
        -11    1    4    4    0    0 -0.37081516280E-01  0.42728443250E-01 -0.10432406821E+00  0.11867826693E+00  0.51100000000E-03 0.  1.
         11    1    4    4    0    0 -0.20947100035E-02 -0.11653540048E-02 -0.14807785977E-01  0.15009247366E-01  0.51100000000E-03 0. -1.
</event>
<event>
 8    1  0.1131376E+005  0.1043930E+01  0.7957747E-01            NaN
         13   -1    0    0    0    0  0.00000000000E+00  0.00000000000E+00  0.74505805969E-08  0.10566000000E+00  0.10566000000E+00 0. -1.
     999900   -1    0    0    0    0 -0.00000000000E+00 -0.00000000000E+00 -0.74505805969E-08  0.93827000000E+00  0.93827000000E+00 0. -1.
     999902    2    1    2    0    0  0.21491223410E-02  0.16408277538E-01  0.20058911708E-01  0.10179259573E+01  0.10175937521E+01 0.  0.
     999903    2    3    3    0    0 -0.14265614296E-01 -0.11459269831E+00  0.46521607873E-01  0.12768387024E+00  0.28353420671E-01 0.  0.
         14    1    1    2    0    0 -0.21491223410E-02 -0.16408277538E-01 -0.20058911708E-01  0.26004042715E-01  0.00000000000E+00 0.  1.
     999901    1    3    3    0    0  0.16414736637E-01  0.13100097585E+00 -0.26462696165E-01  0.89024208704E+00  0.88000000000E+00 0.  1.
        -11    1    4    4    0    0  0.27618813412E-02 -0.82489909699E-01  0.33544919920E-01  0.89093972659E-01  0.51100000000E-03 0.  1.
         11    1    4    4    0    0 -0.17027495637E-01 -0.32102788612E-01  0.12976687953E-01  0.38589897585E-01  0.51100000000E-03 0. -1.
</event>
<event>
 8    1  0.1131376E+005  0.1043930E+01  0.7957747E-01            NaN
         13   -1    0    0    0    0  0.00000000000E+00  0.00000000000E+00  0.74505805969E-08  0.10566000000E+00  0.10566000000E+00 0. -1.
     999900   -1    0    0    0    0 -0.00000000000E+00 -0.00000000000E+00 -0.74505805969E-08  0.93827000000E+00  0.93827000000E+00 0. -1.
     999902    2    1    2    0    0  0.26490091772E-02  0.23251286061E-01 -0.68795818951E-02  0.10195380300E+01  0.10192462050E+01 0.  0.
     999903    2    3    3    0    0  0.63756727875E-01 -0.10782025932E+00 -0.17537410364E-01  0.12767061127E+00  0.17380896129E-01 0.  0.
         14    1    1    2    0    0 -0.26490091772E-02 -0.23251286061E-01  0.68795818951E-02  0.24391969994E-01  0.00000000000E+00 0. -1.
     999901    1    3    3    0    0 -0.61107718698E-01  0.13107154538E+00  0.10657828469E-01  0.89186741874E+00  0.88000000000E+00 0.  1.
        -11    1    4    4    0    0  0.21716525211E-01 -0.38272339097E-01  0.21210493523E-02  0.44058363322E-01  0.51100000000E-03 0. -1.
         11    1    4    4    0    0  0.42040202664E-01 -0.69547920225E-01 -0.19658459717E-01  0.83612247949E-01  0.51100000000E-03 0.  1.
</event>
<event>
 8    1  0.1131376E+005  0.1043930E+01  0.7957747E-01            NaN
         13   -1    0    0    0    0  0.00000000000E+00  0.00000000000E+00  0.74505805969E-08  0.10566000000E+00  0.10566000000E+00 0.  1.
     999900   -1    0    0    0    0 -0.00000000000E+00 -0.00000000000E+00 -0.74505805969E-08  0.93827000000E+00  0.93827000000E+00 0. -1.
     999902    2    1    2    0    0  0.35975709330E-02 -0.69284616240E-02 -0.23816622090E-01  0.10188665289E+01  0.10185582095E+01 0.  0.
     999903    2    3    3    0    0 -0.41435953838E-01  0.98688644813E-01 -0.71287353587E-01  0.13013908929E+00  0.19947653837E-01 0.  0.
         14    1    1    2    0    0 -0.35975709330E-02  0.69284616240E-02  0.23816622090E-01  0.25063471126E-01  0.00000000000E+00 0.  1.
     999901    1    3    3    0    0  0.45033524771E-01 -0.10561710644E+00  0.47470731497E-01  0.88872743959E+00  0.88000000000E+00 0. -1.
        -11    1    4    4    0    0 -0.67076764568E-02  0.57884114315E-02 -0.18442584180E-02  0.90642727486E-02  0.51100000000E-03 0. -1.
         11    1    4    4    0    0 -0.34728277381E-01  0.92900233382E-01 -0.69443095169E-01  0.12107481654E+00  0.51100000000E-03 0.  1.
</event>
<event>
 7    1  0.1131376E+005  0.1043930E+01  0.7957747E-01            NaN
         13   -1    0    0    0    0  0.00000000000E+00  0.00000000000E+00  0.74505805969E-08  0.10566000000E+00  0.10566000000E+00 0.  1.
     999900   -1    0    0    0    0 -0.00000000000E+00 -0.00000000000E+00 -0.74505805969E-08  0.93827000000E+00  0.93827000000E+00 0. -1.
     999903    2    1    2    0    0 -0.60217287179E-01  0.53782972704E-01  0.26108705036E-01  0.87053007985E-01  0.19437898356E-01 0.  0.
         14    1    1    2    0    0  0.61662717239E-01  0.13275650678E-01  0.35136685510E-01  0.72201940880E-01  0.00000000000E+00 0.  1.
     999901    1    1    2    0    0 -0.14454300603E-02 -0.67058623382E-01 -0.61245390546E-01  0.88467505114E+00  0.88000000000E+00 0.  1.
        -11    1    3    3    0    0 -0.81088989346E-02  0.13902483586E-01 -0.81743232790E-03  0.16123355990E-01  0.51100000000E-03 0. -1.
         11    1    3    3    0    0 -0.52108388244E-01  0.39880489118E-01  0.26926137364E-01  0.70929651994E-01  0.51100000000E-03 0.  1.
</event>
<event>
 8    1  0.1131376E+005  0.1043930E+01  0.7957747E-01            NaN
         13   -1    0    0    0    0  0.00000000000E+00  0.00000000000E+00  0.74505805969E-08  0.10566000000E+00  0.10566000000E+00 0.  1.
     999900   -1    0    0    0    0 -0.00000000000E+00 -0.00000000000E+00 -0.74505805969E-08  0.93827000000E+00  0.93827000000E+00 0.  1.
     999902    2    1    2    0    0 -0.12283679009E-01 -0.29912932593E-02 -0.18514104397E-01  0.10215110645E+01  0.10212650226E+01 0.  0.
     999903    2    3    3    0    0  0.10207398170E+00  0.71936764770E-01 -0.33783868217E-01  0.13082309779E+00  0.19476583313E-01 0.  0.
         14    1    1    2    0    0  0.12283679009E-01  0.29912932593E-02  0.18514104397E-01  0.22418935456E-01  0.00000000000E+00 0.  1.
     999901    1    3    3    0    0 -0.11435766070E+00 -0.74928058029E-01  0.15269763820E-01  0.89068796676E+00  0.88000000000E+00 0.  1.
        -11    1    4    4    0    0  0.42762102817E-01  0.24215458160E-01 -0.21777232923E-01  0.53754021673E-01  0.51100000000E-03 0.  1.
         11    1    4    4    0    0  0.59311878879E-01  0.47721306610E-01 -0.12006635294E-01  0.77069076113E-01  0.51100000000E-03 0. -1.
</event>
<event>
 8    1  0.1131376E+005  0.1043930E+01  0.7957747E-01            NaN
         13   -1    0    0    0    0  0.00000000000E+00  0.00000000000E+00  0.74505805969E-08  0.10566000000E+00  0.10566000000E+00 0. -1.
     999900   -1    0    0    0    0 -0.00000000000E+00 -0.00000000000E+00 -0.74505805969E-08  0.93827000000E+00  0.93827000000E+00 0.  1.
     999902    2    1    2    0    0 -0.19309230262E-01 -0.22362415620E-02  0.12392005025E-01  0.10208776913E+01  0.10206173875E+01 0.  0.
     999903    2    3    3    0    0  0.12210107453E+00  0.33729584719E-01  0.10844807706E-01  0.12886154299E+00  0.21007858567E-01 0.  0.
         14    1    1    2    0    0  0.19309230262E-01  0.22362415620E-02 -0.12392005025E-01  0.23052308739E-01  0.00000000000E+00 0.  1.
     999901    1    3    3    0    0 -0.14141030479E+00 -0.35965826281E-01  0.15471973190E-02  0.89201614827E+00  0.88000000000E+00 0.  1.
        -11    1    4    4    0    0  0.76573592013E-01  0.31481339028E-01  0.81989161570E-02  0.83198996676E-01  0.51100000000E-03 0. -1.
         11    1    4    4    0    0  0.45527482513E-01  0.22482456908E-02  0.26458915493E-02  0.45662546312E-01  0.51100000000E-03 0.  1.
</event>
<event>
 8    1  0.1131376E+005  0.1043930E+01  0.7957747E-01            NaN
         13   -1    0    0    0    0  0.00000000000E+00  0.00000000000E+00  0.74505805969E-08  0.10566000000E+00  0.10566000000E+00 0.  1.
     999900   -1    0    0    0    0 -0.00000000000E+00 -0.00000000000E+00 -0.74505805969E-08  0.93827000000E+00  0.93827000000E+00 0. -1.
     999902    2    1    2    0    0 -0.11904597120E-01 -0.87887638576E-02 -0.18412037314E-01  0.10203087189E+01  0.10200352528E+01 0.  0.
     999903    2    3    3    0    0 -0.12844866962E+00  0.56352073004E-02 -0.25046694029E-01  0.13248295308E+00  0.19838842867E-01 0.  0.
         14    1    1    2    0    0  0.11904597120E-01  0.87887638576E-02  0.18412037314E-01  0.23621281099E-01  0.00000000000E+00 0.  1.
     999901    1    3    3    0    0  0.11654407250E+00 -0.14423971158E-01  0.66346567149E-02  0.88782576582E+00  0.88000000000E+00 0.  1.
        -11    1    4    4    0    0 -0.36079731277E-01  0.37931450294E-02  0.16336971265E-02  0.36318935082E-01  0.51100000000E-03 0.  1.
         11    1    4    4    0    0 -0.92368938348E-01  0.18420622711E-02 -0.26680391155E-01  0.96164018001E-01  0.51100000000E-03 0. -1.
</event>
<event>
 8    1  0.1131376E+005  0.1043930E+01  0.7957747E-01            NaN
         13   -1    0    0    0    0  0.00000000000E+00  0.00000000000E+00  0.74505805969E-08  0.10566000000E+00  0.10566000000E+00 0. -1.
     999900   -1    0    0    0    0 -0.00000000000E+00 -0.00000000000E+00 -0.74505805969E-08  0.93827000000E+00  0.93827000000E+00 0. -1.
     999902    2    1    2    0    0 -0.19187050766E-01 -0.14169751948E-01 -0.39243300717E-02  0.10197571815E+01  0.10194706391E+01 0.  0.
     999903    2    3    3    0    0 -0.56188862691E-01  0.72239640081E-01 -0.90786210438E-01  0.13049866826E+00  0.20298091615E-01 0.  0.
         14    1    1    2    0    0  0.19187050766E-01  0.14169751948E-01  0.39243300717E-02  0.24172818493E-01  0.00000000000E+00 0. -1.
     999901    1    3    3    0    0  0.37001811925E-01 -0.86409392029E-01  0.86861880366E-01  0.88925851324E+00  0.88000000000E+00 0.  1.
        -11    1    4    4    0    0 -0.24550977763E-01  0.44774559360E-01 -0.58141219480E-01  0.77383294053E-01  0.51100000000E-03 0. -1.
         11    1    4    4    0    0 -0.31637884929E-01  0.27465080721E-01 -0.32644990958E-01  0.53115374210E-01  0.51100000000E-03 0.  1.
</event>
<event>
 8    1  0.1131376E+005  0.1043930E+01  0.7957747E-01            NaN
         13   -1    0    0    0    0  0.00000000000E+00  0.00000000000E+00  0.74505805969E-08  0.10566000000E+00  0.10566000000E+00 0. -1.
     999900   -1    0    0    0    0 -0.00000000000E+00 -0.00000000000E+00 -0.74505805969E-08  0.93827000000E+00  0.93827000000E+00 0. -1.
     999902    2    1    2    0    0  0.17763594601E-02  0.43967627654E-02 -0.24011402688E-01  0.10194548200E+01  0.10191609763E+01 0.  0.
     999903    2    3    3    0    0  0.21294240428E-01 -0.39027253058E-01 -0.12439918620E+00  0.13246874352E+00  0.98101645083E-02 0.  0.
         14    1    1    2    0    0 -0.17763594601E-02 -0.43967627654E-02  0.24011402688E-01  0.24475179975E-01  0.00000000000E+00 0. -1.
     999901    1    3    3    0    0 -0.19517880968E-01  0.43424015823E-01  0.10038778351E+00  0.88698607650E+00  0.88000000000E+00 0.  1.
        -11    1    4    4    0    0 -0.26438049069E-03 -0.34080976656E-03 -0.63360580875E-02  0.63712480276E-02  0.51100000000E-03 0. -1.
         11    1    4    4    0    0  0.21558620918E-01 -0.38686443291E-01 -0.11806312811E+00  0.12609749550E+00  0.51100000000E-03 0.  1.
</event>
<event>
 8    1  0.1131376E+005  0.1043930E+01  0.7957747E-01            NaN
         13   -1    0    0    0    0  0.00000000000E+00  0.00000000000E+00  0.74505805969E-08  0.10566000000E+00  0.10566000000E+00 0. -1.
     999900   -1    0    0    0    0 -0.00000000000E+00 -0.00000000000E+00 -0.74505805969E-08  0.93827000000E+00  0.93827000000E+00 0. -1.
     999902    2    1    2    0    0  0.27467157270E-02 -0.19782852758E-01  0.13539282901E-01  0.10198008083E+01  0.10195153117E+01 0.  0.
     999903    2    3    3    0    0 -0.28318462728E-01 -0.87120284115E-01  0.94235017979E-01  0.13300253551E+00  0.20434201770E-01 0.  0.
         14    1    1    2    0    0 -0.27467157270E-02  0.19782852758E-01 -0.13539282901E-01  0.24129191698E-01  0.00000000000E+00 0.  1.
     999901    1    3    3    0    0  0.31065178455E-01  0.67337431356E-01 -0.80695735078E-01  0.88679827280E+00  0.88000000000E+00 0. -1.
        -11    1    4    4    0    0 -0.73659236440E-02 -0.38891731804E-01  0.28280391104E-01  0.48650439627E-01  0.51100000000E-03 0.  1.
         11    1    4    4    0    0 -0.20952539084E-01 -0.48228552310E-01  0.65954626875E-01  0.84352095879E-01  0.51100000000E-03 0. -1.
</event>
<event>
 8    1  0.1131376E+005  0.1043930E+01  0.7957747E-01            NaN
         13   -1    0    0    0    0  0.00000000000E+00  0.00000000000E+00  0.74505805969E-08  0.10566000000E+00  0.10566000000E+00 0. -1.
     999900   -1    0    0    0    0 -0.00000000000E+00 -0.00000000000E+00 -0.74505805969E-08  0.93827000000E+00  0.93827000000E+00 0.  1.
     999902    2    1    2    0    0  0.20684120655E-01 -0.11139922889E-01 -0.36314955992E-02  0.10201577790E+01  0.10198807654E+01 0.  0.
     999903    2    3    3    0    0  0.38826768060E-01 -0.11780973498E+00  0.42978915627E-01  0.13230636416E+00  0.16466184569E-01 0.  0.
         14    1    1    2    0    0 -0.20684120655E-01  0.11139922889E-01  0.36314955992E-02  0.23772220963E-01  0.00000000000E+00 0. -1.
     999901    1    3    3    0    0 -0.18142647405E-01  0.10666981209E+00 -0.46610411227E-01  0.88785141488E+00  0.88000000000E+00 0. -1.
        -11    1    4    4    0    0  0.70056423663E-02 -0.12026882940E-01  0.95681671743E-02  0.16897807026E-01  0.51100000000E-03 0.  1.
         11    1    4    4    0    0  0.31821125693E-01 -0.10578285204E+00  0.33410748453E-01  0.11540855713E+00  0.51100000000E-03 0. -1.
</event>
<event>
 8    1  0.1131376E+005  0.1043930E+01  0.7957747E-01            NaN
         13   -1    0    0    0    0  0.00000000000E+00  0.00000000000E+00  0.74505805969E-08  0.10566000000E+00  0.10566000000E+00 0. -1.
     999900   -1    0    0    0    0 -0.00000000000E+00 -0.00000000000E+00 -0.74505805969E-08  0.93827000000E+00  0.93827000000E+00 0. -1.
     999902    2    1    2    0    0 -0.20723518476E-01  0.84524034004E-02  0.91579443996E-02  0.10197478726E+01  0.10194611068E+01 0.  0.
     999903    2    3    3    0    0  0.10079780614E-01 -0.12461005240E+00 -0.20613017574E-01  0.12871433193E+00  0.22654262564E-01 0.  0.
         14    1    1    2    0    0  0.20723518476E-01 -0.84524034004E-02 -0.91579443996E-02  0.24182127427E-01  0.00000000000E+00 0.  1.
     999901    1    3    3    0    0 -0.30803299090E-01  0.13306245581E+00  0.29770961974E-01  0.89103354065E+00  0.88000000000E+00 0. -1.
        -11    1    4    4    0    0 -0.21461773952E-02 -0.94258976018E-01 -0.16768546963E-01  0.95764324911E-01  0.51100000000E-03 0.  1.
         11    1    4    4    0    0  0.12225958009E-01 -0.30351076386E-01 -0.38444706112E-02  0.32950007016E-01  0.51100000000E-03 0. -1.
</event>
<event>
 8    1  0.1131376E+005  0.1043930E+01  0.7957747E-01            NaN
         13   -1    0    0    0    0  0.00000000000E+00  0.00000000000E+00  0.74505805969E-08  0.10566000000E+00  0.10566000000E+00 0.  1.
     999900   -1    0    0    0    0 -0.00000000000E+00 -0.00000000000E+00 -0.74505805969E-08  0.93827000000E+00  0.93827000000E+00 0.  1.
     999902    2    1    2    0    0 -0.81022250561E-02  0.20702896636E-01  0.83206961808E-02  0.10201920564E+01  0.10199158505E+01 0.  0.
     999903    2    3    3    0    0 -0.10210918654E+00 -0.70632394057E-01 -0.33710879850E-01  0.12949227675E+00  0.14717515169E-01 0.  0.
         14    1    1    2    0    0  0.81022250561E-02 -0.20702896636E-01 -0.83206961808E-02  0.23737943570E-01  0.00000000000E+00 0. -1.
     999901    1    3    3    0    0  0.94006961482E-01  0.91335290693E-01  0.42031576031E-01  0.89069977968E+00  0.88000000000E+00 0. -1.
        -11    1    4    4    0    0 -0.53855775853E-01 -0.31133019692E-01 -0.22369145075E-01  0.66108617292E-01  0.51100000000E-03 0.  1.
         11    1    4    4    0    0 -0.48253410685E-01 -0.39499374365E-01 -0.11341734775E-01  0.63383659461E-01  0.51100000000E-03 0. -1.
</event>
<event>
 8    1  0.1131376E+005  0.1043930E+01  0.7957747E-01            NaN
         13   -1    0    0    0    0  0.00000000000E+00  0.00000000000E+00  0.74505805969E-08  0.10566000000E+00  0.10566000000E+00 0. -1.
     999900   -1    0    0    0    0 -0.00000000000E+00 -0.00000000000E+00 -0.74505805969E-08  0.93827000000E+00  0.93827000000E+00 0.  1.
     999902    2    1    2    0    0 -0.30968445710E-02 -0.92035244972E-03  0.23870535200E-01  0.10198418298E+01  0.10195573146E+01 0.  0.
     999903    2    3    3    0    0  0.10677366383E+00  0.69808712770E-01 -0.10321072908E-01  0.12953671613E+00  0.19984109045E-01 0.  0.
         14    1    1    2    0    0  0.30968445710E-02  0.92035244972E-03 -0.23870535200E-01  0.24088170244E-01  0.00000000000E+00 0.  1.
     999901    1    3    3    0    0 -0.10987050840E+00 -0.70729065220E-01  0.34191608108E-01  0.89030511363E+00  0.88000000000E+00 0. -1.
        -11    1    4    4    0    0  0.63325459479E-01  0.52493588312E-01 -0.41849634209E-02  0.82361797406E-01  0.51100000000E-03 0.  1.
         11    1    4    4    0    0  0.43448204348E-01  0.17315124458E-01 -0.61361094871E-02  0.47174918725E-01  0.51100000000E-03 0. -1.
</event>
<event>
 8    1  0.1131376E+005  0.1043930E+01  0.7957747E-01            NaN
         13   -1    0    0    0    0  0.00000000000E+00  0.00000000000E+00  0.74505805969E-08  0.10566000000E+00  0.10566000000E+00 0.  1.
     999900   -1    0    0    0    0 -0.00000000000E+00 -0.00000000000E+00 -0.74505805969E-08  0.93827000000E+00  0.93827000000E+00 0.  1.
     999902    2    1    2    0    0  0.14396741297E-02  0.10767327758E-01  0.21902806501E-01  0.10194812589E+01  0.10191880574E+01 0.  0.
     999903    2    3    3    0    0 -0.88326693949E-01  0.76229002586E-01 -0.52420309985E-01  0.12938735523E+00  0.19512383126E-01 0.  0.
         14    1    1    2    0    0 -0.14396741297E-02 -0.10767327758E-01 -0.21902806501E-01  0.24448741098E-01  0.00000000000E+00 0. -1.
     999901    1    3    3    0    0  0.89766368079E-01 -0.65461674828E-01  0.74323116486E-01  0.89009390367E+00  0.88000000000E+00 0. -1.
        -11    1    4    4    0    0 -0.18265803483E-01  0.25166712626E-01 -0.87184889849E-02  0.32299785951E-01  0.51100000000E-03 0. -1.
         11    1    4    4    0    0 -0.70060890466E-01  0.51062289960E-01 -0.43701821000E-01  0.97087569280E-01  0.51100000000E-03 0.  1.
</event>
<event>
 8    1  0.1131376E+005  0.1043930E+01  0.7957747E-01            NaN
         13   -1    0    0    0    0  0.00000000000E+00  0.00000000000E+00  0.74505805969E-08  0.10566000000E+00  0.10566000000E+00 0. -1.
     999900   -1    0    0    0    0 -0.00000000000E+00 -0.00000000000E+00 -0.74505805969E-08  0.93827000000E+00  0.93827000000E+00 0. -1.
     999902    2    1    2    0    0 -0.37330207358E-02  0.23716117163E-01  0.31039129718E-02  0.10197220688E+01  0.10194346834E+01 0.  0.
     999903    2    3    3    0    0  0.71700377577E-01  0.10848272469E+00  0.14287610208E-01  0.13236608025E+00  0.20179140127E-01 0.  0.
         14    1    1    2    0    0  0.37330207358E-02 -0.23716117163E-01 -0.31039129718E-02  0.24207931197E-01  0.00000000000E+00 0.  1.
     999901    1    3    3    0    0 -0.75433398313E-01 -0.84766607522E-01 -0.11183697236E-01  0.88735598855E+00  0.88000000000E+00 0.  1.
        -11    1    4    4    0    0  0.19318189182E-01  0.17574613970E-01  0.77264615299E-02  0.27240022361E-01  0.51100000000E-03 0. -1.
         11    1    4    4    0    0  0.52382188395E-01  0.90908110716E-01  0.65611486777E-02  0.10512605789E+00  0.51100000000E-03 0.  1.
</event>
<event>
 8    1  0.1131376E+005  0.1043930E+01  0.7957747E-01            NaN
         13   -1    0    0    0    0  0.00000000000E+00  0.00000000000E+00  0.74505805969E-08  0.10566000000E+00  0.10566000000E+00 0. -1.
     999900   -1    0    0    0    0 -0.00000000000E+00 -0.00000000000E+00 -0.74505805969E-08  0.93827000000E+00  0.93827000000E+00 0.  1.
     999902    2    1    2    0    0 -0.15048233184E-01 -0.39541709861E-02 -0.23598399912E-01  0.10156639556E+01  0.10152705557E+01 0.  0.
     999903    2    3    3    0    0 -0.34130665869E-01 -0.11545902075E+00  0.33741926108E-01  0.12657150606E+00  0.19650464190E-01 0.  0.
         14    1    1    2    0    0  0.15048233184E-01  0.39541709861E-02  0.23598399912E-01  0.28266044445E-01  0.00000000000E+00 0. -1.
     999901    1    3    3    0    0  0.19082432685E-01  0.11150484977E+00 -0.57340326021E-01  0.88909244949E+00  0.88000000000E+00 0.  1.
        -11    1    4    4    0    0 -0.54566583017E-02 -0.44088176457E-01  0.18672732132E-01  0.48192058157E-01  0.51100000000E-03 0.  1.
         11    1    4    4    0    0 -0.28674007568E-01 -0.71370844297E-01  0.15069193976E-01  0.78379447904E-01  0.51100000000E-03 0. -1.
</event>
<event>
 8    1  0.1131376E+005  0.1043930E+01  0.7957747E-01            NaN
         13   -1    0    0    0    0  0.00000000000E+00  0.00000000000E+00  0.74505805969E-08  0.10566000000E+00  0.10566000000E+00 0.  1.
     999900   -1    0    0    0    0 -0.00000000000E+00 -0.00000000000E+00 -0.74505805969E-08  0.93827000000E+00  0.93827000000E+00 0. -1.
     999902    2    1    2    0    0  0.22602841678E-01  0.35590676007E-02 -0.26743854462E-02  0.10208929049E+01  0.10206329485E+01 0.  0.
     999903    2    3    3    0    0 -0.10361259072E+00  0.74791460390E-01 -0.43470274726E-02  0.12903687003E+00  0.17386364659E-01 0.  0.
         14    1    1    2    0    0 -0.22602841678E-01 -0.35590676007E-02  0.26743854462E-02  0.23037095121E-01  0.00000000000E+00 0.  1.
     999901    1    3    3    0    0  0.12621543240E+00 -0.71232392790E-01  0.16726420264E-02  0.89185603485E+00  0.88000000000E+00 0.  1.
        -11    1    4    4    0    0 -0.93329522907E-01  0.68063733430E-01  0.12596746844E-02  0.11552021276E+00  0.51100000000E-03 0.  1.
         11    1    4    4    0    0 -0.10283067818E-01  0.67277269601E-02 -0.56067021570E-02  0.13516657275E-01  0.51100000000E-03 0. -1.
</event>
<event>
 8    1  0.1131376E+005  0.1043930E+01  0.7957747E-01            NaN
         13   -1    0    0    0    0  0.00000000000E+00  0.00000000000E+00  0.74505805969E-08  0.10566000000E+00  0.10566000000E+00 0.  1.
     999900   -1    0    0    0    0 -0.00000000000E+00 -0.00000000000E+00 -0.74505805969E-08  0.93827000000E+00  0.93827000000E+00 0. -1.
     999902    2    1    2    0    0 -0.25214889541E-01  0.11649444331E-01 -0.43474668473E-02  0.10158159346E+01  0.10154268128E+01 0.  0.
     999903    2    3    3    0    0  0.82967536959E-02  0.79165749663E-01 -0.97837956746E-01  0.12765944304E+00  0.19713334976E-01 0.  0.
         14    1    1    2    0    0  0.25214889541E-01 -0.11649444331E-01  0.43474668473E-02  0.28114065444E-01  0.00000000000E+00 0.  1.
     999901    1    3    3    0    0 -0.33511643237E-01 -0.67516305332E-01  0.93490489899E-01  0.88815649151E+00  0.88000000000E+00 0.  1.
        -11    1    4    4    0    0  0.22529726230E-02  0.42337541564E-01 -0.36947379379E-01  0.56239783741E-01  0.51100000000E-03 0. -1.
         11    1    4    4    0    0  0.60437810728E-02  0.36828208099E-01 -0.60890577367E-01  0.71419659300E-01  0.51100000000E-03 0.  1.
</event>
<event>
 8    1  0.1131376E+005  0.1043930E+01  0.7957747E-01            NaN
         13   -1    0    0    0    0  0.00000000000E+00  0.00000000000E+00  0.74505805969E-08  0.10566000000E+00  0.10566000000E+00 0.  1.
     999900   -1    0    0    0    0 -0.00000000000E+00 -0.00000000000E+00 -0.74505805969E-08  0.93827000000E+00  0.93827000000E+00 0.  1.
     999902    2    1    2    0    0  0.10684886007E-01  0.20492614687E-01 -0.20285615018E-02  0.10207302348E+01  0.10204665516E+01 0.  0.
     999903    2    3    3    0    0  0.41118330989E-01 -0.11605343897E+00  0.32974378432E-01  0.12899247894E+00  0.19814947650E-01 0.  0.
         14    1    1    2    0    0 -0.10684886007E-01 -0.20492614687E-01  0.20285615018E-02  0.23199765246E-01  0.00000000000E+00 0. -1.
     999901    1    3    3    0    0 -0.30433444982E-01  0.13654605365E+00 -0.35002939934E-01  0.89173775582E+00  0.88000000000E+00 0.  1.
        -11    1    4    4    0    0  0.34509727012E-01 -0.10846109753E+00  0.26045819499E-01  0.11676205192E+00  0.51100000000E-03 0. -1.
         11    1    4    4    0    0  0.66086039773E-02 -0.75923414411E-02  0.69285589334E-02  0.12230427015E-01  0.51100000000E-03 0.  1.
</event>
<event>
 8    1  0.1131376E+005  0.1043930E+01  0.7957747E-01            NaN
         13   -1    0    0    0    0  0.00000000000E+00  0.00000000000E+00  0.74505805969E-08  0.10566000000E+00  0.10566000000E+00 0.  1.
     999900   -1    0    0    0    0 -0.00000000000E+00 -0.00000000000E+00 -0.74505805969E-08  0.93827000000E+00  0.93827000000E+00 0. -1.
     999902    2    1    2    0    0 -0.21132246821E-01 -0.16407835579E-01 -0.15534765134E-01  0.10129926787E+01  0.10125201475E+01 0.  0.
     999903    2    3    3    0    0 -0.34827486868E-01 -0.61810806446E-01 -0.10415835820E+00  0.12727086532E+00  0.17758939770E-01 0.  0.
         14    1    1    2    0    0  0.21132246821E-01  0.16407835579E-01  0.15534765134E-01  0.30937321343E-01  0.00000000000E+00 0.  1.
     999901    1    3    3    0    0  0.13695240047E-01  0.45402970866E-01  0.88623593070E-01  0.88572181333E+00  0.88000000000E+00 0.  1.
        -11    1    4    4    0    0 -0.26294590594E-01 -0.34221952336E-01 -0.72844393394E-01  0.84670622332E-01  0.51100000000E-03 0.  1.
         11    1    4    4    0    0 -0.85328962742E-02 -0.27588854109E-01 -0.31313964810E-01  0.42600242993E-01  0.51100000000E-03 0. -1.
</event>
<event>
 8    1  0.1131376E+005  0.1043930E+01  0.7957747E-01            NaN
         13   -1    0    0    0    0  0.00000000000E+00  0.00000000000E+00  0.74505805969E-08  0.10566000000E+00  0.10566000000E+00 0.  1.
     999900   -1    0    0    0    0 -0.00000000000E+00 -0.00000000000E+00 -0.74505805969E-08  0.93827000000E+00  0.93827000000E+00 0. -1.
     999902    2    1    2    0    0  0.84283007969E-02 -0.19036597283E-01  0.14975467609E-01  0.10182844756E+01  0.10179614828E+01 0.  0.
     999903    2    3    3    0    0 -0.30043514634E-01  0.11781496847E+00  0.29818541079E-01  0.12675278888E+00  0.19853073610E-01 0.  0.
         14    1    1    2    0    0 -0.84283007969E-02  0.19036597283E-01 -0.14975467609E-01  0.25645524376E-01  0.00000000000E+00 0.  1.
     999901    1    3    3    0    0  0.38471815431E-01 -0.13685156575E+00 -0.14843073470E-01  0.89153168674E+00  0.88000000000E+00 0. -1.
        -11    1    4    4    0    0 -0.20846640940E-01  0.10165059030E+00  0.30432787575E-01  0.10813806281E+00  0.51100000000E-03 0. -1.
         11    1    4    4    0    0 -0.91968736939E-02  0.16164378165E-01 -0.61424649558E-03  0.18614726078E-01  0.51100000000E-03 0.  1.
</event>
<event>
 8    1  0.1131376E+005  0.1043930E+01  0.7957747E-01            NaN
         13   -1    0    0    0    0  0.00000000000E+00  0.00000000000E+00  0.74505805969E-08  0.10566000000E+00  0.10566000000E+00 0.  1.
     999900   -1    0    0    0    0 -0.00000000000E+00 -0.00000000000E+00 -0.74505805969E-08  0.93827000000E+00  0.93827000000E+00 0.  1.
     999902    2    1    2    0    0 -0.17404575141E-01  0.16267308401E-01  0.48006437119E-03  0.10201019699E+01  0.10198236386E+01 0.  0.
     999903    2    3    3    0    0 -0.88828127850E-01  0.51198407526E-01  0.82609017680E-01  0.13270878162E+00  0.16602942104E-01 0.  0.
         14    1    1    2    0    0  0.17404575141E-01 -0.16267308401E-01 -0.48006437119E-03  0.23828030138E-01  0.00000000000E+00 0.  1.
     999901    1    3    3    0    0  0.71423552709E-01 -0.34931099125E-01 -0.82128953308E-01  0.88739318824E+00  0.88000000000E+00 0.  1.
        -11    1    4    4    0    0 -0.43756512093E-01  0.24592106359E-01  0.29900496927E-01  0.58426919165E-01  0.51100000000E-03 0. -1.
         11    1    4    4    0    0 -0.45071615757E-01  0.26606301167E-01  0.52708520753E-01  0.74281862455E-01  0.51100000000E-03 0.  1.
</event>
<event>
 8    1  0.1131376E+005  0.1043930E+01  0.7957747E-01            NaN
         13   -1    0    0    0    0  0.00000000000E+00  0.00000000000E+00  0.74505805969E-08  0.10566000000E+00  0.10566000000E+00 0.  1.
     999900   -1    0    0    0    0 -0.00000000000E+00 -0.00000000000E+00 -0.74505805969E-08  0.93827000000E+00  0.93827000000E+00 0.  1.
     999902    2    1    2    0    0 -0.12137052737E-01  0.11431522330E-01  0.16562274814E-01  0.10204290064E+01  0.10201583507E+01 0.  0.
     999903    2    3    3    0    0 -0.98671924510E-01 -0.79130533522E-01 -0.25460612091E-01  0.13056626813E+00  0.20037903640E-01 0.  0.
         14    1    1    2    0    0  0.12137052737E-01 -0.11431522330E-01 -0.16562274814E-01  0.23500993573E-01  0.00000000000E+00 0.  1.
     999901    1    3    3    0    0  0.86534871773E-01  0.90562055852E-01  0.42022886905E-01  0.88986273830E+00  0.88000000000E+00 0. -1.
        -11    1    4    4    0    0 -0.58454882930E-01 -0.43693241441E-01 -0.48740068898E-02  0.73144307708E-01  0.51100000000E-03 0. -1.
         11    1    4    4    0    0 -0.40217041580E-01 -0.35437292081E-01 -0.20586605201E-01  0.57421960417E-01  0.51100000000E-03 0.  1.
</event>
<event>
 8    1  0.1131376E+005  0.1043930E+01  0.7957747E-01            NaN
         13   -1    0    0    0    0  0.00000000000E+00  0.00000000000E+00  0.74505805969E-08  0.10566000000E+00  0.10566000000E+00 0.  1.
     999900   -1    0    0    0    0 -0.00000000000E+00 -0.00000000000E+00 -0.74505805969E-08  0.93827000000E+00  0.93827000000E+00 0.  1.
     999902    2    1    2    0    0  0.19316653623E-01 -0.93512819115E-02 -0.12659124480E-01  0.10190134791E+01  0.10187088090E+01 0.  0.
     999903    2    3    3    0    0  0.49777728266E-01  0.81618205146E-01  0.83501499776E-01  0.12859212363E+00  0.20593206441E-01 0.  0.
         14    1    1    2    0    0 -0.19316653623E-01  0.93512819115E-02  0.12659124480E-01  0.24916520888E-01  0.00000000000E+00 0.  1.
     999901    1    3    3    0    0 -0.30461074644E-01 -0.90969487058E-01 -0.96160624257E-01  0.89042135548E+00  0.88000000000E+00 0.  1.
        -11    1    4    4    0    0  0.67949449041E-02  0.29137514495E-01  0.24075637794E-01  0.38406555214E-01  0.51100000000E-03 0. -1.
         11    1    4    4    0    0  0.42982783362E-01  0.52480690651E-01  0.59425861983E-01  0.90185568414E-01  0.51100000000E-03 0.  1.
</event>
<event>
 8    1  0.1131376E+005  0.1043930E+01  0.7957747E-01            NaN
         13   -1    0    0    0    0  0.00000000000E+00  0.00000000000E+00  0.74505805969E-08  0.10566000000E+00  0.10566000000E+00 0. -1.
     999900   -1    0    0    0    0 -0.00000000000E+00 -0.00000000000E+00 -0.74505805969E-08  0.93827000000E+00  0.93827000000E+00 0. -1.
     999902    2    1    2    0    0  0.33825374159E-02  0.24263169530E-01  0.33818263636E-02  0.10191998624E+01  0.10188997889E+01 0.  0.
     999903    2    3    3    0    0 -0.34837549215E-01 -0.21350414991E-01 -0.12098490473E+00  0.12846507703E+00  0.14015483829E-01 0.  0.
         14    1    1    2    0    0 -0.33825374159E-02 -0.24263169530E-01 -0.33818263636E-02  0.24730137577E-01  0.00000000000E+00 0. -1.
     999901    1    3    3    0    0  0.38220086631E-01  0.45613584521E-01  0.12436673109E+00  0.89073478540E+00  0.88000000000E+00 0.  1.
        -11    1    4    4    0    0 -0.21274594507E-01 -0.13212640665E-01 -0.52416510536E-01  0.58094181658E-01  0.51100000000E-03 0. -1.
         11    1    4    4    0    0 -0.13562954709E-01 -0.81377743259E-02 -0.68568394194E-01  0.70370895367E-01  0.51100000000E-03 0.  1.
</event>
<event>
 8    1  0.1131376E+005  0.1043930E+01  0.7957747E-01            NaN
         13   -1    0    0    0    0  0.00000000000E+00  0.00000000000E+00  0.74505805969E-08  0.10566000000E+00  0.10566000000E+00 0. -1.
     999900   -1    0    0    0    0 -0.00000000000E+00 -0.00000000000E+00 -0.74505805969E-08  0.93827000000E+00  0.93827000000E+00 0. -1.
     999902    2    1    2    0    0  0.19104782934E-01 -0.97509136733E-02 -0.10137488651E-01  0.10202057145E+01  0.10199298300E+01 0.  0.
     999903    2    3    3    0    0  0.75355228579E-01 -0.46196070277E-01 -0.97748686532E-01  0.13331897757E+00  0.20165730275E-01 0.  0.
         14    1    1    2    0    0 -0.19104782934E-01  0.97509136733E-02  0.10137488651E-01  0.23724285544E-01  0.00000000000E+00 0. -1.
     999901    1    3    3    0    0 -0.56250445644E-01  0.36445156604E-01  0.87611197881E-01  0.88688673689E+00  0.88000000000E+00 0.  1.
        -11    1    4    4    0    0  0.57671733870E-01 -0.35158192304E-01 -0.86102971189E-01  0.10943541539E+00  0.51100000000E-03 0. -1.
         11    1    4    4    0    0  0.17683494709E-01 -0.11037877973E-01 -0.11645715343E-01  0.23883562174E-01  0.51100000000E-03 0.  1.
</event>
<event>
 8    1  0.1131376E+005  0.1043930E+01  0.7957747E-01            NaN
         13   -1    0    0    0    0  0.00000000000E+00  0.00000000000E+00  0.74505805969E-08  0.10566000000E+00  0.10566000000E+00 0.  1.
     999900   -1    0    0    0    0 -0.00000000000E+00 -0.00000000000E+00 -0.74505805969E-08  0.93827000000E+00  0.93827000000E+00 0.  1.
     999902    2    1    2    0    0 -0.17352422530E-01  0.13074669352E-01 -0.42890224752E-02  0.10217839110E+01  0.10215438862E+01 0.  0.
     999903    2    3    3    0    0 -0.90802140856E-01 -0.15558493478E-01 -0.94842291373E-01  0.13363155148E+00  0.19371004456E-01 0.  0.
         14    1    1    2    0    0  0.17352422530E-01 -0.13074669352E-01  0.42890224752E-02  0.22146089048E-01  0.00000000000E+00 0.  1.
     999901    1    3    3    0    0  0.73449718325E-01  0.28633162830E-01  0.90553268897E-01  0.88815235948E+00  0.88000000000E+00 0.  1.
        -11    1    4    4    0    0 -0.63443331148E-01 -0.19766845174E-01 -0.66626736805E-01  0.94101900159E-01  0.51100000000E-03 0.  1.
         11    1    4    4    0    0 -0.27358809708E-01  0.42083516964E-02 -0.28215554568E-01  0.39529651317E-01  0.51100000000E-03 0. -1.
</event>
<event>
 8    1  0.1131376E+005  0.1043930E+01  0.7957747E-01            NaN
         13   -1    0    0    0    0  0.00000000000E+00  0.00000000000E+00  0.74505805969E-08  0.10566000000E+00  0.10566000000E+00 0.  1.
     999900   -1    0    0    0    0 -0.00000000000E+00 -0.00000000000E+00 -0.74505805969E-08  0.93827000000E+00  0.93827000000E+00 0. -1.
     999902    2    1    2    0    0 -0.15179447003E-01  0.19839826576E-01  0.10307002684E-01  0.10169065170E+01  0.10165473898E+01 0.  0.
     999903    2    3    3    0    0 -0.11216365234E+00  0.52045398573E-01 -0.33490832024E-01  0.12991080940E+00  0.21581801367E-01 0.  0.
         14    1    1    2    0    0  0.15179447003E-01 -0.19839826576E-01 -0.10307002684E-01  0.27023483014E-01  0.00000000000E+00 0. -1.
     999901    1    3    3    0    0  0.96984205337E-01 -0.32205571997E-01  0.43797834708E-01  0.88699570759E+00  0.88000000000E+00 0.  1.
        -11    1    4    4    0    0 -0.62520441212E-01  0.27959525417E-01 -0.74459572553E-02  0.68892989711E-01  0.51100000000E-03 0. -1.
         11    1    4    4    0    0 -0.49643211128E-01  0.24085873156E-01 -0.26044874769E-01  0.61017819688E-01  0.51100000000E-03 0.  1.
</event>
<event>
 8    1  0.1131376E+005  0.1043930E+01  0.7957747E-01            NaN
         13   -1    0    0    0    0  0.00000000000E+00  0.00000000000E+00  0.74505805969E-08  0.10566000000E+00  0.10566000000E+00 0. -1.
     999900   -1    0    0    0    0 -0.00000000000E+00 -0.00000000000E+00 -0.74505805969E-08  0.93827000000E+00  0.93827000000E+00 0. -1.
     999902    2    1    2    0    0 -0.13033096712E-01 -0.82313632689E-02 -0.17729977071E-01  0.10204359787E+01  0.10201654854E+01 0.  0.
     999903    2    3    3    0    0  0.28094879508E-01  0.10783051472E+00 -0.65037467160E-01  0.13060460781E+00  0.20271884164E-01 0.  0.
         14    1    1    2    0    0  0.13033096712E-01  0.82313632689E-02  0.17729977071E-01  0.23494021326E-01  0.00000000000E+00 0.  1.
     999901    1    3    3    0    0 -0.41127976220E-01 -0.11606187799E+00  0.47307490089E-01  0.88983137086E+00  0.88000000000E+00 0. -1.
        -11    1    4    4    0    0  0.10317207957E-01  0.38072036597E-01 -0.34496732978E-01  0.52404298085E-01  0.51100000000E-03 0. -1.
         11    1    4    4    0    0  0.17777671551E-01  0.69758478125E-01 -0.30540734182E-01  0.78200309727E-01  0.51100000000E-03 0.  1.
</event>
<event>
 8    1  0.1131376E+005  0.1043930E+01  0.7957747E-01            NaN
         13   -1    0    0    0    0  0.00000000000E+00  0.00000000000E+00  0.74505805969E-08  0.10566000000E+00  0.10566000000E+00 0.  1.
     999900   -1    0    0    0    0 -0.00000000000E+00 -0.00000000000E+00 -0.74505805969E-08  0.93827000000E+00  0.93827000000E+00 0.  1.
     999902    2    1    2    0    0  0.18924262632E-02  0.11116545286E-01 -0.20809358042E-01  0.10202617039E+01  0.10199871354E+01 0.  0.
     999903    2    3    3    0    0 -0.97749941848E-01 -0.81524158201E-01 -0.15502582770E-01  0.12979044481E+00  0.20099502252E-01 0.  0.
         14    1    1    2    0    0 -0.18924262632E-02 -0.11116545286E-01  0.20809358042E-01  0.23668296060E-01  0.00000000000E+00 0.  1.
     999901    1    3    3    0    0  0.99642368111E-01  0.92640703488E-01 -0.53067752719E-02  0.89047125913E+00  0.88000000000E+00 0. -1.
        -11    1    4    4    0    0 -0.84822019982E-01 -0.70684705107E-01 -0.20251905364E-01  0.11225641809E+00  0.51100000000E-03 0. -1.
         11    1    4    4    0    0 -0.12927921866E-01 -0.10839453094E-01  0.47493225940E-02  0.17534026727E-01  0.51100000000E-03 0.  1.
</event>
<event>
 8    1  0.1131376E+005  0.1043930E+01  0.7957747E-01            NaN
         13   -1    0    0    0    0  0.00000000000E+00  0.00000000000E+00  0.74505805969E-08  0.10566000000E+00  0.10566000000E+00 0.  1.
     999900   -1    0    0    0    0 -0.00000000000E+00 -0.00000000000E+00 -0.74505805969E-08  0.93827000000E+00  0.93827000000E+00 0.  1.
     999902    2    1    2    0    0 -0.22903595768E-01 -0.46088660430E-02 -0.19703476771E-02  0.10204843476E+01  0.10202149799E+01 0.  0.
     999903    2    3    3    0    0  0.10949073299E+00  0.59310292038E-01  0.20805905167E-01  0.12799755515E+00  0.21084522333E-01 0.  0.
         14    1    1    2    0    0  0.22903595768E-01  0.46088660430E-02  0.19703476771E-02  0.23445652375E-01  0.00000000000E+00 0.  1.
     999901    1    3    3    0    0 -0.13239432875E+00 -0.63919158081E-01 -0.22776252844E-01  0.89248679248E+00  0.88000000000E+00 0.  1.
        -11    1    4    4    0    0  0.84687771527E-01  0.52438569916E-01  0.10109438670E-01  0.10012134704E+00  0.51100000000E-03 0. -1.
         11    1    4    4    0    0  0.24802961459E-01  0.68717221218E-02  0.10696466497E-01  0.27876208110E-01  0.51100000000E-03 0.  1.
</event>
<event>
 7    1  0.1131376E+005  0.1043930E+01  0.7957747E-01            NaN
         13   -1    0    0    0    0  0.00000000000E+00  0.00000000000E+00  0.74505805969E-08  0.10566000000E+00  0.10566000000E+00 0.  1.
     999900   -1    0    0    0    0 -0.00000000000E+00 -0.00000000000E+00 -0.74505805969E-08  0.93827000000E+00  0.93827000000E+00 0.  1.
     999903    2    1    2    0    0 -0.42002806463E-01  0.60599218658E-01 -0.34451555823E-01  0.83813528484E-01  0.20032393908E-01 0.  0.
         14    1    1    2    0    0  0.37657841133E-01  0.28217682059E-01 -0.53526694035E-01  0.71270313272E-01  0.00000000000E+00 0. -1.
     999901    1    1    2    0    0  0.43449653298E-02 -0.88816900717E-01  0.87978249858E-01  0.88884615824E+00  0.88000000000E+00 0. -1.
        -11    1    3    3    0    0 -0.26115505307E-01  0.46734997793E-01 -0.32499470568E-01  0.62631113229E-01  0.51100000000E-03 0.  1.
         11    1    3    3    0    0 -0.15887301155E-01  0.13864220865E-01 -0.19520852551E-02  0.21182415255E-01  0.51100000000E-03 0. -1.
</event>
<event>
 8    1  0.1131376E+005  0.1043930E+01  0.7957747E-01            NaN
         13   -1    0    0    0    0  0.00000000000E+00  0.00000000000E+00  0.74505805969E-08  0.10566000000E+00  0.10566000000E+00 0. -1.
     999900   -1    0    0    0    0 -0.00000000000E+00 -0.00000000000E+00 -0.74505805969E-08  0.93827000000E+00  0.93827000000E+00 0.  1.
     999902    2    1    2    0    0 -0.16133582588E-01  0.95176919641E-02 -0.13306829997E-01  0.10209528228E+01  0.10206942322E+01 0.  0.
     999903    2    3    3    0    0 -0.86962698728E-01  0.12862472048E-01 -0.98958106302E-01  0.13395558922E+00  0.20577631626E-01 0.  0.
         14    1    1    2    0    0  0.16133582588E-01 -0.95176919641E-02  0.13306829997E-01  0.22977177199E-01  0.00000000000E+00 0. -1.
     999901    1    3    3    0    0  0.70829116140E-01 -0.33447800839E-02  0.85651276304E-01  0.88699723358E+00  0.88000000000E+00 0. -1.
        -11    1    4    4    0    0 -0.70197571513E-02 -0.41638087639E-02 -0.58199750770E-02  0.10037306650E-01  0.51100000000E-03 0.  1.
         11    1    4    4    0    0 -0.79942941577E-01  0.17026280812E-01 -0.93138131225E-01  0.12391828257E+00  0.51100000000E-03 0. -1.
</event>
<event>
 8    1  0.1131376E+005  0.1043930E+01  0.7957747E-01            NaN
         13   -1    0    0    0    0  0.00000000000E+00  0.00000000000E+00  0.74505805969E-08  0.10566000000E+00  0.10566000000E+00 0.  1.
     999900   -1    0    0    0    0 -0.00000000000E+00 -0.00000000000E+00 -0.74505805969E-08  0.93827000000E+00  0.93827000000E+00 0.  1.
     999902    2    1    2    0    0 -0.13416466259E-01 -0.94248289712E-02 -0.16016360168E-01  0.10210094249E+01  0.10207521213E+01 0.  0.
     999903    2    3    3    0    0 -0.91789188445E-01  0.86841329656E-01 -0.34363592276E-01  0.13210781182E+00  0.17462697909E-01 0.  0.
         14    1    1    2    0    0  0.13416466259E-01  0.94248289712E-02  0.16016360168E-01  0.22920575059E-01  0.00000000000E+00 0.  1.
     999901    1    3    3    0    0  0.78372722187E-01 -0.96266158627E-01  0.18347232107E-01  0.88890161312E+00  0.88000000000E+00 0. -1.
        -11    1    4    4    0    0 -0.47504559965E-01  0.56742045276E-01 -0.20688213479E-01  0.76841435551E-01  0.51100000000E-03 0.  1.
         11    1    4    4    0    0 -0.44284628481E-01  0.30099284380E-01 -0.13675378796E-01  0.55266376271E-01  0.51100000000E-03 0. -1.
</event>
<event>
 8    1  0.1131376E+005  0.1043930E+01  0.7957747E-01            NaN
         13   -1    0    0    0    0  0.00000000000E+00  0.00000000000E+00  0.74505805969E-08  0.10566000000E+00  0.10566000000E+00 0.  1.
     999900   -1    0    0    0    0 -0.00000000000E+00 -0.00000000000E+00 -0.74505805969E-08  0.93827000000E+00  0.93827000000E+00 0.  1.
     999902    2    1    2    0    0  0.69014029125E-02  0.52144935082E-03  0.23510823311E-01  0.10194216324E+01  0.10191269815E+01 0.  0.
     999903    2    3    3    0    0  0.11053386644E+00 -0.39282798062E-02  0.69595458299E-01  0.13213178053E+00  0.19547700552E-01 0.  0.
         14    1    1    2    0    0 -0.69014029125E-02 -0.52144935082E-03 -0.23510823311E-01  0.24508367639E-01  0.00000000000E+00 0. -1.
     999901    1    3    3    0    0 -0.10363246353E+00  0.44497291570E-02 -0.46084634988E-01  0.88728985183E+00  0.88000000000E+00 0.  1.
        -11    1    4    4    0    0  0.37813149375E-01 -0.36419490503E-03  0.13271879560E-01  0.40079556031E-01  0.51100000000E-03 0.  1.
         11    1    4    4    0    0  0.72720717065E-01 -0.35640849011E-02  0.56323578739E-01  0.92052224495E-01  0.51100000000E-03 0. -1.
</event>
<event>
 8    1  0.1131376E+005  0.1043930E+01  0.7957747E-01            NaN
         13   -1    0    0    0    0  0.00000000000E+00  0.00000000000E+00  0.74505805969E-08  0.10566000000E+00  0.10566000000E+00 0.  1.
     999900   -1    0    0    0    0 -0.00000000000E+00 -0.00000000000E+00 -0.74505805969E-08  0.93827000000E+00  0.93827000000E+00 0.  1.
     999902    2    1    2    0    0  0.16529858000E-01 -0.16169031947E-01 -0.42281935814E-02  0.10204235877E+01  0.10201528056E+01 0.  0.
     999903    2    3    3    0    0  0.53503850080E-01 -0.10470079899E+00  0.58605380123E-01  0.13298175417E+00  0.20606724149E-01 0.  0.
         14    1    1    2    0    0 -0.16529858000E-01  0.16169031947E-01  0.42281935814E-02  0.23506412329E-01  0.00000000000E+00 0.  1.
     999901    1    3    3    0    0 -0.36973992080E-01  0.88531767042E-01 -0.62833573705E-01  0.88744183350E+00  0.88000000000E+00 0.  1.
        -11    1    4    4    0    0  0.41689169061E-01 -0.95184027200E-01  0.48003944642E-01  0.11446670115E+00  0.51100000000E-03 0. -1.
         11    1    4    4    0    0  0.11814681019E-01 -0.95167717888E-02  0.10601435481E-01  0.18515053014E-01  0.51100000000E-03 0.  1.
</event>
<event>
 8    1  0.1131376E+005  0.1043930E+01  0.7957747E-01            NaN
         13   -1    0    0    0    0  0.00000000000E+00  0.00000000000E+00  0.74505805969E-08  0.10566000000E+00  0.10566000000E+00 0. -1.
     999900   -1    0    0    0    0 -0.00000000000E+00 -0.00000000000E+00 -0.74505805969E-08  0.93827000000E+00  0.93827000000E+00 0. -1.
     999902    2    1    2    0    0 -0.16514912529E-01  0.10089053354E-01 -0.12892625002E-01  0.10206759442E+01  0.10204110112E+01 0.  0.
     999903    2    3    3    0    0  0.63357760433E-01  0.29320058652E-01  0.10631361723E+00  0.12884658625E+00  0.20615186938E-01 0.  0.
         14    1    1    2    0    0  0.16514912529E-01 -0.10089053354E-01  0.12892625002E-01  0.23254055837E-01  0.00000000000E+00 0.  1.
     999901    1    3    3    0    0 -0.79872672962E-01 -0.19231005298E-01 -0.11920624223E+00  0.89182935791E+00  0.88000000000E+00 0.  1.
        -11    1    4    4    0    0  0.39751562751E-01  0.73900758489E-02  0.55280593174E-01  0.68490912280E-01  0.51100000000E-03 0. -1.
         11    1    4    4    0    0  0.23606197681E-01  0.21929982803E-01  0.51033024058E-01  0.60355673968E-01  0.51100000000E-03 0.  1.
</event>
<event>
 8    1  0.1131376E+005  0.1043930E+01  0.7957747E-01            NaN
         13   -1    0    0    0    0  0.00000000000E+00  0.00000000000E+00  0.74505805969E-08  0.10566000000E+00  0.10566000000E+00 0.  1.
     999900   -1    0    0    0    0 -0.00000000000E+00 -0.00000000000E+00 -0.74505805969E-08  0.93827000000E+00  0.93827000000E+00 0. -1.
     999902    2    1    2    0    0 -0.16727400388E-01 -0.15593769063E-01 -0.17818604834E-01  0.10149390663E+01  0.10145249303E+01 0.  0.
     999903    2    3    3    0    0  0.31949805587E-01  0.59935065651E-01 -0.10439426273E+00  0.12613682747E+00  0.19983367597E-01 0.  0.
         14    1    1    2    0    0  0.16727400388E-01  0.15593769063E-01  0.17818604834E-01  0.28990933679E-01  0.00000000000E+00 0.  1.
     999901    1    3    3    0    0 -0.48677205974E-01 -0.75528834714E-01  0.86575657895E-01  0.88880223886E+00  0.88000000000E+00 0. -1.
        -11    1    4    4    0    0  0.31228123515E-01  0.58297697991E-01 -0.90349064837E-01  0.11196888821E+00  0.51100000000E-03 0.  1.
         11    1    4    4    0    0  0.72168207120E-03  0.16373676604E-02 -0.14045197892E-01  0.14167939254E-01  0.51100000000E-03 0. -1.
</event>
<event>
 8    1  0.1131376E+005  0.1043930E+01  0.7957747E-01            NaN
         13   -1    0    0    0    0  0.00000000000E+00  0.00000000000E+00  0.74505805969E-08  0.10566000000E+00  0.10566000000E+00 0. -1.
     999900   -1    0    0    0    0 -0.00000000000E+00 -0.00000000000E+00 -0.74505805969E-08  0.93827000000E+00  0.93827000000E+00 0.  1.
     999902    2    1    2    0    0  0.15253203629E-02 -0.51293910339E-02 -0.22772669915E-01  0.10205370149E+01  0.10202688700E+01 0.  0.
     999903    2    3    3    0    0 -0.10752216305E+00 -0.22979702114E-01  0.64969586842E-01  0.12929704117E+00  0.20188991664E-01 0.  0.
         14    1    1    2    0    0 -0.15253203629E-02  0.51293910339E-02  0.22772669915E-01  0.23392985052E-01  0.00000000000E+00 0. -1.
     999901    1    3    3    0    0  0.10904748341E+00  0.17850311080E-01 -0.87742256757E-01  0.89123997378E+00  0.88000000000E+00 0.  1.
        -11    1    4    4    0    0 -0.35790976937E-01  0.19297653123E-02  0.20158191308E-01  0.41125804820E-01  0.51100000000E-03 0.  1.
         11    1    4    4    0    0 -0.71731186111E-01 -0.24909467426E-01  0.44811395533E-01  0.88171236347E-01  0.51100000000E-03 0. -1.
</event>
<event>
 8    1  0.1131376E+005  0.1043930E+01  0.7957747E-01            NaN
         13   -1    0    0    0    0  0.00000000000E+00  0.00000000000E+00  0.74505805969E-08  0.10566000000E+00  0.10566000000E+00 0.  1.
     999900   -1    0    0    0    0 -0.00000000000E+00 -0.00000000000E+00 -0.74505805969E-08  0.93827000000E+00  0.93827000000E+00 0.  1.
     999902    2    1    2    0    0  0.63101123701E-02  0.18421692432E-01  0.19215494784E-01  0.10165728892E+01  0.10162047174E+01 0.  0.
     999903    2    3    3    0    0  0.42145519270E-01 -0.64560413544E-01 -0.95788680615E-01  0.12449880785E+00  0.19498462273E-01 0.  0.
         14    1    1    2    0    0 -0.63101123701E-02 -0.18421692432E-01 -0.19215494784E-01  0.27357110775E-01  0.00000000000E+00 0. -1.
     999901    1    3    3    0    0 -0.35835406900E-01  0.82982105975E-01  0.11500417540E+00  0.89207408137E+00  0.88000000000E+00 0. -1.
        -11    1    4    4    0    0  0.13958955275E-01 -0.34497538745E-01 -0.35238696442E-01  0.51253872632E-01  0.51100000000E-03 0. -1.
         11    1    4    4    0    0  0.28186563995E-01 -0.30062874799E-01 -0.60549984172E-01  0.73244935220E-01  0.51100000000E-03 0.  1.
</event>
<event>
 8    1  0.1131376E+005  0.1043930E+01  0.7957747E-01            NaN
         13   -1    0    0    0    0  0.00000000000E+00  0.00000000000E+00  0.74505805969E-08  0.10566000000E+00  0.10566000000E+00 0.  1.
     999900   -1    0    0    0    0 -0.00000000000E+00 -0.00000000000E+00 -0.74505805969E-08  0.93827000000E+00  0.93827000000E+00 0. -1.
     999902    2    1    2    0    0  0.12357338435E-01 -0.11021860332E-02 -0.19752788043E-01  0.10206042361E+01  0.10203376478E+01 0.  0.
     999903    2    3    3    0    0  0.56243707300E-01 -0.47004636752E-01 -0.10957272464E+00  0.13375550638E+00  0.22617758846E-01 0.  0.
         14    1    1    2    0    0 -0.12357338435E-01  0.11021860332E-02  0.19752788043E-01  0.23325763925E-01  0.00000000000E+00 0. -1.
     999901    1    3    3    0    0 -0.43886368865E-01  0.45902450719E-01  0.89819936594E-01  0.88684872970E+00  0.88000000000E+00 0.  1.
        -11    1    4    4    0    0  0.56311001061E-01 -0.45021245472E-01 -0.96157801786E-01  0.12018496308E+00  0.51100000000E-03 0.  1.
         11    1    4    4    0    0 -0.67293761676E-04 -0.19833912804E-02 -0.13414922851E-01  0.13570543302E-01  0.51100000000E-03 0. -1.
</event>
<event>
 8    1  0.1131376E+005  0.1043930E+01  0.7957747E-01            NaN
         13   -1    0    0    0    0  0.00000000000E+00  0.00000000000E+00  0.74505805969E-08  0.10566000000E+00  0.10566000000E+00 0. -1.
     999900   -1    0    0    0    0 -0.00000000000E+00 -0.00000000000E+00 -0.74505805969E-08  0.93827000000E+00  0.93827000000E+00 0. -1.
     999902    2    1    2    0    0  0.11492216764E-01 -0.16689733472E-01 -0.12737259682E-01  0.10199955889E+01  0.10197147373E+01 0.  0.
     999903    2    3    3    0    0  0.57793490307E-01 -0.32659701476E-01 -0.11339891016E+00  0.13290392754E+00  0.19934831563E-01 0.  0.
         14    1    1    2    0    0 -0.11492216764E-01  0.16689733472E-01  0.12737259682E-01  0.23934411080E-01  0.00000000000E+00 0.  1.
     999901    1    3    3    0    0 -0.46301273543E-01  0.15969968004E-01  0.10066165047E+00  0.88709166138E+00  0.88000000000E+00 0.  1.
        -11    1    4    4    0    0  0.20880810959E-01 -0.10913775175E-01 -0.59860448588E-01  0.64332364958E-01  0.51100000000E-03 0. -1.
         11    1    4    4    0    0  0.36912679348E-01 -0.21745926301E-01 -0.53538461567E-01  0.68571562585E-01  0.51100000000E-03 0.  1.
</event>
<event>
 8    1  0.1131376E+005  0.1043930E+01  0.7957747E-01            NaN
         13   -1    0    0    0    0  0.00000000000E+00  0.00000000000E+00  0.74505805969E-08  0.10566000000E+00  0.10566000000E+00 0. -1.
     999900   -1    0    0    0    0 -0.00000000000E+00 -0.00000000000E+00 -0.74505805969E-08  0.93827000000E+00  0.93827000000E+00 0.  1.
     999902    2    1    2    0    0 -0.11825962640E-01 -0.87635428312E-02  0.19274519442E-01  0.10196779862E+01  0.10193895405E+01 0.  0.
     999903    2    3    3    0    0  0.70416931281E-01 -0.50444481362E-01 -0.91832206124E-01  0.12791237867E+00  0.20621169356E-01 0.  0.
         14    1    1    2    0    0  0.11825962640E-01  0.87635428312E-02 -0.19274519442E-01  0.24252013835E-01  0.00000000000E+00 0.  1.
     999901    1    3    3    0    0 -0.82242893921E-01  0.41680938531E-01  0.11110672557E+00  0.89176560749E+00  0.88000000000E+00 0. -1.
        -11    1    4    4    0    0  0.47932225676E-01 -0.27157956743E-01 -0.69000245523E-01  0.88296930161E-01  0.51100000000E-03 0.  1.
         11    1    4    4    0    0  0.22484705605E-01 -0.23286524620E-01 -0.22831960601E-01  0.39615448513E-01  0.51100000000E-03 0. -1.
</event>
<event>
 8    1  0.1131376E+005  0.1043930E+01  0.7957747E-01            NaN
         13   -1    0    0    0    0  0.00000000000E+00  0.00000000000E+00  0.74505805969E-08  0.10566000000E+00  0.10566000000E+00 0. -1.
     999900   -1    0    0    0    0 -0.00000000000E+00 -0.00000000000E+00 -0.74505805969E-08  0.93827000000E+00  0.93827000000E+00 0. -1.
     999902    2    1    2    0    0  0.11987884189E-01 -0.78202981929E-02  0.12878093948E-01  0.10246761242E+01  0.10244952160E+01 0.  0.
     999903    2    3    3    0    0  0.22087085869E-01 -0.12032084770E+00 -0.52361820901E-01  0.13506125580E+00  0.23126538370E-01 0.  0.
         14    1    1    2    0    0 -0.11987884189E-01  0.78202981929E-02 -0.12878093948E-01  0.19253875841E-01  0.00000000000E+00 0.  1.
     999901    1    3    3    0    0 -0.10099201680E-01  0.11250054951E+00  0.65239914849E-01  0.88961486836E+00  0.88000000000E+00 0.  1.
        -11    1    4    4    0    0  0.82105824954E-02 -0.58014942776E-01 -0.12849954663E-01  0.59987746299E-01  0.51100000000E-03 0. -1.
         11    1    4    4    0    0  0.13876503374E-01 -0.62305904925E-01 -0.39511866238E-01  0.75073509502E-01  0.51100000000E-03 0.  1.
</event>
<event>
 8    1  0.1131376E+005  0.1043930E+01  0.7957747E-01            NaN
         13   -1    0    0    0    0  0.00000000000E+00  0.00000000000E+00  0.74505805969E-08  0.10566000000E+00  0.10566000000E+00 0. -1.
     999900   -1    0    0    0    0 -0.00000000000E+00 -0.00000000000E+00 -0.74505805969E-08  0.93827000000E+00  0.93827000000E+00 0. -1.
     999902    2    1    2    0    0  0.16438245614E-01 -0.10035636435E-01 -0.14277919422E-01  0.10199552445E+01  0.10196734340E+01 0.  0.
     999903    2    3    3    0    0  0.98804317779E-01  0.38038865909E-01  0.73657052065E-01  0.13044533067E+00  0.19528810593E-01 0.  0.
         14    1    1    2    0    0 -0.16438245614E-01  0.10035636435E-01  0.14277919422E-01  0.23974755484E-01  0.00000000000E+00 0.  1.
     999901    1    3    3    0    0 -0.82366072165E-01 -0.48074502343E-01 -0.87934971487E-01  0.88950991385E+00  0.88000000000E+00 0. -1.
        -11    1    4    4    0    0  0.27479197325E-01  0.17368789635E-01  0.14967481145E-01  0.35792006815E-01  0.51100000000E-03 0. -1.
         11    1    4    4    0    0  0.71325120454E-01  0.20670076274E-01  0.58689570920E-01  0.94653323855E-01  0.51100000000E-03 0.  1.
</event>
<event>
 8    1  0.1131376E+005  0.1043930E+01  0.7957747E-01            NaN
         13   -1    0    0    0    0  0.00000000000E+00  0.00000000000E+00  0.74505805969E-08  0.10566000000E+00  0.10566000000E+00 0. -1.
     999900   -1    0    0    0    0 -0.00000000000E+00 -0.00000000000E+00 -0.74505805969E-08  0.93827000000E+00  0.93827000000E+00 0. -1.
     999902    2    1    2    0    0  0.90074546937E-02 -0.18345954845E-01  0.12387509611E-01  0.10200310734E+01  0.10197510637E+01 0.  0.
     999903    2    3    3    0    0  0.65359692971E-01 -0.11028745196E+00 -0.27471069407E-01  0.13255289338E+00  0.19503803862E-01 0.  0.
         14    1    1    2    0    0 -0.90074546937E-02  0.18345954845E-01 -0.12387509611E-01  0.23898926620E-01  0.00000000000E+00 0. -1.
     999901    1    3    3    0    0 -0.56352238277E-01  0.91941497112E-01  0.39858579018E-01  0.88747818000E+00  0.88000000000E+00 0. -1.
        -11    1    4    4    0    0  0.27968728453E-01 -0.65077108424E-01 -0.18391102959E-01  0.73183151074E-01  0.51100000000E-03 0. -1.
         11    1    4    4    0    0  0.37390964518E-01 -0.45210343534E-01 -0.90799664479E-02  0.59369742308E-01  0.51100000000E-03 0.  1.
</event>
<event>
 8    1  0.1131376E+005  0.1043930E+01  0.7957747E-01            NaN
         13   -1    0    0    0    0  0.00000000000E+00  0.00000000000E+00  0.74505805969E-08  0.10566000000E+00  0.10566000000E+00 0.  1.
     999900   -1    0    0    0    0 -0.00000000000E+00 -0.00000000000E+00 -0.74505805969E-08  0.93827000000E+00  0.93827000000E+00 0.  1.
     999902    2    1    2    0    0  0.76542401017E-03  0.23488705621E-01 -0.38654224908E-02  0.10201130595E+01  0.10198349903E+01 0.  0.
     999903    2    3    3    0    0  0.33317795860E-01  0.88886491051E-01  0.89791424734E-01  0.13213325548E+00  0.19642134164E-01 0.  0.
         14    1    1    2    0    0 -0.76542401017E-03 -0.23488705621E-01  0.38654224908E-02  0.23816940540E-01  0.00000000000E+00 0. -1.
     999901    1    3    3    0    0 -0.32552371850E-01 -0.65397785430E-01 -0.93656847224E-01  0.88797980398E+00  0.88000000000E+00 0.  1.
        -11    1    4    4    0    0  0.22582165144E-01  0.78138633976E-01  0.79778597794E-01  0.11393193621E+00  0.51100000000E-03 0. -1.
         11    1    4    4    0    0  0.10735630716E-01  0.10747857075E-01  0.10012826939E-01  0.18201319262E-01  0.51100000000E-03 0.  1.
</event>
<event>
 8    1  0.1131376E+005  0.1043930E+01  0.7957747E-01            NaN
         13   -1    0    0    0    0  0.00000000000E+00  0.00000000000E+00  0.74505805969E-08  0.10566000000E+00  0.10566000000E+00 0. -1.
     999900   -1    0    0    0    0 -0.00000000000E+00 -0.00000000000E+00 -0.74505805969E-08  0.93827000000E+00  0.93827000000E+00 0. -1.
     999902    2    1    2    0    0  0.13055974934E-01 -0.20766188463E-01 -0.31574622450E-02  0.10191981858E+01  0.10188980711E+01 0.  0.
     999903    2    3    3    0    0  0.88375298890E-01 -0.46993021507E-01  0.82131078621E-01  0.13148484102E+00  0.22895672482E-01 0.  0.
         14    1    1    2    0    0 -0.13055974934E-01  0.20766188463E-01  0.31574622450E-02  0.24731814179E-01  0.00000000000E+00 0. -1.
     999901    1    3    3    0    0 -0.75319323957E-01  0.26226833044E-01 -0.85288540866E-01  0.88771334480E+00  0.88000000000E+00 0. -1.
        -11    1    4    4    0    0  0.84259185348E-01 -0.39642487577E-01  0.69093843629E-01  0.11595411802E+00  0.51100000000E-03 0. -1.
         11    1    4    4    0    0  0.41161135421E-02 -0.73505339304E-02  0.13037234992E-01  0.15530723003E-01  0.51100000000E-03 0.  1.
</event>
<event>
 8    1  0.1131376E+005  0.1043930E+01  0.7957747E-01            NaN
         13   -1    0    0    0    0  0.00000000000E+00  0.00000000000E+00  0.74505805969E-08  0.10566000000E+00  0.10566000000E+00 0. -1.
     999900   -1    0    0    0    0 -0.00000000000E+00 -0.00000000000E+00 -0.74505805969E-08  0.93827000000E+00  0.93827000000E+00 0. -1.
     999902    2    1    2    0    0 -0.12779010100E-02  0.15986318622E-01 -0.14729126174E-01  0.10221551849E+01  0.10219232258E+01 0.  0.
     999903    2    3    3    0    0  0.12678585330E+00  0.15259757596E-01 -0.30072939133E-01  0.13275297801E+00  0.20284444860E-01 0.  0.
         14    1    1    2    0    0  0.12779010100E-02 -0.15986318622E-01  0.14729126174E-01  0.21774815084E-01  0.00000000000E+00 0. -1.
     999901    1    3    3    0    0 -0.12806375431E+00  0.72656102576E-03  0.15343812959E-01  0.88940220691E+00  0.88000000000E+00 0.  1.
        -11    1    4    4    0    0  0.10620645032E+00  0.58708570321E-02 -0.28230970219E-01  0.11005237777E+00  0.51100000000E-03 0. -1.
         11    1    4    4    0    0  0.20579402977E-01  0.93889005643E-02 -0.18419689138E-02  0.22700600238E-01  0.51100000000E-03 0.  1.
</event>
<event>
 8    1  0.1131376E+005  0.1043930E+01  0.7957747E-01            NaN
         13   -1    0    0    0    0  0.00000000000E+00  0.00000000000E+00  0.74505805969E-08  0.10566000000E+00  0.10566000000E+00 0.  1.
     999900   -1    0    0    0    0 -0.00000000000E+00 -0.00000000000E+00 -0.74505805969E-08  0.93827000000E+00  0.93827000000E+00 0. -1.
     999902    2    1    2    0    0  0.15735598324E-02 -0.47725108382E-02 -0.28088294391E-01  0.10153957183E+01  0.10149947091E+01 0.  0.
     999903    2    3    3    0    0 -0.54350912080E-01 -0.70128830773E-01 -0.91350756605E-01  0.12894147005E+00  0.20220470257E-01 0.  0.
         14    1    1    2    0    0 -0.15735598324E-02  0.47725108382E-02  0.28088294391E-01  0.28534281698E-01  0.00000000000E+00 0.  1.
     999901    1    3    3    0    0  0.55924471912E-01  0.65356319935E-01  0.63262462215E-01  0.88645424825E+00  0.88000000000E+00 0.  1.
        -11    1    4    4    0    0 -0.27756762983E-01 -0.36944035018E-01 -0.33216115803E-01  0.56911080510E-01  0.51100000000E-03 0.  1.
         11    1    4    4    0    0 -0.26594149097E-01 -0.33184795755E-01 -0.58134640803E-01  0.72030389543E-01  0.51100000000E-03 0. -1.
</event>
<event>
 8    1  0.1131376E+005  0.1043930E+01  0.7957747E-01            NaN
         13   -1    0    0    0    0  0.00000000000E+00  0.00000000000E+00  0.74505805969E-08  0.10566000000E+00  0.10566000000E+00 0. -1.
     999900   -1    0    0    0    0 -0.00000000000E+00 -0.00000000000E+00 -0.74505805969E-08  0.93827000000E+00  0.93827000000E+00 0. -1.
     999902    2    1    2    0    0  0.15015741873E-01 -0.95484204389E-02  0.15035630001E-01  0.10206337555E+01  0.10203678493E+01 0.  0.
     999903    2    3    3    0    0 -0.24748765347E-01  0.51542185701E-01  0.11703745289E+00  0.13174813293E+00  0.19766306126E-01 0.  0.
         14    1    1    2    0    0 -0.15015741873E-01  0.95484204389E-02 -0.15035630001E-01  0.23296244470E-01  0.00000000000E+00 0.  1.
     999901    1    3    3    0    0  0.39764507220E-01 -0.61090606140E-01 -0.10200182289E+00  0.88888562260E+00  0.88000000000E+00 0. -1.
        -11    1    4    4    0    0 -0.11417826615E-01  0.42890077212E-01  0.90802448524E-01  0.10107062514E+00  0.51100000000E-03 0.  1.
         11    1    4    4    0    0 -0.13330938732E-01  0.86521084888E-02  0.26235004368E-01  0.30677507786E-01  0.51100000000E-03 0. -1.
</event>
<event>
 8    1  0.1131376E+005  0.1043930E+01  0.7957747E-01            NaN
         13   -1    0    0    0    0  0.00000000000E+00  0.00000000000E+00  0.74505805969E-08  0.10566000000E+00  0.10566000000E+00 0.  1.
     999900   -1    0    0    0    0 -0.00000000000E+00 -0.00000000000E+00 -0.74505805969E-08  0.93827000000E+00  0.93827000000E+00 0. -1.
     999902    2    1    2    0    0 -0.82227413149E-02 -0.20114998708E-01 -0.11816077362E-01  0.10191944723E+01  0.10188942663E+01 0.  0.
     999903    2    3    3    0    0 -0.11191407432E+00  0.37183153437E-02  0.62362784831E-01  0.12968762969E+00  0.19778232044E-01 0.  0.
         14    1    1    2    0    0  0.82227413149E-02  0.20114998708E-01  0.11816077362E-01  0.24735527727E-01  0.00000000000E+00 0.  1.
     999901    1    3    3    0    0  0.10369133301E+00 -0.23833314051E-01 -0.74178862192E-01  0.88950684258E+00  0.88000000000E+00 0.  1.
        -11    1    4    4    0    0 -0.35157580000E-01 -0.44423474206E-02  0.28124885911E-01  0.45244449500E-01  0.51100000000E-03 0. -1.
         11    1    4    4    0    0 -0.76756494324E-01  0.81606627643E-02  0.34237898920E-01  0.84443180193E-01  0.51100000000E-03 0.  1.
</event>
<event>
 8    1  0.1131376E+005  0.1043930E+01  0.7957747E-01            NaN
         13   -1    0    0    0    0  0.00000000000E+00  0.00000000000E+00  0.74505805969E-08  0.10566000000E+00  0.10566000000E+00 0.  1.
     999900   -1    0    0    0    0 -0.00000000000E+00 -0.00000000000E+00 -0.74505805969E-08  0.93827000000E+00  0.93827000000E+00 0.  1.
     999902    2    1    2    0    0  0.15079699220E-01 -0.14050081519E-01  0.13416136156E-01  0.10193374233E+01  0.10190407194E+01 0.  0.
     999903    2    3    3    0    0 -0.44671603647E-01 -0.10863505970E+00 -0.51759599156E-01  0.12986318941E+00  0.19704402800E-01 0.  0.
         14    1    1    2    0    0 -0.15079699220E-01  0.14050081519E-01 -0.13416136156E-01  0.24592576697E-01  0.00000000000E+00 0. -1.
     999901    1    3    3    0    0  0.59751302866E-01  0.94584978181E-01  0.65175735312E-01  0.88947423390E+00  0.88000000000E+00 0. -1.
        -11    1    4    4    0    0 -0.20201993426E-01 -0.32973645998E-01 -0.24586093027E-01  0.45827054893E-01  0.51100000000E-03 0.  1.
         11    1    4    4    0    0 -0.24469610221E-01 -0.75661413702E-01 -0.27173506129E-01  0.84036134514E-01  0.51100000000E-03 0. -1.
</event>
<event>
 8    1  0.1131376E+005  0.1043930E+01  0.7957747E-01            NaN
         13   -1    0    0    0    0  0.00000000000E+00  0.00000000000E+00  0.74505805969E-08  0.10566000000E+00  0.10566000000E+00 0.  1.
     999900   -1    0    0    0    0 -0.00000000000E+00 -0.00000000000E+00 -0.74505805969E-08  0.93827000000E+00  0.93827000000E+00 0. -1.
     999902    2    1    2    0    0  0.18103229466E-02 -0.23553888571E-01 -0.40245339495E-02  0.10199662814E+01  0.10196847333E+01 0.  0.
     999903    2    3    3    0    0 -0.64660495627E-01  0.36228486682E-01  0.10349177500E+00  0.12892640641E+00  0.20444750822E-01 0.  0.
         14    1    1    2    0    0 -0.18103229466E-02  0.23553888571E-01  0.40245339495E-02  0.23963718608E-01  0.00000000000E+00 0. -1.
     999901    1    3    3    0    0  0.66470818573E-01 -0.59782375254E-01 -0.10751630895E+00  0.89103987498E+00  0.88000000000E+00 0. -1.
        -11    1    4    4    0    0 -0.79389423321E-02  0.13031834268E-01  0.16100408713E-01  0.22188731182E-01  0.51100000000E-03 0. -1.
         11    1    4    4    0    0 -0.56721553294E-01  0.23196652414E-01  0.87391366286E-01  0.10673767523E+00  0.51100000000E-03 0.  1.
</event>
<event>
 8    1  0.1131376E+005  0.1043930E+01  0.7957747E-01            NaN
         13   -1    0    0    0    0  0.00000000000E+00  0.00000000000E+00  0.74505805969E-08  0.10566000000E+00  0.10566000000E+00 0.  1.
     999900   -1    0    0    0    0 -0.00000000000E+00 -0.00000000000E+00 -0.74505805969E-08  0.93827000000E+00  0.93827000000E+00 0. -1.
     999902    2    1    2    0    0 -0.16898594620E-01 -0.15603898925E-02 -0.16954385704E-01  0.10199414921E+01  0.10196593543E+01 0.  0.
     999903    2    3    3    0    0 -0.12993826289E+00 -0.39999155663E-02 -0.17570636277E-01  0.13270742059E+00  0.20064414585E-01 0.  0.
         14    1    1    2    0    0  0.16898594620E-01  0.15603898925E-02  0.16954385704E-01  0.23988507902E-01  0.00000000000E+00 0. -1.
     999901    1    3    3    0    0  0.11303966827E+00  0.24395256738E-02  0.61625057349E-03  0.88723407151E+00  0.88000000000E+00 0. -1.
        -11    1    4    4    0    0 -0.11718352181E+00 -0.49501305146E-02 -0.21654654971E-01  0.11927139967E+00  0.51100000000E-03 0.  1.
         11    1    4    4    0    0 -0.12754741073E-01  0.95021494835E-03  0.40840186940E-02  0.13436020913E-01  0.51100000000E-03 0. -1.
</event>
<event>
 8    1  0.1131376E+005  0.1043930E+01  0.7957747E-01            NaN
         13   -1    0    0    0    0  0.00000000000E+00  0.00000000000E+00  0.74505805969E-08  0.10566000000E+00  0.10566000000E+00 0.  1.
     999900   -1    0    0    0    0 -0.00000000000E+00 -0.00000000000E+00 -0.74505805969E-08  0.93827000000E+00  0.93827000000E+00 0.  1.
     999902    2    1    2    0    0  0.10268096919E-01 -0.16892452300E-01  0.13058073750E-01  0.10202381860E+01  0.10199630651E+01 0.  0.
     999903    2    3    3    0    0  0.24295337071E-01  0.36833007894E-01  0.12118202774E+00  0.13188353953E+00  0.27590764356E-01 0.  0.
         14    1    1    2    0    0 -0.10268096919E-01  0.16892452300E-01 -0.13058073750E-01  0.23691813969E-01  0.00000000000E+00 0.  1.
     999901    1    3    3    0    0 -0.14027240152E-01 -0.53725460194E-01 -0.10812395399E+00  0.88835464650E+00  0.88000000000E+00 0.  1.
        -11    1    4    4    0    0 -0.38211323154E-02  0.40959148823E-02  0.35538068698E-01  0.35980453287E-01  0.51100000000E-03 0.  1.
         11    1    4    4    0    0  0.28116469386E-01  0.32737093012E-01  0.85643959039E-01  0.95903086241E-01  0.51100000000E-03 0. -1.
</event>
<event>
 8    1  0.1131376E+005  0.1043930E+01  0.7957747E-01            NaN
         13   -1    0    0    0    0  0.00000000000E+00  0.00000000000E+00  0.74505805969E-08  0.10566000000E+00  0.10566000000E+00 0. -1.
     999900   -1    0    0    0    0 -0.00000000000E+00 -0.00000000000E+00 -0.74505805969E-08  0.93827000000E+00  0.93827000000E+00 0. -1.
     999902    2    1    2    0    0 -0.66314478732E-02  0.21593459267E-02 -0.26550766312E-01  0.10164785507E+01  0.10161078004E+01 0.  0.
     999903    2    3    3    0    0  0.93704756095E-01 -0.56310915782E-01  0.56429928575E-01  0.12497873521E+00  0.21996519382E-01 0.  0.
         14    1    1    2    0    0  0.66314478732E-02 -0.21593459267E-02  0.26550766312E-01  0.27451449279E-01  0.00000000000E+00 0. -1.
     999901    1    3    3    0    0 -0.10033620397E+00  0.58470261709E-01 -0.82980694888E-01  0.89149981551E+00  0.88000000000E+00 0.  1.
        -11    1    4    4    0    0  0.18516808039E-01 -0.26445111315E-02  0.13738634320E-01  0.23213720362E-01  0.51100000000E-03 0.  1.
         11    1    4    4    0    0  0.75187948056E-01 -0.53666404650E-01  0.42691294255E-01  0.10176501485E+00  0.51100000000E-03 0. -1.
</event>
<event>
 8    1  0.1131376E+005  0.1043930E+01  0.7957747E-01            NaN
         13   -1    0    0    0    0  0.00000000000E+00  0.00000000000E+00  0.74505805969E-08  0.10566000000E+00  0.10566000000E+00 0.  1.
     999900   -1    0    0    0    0 -0.00000000000E+00 -0.00000000000E+00 -0.74505805969E-08  0.93827000000E+00  0.93827000000E+00 0. -1.
     999902    2    1    2    0    0 -0.12459936707E-01  0.38932583353E-02  0.16226737102E-01  0.10231041872E+01  0.10228922051E+01 0.  0.
     999903    2    3    3    0    0 -0.12077728666E+00  0.56072187340E-01 -0.10412269328E-02  0.13476108255E+00  0.20693526810E-01 0.  0.
         14    1    1    2    0    0  0.12459936707E-01 -0.38932583353E-02 -0.16226737102E-01  0.20825812834E-01  0.00000000000E+00 0.  1.
     999901    1    3    3    0    0  0.10831734995E+00 -0.52178929005E-01  0.17267964035E-01  0.88834310461E+00  0.88000000000E+00 0.  1.
        -11    1    4    4    0    0 -0.20401854141E-01  0.70311903845E-02  0.71657451533E-02  0.22743841259E-01  0.51100000000E-03 0.  1.
         11    1    4    4    0    0 -0.10037543252E+00  0.49040996956E-01 -0.82069720860E-02  0.11201724129E+00  0.51100000000E-03 0. -1.
</event>
<event>
 8    1  0.1131376E+005  0.1043930E+01  0.7957747E-01            NaN
         13   -1    0    0    0    0  0.00000000000E+00  0.00000000000E+00  0.74505805969E-08  0.10566000000E+00  0.10566000000E+00 0. -1.
     999900   -1    0    0    0    0 -0.00000000000E+00 -0.00000000000E+00 -0.74505805969E-08  0.93827000000E+00  0.93827000000E+00 0. -1.
     999902    2    1    2    0    0 -0.20695077466E-01 -0.16490776959E-02 -0.12681345687E-01  0.10196026036E+01  0.10193123403E+01 0.  0.
     999903    2    3    3    0    0  0.30507847889E-01  0.10964150045E+00 -0.59291718240E-01  0.12989486550E+00  0.20129104020E-01 0.  0.
         14    1    1    2    0    0  0.20695077466E-01  0.16490776959E-02  0.12681345687E-01  0.24327396429E-01  0.00000000000E+00 0. -1.
     999901    1    3    3    0    0 -0.51202925355E-01 -0.11129057815E+00  0.46610372553E-01  0.88970773807E+00  0.88000000000E+00 0.  1.
        -11    1    4    4    0    0 -0.10210827797E-02  0.22379349802E-01 -0.74788181593E-02  0.23623542276E-01  0.51100000000E-03 0.  1.
         11    1    4    4    0    0  0.31528930669E-01  0.87262150647E-01 -0.51812900081E-01  0.10627132323E+00  0.51100000000E-03 0. -1.
</event>
<event>
 8    1  0.1131376E+005  0.1043930E+01  0.7957747E-01            NaN
         13   -1    0    0    0    0  0.00000000000E+00  0.00000000000E+00  0.74505805969E-08  0.10566000000E+00  0.10566000000E+00 0.  1.
     999900   -1    0    0    0    0 -0.00000000000E+00 -0.00000000000E+00 -0.74505805969E-08  0.93827000000E+00  0.93827000000E+00 0. -1.
     999902    2    1    2    0    0  0.61344146297E-02  0.22802916748E-01 -0.32431807251E-02  0.10200946843E+01  0.10198161808E+01 0.  0.
     999903    2    3    3    0    0 -0.29100041565E-01  0.12700196164E+00  0.17108303214E-01  0.13301346433E+00  0.20580985751E-01 0.  0.
         14    1    1    2    0    0 -0.61344146297E-02 -0.22802916748E-01  0.32431807251E-02  0.23835315737E-01  0.00000000000E+00 0.  1.
     999901    1    3    3    0    0  0.35234456195E-01 -0.10419904489E+00 -0.20351483939E-01  0.88708121993E+00  0.88000000000E+00 0.  1.
        -11    1    4    4    0    0 -0.94014430009E-02  0.52125898316E-01  0.16858538950E-01  0.55587479366E-01  0.51100000000E-03 0.  1.
         11    1    4    4    0    0 -0.19698598564E-01  0.74876063325E-01  0.24976426380E-03  0.77425984964E-01  0.51100000000E-03 0. -1.
</event>
<event>
 8    1  0.1131376E+005  0.1043930E+01  0.7957747E-01            NaN
         13   -1    0    0    0    0  0.00000000000E+00  0.00000000000E+00  0.74505805969E-08  0.10566000000E+00  0.10566000000E+00 0. -1.
     999900   -1    0    0    0    0 -0.00000000000E+00 -0.00000000000E+00 -0.74505805969E-08  0.93827000000E+00  0.93827000000E+00 0. -1.
     999902    2    1    2    0    0 -0.14649748462E-01 -0.14117709917E-01  0.11881141893E-01  0.10203697284E+01  0.10200976896E+01 0.  0.
     999903    2    3    3    0    0  0.65698203890E-01  0.90937732207E-03 -0.10854413557E+00  0.12841465432E+00  0.19784163233E-01 0.  0.
         14    1    1    2    0    0  0.14649748462E-01  0.14117709917E-01 -0.11881141893E-01  0.23560271560E-01  0.00000000000E+00 0. -1.
     999901    1    3    3    0    0 -0.80347952353E-01 -0.15027087239E-01  0.12042527747E+00  0.89195507412E+00  0.88000000000E+00 0.  1.
        -11    1    4    4    0    0  0.59857022583E-01 -0.19192191048E-02 -0.84950801024E-01  0.10393962801E+00  0.51100000000E-03 0. -1.
         11    1    4    4    0    0  0.58411813069E-02  0.28285964269E-02 -0.23593334549E-01  0.24475026312E-01  0.51100000000E-03 0.  1.
</event>
<event>
 8    1  0.1131376E+005  0.1043930E+01  0.7957747E-01            NaN
         13   -1    0    0    0    0  0.00000000000E+00  0.00000000000E+00  0.74505805969E-08  0.10566000000E+00  0.10566000000E+00 0. -1.
     999900   -1    0    0    0    0 -0.00000000000E+00 -0.00000000000E+00 -0.74505805969E-08  0.93827000000E+00  0.93827000000E+00 0. -1.
     999902    2    1    2    0    0  0.13347146553E-01 -0.61613621030E-02 -0.18640347515E-01  0.10201903442E+01  0.10199140979E+01 0.  0.
     999903    2    3    3    0    0 -0.78454944524E-02  0.10327156198E+00 -0.78016534802E-01  0.13117390757E+00  0.19835499163E-01 0.  0.
         14    1    1    2    0    0 -0.13347146553E-01  0.61613621030E-02  0.18640347515E-01  0.23739655843E-01  0.00000000000E+00 0. -1.
     999901    1    3    3    0    0  0.21192641005E-01 -0.10943292408E+00  0.59376187287E-01  0.88901643659E+00  0.88000000000E+00 0.  1.
        -11    1    4    4    0    0  0.36756513641E-02  0.63271466132E-01 -0.52889602486E-01  0.82549136952E-01  0.51100000000E-03 0.  1.
         11    1    4    4    0    0 -0.11521145817E-01  0.40000095849E-01 -0.25126932316E-01  0.48624770617E-01  0.51100000000E-03 0. -1.
</event>
<event>
 8    1  0.1131376E+005  0.1043930E+01  0.7957747E-01            NaN
         13   -1    0    0    0    0  0.00000000000E+00  0.00000000000E+00  0.74505805969E-08  0.10566000000E+00  0.10566000000E+00 0. -1.
     999900   -1    0    0    0    0 -0.00000000000E+00 -0.00000000000E+00 -0.74505805969E-08  0.93827000000E+00  0.93827000000E+00 0. -1.
     999902    2    1    2    0    0 -0.12228897878E-01  0.71383698365E-02  0.19373860257E-01  0.10199331517E+01  0.10196508153E+01 0.  0.
     999903    2    3    3    0    0  0.47104230166E-01 -0.87340652445E-02 -0.11626358945E+00  0.12742552033E+00  0.20614281617E-01 0.  0.
         14    1    1    2    0    0  0.12228897878E-01 -0.71383698365E-02 -0.19373860257E-01  0.23996848303E-01  0.00000000000E+00 0.  1.
     999901    1    3    3    0    0 -0.59333128044E-01  0.15872435081E-01  0.13563744970E+00  0.89250763136E+00  0.88000000000E+00 0.  1.
        -11    1    4    4    0    0  0.28008624457E-01 -0.34408615829E-02 -0.42297624113E-01  0.50849510312E-01  0.51100000000E-03 0. -1.
         11    1    4    4    0    0  0.19095605709E-01 -0.52932036615E-02 -0.73965965332E-01  0.76576010022E-01  0.51100000000E-03 0.  1.
</event>
<event>
 8    1  0.1131376E+005  0.1043930E+01  0.7957747E-01            NaN
         13   -1    0    0    0    0  0.00000000000E+00  0.00000000000E+00  0.74505805969E-08  0.10566000000E+00  0.10566000000E+00 0. -1.
     999900   -1    0    0    0    0 -0.00000000000E+00 -0.00000000000E+00 -0.74505805969E-08  0.93827000000E+00  0.93827000000E+00 0. -1.
     999902    2    1    2    0    0 -0.14851757967E-02 -0.10118763592E-01  0.20694796802E-01  0.10208460285E+01  0.10205850010E+01 0.  0.
     999903    2    3    3    0    0  0.78824486545E-01 -0.32169205388E-01  0.10061563351E+00  0.13330830878E+00  0.19986045852E-01 0.  0.
         14    1    1    2    0    0  0.14851757967E-02  0.10118763592E-01 -0.20694796802E-01  0.23083971462E-01  0.00000000000E+00 0.  1.
     999901    1    3    3    0    0 -0.80309662342E-01  0.22050441796E-01 -0.79920836711E-01  0.88753771976E+00  0.88000000000E+00 0. -1.
        -11    1    4    4    0    0  0.22062270727E-01  0.26877204989E-03  0.25742256092E-01  0.33907829446E-01  0.51100000000E-03 0.  1.
         11    1    4    4    0    0  0.56762215818E-01 -0.32437977438E-01  0.74873377421E-01  0.99400479336E-01  0.51100000000E-03 0. -1.
</event>
<event>
 8    1  0.1131376E+005  0.1043930E+01  0.7957747E-01            NaN
         13   -1    0    0    0    0  0.00000000000E+00  0.00000000000E+00  0.74505805969E-08  0.10566000000E+00  0.10566000000E+00 0.  1.
     999900   -1    0    0    0    0 -0.00000000000E+00 -0.00000000000E+00 -0.74505805969E-08  0.93827000000E+00  0.93827000000E+00 0. -1.
     999902    2    1    2    0    0 -0.10582785236E-01 -0.20369802305E-01 -0.52162086116E-02  0.10203899698E+01  0.10201184036E+01 0.  0.
     999903    2    3    3    0    0 -0.11149662149E+00  0.59031472706E-01  0.26651568649E-01  0.13050024627E+00  0.20094695647E-01 0.  0.
         14    1    1    2    0    0  0.10582785236E-01  0.20369802305E-01  0.52162086116E-02  0.23540030195E-01  0.00000000000E+00 0.  1.
     999901    1    3    3    0    0  0.10091383625E+00 -0.79401275011E-01 -0.31867777261E-01  0.88988972353E+00  0.88000000000E+00 0. -1.
        -11    1    4    4    0    0 -0.53894754581E-01  0.18370925896E-01  0.74792347490E-02  0.57431137574E-01  0.51100000000E-03 0.  1.
         11    1    4    4    0    0 -0.57601866906E-01  0.40660546810E-01  0.19172333900E-01  0.73069108699E-01  0.51100000000E-03 0. -1.
</event>
<event>
 8    1  0.1131376E+005  0.1043930E+01  0.7957747E-01            NaN
         13   -1    0    0    0    0  0.00000000000E+00  0.00000000000E+00  0.74505805969E-08  0.10566000000E+00  0.10566000000E+00 0. -1.
     999900   -1    0    0    0    0 -0.00000000000E+00 -0.00000000000E+00 -0.74505805969E-08  0.93827000000E+00  0.93827000000E+00 0.  1.
     999902    2    1    2    0    0  0.48859306668E-02 -0.81506266862E-02 -0.19773604637E-01  0.10219914386E+01  0.10217559396E+01 0.  0.
     999903    2    3    3    0    0  0.40951330181E-01  0.83115236318E-01 -0.93893631664E-01  0.13343983677E+00  0.20125158844E-01 0.  0.
         14    1    1    2    0    0 -0.48859306668E-02  0.81506266862E-02  0.19773604637E-01  0.21938561352E-01  0.00000000000E+00 0. -1.
     999901    1    3    3    0    0 -0.36065399514E-01 -0.91265863005E-01  0.74120027027E-01  0.88855160188E+00  0.88000000000E+00 0. -1.
        -11    1    4    4    0    0  0.12833173494E-01  0.45081231214E-01 -0.54472883791E-01  0.71864900607E-01  0.51100000000E-03 0. -1.
         11    1    4    4    0    0  0.28118156686E-01  0.38034005104E-01 -0.39420747873E-01  0.61574936164E-01  0.51100000000E-03 0.  1.
</event>
<event>
 8    1  0.1131376E+005  0.1043930E+01  0.7957747E-01            NaN
         13   -1    0    0    0    0  0.00000000000E+00  0.00000000000E+00  0.74505805969E-08  0.10566000000E+00  0.10566000000E+00 0. -1.
     999900   -1    0    0    0    0 -0.00000000000E+00 -0.00000000000E+00 -0.74505805969E-08  0.93827000000E+00  0.93827000000E+00 0.  1.
     999902    2    1    2    0    0  0.21905915534E-01 -0.56054771675E-02  0.56242650336E-02  0.10206292947E+01  0.10203632855E+01 0.  0.
     999903    2    3    3    0    0  0.70177566903E-02  0.12063534038E+00  0.45356816149E-01  0.13060846523E+00  0.19979893934E-01 0.  0.
         14    1    1    2    0    0 -0.21905915534E-01  0.56054771675E-02 -0.56242650336E-02  0.23300705286E-01  0.00000000000E+00 0. -1.
     999901    1    3    3    0    0  0.14888158844E-01 -0.12624081755E+00 -0.39732551116E-01  0.89002082948E+00  0.88000000000E+00 0.  1.
        -11    1    4    4    0    0  0.13325006676E-01  0.88938518316E-01  0.29834462592E-01  0.94752161571E-01  0.51100000000E-03 0.  1.
         11    1    4    4    0    0 -0.63072499855E-02  0.31696822066E-01  0.15522353558E-01  0.35856303664E-01  0.51100000000E-03 0. -1.
</event>
<event>
 8    1  0.1131376E+005  0.1043930E+01  0.7957747E-01            NaN
         13   -1    0    0    0    0  0.00000000000E+00  0.00000000000E+00  0.74505805969E-08  0.10566000000E+00  0.10566000000E+00 0.  1.
     999900   -1    0    0    0    0 -0.00000000000E+00 -0.00000000000E+00 -0.74505805969E-08  0.93827000000E+00  0.93827000000E+00 0. -1.
     999902    2    1    2    0    0 -0.17587249819E-01 -0.62626525400E-02 -0.12420644403E-01  0.10215066956E+01  0.10212605566E+01 0.  0.
     999903    2    3    3    0    0  0.12385999419E+00 -0.32402500635E-01 -0.93339639881E-02  0.12982281546E+00  0.19380926780E-01 0.  0.
         14    1    1    2    0    0  0.17587249819E-01  0.62626525400E-02  0.12420644403E-01  0.22423304405E-01  0.00000000000E+00 0.  1.
     999901    1    3    3    0    0 -0.14144724401E+00  0.26139848095E-01 -0.30866804152E-02  0.89168388013E+00  0.88000000000E+00 0.  1.
        -11    1    4    4    0    0  0.69176065260E-01 -0.11129309111E-01  0.18327548174E-02  0.70091437689E-01  0.51100000000E-03 0. -1.
         11    1    4    4    0    0  0.54683928928E-01 -0.21273191524E-01 -0.11166718805E-01  0.59731377772E-01  0.51100000000E-03 0.  1.
</event>
<event>
 8    1  0.1131376E+005  0.1043930E+01  0.7957747E-01            NaN
         13   -1    0    0    0    0  0.00000000000E+00  0.00000000000E+00  0.74505805969E-08  0.10566000000E+00  0.10566000000E+00 0.  1.
     999900   -1    0    0    0    0 -0.00000000000E+00 -0.00000000000E+00 -0.74505805969E-08  0.93827000000E+00  0.93827000000E+00 0.  1.
     999902    2    1    2    0    0  0.69728005056E-02 -0.22248983772E-01 -0.65384629319E-03  0.10206048046E+01  0.10203382294E+01 0.  0.
     999903    2    3    3    0    0  0.17612474937E-02  0.91216929583E-01 -0.89490113421E-01  0.12886854530E+00  0.16582862621E-01 0.  0.
         14    1    1    2    0    0 -0.69728005056E-02  0.22248983772E-01  0.65384629319E-03  0.23325195407E-01  0.00000000000E+00 0. -1.
     999901    1    3    3    0    0  0.52115530118E-02 -0.11346591335E+00  0.88836267128E-01  0.89173625929E+00  0.88000000000E+00 0.  1.
        -11    1    4    4    0    0 -0.74353710174E-02  0.39292177276E-01 -0.38362144060E-01  0.55417282098E-01  0.51100000000E-03 0.  1.
         11    1    4    4    0    0  0.91966185111E-02  0.51924752307E-01 -0.51127969362E-01  0.73451263204E-01  0.51100000000E-03 0. -1.
</event>
<event>
 8    1  0.1131376E+005  0.1043930E+01  0.7957747E-01            NaN
         13   -1    0    0    0    0  0.00000000000E+00  0.00000000000E+00  0.74505805969E-08  0.10566000000E+00  0.10566000000E+00 0.  1.
     999900   -1    0    0    0    0 -0.00000000000E+00 -0.00000000000E+00 -0.74505805969E-08  0.93827000000E+00  0.93827000000E+00 0. -1.
     999902    2    1    2    0    0  0.85711366119E-02  0.21089403161E-01 -0.72067474593E-02  0.10200518820E+01  0.10197723655E+01 0.  0.
     999903    2    3    3    0    0  0.21279003793E-03 -0.49577608760E-01 -0.11855173496E+00  0.13018594001E+00  0.20877752425E-01 0.  0.
         14    1    1    2    0    0 -0.85711366119E-02 -0.21089403161E-01  0.72067474593E-02  0.23878117963E-01  0.00000000000E+00 0.  1.
     999901    1    3    3    0    0  0.83583465740E-02  0.70667011920E-01  0.11134498750E+00  0.88986594202E+00  0.88000000000E+00 0.  1.
        -11    1    4    4    0    0  0.75937393391E-02 -0.82652709442E-02 -0.33667723960E-01  0.35493046341E-01  0.51100000000E-03 0. -1.
         11    1    4    4    0    0 -0.73809493011E-02 -0.41312337816E-01 -0.84884010997E-01  0.94692893673E-01  0.51100000000E-03 0.  1.
</event>
<event>
 8    1  0.1131376E+005  0.1043930E+01  0.7957747E-01            NaN
         13   -1    0    0    0    0  0.00000000000E+00  0.00000000000E+00  0.74505805969E-08  0.10566000000E+00  0.10566000000E+00 0.  1.
     999900   -1    0    0    0    0 -0.00000000000E+00 -0.00000000000E+00 -0.74505805969E-08  0.93827000000E+00  0.93827000000E+00 0.  1.
     999902    2    1    2    0    0  0.76166635151E-02 -0.21304291311E-01  0.87072711058E-02  0.10196874143E+01  0.10193991956E+01 0.  0.
     999903    2    3    3    0    0 -0.77267049888E-01  0.88530502261E-01  0.46874592704E-01  0.12798921921E+00  0.19394998449E-01 0.  0.
         14    1    1    2    0    0 -0.76166635151E-02  0.21304291311E-01 -0.87072711058E-02  0.24242585701E-01  0.00000000000E+00 0. -1.
     999901    1    3    3    0    0  0.84883713403E-01 -0.10983479357E+00 -0.38167321598E-01  0.89169819509E+00  0.88000000000E+00 0.  1.
        -11    1    4    4    0    0 -0.42773250448E-01  0.43374481386E-01  0.14624974950E-01  0.62650200341E-01  0.51100000000E-03 0. -1.
         11    1    4    4    0    0 -0.34493799440E-01  0.45156020875E-01  0.32249617754E-01  0.65339018873E-01  0.51100000000E-03 0.  1.
</event>
<event>
 8    1  0.1131376E+005  0.1043930E+01  0.7957747E-01            NaN
         13   -1    0    0    0    0  0.00000000000E+00  0.00000000000E+00  0.74505805969E-08  0.10566000000E+00  0.10566000000E+00 0.  1.
     999900   -1    0    0    0    0 -0.00000000000E+00 -0.00000000000E+00 -0.74505805969E-08  0.93827000000E+00  0.93827000000E+00 0. -1.
     999902    2    1    2    0    0 -0.22243957006E-01  0.45901165282E-02 -0.79745421260E-02  0.10198581053E+01  0.10195739791E+01 0.  0.
     999903    2    3    3    0    0  0.92368589842E-01  0.10065323470E-02 -0.87525642208E-01  0.12886020658E+00  0.20279183899E-01 0.  0.
         14    1    1    2    0    0  0.22243957006E-01 -0.45901165282E-02  0.79745421260E-02  0.24071894714E-01  0.00000000000E+00 0.  1.
     999901    1    3    3    0    0 -0.11461254685E+00  0.35835841812E-02  0.79551100082E-01  0.89099789870E+00  0.88000000000E+00 0. -1.
        -11    1    4    4    0    0  0.47768258103E-01 -0.13853828876E-04 -0.31418406972E-01  0.57176779306E-01  0.51100000000E-03 0.  1.
         11    1    4    4    0    0  0.44600331739E-01  0.10203861759E-02 -0.56107235237E-01  0.71683427276E-01  0.51100000000E-03 0. -1.
</event>
<event>
 8    1  0.1131376E+005  0.1043930E+01  0.7957747E-01            NaN
         13   -1    0    0    0    0  0.00000000000E+00  0.00000000000E+00  0.74505805969E-08  0.10566000000E+00  0.10566000000E+00 0.  1.
     999900   -1    0    0    0    0 -0.00000000000E+00 -0.00000000000E+00 -0.74505805969E-08  0.93827000000E+00  0.93827000000E+00 0. -1.
     999902    2    1    2    0    0  0.10756083586E-01  0.17093560442E-01 -0.11826948594E-01  0.10205257300E+01  0.10202573233E+01 0.  0.
     999903    2    3    3    0    0  0.97478982108E-01  0.67596917048E-01 -0.58206289283E-01  0.13360831927E+00  0.19791809385E-01 0.  0.
         14    1    1    2    0    0 -0.10756083586E-01 -0.17093560442E-01  0.11826948594E-01  0.23404270032E-01  0.00000000000E+00 0. -1.
     999901    1    3    3    0    0 -0.86722898523E-01 -0.50503356606E-01  0.46379340689E-01  0.88691741070E+00  0.88000000000E+00 0.  1.
        -11    1    4    4    0    0  0.52468987477E-01  0.27988927642E-01 -0.21124827879E-01  0.63110175022E-01  0.51100000000E-03 0.  1.
         11    1    4    4    0    0  0.45009994631E-01  0.39607989406E-01 -0.37081461404E-01  0.70498144248E-01  0.51100000000E-03 0. -1.
</event>
<event>
 8    1  0.1131376E+005  0.1043930E+01  0.7957747E-01            NaN
         13   -1    0    0    0    0  0.00000000000E+00  0.00000000000E+00  0.74505805969E-08  0.10566000000E+00  0.10566000000E+00 0.  1.
     999900   -1    0    0    0    0 -0.00000000000E+00 -0.00000000000E+00 -0.74505805969E-08  0.93827000000E+00  0.93827000000E+00 0.  1.
     999902    2    1    2    0    0 -0.17043533248E-01  0.15837998002E-01 -0.24587992423E-02  0.10205340623E+01  0.10202658489E+01 0.  0.
     999903    2    3    3    0    0  0.12599438610E+00  0.60546016369E-03 -0.16816278617E-01  0.12873923513E+00  0.20397341175E-01 0.  0.
         14    1    1    2    0    0  0.17043533248E-01 -0.15837998002E-01  0.24587992423E-02  0.23395937681E-01  0.00000000000E+00 0. -1.
     999901    1    3    3    0    0 -0.14303791934E+00  0.15232537838E-01  0.14357479375E-01  0.89179482718E+00  0.88000000000E+00 0. -1.
        -11    1    4    4    0    0  0.53577066296E-01  0.74548542383E-02 -0.14298260011E-01  0.55953357763E-01  0.51100000000E-03 0.  1.
         11    1    4    4    0    0  0.72417319799E-01 -0.68493940746E-02 -0.25180186067E-02  0.72785877372E-01  0.51100000000E-03 0. -1.
</event>
<event>
 8    1  0.1131376E+005  0.1043930E+01  0.7957747E-01            NaN
         13   -1    0    0    0    0  0.00000000000E+00  0.00000000000E+00  0.74505805969E-08  0.10566000000E+00  0.10566000000E+00 0. -1.
     999900   -1    0    0    0    0 -0.00000000000E+00 -0.00000000000E+00 -0.74505805969E-08  0.93827000000E+00  0.93827000000E+00 0. -1.
     999902    2    1    2    0    0  0.14796360136E-01 -0.44634542025E-02 -0.12685585817E-01  0.10239355312E+01  0.10237402958E+01 0.  0.
     999903    2    3    3    0    0  0.10934996329E+00  0.11921076132E-01  0.74464574898E-01  0.13443905156E+00  0.20720983173E-01 0.  0.
         14    1    1    2    0    0 -0.14796360136E-01  0.44634542025E-02  0.12685585817E-01  0.19994468840E-01  0.00000000000E+00 0. -1.
     999901    1    3    3    0    0 -0.94553603150E-01 -0.16384530335E-01 -0.87150160715E-01  0.88949647960E+00  0.88000000000E+00 0. -1.
        -11    1    4    4    0    0  0.45097358955E-01  0.12232881895E-01  0.22832938925E-01  0.52009801049E-01  0.51100000000E-03 0. -1.
         11    1    4    4    0    0  0.64252604330E-01 -0.31180576235E-03  0.51631635973E-01  0.82429250514E-01  0.51100000000E-03 0.  1.
</event>
<event>
 8    1  0.1131376E+005  0.1043930E+01  0.7957747E-01            NaN
         13   -1    0    0    0    0  0.00000000000E+00  0.00000000000E+00  0.74505805969E-08  0.10566000000E+00  0.10566000000E+00 0. -1.
     999900   -1    0    0    0    0 -0.00000000000E+00 -0.00000000000E+00 -0.74505805969E-08  0.93827000000E+00  0.93827000000E+00 0. -1.
     999902    2    1    2    0    0  0.46075158955E-02  0.72056124443E-02  0.22142853354E-01  0.10201927717E+01  0.10199165826E+01 0.  0.
     999903    2    3    3    0    0 -0.76594460852E-01  0.27025631001E-01 -0.97343914576E-01  0.12819295001E+00  0.18986799680E-01 0.  0.
         14    1    1    2    0    0 -0.46075158955E-02 -0.72056124443E-02 -0.22142853354E-01  0.23737228315E-01  0.00000000000E+00 0.  1.
     999901    1    3    3    0    0  0.81201976748E-01 -0.19820018557E-01  0.11948676793E+00  0.89199982168E+00  0.88000000000E+00 0.  1.
        -11    1    4    4    0    0 -0.53518715018E-01  0.10288508551E-01 -0.57806937232E-01  0.79448155287E-01  0.51100000000E-03 0.  1.
         11    1    4    4    0    0 -0.23075745834E-01  0.16737122450E-01 -0.39536977345E-01  0.48744794720E-01  0.51100000000E-03 0. -1.
</event>
<event>
 8    1  0.1131376E+005  0.1043930E+01  0.7957747E-01            NaN
         13   -1    0    0    0    0  0.00000000000E+00  0.00000000000E+00  0.74505805969E-08  0.10566000000E+00  0.10566000000E+00 0.  1.
     999900   -1    0    0    0    0 -0.00000000000E+00 -0.00000000000E+00 -0.74505805969E-08  0.93827000000E+00  0.93827000000E+00 0. -1.
     999902    2    1    2    0    0 -0.10532006181E-01 -0.21022917758E-01  0.43677125946E-02  0.10200142492E+01  0.10197338404E+01 0.  0.
     999903    2    3    3    0    0 -0.46564925042E-01 -0.12224797996E+00  0.12844589265E-01  0.13343839684E+00  0.22977411330E-01 0.  0.
         14    1    1    2    0    0  0.10532006181E-01  0.21022917758E-01 -0.43677125946E-02  0.23915750847E-01  0.00000000000E+00 0.  1.
     999901    1    3    3    0    0  0.36032918861E-01  0.10122506220E+00 -0.84768766702E-02  0.88657585231E+00  0.88000000000E+00 0.  1.
        -11    1    4    4    0    0 -0.43383312426E-01 -0.97063016393E-01  0.17128344277E-01  0.10768928567E+00  0.51100000000E-03 0. -1.
         11    1    4    4    0    0 -0.31816126163E-02 -0.25184963563E-01 -0.42837550125E-02  0.25749111179E-01  0.51100000000E-03 0.  1.
</event>
<event>
 8    1  0.1131376E+005  0.1043930E+01  0.7957747E-01            NaN
         13   -1    0    0    0    0  0.00000000000E+00  0.00000000000E+00  0.74505805969E-08  0.10566000000E+00  0.10566000000E+00 0. -1.
     999900   -1    0    0    0    0 -0.00000000000E+00 -0.00000000000E+00 -0.74505805969E-08  0.93827000000E+00  0.93827000000E+00 0.  1.
     999902    2    1    2    0    0 -0.47407073404E-03  0.13716618724E-01  0.20553158140E-01  0.10192155775E+01  0.10189158899E+01 0.  0.
     999903    2    3    3    0    0 -0.61628178342E-01 -0.95703621357E-01 -0.53264690647E-01  0.12727292873E+00  0.20101134559E-01 0.  0.
         14    1    1    2    0    0  0.47407073404E-03 -0.13716618724E-01 -0.20553158140E-01  0.24714422547E-01  0.00000000000E+00 0.  1.
     999901    1    3    3    0    0  0.61154107608E-01  0.10942024008E+00  0.73817848787E-01  0.89194264873E+00  0.88000000000E+00 0. -1.
        -11    1    4    4    0    0 -0.20002726693E-01 -0.17297253464E-01 -0.80370740195E-02  0.27643439228E-01  0.51100000000E-03 0. -1.
         11    1    4    4    0    0 -0.41625451649E-01 -0.78406367893E-01 -0.45227616628E-01  0.99629489499E-01  0.51100000000E-03 0.  1.
</event>
<event>
 8    1  0.1131376E+005  0.1043930E+01  0.7957747E-01            NaN
         13   -1    0    0    0    0  0.00000000000E+00  0.00000000000E+00  0.74505805969E-08  0.10566000000E+00  0.10566000000E+00 0.  1.
     999900   -1    0    0    0    0 -0.00000000000E+00 -0.00000000000E+00 -0.74505805969E-08  0.93827000000E+00  0.93827000000E+00 0. -1.
     999902    2    1    2    0    0 -0.68360604397E-02 -0.25885658125E-01 -0.10965059344E-01  0.10149985025E+01  0.10145860873E+01 0.  0.
     999903    2    3    3    0    0 -0.11262973661E+00  0.47674319109E-01  0.18895714079E-01  0.12511365720E+00  0.18386977378E-01 0.  0.
         14    1    1    2    0    0  0.68360604397E-02  0.25885658125E-01  0.10965059344E-01  0.28931497461E-01  0.00000000000E+00 0.  1.
     999901    1    3    3    0    0  0.10579367617E+00 -0.73559977234E-01 -0.29860773423E-01  0.88988484534E+00  0.88000000000E+00 0. -1.
        -11    1    4    4    0    0 -0.34673474510E-01  0.57745931518E-02  0.43738670220E-02  0.35425804076E-01  0.51100000000E-03 0.  1.
         11    1    4    4    0    0 -0.77956262099E-01  0.41899725957E-01  0.14521847057E-01  0.89687853128E-01  0.51100000000E-03 0. -1.
</event>
<event>
 8    1  0.1131376E+005  0.1043930E+01  0.7957747E-01            NaN
         13   -1    0    0    0    0  0.00000000000E+00  0.00000000000E+00  0.74505805969E-08  0.10566000000E+00  0.10566000000E+00 0.  1.
     999900   -1    0    0    0    0 -0.00000000000E+00 -0.00000000000E+00 -0.74505805969E-08  0.93827000000E+00  0.93827000000E+00 0.  1.
     999902    2    1    2    0    0 -0.59967022703E-02 -0.22947052826E-01 -0.29425593268E-02  0.10200304953E+01  0.10197504719E+01 0.  0.
     999903    2    3    3    0    0  0.61980165541E-01 -0.83037653646E-01  0.78359613409E-01  0.13163768903E+00  0.21247572008E-01 0.  0.
         14    1    1    2    0    0  0.59967022703E-02  0.22947052826E-01  0.29425593268E-02  0.23899504742E-01  0.00000000000E+00 0. -1.
     999901    1    3    3    0    0 -0.67976867811E-01  0.60090600820E-01 -0.81302172735E-01  0.88839280623E+00  0.88000000000E+00 0.  1.
        -11    1    4    4    0    0  0.51753310396E-02 -0.18499652379E-01  0.19924901500E-01  0.27681835385E-01  0.51100000000E-03 0. -1.
         11    1    4    4    0    0  0.56804834501E-01 -0.64538001268E-01  0.58434711909E-01  0.10395585365E+00  0.51100000000E-03 0.  1.
</event>
<event>
 8    1  0.1131376E+005  0.1043930E+01  0.7957747E-01            NaN
         13   -1    0    0    0    0  0.00000000000E+00  0.00000000000E+00  0.74505805969E-08  0.10566000000E+00  0.10566000000E+00 0. -1.
     999900   -1    0    0    0    0 -0.00000000000E+00 -0.00000000000E+00 -0.74505805969E-08  0.93827000000E+00  0.93827000000E+00 0.  1.
     999902    2    1    2    0    0  0.53431979584E-02  0.63299685702E-02 -0.22049423313E-01  0.10203759062E+01  0.10201040117E+01 0.  0.
     999903    2    3    3    0    0 -0.91865004848E-01  0.90805041937E-01  0.28165488209E-02  0.13065471993E+00  0.19441916999E-01 0.  0.
         14    1    1    2    0    0 -0.53431979584E-02 -0.63299685702E-02  0.22049423313E-01  0.23554093805E-01  0.00000000000E+00 0. -1.
     999901    1    3    3    0    0  0.97208202807E-01 -0.84475073367E-01 -0.24865972134E-01  0.88972118626E+00  0.88000000000E+00 0.  1.
        -11    1    4    4    0    0 -0.57009134897E-01  0.60243282810E-01  0.10697225497E-01  0.83630056437E-01  0.51100000000E-03 0.  1.
         11    1    4    4    0    0 -0.34855869951E-01  0.30561759128E-01 -0.78806766762E-02  0.47024663496E-01  0.51100000000E-03 0. -1.
</event>
<event>
 7    1  0.1131376E+005  0.1043930E+01  0.7957747E-01            NaN
         13   -1    0    0    0    0  0.00000000000E+00  0.00000000000E+00  0.74505805969E-08  0.10566000000E+00  0.10566000000E+00 0.  1.
     999900   -1    0    0    0    0 -0.00000000000E+00 -0.00000000000E+00 -0.74505805969E-08  0.93827000000E+00  0.93827000000E+00 0.  1.
     999902    2    1    2    0    0 -0.12580440331E-01 -0.12464924717E-01  0.15538219297E-01  0.10203699048E+01  0.10200978701E+01 0.  0.
         14    1    1    2    0    0  0.12580440331E-01  0.12464924717E-01 -0.15538219297E-01  0.23560095205E-01  0.00000000000E+00 0. -1.
     999901    1    3    3    0    0  0.11498917663E+00 -0.79978494680E-02  0.98487129461E-02  0.88757167231E+00  0.88000000000E+00 0. -1.
        -11    1    3    3    0    0 -0.68517693867E-01  0.26107563036E-02 -0.14314560271E-01  0.70047542270E-01  0.51100000000E-03 0.  1.
         11    1    3    3    0    0 -0.59051923091E-01 -0.70778315526E-02  0.20004066622E-01  0.62750690217E-01  0.51100000000E-03 0. -1.
</event>
<event>
 8    1  0.1131376E+005  0.1043930E+01  0.7957747E-01            NaN
         13   -1    0    0    0    0  0.00000000000E+00  0.00000000000E+00  0.74505805969E-08  0.10566000000E+00  0.10566000000E+00 0.  1.
     999900   -1    0    0    0    0 -0.00000000000E+00 -0.00000000000E+00 -0.74505805969E-08  0.93827000000E+00  0.93827000000E+00 0. -1.
     999902    2    1    2    0    0 -0.70136535438E-02  0.19294572418E-01 -0.11837511065E-01  0.10202319298E+01  0.10199566619E+01 0.  0.
     999903    2    3    3    0    0  0.90949634168E-01  0.24708578965E-01  0.86146616486E-01  0.12937447410E+00  0.20836630889E-01 0.  0.
         14    1    1    2    0    0  0.70136535438E-02 -0.19294572418E-01  0.11837511065E-01  0.23698070155E-01  0.00000000000E+00 0.  1.
     999901    1    3    3    0    0 -0.97963287712E-01 -0.54140065465E-02 -0.97984127551E-01  0.89085745575E+00  0.88000000000E+00 0. -1.
        -11    1    4    4    0    0  0.57835642935E-01  0.81798885462E-02  0.43039708625E-01  0.72557217490E-01  0.51100000000E-03 0. -1.
         11    1    4    4    0    0  0.33113991233E-01  0.16528690418E-01  0.43106907861E-01  0.56817256610E-01  0.51100000000E-03 0.  1.
</event>
<event>
 8    1  0.1131376E+005  0.1043930E+01  0.7957747E-01            NaN
         13   -1    0    0    0    0  0.00000000000E+00  0.00000000000E+00  0.74505805969E-08  0.10566000000E+00  0.10566000000E+00 0. -1.
     999900   -1    0    0    0    0 -0.00000000000E+00 -0.00000000000E+00 -0.74505805969E-08  0.93827000000E+00  0.93827000000E+00 0. -1.
     999902    2    1    2    0    0  0.14142217624E-01  0.34827840566E-01  0.99328002151E-04  0.10063402319E+01  0.10056379427E+01 0.  0.
     999903    2    3    3    0    0  0.86509210906E-01  0.47991810676E-01 -0.66473225170E-01  0.12076574231E+00  0.19458093102E-01 0.  0.
         14    1    1    2    0    0 -0.14142217624E-01 -0.34827840566E-01 -0.99328002151E-04  0.37589768074E-01  0.00000000000E+00 0.  1.
     999901    1    3    3    0    0 -0.72366993283E-01 -0.13163970111E-01  0.66572553172E-01  0.88557448962E+00  0.88000000000E+00 0.  1.
        -11    1    4    4    0    0  0.73344001327E-01  0.47586870882E-01 -0.60314886050E-01  0.10621675673E+00  0.51100000000E-03 0.  1.
         11    1    4    4    0    0  0.13165209580E-01  0.40493979415E-03 -0.61583391199E-02  0.14548985574E-01  0.51100000000E-03 0. -1.
</event>
<event>
 8    1  0.1131376E+005  0.1043930E+01  0.7957747E-01            NaN
         13   -1    0    0    0    0  0.00000000000E+00  0.00000000000E+00  0.74505805969E-08  0.10566000000E+00  0.10566000000E+00 0.  1.
     999900   -1    0    0    0    0 -0.00000000000E+00 -0.00000000000E+00 -0.74505805969E-08  0.93827000000E+00  0.93827000000E+00 0. -1.
     999902    2    1    2    0    0  0.34395970869E-02 -0.67553781926E-02 -0.23864023844E-01  0.10188908787E+01  0.10185831655E+01 0.  0.
     999903    2    3    3    0    0 -0.67393343554E-01  0.98871591044E-01 -0.42169201722E-01  0.12955998320E+00  0.26269628892E-01 0.  0.
         14    1    1    2    0    0 -0.34395970869E-02  0.67553781926E-02  0.23864023844E-01  0.25039121324E-01  0.00000000000E+00 0.  1.
     999901    1    3    3    0    0  0.70832940641E-01 -0.10562696924E+00  0.18305177879E-01  0.88933089548E+00  0.88000000000E+00 0. -1.
        -11    1    4    4    0    0 -0.16583227215E-01  0.41719501923E-01 -0.72045260377E-02  0.45471821846E-01  0.51100000000E-03 0.  1.
         11    1    4    4    0    0 -0.50810116339E-01  0.57152089121E-01 -0.34964675685E-01  0.84088161355E-01  0.51100000000E-03 0. -1.
</event>
<event>
 8    1  0.1131376E+005  0.1043930E+01  0.7957747E-01            NaN
         13   -1    0    0    0    0  0.00000000000E+00  0.00000000000E+00  0.74505805969E-08  0.10566000000E+00  0.10566000000E+00 0.  1.
     999900   -1    0    0    0    0 -0.00000000000E+00 -0.00000000000E+00 -0.74505805969E-08  0.93827000000E+00  0.93827000000E+00 0. -1.
     999902    2    1    2    0    0  0.76191776117E-03  0.23500141336E-01  0.91834805842E-02  0.10186877046E+01  0.10183749143E+01 0.  0.
     999903    2    3    3    0    0  0.71752307130E-02  0.13028709492E+00  0.93916522907E-02  0.13220892461E+00  0.19099360582E-01 0.  0.
         14    1    1    2    0    0 -0.76191776117E-03 -0.23500141336E-01 -0.91834805842E-02  0.25242295401E-01  0.00000000000E+00 0. -1.
     999901    1    3    3    0    0 -0.64133129518E-02 -0.10678695358E+00 -0.20817170651E-03  0.88647877999E+00  0.88000000000E+00 0.  1.
        -11    1    4    4    0    0 -0.42103276629E-02  0.25946386403E-01 -0.32426379598E-02  0.26489953725E-01  0.51100000000E-03 0.  1.
         11    1    4    4    0    0  0.11385558376E-01  0.10434070852E+00  0.12634290251E-01  0.10571897088E+00  0.51100000000E-03 0. -1.
</event>
<event>
 8    1  0.1131376E+005  0.1043930E+01  0.7957747E-01            NaN
         13   -1    0    0    0    0  0.00000000000E+00  0.00000000000E+00  0.74505805969E-08  0.10566000000E+00  0.10566000000E+00 0. -1.
     999900   -1    0    0    0    0 -0.00000000000E+00 -0.00000000000E+00 -0.74505805969E-08  0.93827000000E+00  0.93827000000E+00 0. -1.
     999902    2    1    2    0    0  0.26307934592E-02 -0.23516749491E-01  0.54924469919E-02  0.10196375000E+01  0.10193480789E+01 0.  0.
     999903    2    3    3    0    0  0.23447049505E-01 -0.12309229598E+00  0.40349956989E-01  0.13309158922E+00  0.19590166690E-01 0.  0.
         14    1    1    2    0    0 -0.26307934592E-02  0.23516749491E-01 -0.54924469919E-02  0.24292499970E-01  0.00000000000E+00 0. -1.
     999901    1    3    3    0    0 -0.20816256046E-01  0.99575546491E-01 -0.34857509997E-01  0.88654591081E+00  0.88000000000E+00 0.  1.
        -11    1    4    4    0    0  0.63662058045E-02 -0.13717076302E-01 -0.37639447658E-03  0.15135704557E-01  0.51100000000E-03 0. -1.
         11    1    4    4    0    0  0.17080843700E-01 -0.10937521968E+00  0.40726351466E-01  0.11795588466E+00  0.51100000000E-03 0.  1.
</event>
<event>
 8    1  0.1131376E+005  0.1043930E+01  0.7957747E-01            NaN
         13   -1    0    0    0    0  0.00000000000E+00  0.00000000000E+00  0.74505805969E-08  0.10566000000E+00  0.10566000000E+00 0.  1.
     999900   -1    0    0    0    0 -0.00000000000E+00 -0.00000000000E+00 -0.74505805969E-08  0.93827000000E+00  0.93827000000E+00 0.  1.
     999902    2    1    2    0    0  0.48926682270E-02 -0.39625239328E-02 -0.23579336464E-01  0.10195245722E+01  0.10192324212E+01 0.  0.
     999903    2    3    3    0    0  0.29810389688E-01  0.12275775434E+00 -0.25459388743E-01  0.13009640963E+00  0.17854123885E-01 0.  0.
         14    1    1    2    0    0 -0.48926682270E-02  0.39625239328E-02  0.23579336464E-01  0.24405427806E-01  0.00000000000E+00 0.  1.
     999901    1    3    3    0    0 -0.24917721461E-01 -0.12672027827E+00  0.18800522791E-02  0.88942816257E+00  0.88000000000E+00 0. -1.
        -11    1    4    4    0    0  0.23292590118E-01  0.89410531373E-01 -0.10581261380E-01  0.93000064990E-01  0.51100000000E-03 0.  1.
         11    1    4    4    0    0  0.65177995705E-02  0.33347222965E-01 -0.14878127364E-01  0.37096344639E-01  0.51100000000E-03 0. -1.
</event>
<event>
 8    1  0.1131376E+005  0.1043930E+01  0.7957747E-01            NaN
         13   -1    0    0    0    0  0.00000000000E+00  0.00000000000E+00  0.74505805969E-08  0.10566000000E+00  0.10566000000E+00 0.  1.
     999900   -1    0    0    0    0 -0.00000000000E+00 -0.00000000000E+00 -0.74505805969E-08  0.93827000000E+00  0.93827000000E+00 0.  1.
     999902    2    1    2    0    0  0.23245513505E-01 -0.27797284048E-02 -0.37219485803E-02  0.10202248594E+01  0.10199494253E+01 0.  0.
     999903    2    3    3    0    0  0.80909296012E-01 -0.93912043248E-01 -0.43128456811E-01  0.13276608095E+00  0.20024545303E-01 0.  0.
         14    1    1    2    0    0 -0.23245513505E-01  0.27797284048E-02  0.37219485803E-02  0.23705140568E-01  0.00000000000E+00 0.  1.
     999901    1    3    3    0    0 -0.57663782507E-01  0.91132314843E-01  0.39406508231E-01  0.88745877849E+00  0.88000000000E+00 0. -1.
        -11    1    4    4    0    0  0.42184288292E-02 -0.14339717967E-01 -0.34908558033E-02  0.15358054838E-01  0.51100000000E-03 0. -1.
         11    1    4    4    0    0  0.76690867183E-01 -0.79572325281E-01 -0.39637601008E-01  0.11740802611E+00  0.51100000000E-03 0.  1.
</event>
<event>
 8    1  0.1131376E+005  0.1043930E+01  0.7957747E-01            NaN
         13   -1    0    0    0    0  0.00000000000E+00  0.00000000000E+00  0.74505805969E-08  0.10566000000E+00  0.10566000000E+00 0. -1.
     999900   -1    0    0    0    0 -0.00000000000E+00 -0.00000000000E+00 -0.74505805969E-08  0.93827000000E+00  0.93827000000E+00 0. -1.
     999902    2    1    2    0    0 -0.43374800384E-02 -0.14423419785E-01 -0.17534380074E-01  0.10208149993E+01  0.10205532615E+01 0.  0.
     999903    2    3    3    0    0  0.52390509335E-01  0.31940120350E-01  0.11103423915E+00  0.12845995089E+00  0.20209402800E-01 0.  0.
         14    1    1    2    0    0  0.43374800384E-02  0.14423419785E-01  0.17534380074E-01  0.23115000669E-01  0.00000000000E+00 0. -1.
     999901    1    3    3    0    0 -0.56727989374E-01 -0.46363540135E-01 -0.12856861923E+00  0.89235504844E+00  0.88000000000E+00 0. -1.
        -11    1    4    4    0    0  0.14837658600E-01  0.11352680719E-01  0.53947361142E-01  0.57093067595E-01  0.51100000000E-03 0.  1.
         11    1    4    4    0    0  0.37552850736E-01  0.20587439631E-01  0.57086878010E-01  0.71366883292E-01  0.51100000000E-03 0. -1.
</event>
<event>
 8    1  0.1131376E+005  0.1043930E+01  0.7957747E-01            NaN
         13   -1    0    0    0    0  0.00000000000E+00  0.00000000000E+00  0.74505805969E-08  0.10566000000E+00  0.10566000000E+00 0. -1.
     999900   -1    0    0    0    0 -0.00000000000E+00 -0.00000000000E+00 -0.74505805969E-08  0.93827000000E+00  0.93827000000E+00 0. -1.
     999902    2    1    2    0    0  0.15968398543E-01  0.11610811078E-02  0.15033635049E-01  0.10219675765E+01  0.10217315594E+01 0.  0.
     999903    2    3    3    0    0 -0.90903693588E-01  0.29277030303E-01  0.88851952605E-01  0.13198932137E+00  0.20146599266E-01 0.  0.
         14    1    1    2    0    0 -0.15968398543E-01 -0.11610811078E-02 -0.15033635049E-01  0.21962423459E-01  0.00000000000E+00 0.  1.
     999901    1    3    3    0    0  0.10687209213E+00 -0.28115949195E-01 -0.73818317556E-01  0.88997825517E+00  0.88000000000E+00 0. -1.
        -11    1    4    4    0    0 -0.74321202687E-01  0.16236532442E-01  0.74428513135E-01  0.10642899437E+00  0.51100000000E-03 0. -1.
         11    1    4    4    0    0 -0.16582490901E-01  0.13040497862E-01  0.14423439470E-01  0.25560326995E-01  0.51100000000E-03 0.  1.
</event>
<event>
 8    1  0.1131376E+005  0.1043930E+01  0.7957747E-01            NaN
         13   -1    0    0    0    0  0.00000000000E+00  0.00000000000E+00  0.74505805969E-08  0.10566000000E+00  0.10566000000E+00 0. -1.
     999900   -1    0    0    0    0 -0.00000000000E+00 -0.00000000000E+00 -0.74505805969E-08  0.93827000000E+00  0.93827000000E+00 0. -1.
     999902    2    1    2    0    0  0.96545517823E-02 -0.86517393195E-03  0.22763700585E-01  0.10191884366E+01  0.10188880823E+01 0.  0.
     999903    2    3    3    0    0  0.33812847422E-01 -0.65496261831E-01 -0.10226365609E+00  0.12767700049E+00  0.20260605423E-01 0.  0.
         14    1    1    2    0    0 -0.96545517823E-02  0.86517393195E-03 -0.22763700585E-01  0.24741563418E-01  0.00000000000E+00 0.  1.
     999901    1    3    3    0    0 -0.24158295639E-01  0.64631087899E-01  0.12502735667E+00  0.89151143609E+00  0.88000000000E+00 0.  1.
        -11    1    4    4    0    0  0.23959134521E-01 -0.25476237732E-01 -0.41844228157E-01  0.54536954141E-01  0.51100000000E-03 0. -1.
         11    1    4    4    0    0  0.98537129007E-02 -0.40020024098E-01 -0.60419427932E-01  0.73140046346E-01  0.51100000000E-03 0.  1.
</event>
<event>
 8    1  0.1131376E+005  0.1043930E+01  0.7957747E-01            NaN
         13   -1    0    0    0    0  0.00000000000E+00  0.00000000000E+00  0.74505805969E-08  0.10566000000E+00  0.10566000000E+00 0. -1.
     999900   -1    0    0    0    0 -0.00000000000E+00 -0.00000000000E+00 -0.74505805969E-08  0.93827000000E+00  0.93827000000E+00 0.  1.
     999902    2    1    2    0    0  0.33963117052E-02  0.29744111143E-02 -0.23350187059E-01  0.10201473742E+01  0.10198701152E+01 0.  0.
     999903    2    3    3    0    0 -0.63265604198E-01 -0.10351620007E+00 -0.44956960787E-01  0.13096184014E+00  0.20291251718E-01 0.  0.
         14    1    1    2    0    0 -0.33963117052E-02 -0.29744111143E-02  0.23350187059E-01  0.23782625809E-01  0.00000000000E+00 0. -1.
     999901    1    3    3    0    0  0.66661915903E-01  0.10649061119E+00  0.21606773728E-01  0.88918553406E+00  0.88000000000E+00 0.  1.
        -11    1    4    4    0    0 -0.44779485270E-01 -0.60726459485E-01 -0.19872679983E-01  0.78026211707E-01  0.51100000000E-03 0.  1.
         11    1    4    4    0    0 -0.18486118927E-01 -0.42789740589E-01 -0.25084280805E-01  0.52935628429E-01  0.51100000000E-03 0. -1.
</event>
<event>
 8    1  0.1131376E+005  0.1043930E+01  0.7957747E-01            NaN
         13   -1    0    0    0    0  0.00000000000E+00  0.00000000000E+00  0.74505805969E-08  0.10566000000E+00  0.10566000000E+00 0.  1.
     999900   -1    0    0    0    0 -0.00000000000E+00 -0.00000000000E+00 -0.74505805969E-08  0.93827000000E+00  0.93827000000E+00 0. -1.
     999902    2    1    2    0    0 -0.87821399378E-02 -0.46206367627E-02  0.21402028352E-01  0.10203392585E+01  0.10200665073E+01 0.  0.
     999903    2    3    3    0    0 -0.98645484359E-01  0.83439862844E-01  0.36347987314E-02  0.13121286328E+00  0.22593393567E-01 0.  0.
         14    1    1    2    0    0  0.87821399378E-02  0.46206367627E-02 -0.21402028352E-01  0.23590741480E-01  0.00000000000E+00 0. -1.
     999901    1    3    3    0    0  0.89863344422E-01 -0.88060499606E-01  0.17767229621E-01  0.88912639524E+00  0.88000000000E+00 0.  1.
        -11    1    4    4    0    0  0.60807691169E-03  0.38650916289E-02  0.21927286959E-03  0.39519479275E-02  0.51100000000E-03 0. -1.
         11    1    4    4    0    0 -0.99253561271E-01  0.79574771215E-01  0.34155258618E-02  0.12726091535E+00  0.51100000000E-03 0.  1.
</event>
<event>
 8    1  0.1131376E+005  0.1043930E+01  0.7957747E-01            NaN
         13   -1    0    0    0    0  0.00000000000E+00  0.00000000000E+00  0.74505805969E-08  0.10566000000E+00  0.10566000000E+00 0. -1.
     999900   -1    0    0    0    0 -0.00000000000E+00 -0.00000000000E+00 -0.74505805969E-08  0.93827000000E+00  0.93827000000E+00 0.  1.
     999902    2    1    2    0    0 -0.38761968884E-02  0.24552386720E-01 -0.95316513831E-03  0.10190552514E+01  0.10187516146E+01 0.  0.
     999903    2    3    3    0    0 -0.51130604363E-01 -0.99436520416E-01  0.57269053658E-01  0.12720545746E+00  0.19988086617E-01 0.  0.
         14    1    1    2    0    0  0.38761968884E-02 -0.24552386720E-01  0.95316513831E-03  0.24874748637E-01  0.00000000000E+00 0. -1.
     999901    1    3    3    0    0  0.47254407474E-01  0.12398890714E+00 -0.58222218796E-01  0.89184979390E+00  0.88000000000E+00 0. -1.
        -11    1    4    4    0    0 -0.39272348102E-01 -0.56561370559E-01  0.30759540962E-01  0.75418276606E-01  0.51100000000E-03 0.  1.
         11    1    4    4    0    0 -0.11858256260E-01 -0.42875149857E-01  0.26509512695E-01  0.51787180857E-01  0.51100000000E-03 0. -1.
</event>
<event>
 8    1  0.1131376E+005  0.1043930E+01  0.7957747E-01            NaN
         13   -1    0    0    0    0  0.00000000000E+00  0.00000000000E+00  0.74505805969E-08  0.10566000000E+00  0.10566000000E+00 0. -1.
     999900   -1    0    0    0    0 -0.00000000000E+00 -0.00000000000E+00 -0.74505805969E-08  0.93827000000E+00  0.93827000000E+00 0. -1.
     999902    2    1    2    0    0 -0.36522414293E-02 -0.16786819044E-01  0.15645403223E-01  0.10206939331E+01  0.10204294147E+01 0.  0.
     999903    2    3    3    0    0 -0.54373270818E-01 -0.93093626193E-01  0.76688620263E-01  0.13383338831E+00  0.20183050570E-01 0.  0.
         14    1    1    2    0    0  0.36522414293E-02  0.16786819044E-01 -0.15645403223E-01  0.23236066859E-01  0.00000000000E+00 0.  1.
     999901    1    3    3    0    0  0.50721029388E-01  0.76306807149E-01 -0.61043217040E-01  0.88686054484E+00  0.88000000000E+00 0.  1.
        -11    1    4    4    0    0 -0.10305838354E-02 -0.24819105747E-02  0.74488975145E-02  0.79353121126E-02  0.51100000000E-03 0. -1.
         11    1    4    4    0    0 -0.53342686982E-01 -0.90611715618E-01  0.69239722748E-01  0.12589807619E+00  0.51100000000E-03 0.  1.
</event>
<event>
 8    1  0.1131376E+005  0.1043930E+01  0.7957747E-01            NaN
         13   -1    0    0    0    0  0.00000000000E+00  0.00000000000E+00  0.74505805969E-08  0.10566000000E+00  0.10566000000E+00 0.  1.
     999900   -1    0    0    0    0 -0.00000000000E+00 -0.00000000000E+00 -0.74505805969E-08  0.93827000000E+00  0.93827000000E+00 0.  1.
     999902    2    1    2    0    0  0.20472300248E-01  0.11172093240E-01 -0.47327944879E-02  0.10201323092E+01  0.10198546946E+01 0.  0.
     999903    2    3    3    0    0 -0.70477663981E-01  0.49618965291E-01 -0.94495642920E-01  0.13007195902E+00  0.23667385913E-01 0.  0.
         14    1    1    2    0    0 -0.20472300248E-01 -0.11172093240E-01  0.47327944879E-02  0.23797690822E-01  0.00000000000E+00 0.  1.
     999901    1    3    3    0    0  0.90949964228E-01 -0.38446872051E-01  0.89762848432E-01  0.89006035016E+00  0.88000000000E+00 0.  1.
        -11    1    4    4    0    0 -0.24704392002E-01  0.45152112173E-02 -0.26743128131E-01  0.36689918775E-01  0.51100000000E-03 0.  1.
         11    1    4    4    0    0 -0.45773271978E-01  0.45103754073E-01 -0.67752514789E-01  0.93382040245E-01  0.51100000000E-03 0. -1.
</event>
<event>
 8    1  0.1131376E+005  0.1043930E+01  0.7957747E-01            NaN
         13   -1    0    0    0    0  0.00000000000E+00  0.00000000000E+00  0.74505805969E-08  0.10566000000E+00  0.10566000000E+00 0.  1.
     999900   -1    0    0    0    0 -0.00000000000E+00 -0.00000000000E+00 -0.74505805969E-08  0.93827000000E+00  0.93827000000E+00 0.  1.
     999902    2    1    2    0    0  0.10560142245E-01 -0.70784339209E-02 -0.19626480317E-01  0.10205458267E+01  0.10202778861E+01 0.  0.
     999903    2    3    3    0    0  0.10882915298E+00 -0.45527405023E-01 -0.58714171940E-01  0.13338013221E+00  0.20648887013E-01 0.  0.
         14    1    1    2    0    0 -0.10560142245E-01  0.70784339209E-02  0.19626480317E-01  0.23384173294E-01  0.00000000000E+00 0.  1.
     999901    1    3    3    0    0 -0.98269010740E-01  0.38448971102E-01  0.39087691623E-01  0.88716569449E+00  0.88000000000E+00 0. -1.
        -11    1    4    4    0    0  0.68202807808E-01 -0.30182148201E-01 -0.47839642400E-01  0.88608563745E-01  0.51100000000E-03 0. -1.
         11    1    4    4    0    0  0.40626345176E-01 -0.15345256822E-01 -0.10874529540E-01  0.44771568467E-01  0.51100000000E-03 0.  1.
</event>
<event>
 8    1  0.1131376E+005  0.1043930E+01  0.7957747E-01            NaN
         13   -1    0    0    0    0  0.00000000000E+00  0.00000000000E+00  0.74505805969E-08  0.10566000000E+00  0.10566000000E+00 0. -1.
     999900   -1    0    0    0    0 -0.00000000000E+00 -0.00000000000E+00 -0.74505805969E-08  0.93827000000E+00  0.93827000000E+00 0.  1.
     999902    2    1    2    0    0 -0.19982349070E-01  0.12836730067E-01  0.71833237207E-02  0.10191171797E+01  0.10188150715E+01 0.  0.
     999903    2    3    3    0    0  0.38430655207E-01  0.29057064607E-01  0.11910201795E+00  0.12995972880E+00  0.19570696631E-01 0.  0.
         14    1    1    2    0    0  0.19982349070E-01 -0.12836730067E-01 -0.71833237207E-02  0.24812820332E-01  0.00000000000E+00 0.  1.
     999901    1    3    3    0    0 -0.58413004277E-01 -0.16220334540E-01 -0.11191869423E+00  0.88915745087E+00  0.88000000000E+00 0.  1.
        -11    1    4    4    0    0  0.21455074143E-01  0.13410265187E-01  0.38164477257E-01  0.45792399634E-01  0.51100000000E-03 0.  1.
         11    1    4    4    0    0  0.16975581064E-01  0.15646799420E-01  0.80937540690E-01  0.84167329164E-01  0.51100000000E-03 0. -1.
</event>
<event>
 8    1  0.1131376E+005  0.1043930E+01  0.7957747E-01            NaN
         13   -1    0    0    0    0  0.00000000000E+00  0.00000000000E+00  0.74505805969E-08  0.10566000000E+00  0.10566000000E+00 0. -1.
     999900   -1    0    0    0    0 -0.00000000000E+00 -0.00000000000E+00 -0.74505805969E-08  0.93827000000E+00  0.93827000000E+00 0. -1.
     999902    2    1    2    0    0 -0.20806444679E-01 -0.82631038886E-02 -0.74660629515E-02  0.10203306542E+01  0.10200577017E+01 0.  0.
     999903    2    3    3    0    0 -0.10030260307E+00 -0.78787653814E-01 -0.34244871871E-01  0.13353278775E+00  0.19753166302E-01 0.  0.
         14    1    1    2    0    0  0.20806444679E-01  0.82631038886E-02  0.74660629515E-02  0.23599345797E-01  0.00000000000E+00 0.  1.
     999901    1    3    3    0    0  0.79496158388E-01  0.70524549925E-01  0.26778808920E-01  0.88679786645E+00  0.88000000000E+00 0. -1.
        -11    1    4    4    0    0 -0.49935864500E-01 -0.32145133333E-01 -0.75125311898E-02  0.59863172371E-01  0.51100000000E-03 0.  1.
         11    1    4    4    0    0 -0.50366738567E-01 -0.46642520481E-01 -0.26732340682E-01  0.73669615378E-01  0.51100000000E-03 0. -1.
</event>
<event>
 8    1  0.1131376E+005  0.1043930E+01  0.7957747E-01            NaN
         13   -1    0    0    0    0  0.00000000000E+00  0.00000000000E+00  0.74505805969E-08  0.10566000000E+00  0.10566000000E+00 0. -1.
     999900   -1    0    0    0    0 -0.00000000000E+00 -0.00000000000E+00 -0.74505805969E-08  0.93827000000E+00  0.93827000000E+00 0.  1.
     999902    2    1    2    0    0 -0.53780277964E-02 -0.63314383927E-02  0.21795087168E-01  0.10206054181E+01  0.10203388571E+01 0.  0.
     999903    2    3    3    0    0 -0.76272790565E-01 -0.28086134589E-01 -0.98466888954E-01  0.12933538211E+00  0.20628701080E-01 0.  0.
         14    1    1    2    0    0  0.53780277964E-02  0.63314383927E-02 -0.21795087168E-01  0.23324581877E-01  0.00000000000E+00 0.  1.
     999901    1    3    3    0    0  0.70894762769E-01  0.21754696197E-01  0.12026197612E+00  0.89127003601E+00  0.88000000000E+00 0. -1.
        -11    1    4    4    0    0 -0.31721284738E-01 -0.16460747712E-01 -0.29165105384E-01  0.46130907359E-01  0.51100000000E-03 0. -1.
         11    1    4    4    0    0 -0.44551505827E-01 -0.11625386877E-01 -0.69301783570E-01  0.83204474750E-01  0.51100000000E-03 0.  1.
</event>
<event>
 7    1  0.1131376E+005  0.1043930E+01  0.7957747E-01            NaN
         13   -1    0    0    0    0  0.00000000000E+00  0.00000000000E+00  0.74505805969E-08  0.10566000000E+00  0.10566000000E+00 0.  1.
     999900   -1    0    0    0    0 -0.00000000000E+00 -0.00000000000E+00 -0.74505805969E-08  0.93827000000E+00  0.93827000000E+00 0. -1.
     999902    2    1    2    0    0  0.35581098511E-02  0.92074390877E-03  0.21762830686E-01  0.10218590074E+01  0.10216206254E+01 0.  0.
         14    1    1    2    0    0 -0.35581098511E-02 -0.92074390877E-03 -0.21762830686E-01  0.22070992604E-01  0.00000000000E+00 0. -1.
     999901    1    3    3    0    0  0.88483914254E-01  0.49397981992E-01  0.10675648111E+00  0.89222559365E+00  0.88000000000E+00 0.  1.
        -11    1    3    3    0    0 -0.18041531035E-01 -0.11416631894E-01 -0.20432311491E-01  0.29556332650E-01  0.51100000000E-03 0. -1.
         11    1    3    3    0    0 -0.66884273368E-01 -0.37060606189E-01 -0.64561338931E-01  0.10007708110E+00  0.51100000000E-03 0.  1.
</event>
<event>
 8    1  0.1131376E+005  0.1043930E+01  0.7957747E-01            NaN
         13   -1    0    0    0    0  0.00000000000E+00  0.00000000000E+00  0.74505805969E-08  0.10566000000E+00  0.10566000000E+00 0.  1.
     999900   -1    0    0    0    0 -0.00000000000E+00 -0.00000000000E+00 -0.74505805969E-08  0.93827000000E+00  0.93827000000E+00 0.  1.
     999902    2    1    2    0    0  0.19242509256E-01 -0.11683665331E-01 -0.65134746329E-02  0.10204948224E+01  0.10202256981E+01 0.  0.
     999903    2    3    3    0    0 -0.91029942908E-01 -0.88450464439E-01 -0.21252106975E-01  0.13017444048E+00  0.19590756449E-01 0.  0.
         14    1    1    2    0    0 -0.19242509256E-01  0.11683665331E-01  0.65134746329E-02  0.23435177615E-01  0.00000000000E+00 0.  1.
     999901    1    3    3    0    0  0.11027245216E+00  0.76766799108E-01  0.14738632342E-01  0.89032038190E+00  0.88000000000E+00 0.  1.
        -11    1    4    4    0    0 -0.69335462852E-01 -0.65062056369E-01 -0.73322869669E-02  0.95365093934E-01  0.51100000000E-03 0. -1.
         11    1    4    4    0    0 -0.21694480056E-01 -0.23388408070E-01 -0.13919820008E-01  0.34809346547E-01  0.51100000000E-03 0.  1.
</event>
<event>
 8    1  0.1131376E+005  0.1043930E+01  0.7957747E-01            NaN
         13   -1    0    0    0    0  0.00000000000E+00  0.00000000000E+00  0.74505805969E-08  0.10566000000E+00  0.10566000000E+00 0. -1.
     999900   -1    0    0    0    0 -0.00000000000E+00 -0.00000000000E+00 -0.74505805969E-08  0.93827000000E+00  0.93827000000E+00 0. -1.
     999902    2    1    2    0    0 -0.20082954181E-02  0.80752487043E-02  0.22720879729E-01  0.10197332798E+01  0.10194461637E+01 0.  0.
     999903    2    3    3    0    0  0.11877339332E+00 -0.44540167715E-01  0.19303197423E-01  0.12991965948E+00  0.20385264003E-01 0.  0.
         14    1    1    2    0    0  0.20082954181E-02 -0.80752487043E-02 -0.22720879729E-01  0.24196720186E-01  0.00000000000E+00 0.  1.
     999901    1    3    3    0    0 -0.12078168874E+00  0.52615416420E-01  0.34176823059E-02  0.88981362033E+00  0.88000000000E+00 0.  1.
        -11    1    4    4    0    0  0.14556257525E-01 -0.14559034865E-02  0.77326737139E-02  0.16554747109E-01  0.51100000000E-03 0. -1.
         11    1    4    4    0    0  0.10421713579E+00 -0.43084264229E-01  0.11570523709E-01  0.11336491237E+00  0.51100000000E-03 0.  1.
</event>
<event>
 8    1  0.1131376E+005  0.1043930E+01  0.7957747E-01            NaN
         13   -1    0    0    0    0  0.00000000000E+00  0.00000000000E+00  0.74505805969E-08  0.10566000000E+00  0.10566000000E+00 0. -1.
     999900   -1    0    0    0    0 -0.00000000000E+00 -0.00000000000E+00 -0.74505805969E-08  0.93827000000E+00  0.93827000000E+00 0.  1.
     999902    2    1    2    0    0  0.29099769045E-02 -0.23158892926E-01  0.58711170265E-02  0.10198619236E+01  0.10195778886E+01 0.  0.
     999903    2    3    3    0    0  0.91690744999E-01  0.82037599906E-01  0.32533577880E-01  0.12876192151E+00  0.19591789693E-01 0.  0.
         14    1    1    2    0    0 -0.29099769045E-02  0.23158892926E-01 -0.58711170265E-02  0.24068076415E-01  0.00000000000E+00 0. -1.
     999901    1    3    3    0    0 -0.88780768095E-01 -0.10519649283E+00 -0.26662460853E-01  0.89110000208E+00  0.88000000000E+00 0. -1.
        -11    1    4    4    0    0  0.61510713999E-01  0.50612856718E-01  0.11872116173E-01  0.80538422292E-01  0.51100000000E-03 0.  1.
         11    1    4    4    0    0  0.30180031001E-01  0.31424743187E-01  0.20661461706E-01  0.48223499214E-01  0.51100000000E-03 0. -1.
</event>
<event>
 8    1  0.1131376E+005  0.1043930E+01  0.7957747E-01            NaN
         13   -1    0    0    0    0  0.00000000000E+00  0.00000000000E+00  0.74505805969E-08  0.10566000000E+00  0.10566000000E+00 0. -1.
     999900   -1    0    0    0    0 -0.00000000000E+00 -0.00000000000E+00 -0.74505805969E-08  0.93827000000E+00  0.93827000000E+00 0.  1.
     999902    2    1    2    0    0 -0.12875645114E-01  0.43374679449E-02 -0.21055450808E-01  0.10188715109E+01  0.10185633156E+01 0.  0.
     999903    2    3    3    0    0  0.64895823082E-01  0.20605509269E-01 -0.11010936208E+00  0.13081540373E+00  0.18776138306E-01 0.  0.
         14    1    1    2    0    0  0.12875645114E-01 -0.43374679449E-02  0.21055450808E-01  0.25058489061E-01  0.00000000000E+00 0. -1.
     999901    1    3    3    0    0 -0.77771468196E-01 -0.16268041324E-01  0.89053911275E-01  0.88805610721E+00  0.88000000000E+00 0. -1.
        -11    1    4    4    0    0  0.44119105684E-01  0.21424202775E-01 -0.85728897011E-01  0.98768400081E-01  0.51100000000E-03 0.  1.
         11    1    4    4    0    0  0.20776717398E-01 -0.81869350590E-03 -0.24380465071E-01  0.32047003651E-01  0.51100000000E-03 0. -1.
</event>
<event>
 8    1  0.1131376E+005  0.1043930E+01  0.7957747E-01            NaN
         13   -1    0    0    0    0  0.00000000000E+00  0.00000000000E+00  0.74505805969E-08  0.10566000000E+00  0.10566000000E+00 0.  1.
     999900   -1    0    0    0    0 -0.00000000000E+00 -0.00000000000E+00 -0.74505805969E-08  0.93827000000E+00  0.93827000000E+00 0.  1.
     999902    2    1    2    0    0  0.10194576242E-01  0.63517688161E-02 -0.18844183645E-01  0.10215832416E+01  0.10213387988E+01 0.  0.
     999903    2    3    3    0    0  0.12570284730E+00  0.11578172337E-02  0.36714136754E-01  0.13228246869E+00  0.18659510290E-01 0.  0.
         14    1    1    2    0    0 -0.10194576242E-01 -0.63517688161E-02  0.18844183645E-01  0.22346758358E-01  0.00000000000E+00 0.  1.
     999901    1    3    3    0    0 -0.11550827106E+00  0.51939515824E-02 -0.55558320399E-01  0.88930077296E+00  0.88000000000E+00 0.  1.
        -11    1    4    4    0    0  0.89622745488E-01  0.43391100801E-02  0.18025051192E-01  0.91521734995E-01  0.51100000000E-03 0.  1.
         11    1    4    4    0    0  0.36080101811E-01 -0.31812928464E-02  0.18689085561E-01  0.40760733691E-01  0.51100000000E-03 0. -1.
</event>
<event>
 8    1  0.1131376E+005  0.1043930E+01  0.7957747E-01            NaN
         13   -1    0    0    0    0  0.00000000000E+00  0.00000000000E+00  0.74505805969E-08  0.10566000000E+00  0.10566000000E+00 0.  1.
     999900   -1    0    0    0    0 -0.00000000000E+00 -0.00000000000E+00 -0.74505805969E-08  0.93827000000E+00  0.93827000000E+00 0.  1.
     999902    2    1    2    0    0  0.22823200669E-01  0.15727047973E-02 -0.12638235488E-02  0.10210177950E+01  0.10207606813E+01 0.  0.
     999903    2    3    3    0    0 -0.36297449088E-01 -0.97874313480E-01 -0.75479164170E-01  0.13034789122E+00  0.19914378529E-01 0.  0.
         14    1    1    2    0    0 -0.22823200669E-01 -0.15727047973E-02  0.12638235488E-02  0.22912205025E-01  0.00000000000E+00 0. -1.
     999901    1    3    3    0    0  0.59120649757E-01  0.99447018277E-01  0.74215340621E-01  0.89066990376E+00  0.88000000000E+00 0. -1.
        -11    1    4    4    0    0 -0.13278980938E-01 -0.20606734517E-01 -0.26061512515E-01  0.35783130072E-01  0.51100000000E-03 0.  1.
         11    1    4    4    0    0 -0.23018468149E-01 -0.77267578964E-01 -0.49417651655E-01  0.94564761147E-01  0.51100000000E-03 0. -1.
</event>
<event>
 8    1  0.1131376E+005  0.1043930E+01  0.7957747E-01            NaN
         13   -1    0    0    0    0  0.00000000000E+00  0.00000000000E+00  0.74505805969E-08  0.10566000000E+00  0.10566000000E+00 0. -1.
     999900   -1    0    0    0    0 -0.00000000000E+00 -0.00000000000E+00 -0.74505805969E-08  0.93827000000E+00  0.93827000000E+00 0. -1.
     999902    2    1    2    0    0  0.77778382748E-02  0.13983784801E-01 -0.95956465271E-02  0.10252720945E+01  0.10251023121E+01 0.  0.
     999903    2    3    3    0    0 -0.11682045231E+00  0.54897120851E-01  0.32317665748E-01  0.13456711481E+00  0.20078966933E-01 0.  0.
         14    1    1    2    0    0 -0.77778382748E-02 -0.13983784801E-01  0.95956465271E-02  0.18657905506E-01  0.00000000000E+00 0.  1.
     999901    1    3    3    0    0  0.12459829059E+00 -0.40913336050E-01 -0.41913312275E-01  0.89070497968E+00  0.88000000000E+00 0. -1.
        -11    1    4    4    0    0 -0.65709985250E-01  0.37279263770E-01  0.10540272634E-01  0.76281741832E-01  0.51100000000E-03 0.  1.
         11    1    4    4    0    0 -0.51110467064E-01  0.17617857081E-01  0.21777393114E-01  0.58285372980E-01  0.51100000000E-03 0. -1.
</event>
<event>
 8    1  0.1131376E+005  0.1043930E+01  0.7957747E-01            NaN
         13   -1    0    0    0    0  0.00000000000E+00  0.00000000000E+00  0.74505805969E-08  0.10566000000E+00  0.10566000000E+00 0.  1.
     999900   -1    0    0    0    0 -0.00000000000E+00 -0.00000000000E+00 -0.74505805969E-08  0.93827000000E+00  0.93827000000E+00 0. -1.
     999902    2    1    2    0    0  0.43537005997E-02 -0.23098213226E-01 -0.10296160903E-02  0.10204025209E+01  0.10201312476E+01 0.  0.
     999903    2    3    3    0    0 -0.42393088487E-01 -0.10943540589E+00 -0.59310127756E-01  0.13302661907E+00  0.20127297693E-01 0.  0.
         14    1    1    2    0    0 -0.43537005997E-02  0.23098213226E-01  0.10296160903E-02  0.23527479092E-01  0.00000000000E+00 0.  1.
     999901    1    3    3    0    0  0.46746789087E-01  0.86337192663E-01  0.58280511666E-01  0.88737590184E+00  0.88000000000E+00 0.  1.
        -11    1    4    4    0    0 -0.47675767407E-02 -0.23386457531E-02 -0.44643682361E-02  0.69563465041E-02  0.51100000000E-03 0.  1.
         11    1    4    4    0    0 -0.37625511747E-01 -0.10709676014E+00 -0.54845759520E-01  0.12607027256E+00  0.51100000000E-03 0. -1.
</event>
<event>
 8    1  0.1131376E+005  0.1043930E+01  0.7957747E-01            NaN
         13   -1    0    0    0    0  0.00000000000E+00  0.00000000000E+00  0.74505805969E-08  0.10566000000E+00  0.10566000000E+00 0.  1.
     999900   -1    0    0    0    0 -0.00000000000E+00 -0.00000000000E+00 -0.74505805969E-08  0.93827000000E+00  0.93827000000E+00 0. -1.
     999902    2    1    2    0    0  0.21978253411E-01 -0.86798344527E-02 -0.43352491287E-04  0.10202998280E+01  0.10200261536E+01 0.  0.
     999903    2    3    3    0    0  0.63864727820E-01 -0.35467459127E-01  0.10843178365E+00  0.13224639001E+00  0.19874904967E-01 0.  0.
         14    1    1    2    0    0 -0.21978253411E-01  0.86798344527E-02  0.43352491287E-04  0.23630171996E-01  0.00000000000E+00 0. -1.
     999901    1    3    3    0    0 -0.41886474409E-01  0.26787624674E-01 -0.10847513614E+00  0.88805343800E+00  0.88000000000E+00 0. -1.
        -11    1    4    4    0    0  0.16252797555E-01 -0.19100513069E-01  0.30892128652E-01  0.39794066913E-01  0.51100000000E-03 0.  1.
         11    1    4    4    0    0  0.47611930265E-01 -0.16366946058E-01  0.77539655002E-01  0.92452323095E-01  0.51100000000E-03 0. -1.
</event>
<event>
 8    1  0.1131376E+005  0.1043930E+01  0.7957747E-01            NaN
         13   -1    0    0    0    0  0.00000000000E+00  0.00000000000E+00  0.74505805969E-08  0.10566000000E+00  0.10566000000E+00 0.  1.
     999900   -1    0    0    0    0 -0.00000000000E+00 -0.00000000000E+00 -0.74505805969E-08  0.93827000000E+00  0.93827000000E+00 0.  1.
     999902    2    1    2    0    0  0.10049797376E-01  0.64848242024E-02 -0.19419109793E-01  0.10211231327E+01  0.10208684043E+01 0.  0.
     999903    2    3    3    0    0 -0.12768470358E+00 -0.91075384287E-03 -0.16798492885E-01  0.13037493314E+00  0.20278580487E-01 0.  0.
         14    1    1    2    0    0 -0.10049797376E-01 -0.64848242024E-02  0.19419109793E-01  0.22806867330E-01  0.00000000000E+00 0. -1.
     999901    1    3    3    0    0  0.13773450096E+00  0.73955780453E-02 -0.26206169080E-02  0.89074819953E+00  0.88000000000E+00 0. -1.
        -11    1    4    4    0    0 -0.12339384640E-01 -0.62011270584E-02 -0.19606115915E-02  0.13957775930E-01  0.51100000000E-03 0.  1.
         11    1    4    4    0    0 -0.11534531894E+00  0.52903732155E-02 -0.14837881294E-01  0.11641715721E+00  0.51100000000E-03 0. -1.
</event>
<event>
 8    1  0.1131376E+005  0.1043930E+01  0.7957747E-01            NaN
         13   -1    0    0    0    0  0.00000000000E+00  0.00000000000E+00  0.74505805969E-08  0.10566000000E+00  0.10566000000E+00 0.  1.
     999900   -1    0    0    0    0 -0.00000000000E+00 -0.00000000000E+00 -0.74505805969E-08  0.93827000000E+00  0.93827000000E+00 0.  1.
     999902    2    1    2    0    0  0.13325262378E-01  0.10960328877E-01  0.15123709514E-01  0.10209861987E+01  0.10207283674E+01 0.  0.
     999903    2    3    3    0    0  0.97578960911E-01 -0.68979999240E-01 -0.48662003396E-01  0.13106611304E+00  0.23031315738E-01 0.  0.
         14    1    1    2    0    0 -0.13325262378E-01 -0.10960328877E-01 -0.15123709514E-01  0.22943801254E-01  0.00000000000E+00 0. -1.
     999901    1    3    3    0    0 -0.84253698534E-01  0.79940328116E-01  0.63785712910E-01  0.88992008571E+00  0.88000000000E+00 0. -1.
        -11    1    4    4    0    0  0.49797359606E-01 -0.24348752454E-01 -0.30188275536E-01  0.63120772101E-01  0.51100000000E-03 0. -1.
         11    1    4    4    0    0  0.47781601305E-01 -0.44631246786E-01 -0.18473727861E-01  0.67945340936E-01  0.51100000000E-03 0.  1.
</event>
<event>
 8    1  0.1131376E+005  0.1043930E+01  0.7957747E-01            NaN
         13   -1    0    0    0    0  0.00000000000E+00  0.00000000000E+00  0.74505805969E-08  0.10566000000E+00  0.10566000000E+00 0. -1.
     999900   -1    0    0    0    0 -0.00000000000E+00 -0.00000000000E+00 -0.74505805969E-08  0.93827000000E+00  0.93827000000E+00 0. -1.
     999902    2    1    2    0    0  0.86217110382E-02  0.18707312942E-01 -0.11691158658E-01  0.10202449699E+01  0.10199700084E+01 0.  0.
     999903    2    3    3    0    0 -0.10967676643E+00 -0.60349280223E-01 -0.20392964119E-01  0.12877416496E+00  0.22268449796E-01 0.  0.
         14    1    1    2    0    0 -0.86217110382E-02 -0.18707312942E-01  0.11691158658E-01  0.23685030072E-01  0.00000000000E+00 0.  1.
     999901    1    3    3    0    0  0.11829847747E+00  0.79056593164E-01  0.87018054609E-02  0.89147080497E+00  0.88000000000E+00 0.  1.
        -11    1    4    4    0    0 -0.74544247819E-01 -0.41715073955E-01 -0.33077273936E-02  0.85487978450E-01  0.51100000000E-03 0. -1.
         11    1    4    4    0    0 -0.35132518615E-01 -0.18634206268E-01 -0.17085236726E-01  0.43286186509E-01  0.51100000000E-03 0.  1.
</event>
<event>
 8    1  0.1131376E+005  0.1043930E+01  0.7957747E-01            NaN
         13   -1    0    0    0    0  0.00000000000E+00  0.00000000000E+00  0.74505805969E-08  0.10566000000E+00  0.10566000000E+00 0.  1.
     999900   -1    0    0    0    0 -0.00000000000E+00 -0.00000000000E+00 -0.74505805969E-08  0.93827000000E+00  0.93827000000E+00 0. -1.
     999902    2    1    2    0    0 -0.17769786341E-01 -0.17497305835E-01 -0.86658827671E-03  0.10189766036E+01  0.10186710198E+01 0.  0.
     999903    2    3    3    0    0 -0.86996240386E-01 -0.48065378029E-01 -0.84319413145E-01  0.13179506468E+00  0.19533285272E-01 0.  0.
         14    1    1    2    0    0  0.17769786341E-01  0.17497305835E-01  0.86658827671E-03  0.24953396429E-01  0.00000000000E+00 0. -1.
     999901    1    3    3    0    0  0.69226454045E-01  0.30568072194E-01  0.83452824868E-01  0.88718153889E+00  0.88000000000E+00 0.  1.
        -11    1    4    4    0    0 -0.65506459186E-01 -0.28555268677E-01 -0.52169109466E-01  0.88478114061E-01  0.51100000000E-03 0. -1.
         11    1    4    4    0    0 -0.21489781200E-01 -0.19510109352E-01 -0.32150303679E-01  0.43316950615E-01  0.51100000000E-03 0.  1.
</event>
<event>
 8    1  0.1131376E+005  0.1043930E+01  0.7957747E-01            NaN
         13   -1    0    0    0    0  0.00000000000E+00  0.00000000000E+00  0.74505805969E-08  0.10566000000E+00  0.10566000000E+00 0.  1.
     999900   -1    0    0    0    0 -0.00000000000E+00 -0.00000000000E+00 -0.74505805969E-08  0.93827000000E+00  0.93827000000E+00 0.  1.
     999902    2    1    2    0    0 -0.14343811193E-01  0.18515369492E-01 -0.13256181923E-02  0.10204710765E+01  0.10202014002E+01 0.  0.
     999903    2    3    3    0    0 -0.64399961217E-01  0.92403431938E-01 -0.68310872346E-01  0.13342424112E+00  0.21210931130E-01 0.  0.
         14    1    1    2    0    0  0.14343811193E-01 -0.18515369492E-01  0.13256181923E-02  0.23458923474E-01  0.00000000000E+00 0.  1.
     999901    1    3    3    0    0  0.50056150024E-01 -0.73888062446E-01  0.66985254154E-01  0.88704683540E+00  0.88000000000E+00 0. -1.
        -11    1    4    4    0    0 -0.44988857530E-01  0.78698537651E-01 -0.57189853663E-01  0.10718394289E+00  0.51100000000E-03 0. -1.
         11    1    4    4    0    0 -0.19411103686E-01  0.13704894287E-01 -0.11121018683E-01  0.26240298232E-01  0.51100000000E-03 0.  1.
</event>
<event>
 8    1  0.1131376E+005  0.1043930E+01  0.7957747E-01            NaN
         13   -1    0    0    0    0  0.00000000000E+00  0.00000000000E+00  0.74505805969E-08  0.10566000000E+00  0.10566000000E+00 0.  1.
     999900   -1    0    0    0    0 -0.00000000000E+00 -0.00000000000E+00 -0.74505805969E-08  0.93827000000E+00  0.93827000000E+00 0. -1.
     999902    2    1    2    0    0 -0.67407531054E-02 -0.89308000508E-02 -0.19739307508E-01  0.10212399757E+01  0.10209878798E+01 0.  0.
     999903    2    3    3    0    0 -0.70610205438E-01  0.51573694800E-02 -0.11204843735E+00  0.13399775459E+00  0.19701430184E-01 0.  0.
         14    1    1    2    0    0  0.67407531054E-02  0.89308000508E-02  0.19739307508E-01  0.22690024303E-01  0.00000000000E+00 0.  1.
     999901    1    3    3    0    0  0.63869452333E-01 -0.14088169531E-01  0.92309129840E-01  0.88724222111E+00  0.88000000000E+00 0.  1.
        -11    1    4    4    0    0 -0.22284491164E-01  0.90986651593E-03 -0.53473675173E-01  0.57940671906E-01  0.51100000000E-03 0.  1.
         11    1    4    4    0    0 -0.48325714274E-01  0.42475029640E-02 -0.58574762176E-01  0.76057082685E-01  0.51100000000E-03 0. -1.
</event>
<event>
 8    1  0.1131376E+005  0.1043930E+01  0.7957747E-01            NaN
         13   -1    0    0    0    0  0.00000000000E+00  0.00000000000E+00  0.74505805969E-08  0.10566000000E+00  0.10566000000E+00 0.  1.
     999900   -1    0    0    0    0 -0.00000000000E+00 -0.00000000000E+00 -0.74505805969E-08  0.93827000000E+00  0.93827000000E+00 0.  1.
     999902    2    1    2    0    0 -0.15191157873E-01  0.16405644416E-01  0.69029456719E-02  0.10205298482E+01  0.10202615370E+01 0.  0.
     999903    2    3    3    0    0 -0.21483524423E-02  0.35661366057E-02  0.13014334033E+00  0.13175363191E+00  0.20109642938E-01 0.  0.
         14    1    1    2    0    0  0.15191157873E-01 -0.16405644416E-01 -0.69029456719E-02  0.23400151819E-01  0.00000000000E+00 0. -1.
     999901    1    3    3    0    0 -0.13042805431E-01  0.12839507810E-01 -0.12324039466E+00  0.88877621627E+00  0.88000000000E+00 0.  1.
        -11    1    4    4    0    0 -0.22765000593E-02  0.10822112452E-01  0.10490903709E+00  0.10549155300E+00  0.51100000000E-03 0.  1.
         11    1    4    4    0    0  0.12814761704E-03 -0.72559758462E-02  0.25234303245E-01  0.26262078908E-01  0.51100000000E-03 0. -1.
</event>
<event>
 8    1  0.1131376E+005  0.1043930E+01  0.7957747E-01            NaN
         13   -1    0    0    0    0  0.00000000000E+00  0.00000000000E+00  0.74505805969E-08  0.10566000000E+00  0.10566000000E+00 0.  1.
     999900   -1    0    0    0    0 -0.00000000000E+00 -0.00000000000E+00 -0.74505805969E-08  0.93827000000E+00  0.93827000000E+00 0.  1.
     999902    2    1    2    0    0  0.93830870329E-02  0.25433426162E-01 -0.77352499009E-02  0.10157389450E+01  0.10153476591E+01 0.  0.
     999903    2    3    3    0    0 -0.90704249740E-02  0.48496910236E-01  0.11479918684E+00  0.12675798653E+00  0.21319262142E-01 0.  0.
         14    1    1    2    0    0 -0.93830870329E-02 -0.25433426162E-01  0.77352499009E-02  0.28191054958E-01  0.00000000000E+00 0.  1.
     999901    1    3    3    0    0  0.18453512007E-01 -0.23063484074E-01 -0.12253443674E+00  0.88898095851E+00  0.88000000000E+00 0.  1.
        -11    1    4    4    0    0 -0.55716308682E-02  0.32151166707E-01  0.96963992343E-01  0.10230844307E+00  0.51100000000E-03 0.  1.
         11    1    4    4    0    0 -0.34987941057E-02  0.16345743529E-01  0.17835194500E-01  0.24449543463E-01  0.51100000000E-03 0. -1.
</event>
<event>
 8    1  0.1131376E+005  0.1043930E+01  0.7957747E-01            NaN
         13   -1    0    0    0    0  0.00000000000E+00  0.00000000000E+00  0.74505805969E-08  0.10566000000E+00  0.10566000000E+00 0.  1.
     999900   -1    0    0    0    0 -0.00000000000E+00 -0.00000000000E+00 -0.74505805969E-08  0.93827000000E+00  0.93827000000E+00 0. -1.
     999902    2    1    2    0    0 -0.16330941162E-01 -0.16803515216E-01 -0.34025308116E-02  0.10202522683E+01  0.10199774782E+01 0.  0.
     999903    2    3    3    0    0 -0.10135503398E+00 -0.31197556285E-01 -0.78384686089E-01  0.13286362267E+00  0.16200394560E-01 0.  0.
         14    1    1    2    0    0  0.16330941162E-01  0.16803515216E-01  0.34025308116E-02  0.23677731706E-01  0.00000000000E+00 0.  1.
     999901    1    3    3    0    0  0.85024092817E-01  0.14394041069E-01  0.74982155277E-01  0.88738864563E+00  0.88000000000E+00 0.  1.
        -11    1    4    4    0    0 -0.39548975781E-01 -0.49491747803E-02 -0.24720868963E-01  0.46904139472E-01  0.51100000000E-03 0.  1.
         11    1    4    4    0    0 -0.61806058197E-01 -0.26248381505E-01 -0.53663817126E-01  0.85959483195E-01  0.51100000000E-03 0. -1.
</event>
<event>
 8    1  0.1131376E+005  0.1043930E+01  0.7957747E-01            NaN
         13   -1    0    0    0    0  0.00000000000E+00  0.00000000000E+00  0.74505805969E-08  0.10566000000E+00  0.10566000000E+00 0.  1.
     999900   -1    0    0    0    0 -0.00000000000E+00 -0.00000000000E+00 -0.74505805969E-08  0.93827000000E+00  0.93827000000E+00 0.  1.
     999902    2    1    2    0    0  0.15278969635E-01 -0.15000761214E-01 -0.10484328892E-01  0.10200890499E+01  0.10198104132E+01 0.  0.
     999903    2    3    3    0    0 -0.62512859542E-01  0.60416340732E-01 -0.93953685561E-01  0.12952381283E+00  0.19777037772E-01 0.  0.
         14    1    1    2    0    0 -0.15278969635E-01  0.15000761214E-01  0.10484328892E-01  0.23840950116E-01  0.00000000000E+00 0.  1.
     999901    1    3    3    0    0  0.77791829177E-01 -0.75417101946E-01  0.83469356670E-01  0.89056523706E+00  0.88000000000E+00 0. -1.
        -11    1    4    4    0    0 -0.37073223989E-01  0.43659585711E-01 -0.71830384705E-01  0.91871914365E-01  0.51100000000E-03 0.  1.
         11    1    4    4    0    0 -0.25439635553E-01  0.16756755021E-01 -0.22123300856E-01  0.37651898461E-01  0.51100000000E-03 0. -1.
</event>
<event>
 8    1  0.1596706E+005  0.1043930E+01  0.7957747E-01            NaN
         13   -1    0    0    0    0  0.00000000000E+00  0.00000000000E+00  0.74505805969E-08  0.10566000000E+00  0.10566000000E+00 0.  1.
     999900   -1    0    0    0    0 -0.00000000000E+00 -0.00000000000E+00 -0.74505805969E-08  0.93827000000E+00  0.93827000000E+00 0.  1.
     999902    2    1    2    0    0 -0.19897909215E-01 -0.12788300563E-01  0.12089246002E-01  0.10173665422E+01  0.10170196969E+01 0.  0.
     999903    2    3    3    0    0  0.21017781107E-01  0.29662747886E-01 -0.11879813528E+00  0.12573450383E+00  0.19353107606E-01 0.  0.
         14    1    1    2    0    0  0.19897909215E-01  0.12788300563E-01 -0.12089246002E-01  0.26563457819E-01  0.00000000000E+00 0. -1.
     999901    1    3    3    0    0 -0.40915690322E-01 -0.42451048449E-01  0.13088738128E+00  0.89163203835E+00  0.88000000000E+00 0. -1.
        -11    1    4    4    0    0  0.11033713910E-01  0.14272161198E-02 -0.28545525902E-01  0.30641278669E-01  0.51100000000E-03 0. -1.
         11    1    4    4    0    0  0.99840671971E-02  0.28235531766E-01 -0.90252609376E-01  0.95093225164E-01  0.51100000000E-03 0.  1.
</event>
<event>
 8    1  0.1131376E+005  0.1043930E+01  0.7957747E-01            NaN
         13   -1    0    0    0    0  0.00000000000E+00  0.00000000000E+00  0.74505805969E-08  0.10566000000E+00  0.10566000000E+00 0. -1.
     999900   -1    0    0    0    0 -0.00000000000E+00 -0.00000000000E+00 -0.74505805969E-08  0.93827000000E+00  0.93827000000E+00 0. -1.
     999902    2    1    2    0    0 -0.17402948991E-01  0.41382034117E-02  0.14806288320E-01  0.10207090281E+01  0.10204448572E+01 0.  0.
     999903    2    3    3    0    0  0.10640922511E+00 -0.69377022301E-01 -0.30074212756E-02  0.12882827874E+00  0.21250562560E-01 0.  0.
         14    1    1    2    0    0  0.17402948991E-01 -0.41382034117E-02 -0.14806288320E-01  0.23220971877E-01  0.00000000000E+00 0.  1.
     999901    1    3    3    0    0 -0.12381217410E+00  0.73515225713E-01  0.17813709596E-01  0.89188074938E+00  0.88000000000E+00 0.  1.
        -11    1    4    4    0    0  0.29792116749E-01 -0.31361691060E-01 -0.64549757235E-03  0.43264346460E-01  0.51100000000E-03 0. -1.
         11    1    4    4    0    0  0.76617108361E-01 -0.38015331241E-01 -0.23619237033E-02  0.85563932282E-01  0.51100000000E-03 0.  1.
</event>
<event>
 8    1  0.1131376E+005  0.1043930E+01  0.7957747E-01            NaN
         13   -1    0    0    0    0  0.00000000000E+00  0.00000000000E+00  0.74505805969E-08  0.10566000000E+00  0.10566000000E+00 0.  1.
     999900   -1    0    0    0    0 -0.00000000000E+00 -0.00000000000E+00 -0.74505805969E-08  0.93827000000E+00  0.93827000000E+00 0. -1.
     999902    2    1    2    0    0 -0.60156124031E-02 -0.13229301748E-01  0.24235124259E-01  0.10156714922E+01  0.10152783051E+01 0.  0.
     999903    2    3    3    0    0  0.73778081829E-01  0.77095499900E-01  0.65310214647E-01  0.12650740917E+00  0.18755771776E-01 0.  0.
         14    1    1    2    0    0  0.60156124031E-02  0.13229301748E-01 -0.24235124259E-01  0.28258507837E-01  0.00000000000E+00 0. -1.
     999901    1    3    3    0    0 -0.79793694232E-01 -0.90324801647E-01 -0.41075090388E-01  0.88916408299E+00  0.88000000000E+00 0. -1.
        -11    1    4    4    0    0  0.71550747964E-01  0.73510999835E-01  0.57462251083E-01  0.11758209069E+00  0.51100000000E-03 0. -1.
         11    1    4    4    0    0  0.22273338651E-02  0.35845000641E-02  0.78479635638E-02  0.89253184792E-02  0.51100000000E-03 0.  1.
</event>
<event>
 8    1  0.1293123E+005  0.1043930E+01  0.7957747E-01            NaN
         13   -1    0    0    0    0  0.00000000000E+00  0.00000000000E+00  0.74505805969E-08  0.10566000000E+00  0.10566000000E+00 0.  1.
     999900   -1    0    0    0    0 -0.00000000000E+00 -0.00000000000E+00 -0.74505805969E-08  0.93827000000E+00  0.93827000000E+00 0. -1.
     999902    2    1    2    0    0 -0.13895335321E-01  0.12694279344E-01 -0.13360073678E-01  0.10208493449E+01  0.10205883932E+01 0.  0.
     999903    2    3    3    0    0  0.34846699067E-01 -0.16494623453E-02  0.12270791047E+00  0.12894350616E+00  0.18766548117E-01 0.  0.
         14    1    1    2    0    0  0.13895335321E-01 -0.12694279344E-01  0.13360073678E-01  0.23080655113E-01  0.00000000000E+00 0.  1.
     999901    1    3    3    0    0 -0.48742034388E-01  0.14343741689E-01 -0.13606798415E+00  0.89190583872E+00  0.88000000000E+00 0. -1.
        -11    1    4    4    0    0  0.26365143385E-01 -0.88664586267E-02  0.76253833790E-01  0.81170457452E-01  0.51100000000E-03 0. -1.
         11    1    4    4    0    0  0.84815556816E-02  0.72169962815E-02  0.46454076678E-01  0.47773048710E-01  0.51100000000E-03 0.  1.
</event>
<event>
 8    1  0.1131376E+005  0.1043930E+01  0.7957747E-01            NaN
         13   -1    0    0    0    0  0.00000000000E+00  0.00000000000E+00  0.74505805969E-08  0.10566000000E+00  0.10566000000E+00 0. -1.
     999900   -1    0    0    0    0 -0.00000000000E+00 -0.00000000000E+00 -0.74505805969E-08  0.93827000000E+00  0.93827000000E+00 0.  1.
     999902    2    1    2    0    0 -0.15900595580E-01  0.30737768343E-02 -0.18117629981E-01  0.10196292683E+01  0.10193396486E+01 0.  0.
     999903    2    3    3    0    0 -0.11556609323E+00 -0.46757529216E-01  0.35024372052E-01  0.13101211630E+00  0.19891695196E-01 0.  0.
         14    1    1    2    0    0  0.15900595580E-01 -0.30737768343E-02  0.18117629981E-01  0.24300731675E-01  0.00000000000E+00 0. -1.
     999901    1    3    3    0    0  0.99665497651E-01  0.49831306050E-01 -0.53142002033E-01  0.88861715202E+00  0.88000000000E+00 0.  1.
        -11    1    4    4    0    0 -0.75417956276E-01 -0.23506435168E-01  0.14681339791E-01  0.80350628388E-01  0.51100000000E-03 0. -1.
         11    1    4    4    0    0 -0.40148136955E-01 -0.23251094048E-01  0.20343032261E-01  0.50661487916E-01  0.51100000000E-03 0.  1.
</event>
<event>
 8    1  0.1131376E+005  0.1043930E+01  0.7957747E-01            NaN
         13   -1    0    0    0    0  0.00000000000E+00  0.00000000000E+00  0.74505805969E-08  0.10566000000E+00  0.10566000000E+00 0.  1.
     999900   -1    0    0    0    0 -0.00000000000E+00 -0.00000000000E+00 -0.74505805969E-08  0.93827000000E+00  0.93827000000E+00 0. -1.
     999902    2    1    2    0    0  0.26124289402E-02  0.92112558500E-02  0.21748049306E-01  0.10201676418E+01  0.10198908607E+01 0.  0.
     999903    2    3    3    0    0 -0.44146022476E-01  0.20205790805E-01 -0.11661477754E+00  0.12806254460E+00  0.21068073130E-01 0.  0.
         14    1    1    2    0    0 -0.26124289402E-02 -0.92112558500E-02 -0.21748049306E-01  0.23762358215E-01  0.00000000000E+00 0. -1.
     999901    1    3    3    0    0  0.46758451416E-01 -0.10994534955E-01  0.13836282685E+00  0.89210509719E+00  0.88000000000E+00 0.  1.
        -11    1    4    4    0    0 -0.36353730965E-01  0.89698253077E-02 -0.98371224822E-01  0.10525782876E+00  0.51100000000E-03 0.  1.
         11    1    4    4    0    0 -0.77922915115E-02  0.11235965498E-01 -0.18243552718E-01  0.22804715837E-01  0.51100000000E-03 0. -1.
</event>
<event>
 8    1  0.1131376E+005  0.1043930E+01  0.7957747E-01            NaN
         13   -1    0    0    0    0  0.00000000000E+00  0.00000000000E+00  0.74505805969E-08  0.10566000000E+00  0.10566000000E+00 0.  1.
     999900   -1    0    0    0    0 -0.00000000000E+00 -0.00000000000E+00 -0.74505805969E-08  0.93827000000E+00  0.93827000000E+00 0.  1.
     999902    2    1    2    0    0 -0.66791718115E-03 -0.19626465905E-01  0.13201662353E-01  0.10202671987E+01  0.10199927591E+01 0.  0.
     999903    2    3    3    0    0 -0.26206856451E-01  0.11719602020E+00  0.42391942525E-01  0.12884995486E+00  0.19583860709E-01 0.  0.
         14    1    1    2    0    0  0.66791718115E-03  0.19626465905E-01 -0.13201662353E-01  0.23662801317E-01  0.00000000000E+00 0. -1.
     999901    1    3    3    0    0  0.25538939270E-01 -0.13682248611E+00 -0.29190280173E-01  0.89141724382E+00  0.88000000000E+00 0. -1.
        -11    1    4    4    0    0 -0.12480291684E-01  0.21621308765E-01  0.61547367418E-02  0.25717320595E-01  0.51100000000E-03 0. -1.
         11    1    4    4    0    0 -0.13726564767E-01  0.95574711439E-01  0.36237205784E-01  0.10313263427E+00  0.51100000000E-03 0.  1.
</event>
<event>
 8    1  0.1131376E+005  0.1043930E+01  0.7957747E-01            NaN
         13   -1    0    0    0    0  0.00000000000E+00  0.00000000000E+00  0.74505805969E-08  0.10566000000E+00  0.10566000000E+00 0. -1.
     999900   -1    0    0    0    0 -0.00000000000E+00 -0.00000000000E+00 -0.74505805969E-08  0.93827000000E+00  0.93827000000E+00 0.  1.
     999902    2    1    2    0    0  0.22921433512E-01  0.35532121694E-02  0.58378362803E-03  0.10207274520E+01  0.10204637049E+01 0.  0.
     999903    2    3    3    0    0 -0.90242966513E-02 -0.11540352543E+00 -0.56328657189E-01  0.13032851835E+00  0.20327160763E-01 0.  0.
         14    1    1    2    0    0 -0.22921433512E-01 -0.35532121694E-02 -0.58378362803E-03  0.23202548013E-01  0.00000000000E+00 0. -1.
     999901    1    3    3    0    0  0.31945730163E-01  0.11895673760E+00  0.56912440817E-01  0.89039893363E+00  0.88000000000E+00 0.  1.
        -11    1    4    4    0    0  0.38833418500E-02 -0.45604917993E-01 -0.29437636912E-01  0.54421727986E-01  0.51100000000E-03 0.  1.
         11    1    4    4    0    0 -0.12907638501E-01 -0.69798607434E-01 -0.26891020277E-01  0.75906790368E-01  0.51100000000E-03 0. -1.
</event>
<event>
 8    1  0.1131376E+005  0.1043930E+01  0.7957747E-01            NaN
         13   -1    0    0    0    0  0.00000000000E+00  0.00000000000E+00  0.74505805969E-08  0.10566000000E+00  0.10566000000E+00 0.  1.
     999900   -1    0    0    0    0 -0.00000000000E+00 -0.00000000000E+00 -0.74505805969E-08  0.93827000000E+00  0.93827000000E+00 0.  1.
     999902    2    1    2    0    0  0.74754543652E-02 -0.17862999396E-01 -0.13634459138E-01  0.10202473557E+01  0.10199724502E+01 0.  0.
     999903    2    3    3    0    0  0.10912272256E+00 -0.65961845020E-01 -0.31613673902E-01  0.13290924750E+00  0.20167055242E-01 0.  0.
         14    1    1    2    0    0 -0.74754543652E-02  0.17862999396E-01  0.13634459138E-01  0.23682644307E-01  0.00000000000E+00 0.  1.
     999901    1    3    3    0    0 -0.10164726819E+00  0.48098845625E-01  0.17979214764E-01  0.88733810819E+00  0.88000000000E+00 0. -1.
        -11    1    4    4    0    0  0.41037652498E-01 -0.23552944522E-01 -0.21791574361E-01  0.52095719136E-01  0.51100000000E-03 0.  1.
         11    1    4    4    0    0  0.68085070061E-01 -0.42408900499E-01 -0.98220995406E-02  0.80813528367E-01  0.51100000000E-03 0. -1.
</event>
<event>
 8    1  0.1131376E+005  0.1043930E+01  0.7957747E-01            NaN
         13   -1    0    0    0    0  0.00000000000E+00  0.00000000000E+00  0.74505805969E-08  0.10566000000E+00  0.10566000000E+00 0.  1.
     999900   -1    0    0    0    0 -0.00000000000E+00 -0.00000000000E+00 -0.74505805969E-08  0.93827000000E+00  0.93827000000E+00 0. -1.
     999902    2    1    2    0    0  0.67608111387E-02  0.13847529334E-02 -0.22888523288E-01  0.10200237120E+01  0.10197435278E+01 0.  0.
     999903    2    3    3    0    0 -0.18333489505E-01  0.85739317366E-01 -0.97126136648E-01  0.13252349244E+00  0.21015286082E-01 0.  0.
         14    1    1    2    0    0 -0.67608111387E-02 -0.13847529334E-02  0.22888523288E-01  0.23906288007E-01  0.00000000000E+00 0.  1.
     999901    1    3    3    0    0  0.25094300644E-01 -0.84354564432E-01  0.74237613360E-01  0.88750021955E+00  0.88000000000E+00 0.  1.
        -11    1    4    4    0    0 -0.20614467901E-02  0.56301662973E-01 -0.56719965505E-01  0.79947122677E-01  0.51100000000E-03 0.  1.
         11    1    4    4    0    0 -0.16272042715E-01  0.29437654393E-01 -0.40406171143E-01  0.52576369766E-01  0.51100000000E-03 0. -1.
</event>
<event>
 8    1  0.1131376E+005  0.1043930E+01  0.7957747E-01            NaN
         13   -1    0    0    0    0  0.00000000000E+00  0.00000000000E+00  0.74505805969E-08  0.10566000000E+00  0.10566000000E+00 0.  1.
     999900   -1    0    0    0    0 -0.00000000000E+00 -0.00000000000E+00 -0.74505805969E-08  0.93827000000E+00  0.93827000000E+00 0. -1.
     999902    2    1    2    0    0 -0.13786369496E-01  0.18836841230E-01  0.25835362492E-02  0.10204445741E+01  0.10201742810E+01 0.  0.
     999903    2    3    3    0    0  0.10278126798E+00  0.77971991004E-01 -0.69584431800E-02  0.13073898827E+00  0.20016060864E-01 0.  0.
         14    1    1    2    0    0  0.13786369496E-01 -0.18836841230E-01 -0.25835362492E-02  0.23485425927E-01  0.00000000000E+00 0. -1.
     999901    1    3    3    0    0 -0.11656763748E+00 -0.59135149774E-01  0.95419794291E-02  0.88970558581E+00  0.88000000000E+00 0. -1.
        -11    1    4    4    0    0  0.52663225489E-01  0.43657600140E-01 -0.13225600875E-01  0.69674808994E-01  0.51100000000E-03 0. -1.
         11    1    4    4    0    0  0.50118042491E-01  0.34314390864E-01  0.62671576951E-02  0.61064179272E-01  0.51100000000E-03 0.  1.
</event>
<event>
 8    1  0.1131376E+005  0.1043930E+01  0.7957747E-01            NaN
         13   -1    0    0    0    0  0.00000000000E+00  0.00000000000E+00  0.74505805969E-08  0.10566000000E+00  0.10566000000E+00 0.  1.
     999900   -1    0    0    0    0 -0.00000000000E+00 -0.00000000000E+00 -0.74505805969E-08  0.93827000000E+00  0.93827000000E+00 0. -1.
     999902    2    1    2    0    0 -0.26382800188E-02 -0.23352424099E-01  0.49090170209E-03  0.10204238898E+01  0.10201531148E+01 0.  0.
     999903    2    3    3    0    0 -0.71879337075E-01 -0.84750878702E-01  0.71348366294E-01  0.13273876853E+00  0.13403013092E-01 0.  0.
         14    1    1    2    0    0  0.26382800188E-02  0.23352424099E-01 -0.49090170209E-03  0.23506110211E-01  0.00000000000E+00 0.  1.
     999901    1    3    3    0    0  0.69241057056E-01  0.61398454603E-01 -0.70857464592E-01  0.88768512126E+00  0.88000000000E+00 0. -1.
        -11    1    4    4    0    0 -0.47710620808E-01 -0.49035814886E-01  0.49081295060E-01  0.84202429449E-01  0.51100000000E-03 0. -1.
         11    1    4    4    0    0 -0.24168716267E-01 -0.35715063816E-01  0.22267071235E-01  0.48536339085E-01  0.51100000000E-03 0.  1.
</event>
<event>
 8    1  0.1131376E+005  0.1043930E+01  0.7957747E-01            NaN
         13   -1    0    0    0    0  0.00000000000E+00  0.00000000000E+00  0.74505805969E-08  0.10566000000E+00  0.10566000000E+00 0.  1.
     999900   -1    0    0    0    0 -0.00000000000E+00 -0.00000000000E+00 -0.74505805969E-08  0.93827000000E+00  0.93827000000E+00 0.  1.
     999902    2    1    2    0    0  0.12397470859E-02  0.95015168128E-02  0.21689770121E-01  0.10202179372E+01  0.10199423403E+01 0.  0.
     999903    2    3    3    0    0  0.66846876234E-01 -0.10602135903E+00  0.29909718789E-01  0.13020816321E+00  0.18722741661E-01 0.  0.
         14    1    1    2    0    0 -0.12397470859E-02 -0.95015168128E-02 -0.21689770121E-01  0.23712062805E-01  0.00000000000E+00 0. -1.
     999901    1    3    3    0    0 -0.65607129148E-01  0.11552287584E+00 -0.82199486684E-02  0.89000977399E+00  0.88000000000E+00 0. -1.
        -11    1    4    4    0    0  0.26327671507E-01 -0.49037301677E-01  0.21955568802E-01  0.59834031831E-01  0.51100000000E-03 0. -1.
         11    1    4    4    0    0  0.40519204728E-01 -0.56984057351E-01  0.79541499869E-02  0.70374131376E-01  0.51100000000E-03 0.  1.
</event>
<event>
 8    1  0.1131376E+005  0.1043930E+01  0.7957747E-01            NaN
         13   -1    0    0    0    0  0.00000000000E+00  0.00000000000E+00  0.74505805969E-08  0.10566000000E+00  0.10566000000E+00 0.  1.
     999900   -1    0    0    0    0 -0.00000000000E+00 -0.00000000000E+00 -0.74505805969E-08  0.93827000000E+00  0.93827000000E+00 0.  1.
     999902    2    1    2    0    0 -0.70321407734E-02  0.18631096605E-01 -0.13056605876E-01  0.10201173202E+01  0.10198393516E+01 0.  0.
     999903    2    3    3    0    0  0.82727570882E-01 -0.15892482473E-01 -0.98043873999E-01  0.13080774577E+00  0.20041036418E-01 0.  0.
         14    1    1    2    0    0  0.70321407734E-02 -0.18631096605E-01  0.13056605876E-01  0.23812679849E-01  0.00000000000E+00 0. -1.
     999901    1    3    3    0    0 -0.89759711655E-01  0.34523579078E-01  0.84987268124E-01  0.88930957438E+00  0.88000000000E+00 0.  1.
        -11    1    4    4    0    0  0.75206828585E-01 -0.84351069004E-02 -0.82098579927E-01  0.11165865860E+00  0.51100000000E-03 0. -1.
         11    1    4    4    0    0  0.75207422966E-02 -0.74573755721E-02 -0.15945294073E-01  0.19149087163E-01  0.51100000000E-03 0.  1.
</event>
<event>
 8    1  0.1267474E+005  0.1043930E+01  0.7957747E-01            NaN
         13   -1    0    0    0    0  0.00000000000E+00  0.00000000000E+00  0.74505805969E-08  0.10566000000E+00  0.10566000000E+00 0. -1.
     999900   -1    0    0    0    0 -0.00000000000E+00 -0.00000000000E+00 -0.74505805969E-08  0.93827000000E+00  0.93827000000E+00 0.  1.
     999902    2    1    2    0    0  0.42419839412E-02  0.19846298791E-01  0.12106613085E-01  0.10202986631E+01  0.10200249614E+01 0.  0.
     999903    2    3    3    0    0  0.56473215078E-01 -0.18603938424E-01  0.11593457516E+00  0.13182425831E+00  0.20036936267E-01 0.  0.
         14    1    1    2    0    0 -0.42419839412E-02 -0.19846298791E-01 -0.12106613085E-01  0.23631336904E-01  0.00000000000E+00 0.  1.
     999901    1    3    3    0    0 -0.52231231137E-01  0.38450237216E-01 -0.10382796208E+00  0.88847440478E+00  0.88000000000E+00 0. -1.
        -11    1    4    4    0    0  0.13954336084E-01 -0.78504675392E-02  0.51062415575E-01  0.53516210081E-01  0.51100000000E-03 0.  1.
         11    1    4    4    0    0  0.42518878994E-01 -0.10753470885E-01  0.64872159589E-01  0.78308048231E-01  0.51100000000E-03 0. -1.
</event>
<event>
 8    1  0.1131376E+005  0.1043930E+01  0.7957747E-01            NaN
         13   -1    0    0    0    0  0.00000000000E+00  0.00000000000E+00  0.74505805969E-08  0.10566000000E+00  0.10566000000E+00 0.  1.
     999900   -1    0    0    0    0 -0.00000000000E+00 -0.00000000000E+00 -0.74505805969E-08  0.93827000000E+00  0.93827000000E+00 0.  1.
     999902    2    1    2    0    0  0.21021742914E-01  0.90629844549E-02  0.63397658442E-02  0.10201761794E+01  0.10198995995E+01 0.  0.
     999903    2    3    3    0    0 -0.54602587702E-01 -0.86106272364E-01  0.76555217903E-01  0.12904968078E+00  0.19934542812E-01 0.  0.
         14    1    1    2    0    0 -0.21021742914E-01 -0.90629844549E-02 -0.63397658442E-02  0.23753820605E-01  0.00000000000E+00 0. -1.
     999901    1    3    3    0    0  0.75624330616E-01  0.95169256819E-01 -0.70215452059E-01  0.89112649861E+00  0.88000000000E+00 0.  1.
        -11    1    4    4    0    0 -0.48948117400E-01 -0.62771295242E-01  0.62650553189E-01  0.10129909496E+00  0.51100000000E-03 0.  1.
         11    1    4    4    0    0 -0.56544703017E-02 -0.23334977122E-01  0.13904664714E-01  0.27750585823E-01  0.51100000000E-03 0. -1.
</event>
<event>
 8    1  0.1131376E+005  0.1043930E+01  0.7957747E-01            NaN
         13   -1    0    0    0    0  0.00000000000E+00  0.00000000000E+00  0.74505805969E-08  0.10566000000E+00  0.10566000000E+00 0. -1.
     999900   -1    0    0    0    0 -0.00000000000E+00 -0.00000000000E+00 -0.74505805969E-08  0.93827000000E+00  0.93827000000E+00 0. -1.
     999902    2    1    2    0    0 -0.19070464332E-01 -0.52265881495E-02 -0.14080423686E-01  0.10196553596E+01  0.10193663690E+01 0.  0.
     999903    2    3    3    0    0  0.11120026366E+00  0.11710961632E-02 -0.61753222240E-01  0.12876586668E+00  0.20007944939E-01 0.  0.
         14    1    1    2    0    0  0.19070464332E-01  0.52265881495E-02  0.14080423686E-01  0.24274640362E-01  0.00000000000E+00 0. -1.
     999901    1    3    3    0    0 -0.13027072799E+00 -0.63976843127E-02  0.47672798553E-01  0.89088949296E+00  0.88000000000E+00 0.  1.
        -11    1    4    4    0    0  0.88626854230E-01  0.87924696956E-02 -0.50873949065E-01  0.10256922847E+00  0.51100000000E-03 0. -1.
         11    1    4    4    0    0  0.22573409432E-01 -0.76213735324E-02 -0.10879273174E-01  0.26196638214E-01  0.51100000000E-03 0.  1.
</event>
<event>
 8    1  0.1131376E+005  0.1043930E+01  0.7957747E-01            NaN
         13   -1    0    0    0    0  0.00000000000E+00  0.00000000000E+00  0.74505805969E-08  0.10566000000E+00  0.10566000000E+00 0.  1.
     999900   -1    0    0    0    0 -0.00000000000E+00 -0.00000000000E+00 -0.74505805969E-08  0.93827000000E+00  0.93827000000E+00 0. -1.
     999902    2    1    2    0    0 -0.18065178845E-01  0.80977693776E-02 -0.14232241715E-01  0.10195480136E+01  0.10192564304E+01 0.  0.
     999903    2    3    3    0    0  0.29093938012E-01  0.12187962278E+00 -0.31800089634E-01  0.13079668634E+00  0.19885365893E-01 0.  0.
         14    1    1    2    0    0  0.18065178845E-01 -0.80977693776E-02  0.14232241715E-01  0.24381986380E-01  0.00000000000E+00 0.  1.
     999901    1    3    3    0    0 -0.47159116858E-01 -0.11378185341E+00  0.17567847919E-01  0.88875132728E+00  0.88000000000E+00 0. -1.
        -11    1    4    4    0    0  0.10170690946E-01  0.71474473863E-01 -0.25588925084E-01  0.76596981509E-01  0.51100000000E-03 0. -1.
         11    1    4    4    0    0  0.18923247066E-01  0.50405148921E-01 -0.62111645502E-02  0.54199704827E-01  0.51100000000E-03 0.  1.
</event>
<event>
 8    1  0.1131376E+005  0.1043930E+01  0.7957747E-01            NaN
         13   -1    0    0    0    0  0.00000000000E+00  0.00000000000E+00  0.74505805969E-08  0.10566000000E+00  0.10566000000E+00 0. -1.
     999900   -1    0    0    0    0 -0.00000000000E+00 -0.00000000000E+00 -0.74505805969E-08  0.93827000000E+00  0.93827000000E+00 0. -1.
     999902    2    1    2    0    0 -0.23573114833E-01 -0.72864980806E-02  0.21270262486E-02  0.10191649230E+01  0.10188639906E+01 0.  0.
     999903    2    3    3    0    0 -0.96305968142E-01 -0.42804328470E-01 -0.76898329662E-01  0.13192392357E+00  0.19583627591E-01 0.  0.
         14    1    1    2    0    0  0.23573114833E-01  0.72864980806E-02 -0.21270262486E-02  0.24765076981E-01  0.00000000000E+00 0. -1.
     999901    1    3    3    0    0  0.72732853309E-01  0.35517830390E-01  0.79025355911E-01  0.88724099945E+00  0.88000000000E+00 0.  1.
        -11    1    4    4    0    0 -0.82211580649E-01 -0.31204946242E-01 -0.56386971482E-01  0.10446168837E+00  0.51100000000E-03 0.  1.
         11    1    4    4    0    0 -0.14094387494E-01 -0.11599382228E-01 -0.20511358181E-01  0.27462235202E-01  0.51100000000E-03 0. -1.
</event>
<event>
 8    1  0.1131376E+005  0.1043930E+01  0.7957747E-01            NaN
         13   -1    0    0    0    0  0.00000000000E+00  0.00000000000E+00  0.74505805969E-08  0.10566000000E+00  0.10566000000E+00 0.  1.
     999900   -1    0    0    0    0 -0.00000000000E+00 -0.00000000000E+00 -0.74505805969E-08  0.93827000000E+00  0.93827000000E+00 0. -1.
     999902    2    1    2    0    0 -0.17880326742E-01  0.98745898497E-02  0.14847588883E-01  0.10186779802E+01  0.10183649458E+01 0.  0.
     999903    2    3    3    0    0 -0.95636234716E-01  0.87929879510E-01  0.92818388740E-02  0.13179039597E+00  0.20114741723E-01 0.  0.
         14    1    1    2    0    0  0.17880326742E-01 -0.98745898497E-02 -0.14847588883E-01  0.25252019815E-01  0.00000000000E+00 0. -1.
     999901    1    3    3    0    0  0.77755907974E-01 -0.78055289661E-01  0.55657500091E-02  0.88688758422E+00  0.88000000000E+00 0.  1.
        -11    1    4    4    0    0 -0.47808470603E-01  0.30459330276E-01  0.35373188818E-02  0.56799598662E-01  0.51100000000E-03 0. -1.
         11    1    4    4    0    0 -0.47827764112E-01  0.57470549234E-01  0.57445199922E-02  0.74990797304E-01  0.51100000000E-03 0.  1.
</event>
<event>
 8    1  0.1131376E+005  0.1043930E+01  0.7957747E-01            NaN
         13   -1    0    0    0    0  0.00000000000E+00  0.00000000000E+00  0.74505805969E-08  0.10566000000E+00  0.10566000000E+00 0. -1.
     999900   -1    0    0    0    0 -0.00000000000E+00 -0.00000000000E+00 -0.74505805969E-08  0.93827000000E+00  0.93827000000E+00 0.  1.
     999902    2    1    2    0    0 -0.93645072484E-03  0.21218888430E-01 -0.10293072670E-01  0.10203277647E+01  0.10200547446E+01 0.  0.
     999903    2    3    3    0    0 -0.25324416541E-01 -0.84377244049E-01 -0.93174433909E-01  0.12981407244E+00  0.20232965217E-01 0.  0.
         14    1    1    2    0    0  0.93645072484E-03 -0.21218888430E-01  0.10293072670E-01  0.23602235300E-01  0.00000000000E+00 0. -1.
     999901    1    3    3    0    0  0.24387965816E-01  0.10559613248E+00  0.82881361240E-01  0.89051369227E+00  0.88000000000E+00 0. -1.
        -11    1    4    4    0    0 -0.24590438947E-01 -0.47912902434E-01 -0.53283368772E-01  0.75760902951E-01  0.51100000000E-03 0. -1.
         11    1    4    4    0    0 -0.73397759441E-03 -0.36464341615E-01 -0.39891065137E-01  0.54053169484E-01  0.51100000000E-03 0.  1.
</event>
<event>
 8    1  0.1131376E+005  0.1043930E+01  0.7957747E-01            NaN
         13   -1    0    0    0    0  0.00000000000E+00  0.00000000000E+00  0.74505805969E-08  0.10566000000E+00  0.10566000000E+00 0.  1.
     999900   -1    0    0    0    0 -0.00000000000E+00 -0.00000000000E+00 -0.74505805969E-08  0.93827000000E+00  0.93827000000E+00 0. -1.
     999902    2    1    2    0    0  0.73956116984E-02  0.17695576797E-01  0.14326013604E-01  0.10199912620E+01  0.10197103076E+01 0.  0.
     999903    2    3    3    0    0  0.10309013012E+00 -0.75586060940E-01 -0.92019951829E-02  0.12959108682E+00  0.19192329964E-01 0.  0.
         14    1    1    2    0    0 -0.73956116984E-02 -0.17695576797E-01 -0.14326013604E-01  0.23938737986E-01  0.00000000000E+00 0. -1.
     999901    1    3    3    0    0 -0.95694518425E-01  0.93281637737E-01  0.23528008787E-01  0.89040017520E+00  0.88000000000E+00 0.  1.
        -11    1    4    4    0    0  0.47994168017E-02 -0.96769243474E-02 -0.22327363597E-02  0.11041897442E-01  0.51100000000E-03 0.  1.
         11    1    4    4    0    0  0.98290713322E-01 -0.65909136593E-01 -0.69692588232E-02  0.11854918937E+00  0.51100000000E-03 0. -1.
</event>
<event>
 8    1  0.1131376E+005  0.1043930E+01  0.7957747E-01            NaN
         13   -1    0    0    0    0  0.00000000000E+00  0.00000000000E+00  0.74505805969E-08  0.10566000000E+00  0.10566000000E+00 0.  1.
     999900   -1    0    0    0    0 -0.00000000000E+00 -0.00000000000E+00 -0.74505805969E-08  0.93827000000E+00  0.93827000000E+00 0.  1.
     999902    2    1    2    0    0  0.38698245902E-02  0.23312150390E-01  0.26306365729E-02  0.10201528650E+01  0.10198757355E+01 0.  0.
     999903    2    3    3    0    0 -0.98120857382E-01 -0.42710420475E-01 -0.69039690702E-01  0.12891904898E+00  0.20043942414E-01 0.  0.
         14    1    1    2    0    0 -0.38698245902E-02 -0.23312150390E-01 -0.26306365729E-02  0.23777134961E-01  0.00000000000E+00 0. -1.
     999901    1    3    3    0    0  0.10199068197E+00  0.66022570865E-01  0.71670327275E-01  0.89123381606E+00  0.88000000000E+00 0. -1.
        -11    1    4    4    0    0 -0.53076688386E-01 -0.33275846334E-01 -0.35894642125E-01  0.72201823062E-01  0.51100000000E-03 0. -1.
         11    1    4    4    0    0 -0.45044168996E-01 -0.94345741413E-02 -0.33145048577E-01  0.56717225919E-01  0.51100000000E-03 0.  1.
</event>
<event>
 8    1  0.1131376E+005  0.1043930E+01  0.7957747E-01            NaN
         13   -1    0    0    0    0  0.00000000000E+00  0.00000000000E+00  0.74505805969E-08  0.10566000000E+00  0.10566000000E+00 0.  1.
     999900   -1    0    0    0    0 -0.00000000000E+00 -0.00000000000E+00 -0.74505805969E-08  0.93827000000E+00  0.93827000000E+00 0. -1.
     999902    2    1    2    0    0 -0.51171836036E-03  0.22906015046E-01  0.50553009929E-02  0.10204671901E+01  0.10201974233E+01 0.  0.
     999903    2    3    3    0    0  0.20783997183E-01 -0.85377124126E-01 -0.90831246712E-01  0.12840610711E+00  0.22728508544E-01 0.  0.
         14    1    1    2    0    0  0.51171836036E-03 -0.22906015046E-01 -0.50553009929E-02  0.23462809915E-01  0.00000000000E+00 0.  1.
     999901    1    3    3    0    0 -0.21295715543E-01  0.10828313917E+00  0.95886547705E-01  0.89206108298E+00  0.88000000000E+00 0.  1.
        -11    1    4    4    0    0  0.84883366135E-02 -0.96077944116E-02 -0.21130539167E-01  0.24720889515E-01  0.51100000000E-03 0.  1.
         11    1    4    4    0    0  0.12295660569E-01 -0.75769329714E-01 -0.69700707546E-01  0.10368521759E+00  0.51100000000E-03 0. -1.
</event>
<event>
 8    1  0.1131376E+005  0.1043930E+01  0.7957747E-01            NaN
         13   -1    0    0    0    0  0.00000000000E+00  0.00000000000E+00  0.74505805969E-08  0.10566000000E+00  0.10566000000E+00 0. -1.
     999900   -1    0    0    0    0 -0.00000000000E+00 -0.00000000000E+00 -0.74505805969E-08  0.93827000000E+00  0.93827000000E+00 0.  1.
     999902    2    1    2    0    0  0.31782900230E-02  0.11579440827E-01  0.20543598862E-01  0.10201345292E+01  0.10198569670E+01 0.  0.
     999903    2    3    3    0    0  0.71276008659E-01  0.93656477921E-01  0.58352820931E-01  0.13288964947E+00  0.20069926714E-01 0.  0.
         14    1    1    2    0    0 -0.31782900230E-02 -0.11579440827E-01 -0.20543598862E-01  0.23795470820E-01  0.00000000000E+00 0.  1.
     999901    1    3    3    0    0 -0.68097718636E-01 -0.82077037094E-01 -0.37809222068E-01  0.88724487971E+00  0.88000000000E+00 0. -1.
        -11    1    4    4    0    0  0.41870304276E-01  0.48829578323E-01  0.42059022948E-01  0.76854880338E-01  0.51100000000E-03 0. -1.
         11    1    4    4    0    0  0.29405704383E-01  0.44826899597E-01  0.16293797982E-01  0.56034769130E-01  0.51100000000E-03 0.  1.
</event>
<event>
 8    1  0.1131376E+005  0.1043930E+01  0.7957747E-01            NaN
         13   -1    0    0    0    0  0.00000000000E+00  0.00000000000E+00  0.74505805969E-08  0.10566000000E+00  0.10566000000E+00 0.  1.
     999900   -1    0    0    0    0 -0.00000000000E+00 -0.00000000000E+00 -0.74505805969E-08  0.93827000000E+00  0.93827000000E+00 0. -1.
     999902    2    1    2    0    0 -0.25097201305E-02 -0.81559980231E-02 -0.21948015989E-01  0.10203814458E+01  0.10201096806E+01 0.  0.
     999903    2    3    3    0    0 -0.55745654292E-01 -0.90790473130E-01  0.70777777424E-01  0.13006656110E+00  0.23607807089E-01 0.  0.
         14    1    1    2    0    0  0.25097201305E-02  0.81559980231E-02  0.21948015989E-01  0.23548554197E-01  0.00000000000E+00 0.  1.
     999901    1    3    3    0    0  0.53235934161E-01  0.82634475107E-01 -0.92725793413E-01  0.89031488470E+00  0.88000000000E+00 0.  1.
        -11    1    4    4    0    0 -0.45467382867E-01 -0.55810750225E-01  0.40025394737E-01  0.82367566981E-01  0.51100000000E-03 0. -1.
         11    1    4    4    0    0 -0.10278271424E-01 -0.34979722905E-01  0.30752382687E-01  0.47698994118E-01  0.51100000000E-03 0.  1.
</event>
<event>
 8    1  0.1131376E+005  0.1043930E+01  0.7957747E-01            NaN
         13   -1    0    0    0    0  0.00000000000E+00  0.00000000000E+00  0.74505805969E-08  0.10566000000E+00  0.10566000000E+00 0. -1.
     999900   -1    0    0    0    0 -0.00000000000E+00 -0.00000000000E+00 -0.74505805969E-08  0.93827000000E+00  0.93827000000E+00 0.  1.
     999902    2    1    2    0    0  0.21547239212E-02  0.14895390129E-01  0.18353573341E-01  0.10201946016E+01  0.10199184556E+01 0.  0.
     999903    2    3    3    0    0  0.10103696205E+00  0.51749499077E-01  0.64200451069E-01  0.13270496305E+00  0.24544468711E-01 0.  0.
         14    1    1    2    0    0 -0.21547239212E-02 -0.14895390129E-01 -0.18353573341E-01  0.23735398389E-01  0.00000000000E+00 0.  1.
     999901    1    3    3    0    0 -0.98882238130E-01 -0.36854108947E-01 -0.45846877728E-01  0.88748963857E+00  0.88000000000E+00 0.  1.
        -11    1    4    4    0    0  0.19638925744E-01  0.37879227870E-02  0.32438968786E-02  0.20268688941E-01  0.51100000000E-03 0. -1.
         11    1    4    4    0    0  0.81398036307E-01  0.47961576290E-01  0.60956554191E-01  0.11243627411E+00  0.51100000000E-03 0.  1.
</event>
<event>
 8    1  0.1131376E+005  0.1043930E+01  0.7957747E-01            NaN
         13   -1    0    0    0    0  0.00000000000E+00  0.00000000000E+00  0.74505805969E-08  0.10566000000E+00  0.10566000000E+00 0. -1.
     999900   -1    0    0    0    0 -0.00000000000E+00 -0.00000000000E+00 -0.74505805969E-08  0.93827000000E+00  0.93827000000E+00 0. -1.
     999902    2    1    2    0    0  0.16809012280E-01 -0.16605565241E-01  0.13730792834E-02  0.10202620251E+01  0.10199874640E+01 0.  0.
     999903    2    3    3    0    0 -0.45332048797E-01 -0.67897882448E-01 -0.10026415359E+00  0.13075511650E+00  0.19464914743E-01 0.  0.
         14    1    1    2    0    0 -0.16809012280E-01  0.16605565241E-01 -0.13730792834E-02  0.23667974935E-01  0.00000000000E+00 0. -1.
     999901    1    3    3    0    0  0.62141061078E-01  0.51292317207E-01  0.10163723288E+00  0.88950690856E+00  0.88000000000E+00 0.  1.
        -11    1    4    4    0    0 -0.27505117205E-01 -0.24266015994E-01 -0.40580776792E-01  0.54703122130E-01  0.51100000000E-03 0.  1.
         11    1    4    4    0    0 -0.17826931593E-01 -0.43631866454E-01 -0.59683376803E-01  0.76051994371E-01  0.51100000000E-03 0. -1.
</event>
<event>
 8    1  0.1131376E+005  0.1043930E+01  0.7957747E-01            NaN
         13   -1    0    0    0    0  0.00000000000E+00  0.00000000000E+00  0.74505805969E-08  0.10566000000E+00  0.10566000000E+00 0. -1.
     999900   -1    0    0    0    0 -0.00000000000E+00 -0.00000000000E+00 -0.74505805969E-08  0.93827000000E+00  0.93827000000E+00 0.  1.
     999902    2    1    2    0    0  0.12392898404E-01 -0.72652565622E-02 -0.11687783634E-01  0.10254104922E+01  0.10252432420E+01 0.  0.
     999903    2    3    3    0    0 -0.14604244139E-01 -0.13181421503E+00  0.18315051337E-01  0.13572433466E+00  0.22302078001E-01 0.  0.
         14    1    1    2    0    0 -0.12392898404E-01  0.72652565622E-02  0.11687783634E-01  0.18519507824E-01  0.00000000000E+00 0. -1.
     999901    1    3    3    0    0  0.26997142543E-01  0.12454895847E+00 -0.30002834972E-01  0.88968615751E+00  0.88000000000E+00 0.  1.
        -11    1    4    4    0    0 -0.10181538824E-01 -0.56707894157E-01  0.18408153522E-01  0.60486116007E-01  0.51100000000E-03 0. -1.
         11    1    4    4    0    0 -0.44227053154E-02 -0.75106320875E-01 -0.93102184418E-04  0.75238218657E-01  0.51100000000E-03 0.  1.
</event>
<event>
 8    1  0.1131376E+005  0.1043930E+01  0.7957747E-01            NaN
         13   -1    0    0    0    0  0.00000000000E+00  0.00000000000E+00  0.74505805969E-08  0.10566000000E+00  0.10566000000E+00 0. -1.
     999900   -1    0    0    0    0 -0.00000000000E+00 -0.00000000000E+00 -0.74505805969E-08  0.93827000000E+00  0.93827000000E+00 0. -1.
     999902    2    1    2    0    0  0.32785084951E-02 -0.12168640640E-01 -0.20027161717E-01  0.10202675479E+01  0.10199931165E+01 0.  0.
     999903    2    3    3    0    0  0.17559708533E-01 -0.12974460689E-01  0.12486769447E+00  0.12830391559E+00  0.19831128007E-01 0.  0.
         14    1    1    2    0    0 -0.32785084951E-02  0.12168640640E-01  0.20027161717E-01  0.23662452100E-01  0.00000000000E+00 0. -1.
     999901    1    3    3    0    0 -0.14281200038E-01  0.80582004895E-03 -0.14489485619E+00  0.89196363231E+00  0.88000000000E+00 0. -1.
        -11    1    4    4    0    0  0.83422606484E-04 -0.11913833880E-01  0.46811247718E-01  0.48306318748E-01  0.51100000000E-03 0. -1.
         11    1    4    4    0    0  0.17476285927E-01 -0.10606268082E-02  0.78056446754E-01  0.79997596838E-01  0.51100000000E-03 0.  1.
</event>
<event>
 8    1  0.1131376E+005  0.1043930E+01  0.7957747E-01            NaN
         13   -1    0    0    0    0  0.00000000000E+00  0.00000000000E+00  0.74505805969E-08  0.10566000000E+00  0.10566000000E+00 0. -1.
     999900   -1    0    0    0    0 -0.00000000000E+00 -0.00000000000E+00 -0.74505805969E-08  0.93827000000E+00  0.93827000000E+00 0.  1.
     999902    2    1    2    0    0  0.10622066741E-01  0.12963594078E-01 -0.15949503060E-01  0.10207941032E+01  0.10205318865E+01 0.  0.
     999903    2    3    3    0    0  0.88578215710E-01  0.87551438884E-02  0.93480036034E-01  0.13058643290E+00  0.19787533408E-01 0.  0.
         14    1    1    2    0    0 -0.10622066741E-01 -0.12963594078E-01  0.15949503060E-01  0.23135896809E-01  0.00000000000E+00 0.  1.
     999901    1    3    3    0    0 -0.77956148969E-01  0.42084501899E-02 -0.10942953909E+00  0.89020767029E+00  0.88000000000E+00 0.  1.
        -11    1    4    4    0    0  0.82704943587E-01  0.42388127007E-02  0.79721632527E-01  0.11495162044E+00  0.51100000000E-03 0. -1.
         11    1    4    4    0    0  0.58732721226E-02  0.45163311877E-02  0.13758403507E-01  0.15634812467E-01  0.51100000000E-03 0.  1.
</event>
<event>
 8    1  0.1131376E+005  0.1043930E+01  0.7957747E-01            NaN
         13   -1    0    0    0    0  0.00000000000E+00  0.00000000000E+00  0.74505805969E-08  0.10566000000E+00  0.10566000000E+00 0. -1.
     999900   -1    0    0    0    0 -0.00000000000E+00 -0.00000000000E+00 -0.74505805969E-08  0.93827000000E+00  0.93827000000E+00 0.  1.
     999902    2    1    2    0    0 -0.22741614312E-01  0.91030380859E-02 -0.12622752986E-02  0.10194016559E+01  0.10191065187E+01 0.  0.
     999903    2    3    3    0    0 -0.53677002598E-01  0.10512175828E+00 -0.54803351872E-01  0.13202166981E+00  0.22237563975E-01 0.  0.
         14    1    1    2    0    0  0.22741614312E-01 -0.91030380859E-02  0.12622752986E-02  0.24528344071E-01  0.00000000000E+00 0. -1.
     999901    1    3    3    0    0  0.30935388286E-01 -0.96018720198E-01  0.53541076573E-01  0.88737998612E+00  0.88000000000E+00 0. -1.
        -11    1    4    4    0    0 -0.41545896381E-01  0.59649185254E-01 -0.28308974386E-01  0.78011191244E-01  0.51100000000E-03 0.  1.
         11    1    4    4    0    0 -0.12131106217E-01  0.45472573030E-01 -0.26494377486E-01  0.54010478570E-01  0.51100000000E-03 0. -1.
</event>
<event>
 8    1  0.1131376E+005  0.1043930E+01  0.7957747E-01            NaN
         13   -1    0    0    0    0  0.00000000000E+00  0.00000000000E+00  0.74505805969E-08  0.10566000000E+00  0.10566000000E+00 0. -1.
     999900   -1    0    0    0    0 -0.00000000000E+00 -0.00000000000E+00 -0.74505805969E-08  0.93827000000E+00  0.93827000000E+00 0.  1.
     999902    2    1    2    0    0  0.15016263943E-01 -0.13316021409E-01 -0.12452147947E-01  0.10203109273E+01  0.10200375129E+01 0.  0.
     999903    2    3    3    0    0  0.14012599093E-01  0.10863847199E-01 -0.12951438170E+00  0.13222915176E+00  0.19904707980E-01 0.  0.
         14    1    1    2    0    0 -0.15016263943E-01  0.13316021409E-01  0.12452147947E-01  0.23619072748E-01  0.00000000000E+00 0. -1.
     999901    1    3    3    0    0  0.10036648497E-02 -0.24179868608E-01  0.11706223375E+00  0.88808177549E+00  0.88000000000E+00 0. -1.
        -11    1    4    4    0    0  0.67381879067E-02  0.16059035132E-01 -0.94178276517E-01  0.95776326273E-01  0.51100000000E-03 0.  1.
         11    1    4    4    0    0  0.72744111867E-02 -0.51951879331E-02 -0.35336105180E-01  0.36452825488E-01  0.51100000000E-03 0. -1.
</event>
<event>
 8    1  0.1131376E+005  0.1043930E+01  0.7957747E-01            NaN
         13   -1    0    0    0    0  0.00000000000E+00  0.00000000000E+00  0.74505805969E-08  0.10566000000E+00  0.10566000000E+00 0.  1.
     999900   -1    0    0    0    0 -0.00000000000E+00 -0.00000000000E+00 -0.74505805969E-08  0.93827000000E+00  0.93827000000E+00 0.  1.
     999902    2    1    2    0    0  0.10771827853E-01  0.79846313487E-02 -0.18863276457E-01  0.10207867545E+01  0.10205243693E+01 0.  0.
     999903    2    3    3    0    0  0.78041696894E-01  0.10022438393E+00 -0.35846831993E-01  0.13324979844E+00  0.18305185897E-01 0.  0.
         14    1    1    2    0    0 -0.10771827853E-01 -0.79846313487E-02  0.18863276457E-01  0.23143245489E-01  0.00000000000E+00 0.  1.
     999901    1    3    3    0    0 -0.67269869041E-01 -0.92239752585E-01  0.16983555537E-01  0.88753695607E+00  0.88000000000E+00 0. -1.
        -11    1    4    4    0    0  0.17378118124E-01  0.13255356378E-01 -0.10357545039E-01  0.24191802795E-01  0.51100000000E-03 0. -1.
         11    1    4    4    0    0  0.60663578770E-01  0.86969027555E-01 -0.25489286954E-01  0.10905799564E+00  0.51100000000E-03 0.  1.
</event>
<event>
 8    1  0.1131376E+005  0.1043930E+01  0.7957747E-01            NaN
         13   -1    0    0    0    0  0.00000000000E+00  0.00000000000E+00  0.74505805969E-08  0.10566000000E+00  0.10566000000E+00 0. -1.
     999900   -1    0    0    0    0 -0.00000000000E+00 -0.00000000000E+00 -0.74505805969E-08  0.93827000000E+00  0.93827000000E+00 0. -1.
     999902    2    1    2    0    0  0.17855461149E-02  0.17185603760E-01 -0.16756991651E-01  0.10198607266E+01  0.10195766630E+01 0.  0.
     999903    2    3    3    0    0  0.48981388378E-01 -0.10125877898E+00 -0.61512295054E-01  0.12954642453E+00  0.18600992967E-01 0.  0.
         14    1    1    2    0    0 -0.17855461149E-02 -0.17185603760E-01  0.16756991651E-01  0.24069273373E-01  0.00000000000E+00 0. -1.
     999901    1    3    3    0    0 -0.47195842263E-01  0.11844438274E+00  0.44755303403E-01  0.89031430209E+00  0.88000000000E+00 0. -1.
        -11    1    4    4    0    0  0.12629449855E-01 -0.23527395686E-01 -0.60938806242E-02  0.27394120783E-01  0.51100000000E-03 0. -1.
         11    1    4    4    0    0  0.36351938523E-01 -0.77731383291E-01 -0.55418414430E-01  0.10215230375E+00  0.51100000000E-03 0.  1.
</event>
<event>
 8    1  0.1131376E+005  0.1043930E+01  0.7957747E-01            NaN
         13   -1    0    0    0    0  0.00000000000E+00  0.00000000000E+00  0.74505805969E-08  0.10566000000E+00  0.10566000000E+00 0.  1.
     999900   -1    0    0    0    0 -0.00000000000E+00 -0.00000000000E+00 -0.74505805969E-08  0.93827000000E+00  0.93827000000E+00 0.  1.
     999902    2    1    2    0    0 -0.77634838968E-02 -0.19140044071E-01 -0.13039889882E-01  0.10195035451E+01  0.10192108844E+01 0.  0.
     999903    2    3    3    0    0  0.34833409225E-01  0.41676772448E-01 -0.11721959884E+00  0.13025296614E+00  0.16585568307E-01 0.  0.
         14    1    1    2    0    0  0.77634838968E-02  0.19140044071E-01  0.13039889882E-01  0.24426454868E-01  0.00000000000E+00 0. -1.
     999901    1    3    3    0    0 -0.42596893122E-01 -0.60816816519E-01  0.10417970896E+00  0.88925057899E+00  0.88000000000E+00 0. -1.
        -11    1    4    4    0    0  0.18776065485E-01  0.30975641658E-01 -0.62642733359E-01  0.72363002805E-01  0.51100000000E-03 0.  1.
         11    1    4    4    0    0  0.16057343740E-01  0.10701130789E-01 -0.54576865484E-01  0.57889963338E-01  0.51100000000E-03 0. -1.
</event>
<event>
 8    1  0.1131376E+005  0.1043930E+01  0.7957747E-01            NaN
         13   -1    0    0    0    0  0.00000000000E+00  0.00000000000E+00  0.74505805969E-08  0.10566000000E+00  0.10566000000E+00 0. -1.
     999900   -1    0    0    0    0 -0.00000000000E+00 -0.00000000000E+00 -0.74505805969E-08  0.93827000000E+00  0.93827000000E+00 0.  1.
     999902    2    1    2    0    0  0.13928867478E-01 -0.15857454167E-01 -0.56152540504E-02  0.10220895952E+01  0.10218562215E+01 0.  0.
     999903    2    3    3    0    0 -0.48344509718E-01  0.53437500548E-01  0.10653036904E+00  0.13009385252E+00  0.19568670142E-01 0.  0.
         14    1    1    2    0    0 -0.13928867478E-01  0.15857454167E-01  0.56152540504E-02  0.21840404757E-01  0.00000000000E+00 0. -1.
     999901    1    3    3    0    0  0.62273377197E-01 -0.69294954715E-01 -0.11214562309E+00  0.89199574272E+00  0.88000000000E+00 0.  1.
        -11    1    4    4    0    0 -0.39435966265E-01  0.50800604434E-01  0.99312204074E-01  0.11831767343E+00  0.51100000000E-03 0.  1.
         11    1    4    4    0    0 -0.89085434529E-02  0.26368961139E-02  0.72181649665E-02  0.11776179094E-01  0.51100000000E-03 0. -1.
</event>
<event>
 8    1  0.1131376E+005  0.1043930E+01  0.7957747E-01            NaN
         13   -1    0    0    0    0  0.00000000000E+00  0.00000000000E+00  0.74505805969E-08  0.10566000000E+00  0.10566000000E+00 0.  1.
     999900   -1    0    0    0    0 -0.00000000000E+00 -0.00000000000E+00 -0.74505805969E-08  0.93827000000E+00  0.93827000000E+00 0.  1.
     999902    2    1    2    0    0 -0.17068703831E-01 -0.15669493779E-01 -0.13163232316E-02  0.10207221050E+01  0.10204582349E+01 0.  0.
     999903    2    3    3    0    0  0.11624543509E+00  0.49353284195E-01 -0.10756615533E-01  0.12825936600E+00  0.19647196992E-01 0.  0.
         14    1    1    2    0    0  0.17068703831E-01  0.15669493779E-01  0.13163232316E-02  0.23207895049E-01  0.00000000000E+00 0.  1.
     999901    1    3    3    0    0 -0.13331413892E+00 -0.65022777974E-01  0.94402923014E-02  0.89246273895E+00  0.88000000000E+00 0.  1.
        -11    1    4    4    0    0  0.41406556896E-01  0.17879204894E-01  0.55614471525E-02  0.45446229074E-01  0.51100000000E-03 0.  1.
         11    1    4    4    0    0  0.74838878194E-01  0.31474079301E-01 -0.16318062685E-01  0.82813136929E-01  0.51100000000E-03 0. -1.
</event>
<event>
 8    1  0.1131376E+005  0.1043930E+01  0.7957747E-01            NaN
         13   -1    0    0    0    0  0.00000000000E+00  0.00000000000E+00  0.74505805969E-08  0.10566000000E+00  0.10566000000E+00 0.  1.
     999900   -1    0    0    0    0 -0.00000000000E+00 -0.00000000000E+00 -0.74505805969E-08  0.93827000000E+00  0.93827000000E+00 0.  1.
     999902    2    1    2    0    0 -0.75290957024E-03  0.12765962765E-01  0.21364572835E-01  0.10190305693E+01  0.10187263222E+01 0.  0.
     999903    2    3    3    0    0  0.56161239776E-01 -0.94351086454E-01 -0.60261601677E-01  0.12696772676E+00  0.20811790733E-01 0.  0.
         14    1    1    2    0    0  0.75290957024E-03 -0.12765962765E-01 -0.21364572835E-01  0.24899430727E-01  0.00000000000E+00 0. -1.
     999901    1    3    3    0    0 -0.56914149346E-01  0.10711704922E+00  0.81626174511E-01  0.89206284251E+00  0.88000000000E+00 0. -1.
        -11    1    4    4    0    0  0.39986268871E-01 -0.73773626724E-01 -0.54805548170E-01  0.10022653805E+00  0.51100000000E-03 0.  1.
         11    1    4    4    0    0  0.16174970906E-01 -0.20577459730E-01 -0.54560535070E-02  0.26741188710E-01  0.51100000000E-03 0. -1.
</event>
<event>
 8    1  0.1131376E+005  0.1043930E+01  0.7957747E-01            NaN
         13   -1    0    0    0    0  0.00000000000E+00  0.00000000000E+00  0.74505805969E-08  0.10566000000E+00  0.10566000000E+00 0. -1.
     999900   -1    0    0    0    0 -0.00000000000E+00 -0.00000000000E+00 -0.74505805969E-08  0.93827000000E+00  0.93827000000E+00 0.  1.
     999902    2    1    2    0    0 -0.14138906101E-01 -0.17560221195E-01  0.25405164703E-02  0.10212424647E+01  0.10209904248E+01 0.  0.
     999903    2    3    3    0    0 -0.10245392153E+00 -0.25041680636E-01 -0.78643640400E-01  0.13307222116E+00  0.19987547654E-01 0.  0.
         14    1    1    2    0    0  0.14138906101E-01  0.17560221195E-01 -0.25405164703E-02  0.22687535302E-01  0.00000000000E+00 0.  1.
     999901    1    3    3    0    0  0.88315015434E-01  0.74814594408E-02  0.81184156870E-01  0.88817024354E+00  0.88000000000E+00 0. -1.
        -11    1    4    4    0    0 -0.78834867971E-01 -0.18492091552E-01 -0.70121362506E-01  0.10711750771E+00  0.51100000000E-03 0.  1.
         11    1    4    4    0    0 -0.23619053564E-01 -0.65495890831E-02 -0.85222778934E-02  0.25954713443E-01  0.51100000000E-03 0. -1.
</event>
<event>
 8    1  0.1131376E+005  0.1043930E+01  0.7957747E-01            NaN
         13   -1    0    0    0    0  0.00000000000E+00  0.00000000000E+00  0.74505805969E-08  0.10566000000E+00  0.10566000000E+00 0.  1.
     999900   -1    0    0    0    0 -0.00000000000E+00 -0.00000000000E+00 -0.74505805969E-08  0.93827000000E+00  0.93827000000E+00 0.  1.
     999902    2    1    2    0    0  0.15156033292E-01  0.13658057701E-01  0.10329648910E-01  0.10210619102E+01  0.10208057969E+01 0.  0.
     999903    2    3    3    0    0 -0.31898040151E-01  0.79880585833E-01 -0.96547144782E-01  0.13088094089E+00  0.20250347262E-01 0.  0.
         14    1    1    2    0    0 -0.15156033292E-01 -0.13658057701E-01 -0.10329648910E-01  0.22868089818E-01  0.00000000000E+00 0. -1.
     999901    1    3    3    0    0  0.47054073443E-01 -0.66222528132E-01  0.10687679369E+00  0.89018096929E+00  0.88000000000E+00 0. -1.
        -11    1    4    4    0    0 -0.14229020520E-01  0.38487428250E-01 -0.61040272669E-01  0.73552179891E-01  0.51100000000E-03 0. -1.
         11    1    4    4    0    0 -0.17669019631E-01  0.41393157583E-01 -0.35506872113E-01  0.57328760999E-01  0.51100000000E-03 0.  1.
</event>
<event>
 8    1  0.1131376E+005  0.1043930E+01  0.7957747E-01            NaN
         13   -1    0    0    0    0  0.00000000000E+00  0.00000000000E+00  0.74505805969E-08  0.10566000000E+00  0.10566000000E+00 0. -1.
     999900   -1    0    0    0    0 -0.00000000000E+00 -0.00000000000E+00 -0.74505805969E-08  0.93827000000E+00  0.93827000000E+00 0.  1.
     999902    2    1    2    0    0 -0.17779871061E-01  0.51597317935E-02 -0.13444368752E-01  0.10210499279E+01  0.10207935431E+01 0.  0.
     999903    2    3    3    0    0 -0.39461135250E-01  0.12323671573E+00 -0.21957841912E-01  0.13285809584E+00  0.20607219871E-01 0.  0.
         14    1    1    2    0    0  0.17779871061E-01 -0.51597317935E-02  0.13444368752E-01  0.22880072078E-01  0.00000000000E+00 0. -1.
     999901    1    3    3    0    0  0.21681264189E-01 -0.11807698393E+00  0.85134731602E-02  0.88819183208E+00  0.88000000000E+00 0. -1.
        -11    1    4    4    0    0 -0.22076191714E-01  0.79577739811E-01 -0.44414778302E-02  0.82704067375E-01  0.51100000000E-03 0. -1.
         11    1    4    4    0    0 -0.17384943536E-01  0.43658975915E-01 -0.17516364082E-01  0.50154028466E-01  0.51100000000E-03 0.  1.
</event>
<event>
 8    1  0.1131376E+005  0.1043930E+01  0.7957747E-01            NaN
         13   -1    0    0    0    0  0.00000000000E+00  0.00000000000E+00  0.74505805969E-08  0.10566000000E+00  0.10566000000E+00 0.  1.
     999900   -1    0    0    0    0 -0.00000000000E+00 -0.00000000000E+00 -0.74505805969E-08  0.93827000000E+00  0.93827000000E+00 0. -1.
     999902    2    1    2    0    0  0.22408829264E-01  0.13670125400E-01  0.75215744676E-03  0.10176698839E+01  0.10173310174E+01 0.  0.
     999903    2    3    3    0    0  0.51826032766E-01 -0.19207484398E-01  0.11484391067E+00  0.12920872140E+00  0.21234517655E-01 0.  0.
         14    1    1    2    0    0 -0.22408829264E-01 -0.13670125400E-01 -0.75215744676E-03  0.26260116113E-01  0.00000000000E+00 0. -1.
     999901    1    3    3    0    0 -0.29417203502E-01  0.32877609797E-01 -0.11409175322E+00  0.88846116248E+00  0.88000000000E+00 0. -1.
        -11    1    4    4    0    0  0.26360629705E-01 -0.59479895291E-02  0.77652681936E-01  0.82222025703E-01  0.51100000000E-03 0.  1.
         11    1    4    4    0    0  0.25465403061E-01 -0.13259494869E-01  0.37191228733E-01  0.46986695701E-01  0.51100000000E-03 0. -1.
</event>
<event>
 8    1  0.1131376E+005  0.1043930E+01  0.7957747E-01            NaN
         13   -1    0    0    0    0  0.00000000000E+00  0.00000000000E+00  0.74505805969E-08  0.10566000000E+00  0.10566000000E+00 0. -1.
     999900   -1    0    0    0    0 -0.00000000000E+00 -0.00000000000E+00 -0.74505805969E-08  0.93827000000E+00  0.93827000000E+00 0.  1.
     999902    2    1    2    0    0  0.13055057198E-02  0.14272299792E-01 -0.19345223345E-01  0.10198542746E+01  0.10195700569E+01 0.  0.
     999903    2    3    3    0    0  0.73950411682E-01  0.54710946721E-01  0.88834508349E-01  0.12934014172E+00  0.19373985358E-01 0.  0.
         14    1    1    2    0    0 -0.13055057198E-02 -0.14272299792E-01  0.19345223345E-01  0.24075725385E-01  0.00000000000E+00 0. -1.
     999901    1    3    3    0    0 -0.72644905962E-01 -0.40438646929E-01 -0.10817973169E+00  0.89051413289E+00  0.88000000000E+00 0.  1.
        -11    1    4    4    0    0  0.42993755011E-01  0.39259154081E-01  0.65327313665E-01  0.87508074946E-01  0.51100000000E-03 0. -1.
         11    1    4    4    0    0  0.30956656671E-01  0.15451792640E-01  0.23507194684E-01  0.41832066779E-01  0.51100000000E-03 0.  1.
</event>
<event>
 8    1  0.1131376E+005  0.1043930E+01  0.7957747E-01            NaN
         13   -1    0    0    0    0  0.00000000000E+00  0.00000000000E+00  0.74505805969E-08  0.10566000000E+00  0.10566000000E+00 0. -1.
     999900   -1    0    0    0    0 -0.00000000000E+00 -0.00000000000E+00 -0.74505805969E-08  0.93827000000E+00  0.93827000000E+00 0. -1.
     999902    2    1    2    0    0 -0.42372087188E-02  0.15504343399E-01 -0.16595289844E-01  0.10208271377E+01  0.10205656778E+01 0.  0.
     999903    2    3    3    0    0  0.80158845478E-01 -0.18178770360E-01  0.97334940731E-01  0.12884207977E+00  0.19242729314E-01 0.  0.
         14    1    1    2    0    0  0.42372087188E-02 -0.15504343399E-01  0.16595289844E-01  0.23102862311E-01  0.00000000000E+00 0. -1.
     999901    1    3    3    0    0 -0.84396054196E-01  0.33683113759E-01 -0.11393023058E+00  0.89198505792E+00  0.88000000000E+00 0. -1.
        -11    1    4    4    0    0  0.57256440077E-01 -0.17128361239E-01  0.81107859293E-01  0.10074932580E+00  0.51100000000E-03 0.  1.
         11    1    4    4    0    0  0.22902405401E-01 -0.10504091205E-02  0.16227081438E-01  0.28092753967E-01  0.51100000000E-03 0. -1.
</event>
<event>
 8    1  0.1131376E+005  0.1043930E+01  0.7957747E-01            NaN
         13   -1    0    0    0    0  0.00000000000E+00  0.00000000000E+00  0.74505805969E-08  0.10566000000E+00  0.10566000000E+00 0.  1.
     999900   -1    0    0    0    0 -0.00000000000E+00 -0.00000000000E+00 -0.74505805969E-08  0.93827000000E+00  0.93827000000E+00 0.  1.
     999902    2    1    2    0    0 -0.93890111984E-02  0.13919204454E-01 -0.15161180245E-01  0.10213079053E+01  0.10210573334E+01 0.  0.
     999903    2    3    3    0    0 -0.22248063456E-01 -0.85684312761E-01  0.91954596182E-01  0.12914199837E+00  0.19627282096E-01 0.  0.
         14    1    1    2    0    0  0.93890111984E-02 -0.13919204454E-01  0.15161180245E-01  0.22622094738E-01  0.00000000000E+00 0.  1.
     999901    1    3    3    0    0  0.12859052257E-01  0.99603517214E-01 -0.10711577643E+00  0.89216590690E+00  0.88000000000E+00 0.  1.
        -11    1    4    4    0    0 -0.46677453480E-02 -0.26181895199E-01  0.15905056951E-01  0.30992119005E-01  0.51100000000E-03 0. -1.
         11    1    4    4    0    0 -0.17580318108E-01 -0.59502417562E-01  0.76049539231E-01  0.98149879362E-01  0.51100000000E-03 0.  1.
</event>
<event>
 8    1  0.1131376E+005  0.1043930E+01  0.7957747E-01            NaN
         13   -1    0    0    0    0  0.00000000000E+00  0.00000000000E+00  0.74505805969E-08  0.10566000000E+00  0.10566000000E+00 0.  1.
     999900   -1    0    0    0    0 -0.00000000000E+00 -0.00000000000E+00 -0.74505805969E-08  0.93827000000E+00  0.93827000000E+00 0.  1.
     999902    2    1    2    0    0  0.12165677393E-01 -0.12920835591E-02 -0.20118733942E-01  0.10203835217E+01  0.10201118050E+01 0.  0.
     999903    2    3    3    0    0 -0.11872115691E+00 -0.85068434201E-02  0.43790051247E-01  0.12838142023E+00  0.19928396522E-01 0.  0.
         14    1    1    2    0    0 -0.12165677393E-01  0.12920835591E-02  0.20118733942E-01  0.23546478330E-01  0.00000000000E+00 0.  1.
     999901    1    3    3    0    0  0.13088683430E+00  0.72147598610E-02 -0.63908785189E-01  0.89200210144E+00  0.88000000000E+00 0. -1.
        -11    1    4    4    0    0 -0.25115371922E-01 -0.86231809236E-02  0.14711316844E-01  0.30361573087E-01  0.51100000000E-03 0. -1.
         11    1    4    4    0    0 -0.93605784989E-01  0.11633750342E-03  0.29078734403E-01  0.98019847140E-01  0.51100000000E-03 0.  1.
</event>
<event>
 8    1  0.1131376E+005  0.1043930E+01  0.7957747E-01            NaN
         13   -1    0    0    0    0  0.00000000000E+00  0.00000000000E+00  0.74505805969E-08  0.10566000000E+00  0.10566000000E+00 0. -1.
     999900   -1    0    0    0    0 -0.00000000000E+00 -0.00000000000E+00 -0.74505805969E-08  0.93827000000E+00  0.93827000000E+00 0. -1.
     999902    2    1    2    0    0 -0.22687648620E-01  0.24640322634E-02  0.78162689974E-02  0.10198075019E+01  0.10195221655E+01 0.  0.
     999903    2    3    3    0    0  0.72445468572E-01 -0.30464353421E-01 -0.98708579887E-01  0.12768523895E+00  0.19588612929E-01 0.  0.
         14    1    1    2    0    0  0.22687648620E-01 -0.24640322634E-02 -0.78162689974E-02  0.24122498128E-01  0.00000000000E+00 0. -1.
     999901    1    3    3    0    0 -0.95133117193E-01  0.32928385684E-01  0.10652484888E+00  0.89212226292E+00  0.88000000000E+00 0.  1.
        -11    1    4    4    0    0  0.48523548819E-01 -0.25732076622E-01 -0.55604890200E-01  0.78159065325E-01  0.51100000000E-03 0. -1.
         11    1    4    4    0    0  0.23921919753E-01 -0.47322767995E-02 -0.43103689686E-01  0.49526173625E-01  0.51100000000E-03 0.  1.
</event>
<event>
 8    1  0.1131376E+005  0.1043930E+01  0.7957747E-01            NaN
         13   -1    0    0    0    0  0.00000000000E+00  0.00000000000E+00  0.74505805969E-08  0.10566000000E+00  0.10566000000E+00 0.  1.
     999900   -1    0    0    0    0 -0.00000000000E+00 -0.00000000000E+00 -0.74505805969E-08  0.93827000000E+00  0.93827000000E+00 0. -1.
     999902    2    1    2    0    0 -0.12542989046E-01 -0.19598492633E-01  0.38684673588E-02  0.10203420258E+01  0.10200693393E+01 0.  0.
     999903    2    3    3    0    0 -0.79233965735E-01  0.50540816685E-01 -0.88001129245E-01  0.13028178521E+00  0.19918567495E-01 0.  0.
         14    1    1    2    0    0  0.12542989046E-01  0.19598492633E-01 -0.38684673588E-02  0.23587974212E-01  0.00000000000E+00 0.  1.
     999901    1    3    3    0    0  0.66690976688E-01 -0.70139309318E-01  0.91869596604E-01  0.89006024058E+00  0.88000000000E+00 0.  1.
        -11    1    4    4    0    0 -0.42996277143E-01  0.37415160596E-01 -0.59080082883E-01  0.82093187324E-01  0.51100000000E-03 0.  1.
         11    1    4    4    0    0 -0.36237688592E-01  0.13125656089E-01 -0.28921046363E-01  0.48188597883E-01  0.51100000000E-03 0. -1.
</event>
<event>
 8    1  0.1488918E+005  0.1043930E+01  0.7957747E-01            NaN
         13   -1    0    0    0    0  0.00000000000E+00  0.00000000000E+00  0.74505805969E-08  0.10566000000E+00  0.10566000000E+00 0.  1.
     999900   -1    0    0    0    0 -0.00000000000E+00 -0.00000000000E+00 -0.74505805969E-08  0.93827000000E+00  0.93827000000E+00 0. -1.
     999902    2    1    2    0    0  0.17142133411E-01  0.10624914957E-01  0.12459283120E-01  0.10202239820E+01  0.10199485272E+01 0.  0.
     999903    2    3    3    0    0  0.92641141280E-01 -0.33071159978E-01 -0.83523271319E-01  0.13071732211E+00  0.20851828875E-01 0.  0.
         14    1    1    2    0    0 -0.17142133411E-01 -0.10624914957E-01 -0.12459283120E-01  0.23706018045E-01  0.00000000000E+00 0. -1.
     999901    1    3    3    0    0 -0.75499007869E-01  0.43696074935E-01  0.95982554438E-01  0.88950665985E+00  0.88000000000E+00 0.  1.
        -11    1    4    4    0    0  0.39041652860E-01 -0.17045545880E-01 -0.23464764528E-01  0.48638026150E-01  0.51100000000E-03 0. -1.
         11    1    4    4    0    0  0.53599488420E-01 -0.16025614098E-01 -0.60058506791E-01  0.82079295958E-01  0.51100000000E-03 0.  1.
</event>
<event>
 8    1  0.1131376E+005  0.1043930E+01  0.7957747E-01            NaN
         13   -1    0    0    0    0  0.00000000000E+00  0.00000000000E+00  0.74505805969E-08  0.10566000000E+00  0.10566000000E+00 0. -1.
     999900   -1    0    0    0    0 -0.00000000000E+00 -0.00000000000E+00 -0.74505805969E-08  0.93827000000E+00  0.93827000000E+00 0.  1.
     999902    2    1    2    0    0  0.28535762273E-02 -0.22031725688E-01  0.72733173841E-03  0.10217023405E+01  0.10214605248E+01 0.  0.
     999903    2    3    3    0    0  0.70480394638E-01  0.42799016671E-01 -0.10027232947E+00  0.13098502101E+00  0.17415332794E-01 0.  0.
         14    1    1    2    0    0 -0.28535762273E-02  0.22031725688E-01 -0.72733173841E-03  0.22227659470E-01  0.00000000000E+00 0. -1.
     999901    1    3    3    0    0 -0.67626818411E-01 -0.64830742359E-01  0.10099966121E+00  0.89071731952E+00  0.88000000000E+00 0. -1.
        -11    1    4    4    0    0  0.34278934134E-01  0.13388137301E-01 -0.35250191690E-01  0.50961992513E-01  0.51100000000E-03 0.  1.
         11    1    4    4    0    0  0.36201460505E-01  0.29410879370E-01 -0.65022137779E-01  0.80023028500E-01  0.51100000000E-03 0. -1.
</event>
<event>
 8    1  0.1131376E+005  0.1043930E+01  0.7957747E-01            NaN
         13   -1    0    0    0    0  0.00000000000E+00  0.00000000000E+00  0.74505805969E-08  0.10566000000E+00  0.10566000000E+00 0. -1.
     999900   -1    0    0    0    0 -0.00000000000E+00 -0.00000000000E+00 -0.74505805969E-08  0.93827000000E+00  0.93827000000E+00 0. -1.
     999902    2    1    2    0    0 -0.22225779691E-01  0.44843976114E-02  0.66546406807E-02  0.10202999482E+01  0.10200262766E+01 0.  0.
     999903    2    3    3    0    0 -0.34638959988E-01 -0.61796457662E-01  0.10929373283E+00  0.13177193962E+00  0.20001607598E-01 0.  0.
         14    1    1    2    0    0  0.22225779691E-01 -0.44843976114E-02 -0.66546406807E-02  0.23630051786E-01  0.00000000000E+00 0. -1.
     999901    1    3    3    0    0  0.12413180297E-01  0.66280855273E-01 -0.10263909215E+00  0.88852800860E+00  0.88000000000E+00 0. -1.
        -11    1    4    4    0    0 -0.33128460591E-01 -0.47020335111E-01  0.95557607256E-01  0.11153440833E+00  0.51100000000E-03 0.  1.
         11    1    4    4    0    0 -0.15104993969E-02 -0.14776122551E-01  0.13736125573E-01  0.20237531293E-01  0.51100000000E-03 0. -1.
</event>
<event>
 8    1  0.1144449E+005  0.1043930E+01  0.7957747E-01            NaN
         13   -1    0    0    0    0  0.00000000000E+00  0.00000000000E+00  0.74505805969E-08  0.10566000000E+00  0.10566000000E+00 0. -1.
     999900   -1    0    0    0    0 -0.00000000000E+00 -0.00000000000E+00 -0.74505805969E-08  0.93827000000E+00  0.93827000000E+00 0. -1.
     999902    2    1    2    0    0 -0.47045912758E-02  0.23029879045E-01  0.21555997240E-02  0.10203258665E+01  0.10200528019E+01 0.  0.
     999903    2    3    3    0    0  0.47416467534E-01 -0.55728287106E-04  0.11979345343E+00  0.13066963252E+00  0.21811851791E-01 0.  0.
         14    1    1    2    0    0  0.47045912758E-02 -0.23029879045E-01 -0.21555997240E-02  0.23604133496E-01  0.00000000000E+00 0.  1.
     999901    1    3    3    0    0 -0.52121058810E-01  0.23085607333E-01 -0.11763785371E+00  0.88965623398E+00  0.88000000000E+00 0. -1.
        -11    1    4    4    0    0  0.71650505589E-02  0.55970495103E-02  0.41106746090E-01  0.42103332503E-01  0.51100000000E-03 0. -1.
         11    1    4    4    0    0  0.40251416975E-01 -0.56527777974E-02  0.78686707345E-01  0.88566300020E-01  0.51100000000E-03 0.  1.
</event>
<event>
 7    1  0.1131376E+005  0.1043930E+01  0.7957747E-01            NaN
         13   -1    0    0    0    0  0.00000000000E+00  0.00000000000E+00  0.74505805969E-08  0.10566000000E+00  0.10566000000E+00 0. -1.
     999900   -1    0    0    0    0 -0.00000000000E+00 -0.00000000000E+00 -0.74505805969E-08  0.93827000000E+00  0.93827000000E+00 0.  1.
     999903    2    1    2    0    0 -0.65626428071E-01  0.12594492884E-01  0.84193090668E-01  0.10919162513E+00  0.19206383575E-01 0.  0.
         14    1    1    2    0    0  0.11143745842E-01 -0.22947757228E-01 -0.45476521030E-01  0.52143039787E-01  0.00000000000E+00 0.  1.
     999901    1    1    2    0    0  0.54482682228E-01  0.10353264344E-01 -0.38716569638E-01  0.88259533508E+00  0.88000000000E+00 0. -1.
        -11    1    3    3    0    0 -0.36017419795E-01  0.26942069330E-02  0.58508506383E-01  0.68760597146E-01  0.51100000000E-03 0. -1.
         11    1    3    3    0    0 -0.29609008276E-01  0.99002859512E-02  0.25684584285E-01  0.40431027985E-01  0.51100000000E-03 0.  1.
</event>
<event>
 8    1  0.1131376E+005  0.1043930E+01  0.7957747E-01            NaN
         13   -1    0    0    0    0  0.00000000000E+00  0.00000000000E+00  0.74505805969E-08  0.10566000000E+00  0.10566000000E+00 0. -1.
     999900   -1    0    0    0    0 -0.00000000000E+00 -0.00000000000E+00 -0.74505805969E-08  0.93827000000E+00  0.93827000000E+00 0. -1.
     999902    2    1    2    0    0 -0.50867540045E-02 -0.23246404544E-01 -0.37222641446E-02  0.10198442025E+01  0.10195597441E+01 0.  0.
     999903    2    3    3    0    0  0.18900771173E-01  0.42180841460E-01  0.11852353699E+00  0.12866511737E+00  0.19246326159E-01 0.  0.
         14    1    1    2    0    0  0.50867540045E-02  0.23246404544E-01  0.37222641446E-02  0.24085797493E-01  0.00000000000E+00 0. -1.
     999901    1    3    3    0    0 -0.23987525178E-01 -0.65427246003E-01 -0.12224580114E+00  0.89117908513E+00  0.88000000000E+00 0. -1.
        -11    1    4    4    0    0  0.41734338228E-02  0.31536798544E-01  0.78757436408E-01  0.84941050870E-01  0.51100000000E-03 0.  1.
         11    1    4    4    0    0  0.14727337351E-01  0.10644042915E-01  0.39766100583E-01  0.43724066504E-01  0.51100000000E-03 0. -1.
</event>
<event>
 8    1  0.1380513E+005  0.1043930E+01  0.7957747E-01            NaN
         13   -1    0    0    0    0  0.00000000000E+00  0.00000000000E+00  0.74505805969E-08  0.10566000000E+00  0.10566000000E+00 0. -1.
     999900   -1    0    0    0    0 -0.00000000000E+00 -0.00000000000E+00 -0.74505805969E-08  0.93827000000E+00  0.93827000000E+00 0.  1.
     999902    2    1    2    0    0  0.17330056255E-01  0.94695405391E-02  0.12661083197E-01  0.10204713966E+01  0.10202017277E+01 0.  0.
     999903    2    3    3    0    0 -0.51621195098E-01  0.21253496143E-01 -0.11428782266E+00  0.12861425476E+00  0.19064659378E-01 0.  0.
         14    1    1    2    0    0 -0.17330056255E-01 -0.94695405391E-02 -0.12661083197E-01  0.23458603444E-01  0.00000000000E+00 0.  1.
     999901    1    3    3    0    0  0.68951251353E-01 -0.11783955604E-01  0.12694890586E+00  0.89185714180E+00  0.88000000000E+00 0. -1.
        -11    1    4    4    0    0 -0.25215657006E-01  0.18493490171E-02 -0.38727684368E-01  0.46253044306E-01  0.51100000000E-03 0.  1.
         11    1    4    4    0    0 -0.26405538092E-01  0.19404147126E-01 -0.75560138293E-01  0.82361210454E-01  0.51100000000E-03 0. -1.
</event>
<event>
 8    1  0.1131376E+005  0.1043930E+01  0.7957747E-01            NaN
         13   -1    0    0    0    0  0.00000000000E+00  0.00000000000E+00  0.74505805969E-08  0.10566000000E+00  0.10566000000E+00 0. -1.
     999900   -1    0    0    0    0 -0.00000000000E+00 -0.00000000000E+00 -0.74505805969E-08  0.93827000000E+00  0.93827000000E+00 0.  1.
     999902    2    1    2    0    0  0.18592316669E-01  0.12573174302E-01  0.91319581923E-02  0.10196987885E+01  0.10194108434E+01 0.  0.
     999903    2    3    3    0    0  0.87028493459E-01  0.85927326291E-01  0.48678123186E-01  0.13311645104E+00  0.19823364553E-01 0.  0.
         14    1    1    2    0    0 -0.18592316669E-01 -0.12573174302E-01 -0.91319581923E-02  0.24231211517E-01  0.00000000000E+00 0. -1.
     999901    1    3    3    0    0 -0.68436176789E-01 -0.73354151988E-01 -0.39546164994E-01  0.88658233745E+00  0.88000000000E+00 0.  1.
        -11    1    4    4    0    0  0.50058566469E-02  0.28491650871E-03  0.38430760111E-02  0.63379911970E-02  0.51100000000E-03 0.  1.
         11    1    4    4    0    0  0.82022636812E-01  0.85642409782E-01  0.44835047175E-01  0.12677845984E+00  0.51100000000E-03 0. -1.
</event>
<event>
 8    1  0.1131376E+005  0.1043930E+01  0.7957747E-01            NaN
         13   -1    0    0    0    0  0.00000000000E+00  0.00000000000E+00  0.74505805969E-08  0.10566000000E+00  0.10566000000E+00 0.  1.
     999900   -1    0    0    0    0 -0.00000000000E+00 -0.00000000000E+00 -0.74505805969E-08  0.93827000000E+00  0.93827000000E+00 0.  1.
     999902    2    1    2    0    0 -0.11796467597E-01 -0.17519000208E-01  0.91065474537E-02  0.10209299734E+01  0.10206708624E+01 0.  0.
     999903    2    3    3    0    0 -0.11594294582E+00 -0.46589863133E-01  0.43177037203E-01  0.13365752244E+00  0.19664555169E-01 0.  0.
         14    1    1    2    0    0  0.11796467597E-01  0.17519000208E-01 -0.91065474537E-02  0.23000026578E-01  0.00000000000E+00 0. -1.
     999901    1    3    3    0    0  0.10414647823E+00  0.29070862925E-01 -0.34070489750E-01  0.88727245098E+00  0.88000000000E+00 0. -1.
        -11    1    4    4    0    0 -0.71367743472E-01 -0.21736953774E-01  0.17998278239E-01  0.76746655356E-01  0.51100000000E-03 0.  1.
         11    1    4    4    0    0 -0.44575202352E-01 -0.24852909359E-01  0.25178758965E-01  0.56910867085E-01  0.51100000000E-03 0. -1.
</event>
<event>
 8    1  0.1131376E+005  0.1043930E+01  0.7957747E-01            NaN
         13   -1    0    0    0    0  0.00000000000E+00  0.00000000000E+00  0.74505805969E-08  0.10566000000E+00  0.10566000000E+00 0.  1.
     999900   -1    0    0    0    0 -0.00000000000E+00 -0.00000000000E+00 -0.74505805969E-08  0.93827000000E+00  0.93827000000E+00 0. -1.
     999902    2    1    2    0    0  0.62499494253E-02  0.61472701623E-02  0.22570265036E-01  0.10197170352E+01  0.10194295289E+01 0.  0.
     999903    2    3    3    0    0  0.34338589441E-01 -0.64707858245E-01  0.10835752651E+00  0.13226626188E+00  0.19666337662E-01 0.  0.
         14    1    1    2    0    0 -0.62499494253E-02 -0.61472701623E-02 -0.22570265036E-01  0.24212964751E-01  0.00000000000E+00 0. -1.
     999901    1    3    3    0    0 -0.28088640016E-01  0.70855128408E-01 -0.85787261475E-01  0.88745077337E+00  0.88000000000E+00 0. -1.
        -11    1    4    4    0    0  0.23815100532E-01 -0.58871815150E-01  0.86508561137E-01  0.10731748182E+00  0.51100000000E-03 0.  1.
         11    1    4    4    0    0  0.10523488909E-01 -0.58360430952E-02  0.21848965373E-01  0.24948780065E-01  0.51100000000E-03 0. -1.
</event>
<event>
 8    1  0.1444969E+005  0.1043930E+01  0.7957747E-01            NaN
         13   -1    0    0    0    0  0.00000000000E+00  0.00000000000E+00  0.74505805969E-08  0.10566000000E+00  0.10566000000E+00 0.  1.
     999900   -1    0    0    0    0 -0.00000000000E+00 -0.00000000000E+00 -0.74505805969E-08  0.93827000000E+00  0.93827000000E+00 0. -1.
     999902    2    1    2    0    0  0.60086851129E-02  0.13019488881E-01  0.18606417483E-01  0.10204393602E+01  0.10201689456E+01 0.  0.
     999903    2    3    3    0    0  0.12250567113E+00 -0.17934806509E-01 -0.36070617300E-01  0.13054088604E+00  0.20261706489E-01 0.  0.
         14    1    1    2    0    0 -0.60086851129E-02 -0.13019488881E-01 -0.18606417483E-01  0.23490639818E-01  0.00000000000E+00 0. -1.
     999901    1    3    3    0    0 -0.11649698602E+00  0.30954295390E-01  0.54677034783E-01  0.88989847415E+00  0.88000000000E+00 0.  1.
        -11    1    4    4    0    0  0.64516728608E-01  0.27383358031E-03 -0.21829377037E-01  0.68112158077E-01  0.51100000000E-03 0.  1.
         11    1    4    4    0    0  0.57988942527E-01 -0.18208640090E-01 -0.14241240263E-01  0.62428727959E-01  0.51100000000E-03 0. -1.
</event>
<event>
 8    1  0.1131376E+005  0.1043930E+01  0.7957747E-01            NaN
         13   -1    0    0    0    0  0.00000000000E+00  0.00000000000E+00  0.74505805969E-08  0.10566000000E+00  0.10566000000E+00 0. -1.
     999900   -1    0    0    0    0 -0.00000000000E+00 -0.00000000000E+00 -0.74505805969E-08  0.93827000000E+00  0.93827000000E+00 0. -1.
     999902    2    1    2    0    0 -0.11743841290E-01 -0.54738788146E-02 -0.19704827731E-01  0.10203469257E+01  0.10200743539E+01 0.  0.
     999903    2    3    3    0    0  0.93465503532E-01  0.18292992889E-01  0.82802310649E-01  0.12785514207E+00  0.20500750369E-01 0.  0.
         14    1    1    2    0    0  0.11743841290E-01  0.54738788146E-02  0.19704827731E-01  0.23583074300E-01  0.00000000000E+00 0. -1.
     999901    1    3    3    0    0 -0.10520934482E+00 -0.23766871704E-01 -0.10250713838E+00  0.89249178363E+00  0.88000000000E+00 0. -1.
        -11    1    4    4    0    0  0.77312845332E-01  0.18569672173E-01  0.58693554949E-01  0.98829668073E-01  0.51100000000E-03 0. -1.
         11    1    4    4    0    0  0.16152658200E-01 -0.27667928382E-03  0.24108755700E-01  0.29025473997E-01  0.51100000000E-03 0.  1.
</event>
<event>
 8    1  0.1131376E+005  0.1043930E+01  0.7957747E-01            NaN
         13   -1    0    0    0    0  0.00000000000E+00  0.00000000000E+00  0.74505805969E-08  0.10566000000E+00  0.10566000000E+00 0.  1.
     999900   -1    0    0    0    0 -0.00000000000E+00 -0.00000000000E+00 -0.74505805969E-08  0.93827000000E+00  0.93827000000E+00 0.  1.
     999902    2    1    2    0    0  0.10863197242E-01 -0.16143449536E-01 -0.32996169987E-02  0.10241940559E+01  0.10240038851E+01 0.  0.
     999903    2    3    3    0    0 -0.60176524782E-01  0.69252082193E-01  0.92842622785E-01  0.13201561567E+00  0.19781434504E-01 0.  0.
         14    1    1    2    0    0 -0.10863197242E-01  0.16143449536E-01  0.32996169987E-02  0.19735944102E-01  0.00000000000E+00 0. -1.
     999901    1    3    3    0    0  0.71039722024E-01 -0.85395531729E-01 -0.96142239784E-01  0.89217844023E+00  0.88000000000E+00 0.  1.
        -11    1    4    4    0    0 -0.34235853013E-01  0.27912914749E-01  0.35193606208E-01  0.56480753184E-01  0.51100000000E-03 0.  1.
         11    1    4    4    0    0 -0.25940671769E-01  0.41339167444E-01  0.57649016577E-01  0.75534862482E-01  0.51100000000E-03 0. -1.
</event>
<event>
 8    1  0.1131376E+005  0.1043930E+01  0.7957747E-01            NaN
         13   -1    0    0    0    0  0.00000000000E+00  0.00000000000E+00  0.74505805969E-08  0.10566000000E+00  0.10566000000E+00 0.  1.
     999900   -1    0    0    0    0 -0.00000000000E+00 -0.00000000000E+00 -0.74505805969E-08  0.93827000000E+00  0.93827000000E+00 0.  1.
     999902    2    1    2    0    0 -0.17353335941E-01 -0.68623691921E-02  0.81029506457E-02  0.10235857579E+01  0.10233835623E+01 0.  0.
     999903    2    3    3    0    0  0.11706709299E+00  0.48179403393E-01 -0.27314559012E-01  0.13097562547E+00  0.19559400859E-01 0.  0.
         14    1    1    2    0    0  0.17353335941E-01  0.68623691921E-02 -0.81029506457E-02  0.20344242143E-01  0.00000000000E+00 0. -1.
     999901    1    3    3    0    0 -0.13442042893E+00 -0.55041772585E-01  0.35417509657E-01  0.89261013238E+00  0.88000000000E+00 0. -1.
        -11    1    4    4    0    0  0.94656278561E-01  0.38456363064E-01 -0.29764968081E-01  0.10641859507E+00  0.51100000000E-03 0. -1.
         11    1    4    4    0    0  0.22410814428E-01  0.97230403289E-02  0.24504090689E-02  0.24557030402E-01  0.51100000000E-03 0.  1.
</event>
<event>
 8    1  0.1131376E+005  0.1043930E+01  0.7957747E-01            NaN
         13   -1    0    0    0    0  0.00000000000E+00  0.00000000000E+00  0.74505805969E-08  0.10566000000E+00  0.10566000000E+00 0.  1.
     999900   -1    0    0    0    0 -0.00000000000E+00 -0.00000000000E+00 -0.74505805969E-08  0.93827000000E+00  0.93827000000E+00 0.  1.
     999902    2    1    2    0    0 -0.12810428431E-02  0.25707746207E-01  0.40671889691E-02  0.10178710032E+01  0.10175373742E+01 0.  0.
     999903    2    3    3    0    0 -0.64537684499E-01  0.53572704145E-01 -0.96677250294E-01  0.12943006506E+00  0.19248471836E-01 0.  0.
         14    1    1    2    0    0  0.12810428431E-02 -0.25707746207E-01 -0.40671889691E-02  0.26058996756E-01  0.00000000000E+00 0.  1.
     999901    1    3    3    0    0  0.63256641656E-01 -0.27864957938E-01  0.10074443926E+00  0.88844093818E+00  0.88000000000E+00 0. -1.
        -11    1    4    4    0    0 -0.27755287322E-01  0.18288077842E-01 -0.51620681155E-01  0.61398416994E-01  0.51100000000E-03 0. -1.
         11    1    4    4    0    0 -0.36782397177E-01  0.35284626303E-01 -0.45056569138E-01  0.68031648068E-01  0.51100000000E-03 0.  1.
</event>
<event>
 8    1  0.1131376E+005  0.1043930E+01  0.7957747E-01            NaN
         13   -1    0    0    0    0  0.00000000000E+00  0.00000000000E+00  0.74505805969E-08  0.10566000000E+00  0.10566000000E+00 0. -1.
     999900   -1    0    0    0    0 -0.00000000000E+00 -0.00000000000E+00 -0.74505805969E-08  0.93827000000E+00  0.93827000000E+00 0.  1.
     999902    2    1    2    0    0  0.20866849919E-01  0.84336936807E-02 -0.49177407132E-02  0.10208922747E+01  0.10206323039E+01 0.  0.
     999903    2    3    3    0    0 -0.12342799997E+00  0.12589796734E-01  0.26752091308E-01  0.12856875982E+00  0.20525044520E-01 0.  0.
         14    1    1    2    0    0 -0.20866849919E-01 -0.84336936807E-02  0.49177407132E-02  0.23037725330E-01  0.00000000000E+00 0. -1.
     999901    1    3    3    0    0  0.14429484989E+00 -0.41561030532E-02 -0.31669832022E-01  0.89232351485E+00  0.88000000000E+00 0.  1.
        -11    1    4    4    0    0 -0.61224429142E-01  0.11963387178E-01  0.46776608054E-02  0.62559531553E-01  0.51100000000E-03 0. -1.
         11    1    4    4    0    0 -0.62203570832E-01  0.62640955597E-03  0.22074430503E-01  0.66009228265E-01  0.51100000000E-03 0.  1.
</event>
<event>
 8    1  0.1131376E+005  0.1043930E+01  0.7957747E-01            NaN
         13   -1    0    0    0    0  0.00000000000E+00  0.00000000000E+00  0.74505805969E-08  0.10566000000E+00  0.10566000000E+00 0.  1.
     999900   -1    0    0    0    0 -0.00000000000E+00 -0.00000000000E+00 -0.74505805969E-08  0.93827000000E+00  0.93827000000E+00 0.  1.
     999902    2    1    2    0    0  0.11863934993E-01 -0.17445845824E-01  0.10343846482E-01  0.10204330715E+01  0.10201625104E+01 0.  0.
     999903    2    3    3    0    0 -0.12573328498E+00  0.33635139904E-02 -0.20637260308E-01  0.12895909352E+00  0.19605588728E-01 0.  0.
         14    1    1    2    0    0 -0.11863934993E-01  0.17445845824E-01 -0.10343846482E-01  0.23496928524E-01  0.00000000000E+00 0. -1.
     999901    1    3    3    0    0  0.13759721997E+00 -0.20809359815E-01  0.30981106790E-01  0.89147397796E+00  0.88000000000E+00 0. -1.
        -11    1    4    4    0    0 -0.70025362208E-01  0.78412326067E-03 -0.21253821423E-01  0.73185738008E-01  0.51100000000E-03 0.  1.
         11    1    4    4    0    0 -0.55707922772E-01  0.25793907298E-02  0.61656111541E-03  0.55773355509E-01  0.51100000000E-03 0. -1.
</event>
<event>
 8    1  0.1131376E+005  0.1043930E+01  0.7957747E-01            NaN
         13   -1    0    0    0    0  0.00000000000E+00  0.00000000000E+00  0.74505805969E-08  0.10566000000E+00  0.10566000000E+00 0. -1.
     999900   -1    0    0    0    0 -0.00000000000E+00 -0.00000000000E+00 -0.74505805969E-08  0.93827000000E+00  0.93827000000E+00 0.  1.
     999902    2    1    2    0    0 -0.40662998144E-02  0.64273770724E-02 -0.21806766464E-01  0.10208349565E+01  0.10205736756E+01 0.  0.
     999903    2    3    3    0    0  0.47897759186E-01 -0.10573468420E+00  0.53271756065E-01  0.12902927366E+00  0.18348152238E-01 0.  0.
         14    1    1    2    0    0  0.40662998144E-02 -0.64273770724E-02  0.21806766464E-01  0.23095043490E-01  0.00000000000E+00 0.  1.
     999901    1    3    3    0    0 -0.51964059001E-01  0.11216206127E+00 -0.75078522528E-01  0.89180568285E+00  0.88000000000E+00 0. -1.
        -11    1    4    4    0    0  0.42716449433E-02 -0.28146452982E-01  0.11631322813E-01  0.30757414673E-01  0.51100000000E-03 0. -1.
         11    1    4    4    0    0  0.43626114243E-01 -0.77588231213E-01  0.41640433251E-01  0.98271858989E-01  0.51100000000E-03 0.  1.
</event>
<event>
 8    1  0.1131376E+005  0.1043930E+01  0.7957747E-01            NaN
         13   -1    0    0    0    0  0.00000000000E+00  0.00000000000E+00  0.74505805969E-08  0.10566000000E+00  0.10566000000E+00 0. -1.
     999900   -1    0    0    0    0 -0.00000000000E+00 -0.00000000000E+00 -0.74505805969E-08  0.93827000000E+00  0.93827000000E+00 0. -1.
     999902    2    1    2    0    0 -0.69578904633E-02 -0.10146212673E-01  0.20369038361E-01  0.10201338744E+01  0.10198562968E+01 0.  0.
     999903    2    3    3    0    0 -0.11388136302E+00  0.34259625953E-01 -0.48246462972E-01  0.12990210988E+00  0.20103485949E-01 0.  0.
         14    1    1    2    0    0  0.69578904633E-02  0.10146212673E-01 -0.20369038361E-01  0.23796125632E-01  0.00000000000E+00 0.  1.
     999901    1    3    3    0    0  0.10692347256E+00 -0.44405838627E-01  0.68615501333E-01  0.89023176449E+00  0.88000000000E+00 0.  1.
        -11    1    4    4    0    0 -0.91327931331E-01  0.19745193303E-01 -0.41505337151E-01  0.10224293537E+00  0.51100000000E-03 0. -1.
         11    1    4    4    0    0 -0.22553431689E-01  0.14514432651E-01 -0.67411258205E-02  0.27659174507E-01  0.51100000000E-03 0.  1.
</event>
<event>
 8    1  0.1131376E+005  0.1043930E+01  0.7957747E-01            NaN
         13   -1    0    0    0    0  0.00000000000E+00  0.00000000000E+00  0.74505805969E-08  0.10566000000E+00  0.10566000000E+00 0. -1.
     999900   -1    0    0    0    0 -0.00000000000E+00 -0.00000000000E+00 -0.74505805969E-08  0.93827000000E+00  0.93827000000E+00 0.  1.
     999902    2    1    2    0    0  0.14969242332E-01  0.81508724338E-02  0.14328608472E-01  0.10216628952E+01  0.10214202110E+01 0.  0.
     999903    2    3    3    0    0 -0.25530590430E-01  0.77620036137E-01 -0.99888572466E-01  0.13064563069E+00  0.20343865187E-01 0.  0.
         14    1    1    2    0    0 -0.14969242332E-01 -0.81508724338E-02 -0.14328608472E-01  0.22267104844E-01  0.00000000000E+00 0.  1.
     999901    1    3    3    0    0  0.40499832762E-01 -0.69469163703E-01  0.11421718094E+00  0.89101726447E+00  0.88000000000E+00 0. -1.
        -11    1    4    4    0    0 -0.38046071908E-02  0.43692415711E-01 -0.54391159039E-01  0.69872466173E-01  0.51100000000E-03 0.  1.
         11    1    4    4    0    0 -0.21725983239E-01  0.33927620426E-01 -0.45497413427E-01  0.60773164514E-01  0.51100000000E-03 0. -1.
</event>
<event>
 8    1  0.1131376E+005  0.1043930E+01  0.7957747E-01            NaN
         13   -1    0    0    0    0  0.00000000000E+00  0.00000000000E+00  0.74505805969E-08  0.10566000000E+00  0.10566000000E+00 0.  1.
     999900   -1    0    0    0    0 -0.00000000000E+00 -0.00000000000E+00 -0.74505805969E-08  0.93827000000E+00  0.93827000000E+00 0.  1.
     999902    2    1    2    0    0 -0.17465721241E-01  0.30178084026E-02  0.16014871424E-01  0.10200420387E+01  0.10197622890E+01 0.  0.
     999903    2    3    3    0    0 -0.27432714108E-01  0.13921869397E-01  0.12766894748E+00  0.13286400014E+00  0.20176970299E-01 0.  0.
         14    1    1    2    0    0  0.17465721241E-01 -0.30178084026E-02 -0.16014871424E-01  0.23887961252E-01  0.00000000000E+00 0. -1.
     999901    1    3    3    0    0  0.99669928671E-02 -0.10904060995E-01 -0.11165407606E+00  0.88717803861E+00  0.88000000000E+00 0.  1.
        -11    1    4    4    0    0 -0.24608042012E-01  0.14407814697E-01  0.77010729890E-01  0.82122192465E-01  0.51100000000E-03 0. -1.
         11    1    4    4    0    0 -0.28246720961E-02 -0.48594529974E-03  0.50658217592E-01  0.50741807673E-01  0.51100000000E-03 0.  1.
</event>
<event>
 8    1  0.1131376E+005  0.1043930E+01  0.7957747E-01            NaN
         13   -1    0    0    0    0  0.00000000000E+00  0.00000000000E+00  0.74505805969E-08  0.10566000000E+00  0.10566000000E+00 0.  1.
     999900   -1    0    0    0    0 -0.00000000000E+00 -0.00000000000E+00 -0.74505805969E-08  0.93827000000E+00  0.93827000000E+00 0.  1.
     999902    2    1    2    0    0  0.88358673812E-02 -0.16493092943E-01  0.13894173707E-01  0.10206245772E+01  0.10203584590E+01 0.  0.
     999903    2    3    3    0    0 -0.58416817023E-01  0.64565552174E-01 -0.91516079710E-01  0.12809740732E+00  0.21272467618E-01 0.  0.
         14    1    1    2    0    0 -0.88358673812E-02  0.16493092943E-01 -0.13894173707E-01  0.23305422764E-01  0.00000000000E+00 0. -1.
     999901    1    3    3    0    0  0.67252684404E-01 -0.81058645117E-01  0.10541025342E+00  0.89252716991E+00  0.88000000000E+00 0. -1.
        -11    1    4    4    0    0 -0.21960170645E-01  0.10333111412E-01 -0.25499090006E-01  0.35206348836E-01  0.51100000000E-03 0.  1.
         11    1    4    4    0    0 -0.36456646378E-01  0.54232440763E-01 -0.66016989705E-01  0.92891058487E-01  0.51100000000E-03 0. -1.
</event>
<event>
 8    1  0.1131376E+005  0.1043930E+01  0.7957747E-01            NaN
         13   -1    0    0    0    0  0.00000000000E+00  0.00000000000E+00  0.74505805969E-08  0.10566000000E+00  0.10566000000E+00 0. -1.
     999900   -1    0    0    0    0 -0.00000000000E+00 -0.00000000000E+00 -0.74505805969E-08  0.93827000000E+00  0.93827000000E+00 0.  1.
     999902    2    1    2    0    0  0.20713703984E-01 -0.22623897947E-02 -0.10999528386E-01  0.10203680484E+01  0.10200959703E+01 0.  0.
     999903    2    3    3    0    0 -0.13013648356E-01  0.97905562700E-01 -0.83828835907E-01  0.13105637013E+00  0.19840468023E-01 0.  0.
         14    1    1    2    0    0 -0.20713703984E-01  0.22623897947E-02  0.10999528386E-01  0.23561951639E-01  0.00000000000E+00 0.  1.
     999901    1    3    3    0    0  0.33727352340E-01 -0.10016795249E+00  0.72829307521E-01  0.88931167823E+00  0.88000000000E+00 0.  1.
        -11    1    4    4    0    0 -0.11590749734E-01  0.35157673107E-01 -0.22619578098E-01  0.43385641542E-01  0.51100000000E-03 0. -1.
         11    1    4    4    0    0 -0.14228986220E-02  0.62747889593E-01 -0.61209257809E-01  0.87670728589E-01  0.51100000000E-03 0.  1.
</event>
<event>
 8    1  0.1131376E+005  0.1043930E+01  0.7957747E-01            NaN
         13   -1    0    0    0    0  0.00000000000E+00  0.00000000000E+00  0.74505805969E-08  0.10566000000E+00  0.10566000000E+00 0.  1.
     999900   -1    0    0    0    0 -0.00000000000E+00 -0.00000000000E+00 -0.74505805969E-08  0.93827000000E+00  0.93827000000E+00 0.  1.
     999902    2    1    2    0    0  0.54880770867E-03 -0.23047503037E-01  0.56304776209E-02  0.10201983573E+01  0.10199222997E+01 0.  0.
     999903    2    3    3    0    0 -0.49982141747E-01  0.11519427156E+00 -0.13456262963E-01  0.12776994632E+00  0.19394676452E-01 0.  0.
         14    1    1    2    0    0 -0.54880770867E-03  0.23047503037E-01 -0.56304776209E-02  0.23731642681E-01  0.00000000000E+00 0.  1.
     999901    1    3    3    0    0  0.50530949455E-01 -0.13824177460E+00  0.19086740584E-01  0.89242841100E+00  0.88000000000E+00 0.  1.
        -11    1    4    4    0    0 -0.32168195708E-01  0.68104967173E-01  0.12007131248E-02  0.75331150275E-01  0.51100000000E-03 0.  1.
         11    1    4    4    0    0 -0.17813946038E-01  0.47089304389E-01 -0.14656976088E-01  0.52438796042E-01  0.51100000000E-03 0. -1.
</event>
<event>
 8    1  0.1131376E+005  0.1043930E+01  0.7957747E-01            NaN
         13   -1    0    0    0    0  0.00000000000E+00  0.00000000000E+00  0.74505805969E-08  0.10566000000E+00  0.10566000000E+00 0.  1.
     999900   -1    0    0    0    0 -0.00000000000E+00 -0.00000000000E+00 -0.74505805969E-08  0.93827000000E+00  0.93827000000E+00 0. -1.
     999902    2    1    2    0    0  0.16997425936E-01  0.11291094325E-01 -0.14826260090E-01  0.10187066123E+01  0.10183942962E+01 0.  0.
     999903    2    3    3    0    0  0.70148197348E-01  0.50924313880E-01  0.94114737354E-01  0.12951375496E+00  0.20054266415E-01 0.  0.
         14    1    1    2    0    0 -0.16997425936E-01 -0.11291094325E-01  0.14826260090E-01  0.25223387714E-01  0.00000000000E+00 0.  1.
     999901    1    3    3    0    0 -0.53150771412E-01 -0.39633219555E-01 -0.10894099744E+00  0.88919285733E+00  0.88000000000E+00 0. -1.
        -11    1    4    4    0    0  0.61759321907E-01  0.50324958899E-01  0.89803970775E-01  0.12004927996E+00  0.51100000000E-03 0.  1.
         11    1    4    4    0    0  0.83888754417E-02  0.59935498074E-03  0.43107665789E-02  0.94644750022E-02  0.51100000000E-03 0. -1.
</event>
<event>
 8    1  0.1131376E+005  0.1043930E+01  0.7957747E-01            NaN
         13   -1    0    0    0    0  0.00000000000E+00  0.00000000000E+00  0.74505805969E-08  0.10566000000E+00  0.10566000000E+00 0.  1.
     999900   -1    0    0    0    0 -0.00000000000E+00 -0.00000000000E+00 -0.74505805969E-08  0.93827000000E+00  0.93827000000E+00 0.  1.
     999902    2    1    2    0    0 -0.14650520566E-01 -0.72654084325E-02 -0.18645028701E-01  0.10191295765E+01  0.10188277738E+01 0.  0.
     999903    2    3    3    0    0  0.56383026794E-01  0.31619733815E-01  0.10688432743E+00  0.12654039975E+00  0.20232647913E-01 0.  0.
         14    1    1    2    0    0  0.14650520566E-01  0.72654084325E-02  0.18645028701E-01  0.24800423541E-01  0.00000000000E+00 0.  1.
     999901    1    3    3    0    0 -0.71033547359E-01 -0.38885142248E-01 -0.12552935613E+00  0.89258917671E+00  0.88000000000E+00 0.  1.
        -11    1    4    4    0    0  0.71537646306E-02 -0.32855375191E-04  0.24176485854E-01  0.25217870987E-01  0.51100000000E-03 0. -1.
         11    1    4    4    0    0  0.49229262163E-01  0.31652589190E-01  0.82707841571E-01  0.10132252876E+00  0.51100000000E-03 0.  1.
</event>
<event>
 8    1  0.1131376E+005  0.1043930E+01  0.7957747E-01            NaN
         13   -1    0    0    0    0  0.00000000000E+00  0.00000000000E+00  0.74505805969E-08  0.10566000000E+00  0.10566000000E+00 0. -1.
     999900   -1    0    0    0    0 -0.00000000000E+00 -0.00000000000E+00 -0.74505805969E-08  0.93827000000E+00  0.93827000000E+00 0. -1.
     999902    2    1    2    0    0 -0.16800572815E-02 -0.77769742758E-04 -0.23299154155E-01  0.10205702221E+01  0.10203028467E+01 0.  0.
     999903    2    3    3    0    0 -0.87390360753E-01  0.88315010912E-01 -0.39458025828E-01  0.13185167893E+00  0.19781636144E-01 0.  0.
         14    1    1    2    0    0  0.16800572815E-02  0.77769742758E-04  0.23299154155E-01  0.23359777930E-01  0.00000000000E+00 0. -1.
     999901    1    3    3    0    0  0.85710303472E-01 -0.88392780655E-01  0.16158871672E-01  0.88871854314E+00  0.88000000000E+00 0.  1.
        -11    1    4    4    0    0 -0.45372951308E-01  0.52893915628E-01 -0.13144259692E-01  0.70918993963E-01  0.51100000000E-03 0. -1.
         11    1    4    4    0    0 -0.42017409445E-01  0.35421095284E-01 -0.26313766136E-01  0.60932684963E-01  0.51100000000E-03 0.  1.
</event>
<event>
 8    1  0.1131376E+005  0.1043930E+01  0.7957747E-01            NaN
         13   -1    0    0    0    0  0.00000000000E+00  0.00000000000E+00  0.74505805969E-08  0.10566000000E+00  0.10566000000E+00 0. -1.
     999900   -1    0    0    0    0 -0.00000000000E+00 -0.00000000000E+00 -0.74505805969E-08  0.93827000000E+00  0.93827000000E+00 0.  1.
     999902    2    1    2    0    0 -0.49828958317E-02  0.26565857409E-03  0.23438616069E-01  0.10199660991E+01  0.10196845466E+01 0.  0.
     999903    2    3    3    0    0  0.14925551405E-01 -0.12255823365E+00  0.38106378952E-01  0.13109198083E+00  0.22129586575E-01 0.  0.
         14    1    1    2    0    0  0.49828958317E-02 -0.26565857409E-03 -0.23438616069E-01  0.23963900947E-01  0.00000000000E+00 0.  1.
     999901    1    3    3    0    0 -0.19908447237E-01  0.12282389222E+00 -0.14667762882E-01  0.88887411822E+00  0.88000000000E+00 0.  1.
        -11    1    4    4    0    0  0.75300983304E-02 -0.69799128574E-01  0.32986239888E-01  0.77569155426E-01  0.51100000000E-03 0. -1.
         11    1    4    4    0    0  0.73954530750E-02 -0.52759105075E-01  0.51201390635E-02  0.53522825407E-01  0.51100000000E-03 0.  1.
</event>
<event>
 8    1  0.1131376E+005  0.1043930E+01  0.7957747E-01            NaN
         13   -1    0    0    0    0  0.00000000000E+00  0.00000000000E+00  0.74505805969E-08  0.10566000000E+00  0.10566000000E+00 0. -1.
     999900   -1    0    0    0    0 -0.00000000000E+00 -0.00000000000E+00 -0.74505805969E-08  0.93827000000E+00  0.93827000000E+00 0. -1.
     999902    2    1    2    0    0  0.18414599879E-01 -0.35810820265E-02 -0.14730751875E-01  0.10200780255E+01  0.10197991280E+01 0.  0.
     999903    2    3    3    0    0 -0.52579057027E-01  0.11567620993E+00 -0.42881449014E-03  0.12908591194E+00  0.22747439348E-01 0.  0.
         14    1    1    2    0    0 -0.18414599879E-01  0.35810820265E-02  0.14730751875E-01  0.23851974509E-01  0.00000000000E+00 0. -1.
     999901    1    3    3    0    0  0.70993656905E-01 -0.11925729196E+00 -0.14301937385E-01  0.89099211356E+00  0.88000000000E+00 0.  1.
        -11    1    4    4    0    0 -0.50182994388E-01  0.96185582283E-01 -0.60320918750E-02  0.10865839322E+00  0.51100000000E-03 0.  1.
         11    1    4    4    0    0 -0.23960626393E-02  0.19490627646E-01  0.56032773849E-02  0.20427518710E-01  0.51100000000E-03 0. -1.
</event>
<event>
 8    1  0.1131376E+005  0.1043930E+01  0.7957747E-01            NaN
         13   -1    0    0    0    0  0.00000000000E+00  0.00000000000E+00  0.74505805969E-08  0.10566000000E+00  0.10566000000E+00 0. -1.
     999900   -1    0    0    0    0 -0.00000000000E+00 -0.00000000000E+00 -0.74505805969E-08  0.93827000000E+00  0.93827000000E+00 0. -1.
     999902    2    1    2    0    0  0.73870096049E-02 -0.19172951653E-01  0.13021430758E-01  0.10196045474E+01  0.10193143310E+01 0.  0.
     999903    2    3    3    0    0  0.32282067826E-02  0.83453659743E-01 -0.94857429584E-01  0.12708711589E+00  0.13351720300E-01 0.  0.
         14    1    1    2    0    0 -0.73870096049E-02  0.19172951653E-01 -0.13021430758E-01  0.24325452616E-01  0.00000000000E+00 0.  1.
     999901    1    3    3    0    0  0.41588028223E-02 -0.10262661140E+00  0.10787886034E+00  0.89251743149E+00  0.88000000000E+00 0.  1.
        -11    1    4    4    0    0  0.30188171867E-02  0.44694572119E-01 -0.40986746583E-01  0.60719787142E-01  0.51100000000E-03 0. -1.
         11    1    4    4    0    0  0.20938959584E-03  0.38759087625E-01 -0.53870683001E-01  0.66367328751E-01  0.51100000000E-03 0.  1.
</event>
<event>
 7    1  0.1131376E+005  0.1043930E+01  0.7957747E-01            NaN
         13   -1    0    0    0    0  0.00000000000E+00  0.00000000000E+00  0.74505805969E-08  0.10566000000E+00  0.10566000000E+00 0. -1.
     999900   -1    0    0    0    0 -0.00000000000E+00 -0.00000000000E+00 -0.74505805969E-08  0.93827000000E+00  0.93827000000E+00 0.  1.
     999903    2    1    2    0    0 -0.38419998901E-01  0.36137494349E-01  0.77872973597E-01  0.96585061094E-01  0.21964953819E-01 0.  0.
         14    1    1    2    0    0  0.33907880809E-01  0.46191443956E-01 -0.23142285967E-01  0.61797728724E-01  0.00000000000E+00 0.  1.
     999901    1    1    2    0    0  0.45121180921E-02 -0.82328938305E-01 -0.54730687630E-01  0.88554721018E+00  0.88000000000E+00 0.  1.
        -11    1    3    3    0    0 -0.20137532304E-02  0.13821345222E-01  0.14260963035E-01  0.19967998736E-01  0.51100000000E-03 0. -1.
         11    1    3    3    0    0 -0.36406245671E-01  0.22316149128E-01  0.63612010562E-01  0.76617062358E-01  0.51100000000E-03 0.  1.
</event>
<event>
 8    1  0.1131376E+005  0.1043930E+01  0.7957747E-01            NaN
         13   -1    0    0    0    0  0.00000000000E+00  0.00000000000E+00  0.74505805969E-08  0.10566000000E+00  0.10566000000E+00 0. -1.
     999900   -1    0    0    0    0 -0.00000000000E+00 -0.00000000000E+00 -0.74505805969E-08  0.93827000000E+00  0.93827000000E+00 0. -1.
     999902    2    1    2    0    0  0.17193619482E-02  0.13001571568E-01  0.24661867450E-01  0.10159978541E+01  0.10156138217E+01 0.  0.
     999903    2    3    3    0    0  0.11314868646E+00 -0.44132130523E-01 -0.25533797752E-01  0.12571679787E+00  0.20061611248E-01 0.  0.
         14    1    1    2    0    0 -0.17193619482E-02 -0.13001571568E-01 -0.24661867450E-01  0.27932145905E-01  0.00000000000E+00 0.  1.
     999901    1    3    3    0    0 -0.11142932451E+00  0.57133702090E-01  0.50195665201E-01  0.89028105623E+00  0.88000000000E+00 0.  1.
        -11    1    4    4    0    0  0.65526650678E-01 -0.30941846383E-01 -0.23778241620E-01  0.76267986090E-01  0.51100000000E-03 0.  1.
         11    1    4    4    0    0  0.47622035782E-01 -0.13190284140E-01 -0.17555561319E-02  0.49448811776E-01  0.51100000000E-03 0. -1.
</event>
<event>
 8    1  0.1131376E+005  0.1043930E+01  0.7957747E-01            NaN
         13   -1    0    0    0    0  0.00000000000E+00  0.00000000000E+00  0.74505805969E-08  0.10566000000E+00  0.10566000000E+00 0. -1.
     999900   -1    0    0    0    0 -0.00000000000E+00 -0.00000000000E+00 -0.74505805969E-08  0.93827000000E+00  0.93827000000E+00 0. -1.
     999902    2    1    2    0    0 -0.41946680354E-02  0.15874850177E-01 -0.15287260702E-01  0.10214955076E+01  0.10212491203E+01 0.  0.
     999903    2    3    3    0    0 -0.78009957212E-01  0.65313873641E-01 -0.85222895319E-01  0.13426165630E+00  0.20292731503E-01 0.  0.
         14    1    1    2    0    0  0.41946680354E-02 -0.15874850177E-01  0.15287260702E-01  0.22434492369E-01  0.00000000000E+00 0. -1.
     999901    1    3    3    0    0  0.73815289177E-01 -0.49439023463E-01  0.69935634617E-01  0.88723385133E+00  0.88000000000E+00 0. -1.
        -11    1    4    4    0    0 -0.40300424707E-01  0.45893041696E-01 -0.45693296578E-01  0.76278660062E-01  0.51100000000E-03 0.  1.
         11    1    4    4    0    0 -0.37709532506E-01  0.19420831944E-01 -0.39529598741E-01  0.57982996239E-01  0.51100000000E-03 0. -1.
</event>
<event>
 8    1  0.1131376E+005  0.1043930E+01  0.7957747E-01            NaN
         13   -1    0    0    0    0  0.00000000000E+00  0.00000000000E+00  0.74505805969E-08  0.10566000000E+00  0.10566000000E+00 0. -1.
     999900   -1    0    0    0    0 -0.00000000000E+00 -0.00000000000E+00 -0.74505805969E-08  0.93827000000E+00  0.93827000000E+00 0.  1.
     999902    2    1    2    0    0 -0.11273665012E-02 -0.22694806113E-01 -0.13796817935E-02  0.10211653629E+01  0.10209115876E+01 0.  0.
     999903    2    3    3    0    0 -0.62041492244E-01 -0.74001060552E-01 -0.89591711249E-01  0.13317649778E+00  0.19595946376E-01 0.  0.
         14    1    1    2    0    0  0.11273665012E-02  0.22694806113E-01  0.13796817935E-02  0.22764637084E-01  0.00000000000E+00 0.  1.
     999901    1    3    3    0    0  0.60914125743E-01  0.51306254439E-01  0.88212029456E-01  0.88798886513E+00  0.88000000000E+00 0. -1.
        -11    1    4    4    0    0 -0.24900399546E-01 -0.26167264266E-01 -0.46331015070E-01  0.58750146342E-01  0.51100000000E-03 0.  1.
         11    1    4    4    0    0 -0.37141092698E-01 -0.47833796286E-01 -0.43260696179E-01  0.74426351441E-01  0.51100000000E-03 0. -1.
</event>
<event>
 8    1  0.1131376E+005  0.1043930E+01  0.7957747E-01            NaN
         13   -1    0    0    0    0  0.00000000000E+00  0.00000000000E+00  0.74505805969E-08  0.10566000000E+00  0.10566000000E+00 0.  1.
     999900   -1    0    0    0    0 -0.00000000000E+00 -0.00000000000E+00 -0.74505805969E-08  0.93827000000E+00  0.93827000000E+00 0. -1.
     999902    2    1    2    0    0  0.20125048560E-01  0.73524170427E-02 -0.11556931318E-01  0.10195858369E+01  0.10192951685E+01 0.  0.
     999903    2    3    3    0    0  0.63494973782E-01  0.14483859017E-01  0.11175886544E+00  0.12990128965E+00  0.11954379061E-01 0.  0.
         14    1    1    2    0    0 -0.20125048560E-01 -0.73524170427E-02  0.11556931318E-01  0.24344163107E-01  0.00000000000E+00 0.  1.
     999901    1    3    3    0    0 -0.43369925222E-01 -0.71314419741E-02 -0.12331579676E+00  0.88968454725E+00  0.88000000000E+00 0. -1.
        -11    1    4    4    0    0  0.50823603729E-01  0.65933613994E-02  0.84993770466E-01  0.99250759441E-01  0.51100000000E-03 0.  1.
         11    1    4    4    0    0  0.12671370053E-01  0.78904976173E-02  0.26765094978E-01  0.30650530205E-01  0.51100000000E-03 0. -1.
</event>
<event>
 8    1  0.1131376E+005  0.1043930E+01  0.7957747E-01            NaN
         13   -1    0    0    0    0  0.00000000000E+00  0.00000000000E+00  0.74505805969E-08  0.10566000000E+00  0.10566000000E+00 0.  1.
     999900   -1    0    0    0    0 -0.00000000000E+00 -0.00000000000E+00 -0.74505805969E-08  0.93827000000E+00  0.93827000000E+00 0. -1.
     999902    2    1    2    0    0  0.20392550656E-01 -0.45289241270E-02 -0.10594674078E-01  0.10205074810E+01  0.10202386507E+01 0.  0.
     999903    2    3    3    0    0 -0.11407831943E+00 -0.14517196987E-01  0.52400477844E-01  0.12801066330E+00  0.20403623883E-01 0.  0.
         14    1    1    2    0    0 -0.20392550656E-01  0.45289241270E-02  0.10594674078E-01  0.23422518968E-01  0.00000000000E+00 0.  1.
     999901    1    3    3    0    0  0.13447087009E+00  0.99882728605E-02 -0.62995151922E-01  0.89249681773E+00  0.88000000000E+00 0. -1.
        -11    1    4    4    0    0 -0.91517858277E-01 -0.19559225418E-01  0.43950245514E-01  0.10339229606E+00  0.51100000000E-03 0.  1.
         11    1    4    4    0    0 -0.22560461154E-01  0.50420284307E-02  0.84502323296E-02  0.24618367240E-01  0.51100000000E-03 0. -1.
</event>
<event>
 8    1  0.1131376E+005  0.1043930E+01  0.7957747E-01            NaN
         13   -1    0    0    0    0  0.00000000000E+00  0.00000000000E+00  0.74505805969E-08  0.10566000000E+00  0.10566000000E+00 0.  1.
     999900   -1    0    0    0    0 -0.00000000000E+00 -0.00000000000E+00 -0.74505805969E-08  0.93827000000E+00  0.93827000000E+00 0.  1.
     999902    2    1    2    0    0  0.59971823959E-02 -0.98564922864E-02 -0.17947942530E-01  0.10225935224E+01  0.10223709047E+01 0.  0.
     999903    2    3    3    0    0  0.20477312667E-01  0.12639832160E+00  0.20592497281E-01  0.13115624808E+00  0.19546212643E-01 0.  0.
         14    1    1    2    0    0 -0.59971823959E-02  0.98564922864E-02  0.17947942530E-01  0.21336477637E-01  0.00000000000E+00 0.  1.
     999901    1    3    3    0    0 -0.14480130271E-01 -0.13625481389E+00 -0.38540439812E-01  0.89143727428E+00  0.88000000000E+00 0.  1.
        -11    1    4    4    0    0 -0.10235614397E-02  0.34836814068E-01 -0.89273471513E-04  0.34855708043E-01  0.51100000000E-03 0. -1.
         11    1    4    4    0    0  0.21500874107E-01  0.91561507533E-01  0.20681770753E-01  0.96300540038E-01  0.51100000000E-03 0.  1.
</event>
<event>
 8    1  0.1131376E+005  0.1043930E+01  0.7957747E-01            NaN
         13   -1    0    0    0    0  0.00000000000E+00  0.00000000000E+00  0.74505805969E-08  0.10566000000E+00  0.10566000000E+00 0.  1.
     999900   -1    0    0    0    0 -0.00000000000E+00 -0.00000000000E+00 -0.74505805969E-08  0.93827000000E+00  0.93827000000E+00 0. -1.
     999902    2    1    2    0    0  0.23028687068E-01  0.48447324146E-02 -0.79439977311E-03  0.10203838128E+01  0.10201121029E+01 0.  0.
     999903    2    3    3    0    0 -0.46363654114E-01  0.45088434553E-01  0.11060341981E+00  0.12974116461E+00  0.20422976494E-01 0.  0.
         14    1    1    2    0    0 -0.23028687068E-01 -0.48447324146E-02  0.79439977311E-03  0.23546187191E-01  0.00000000000E+00 0.  1.
     999901    1    3    3    0    0  0.69392341182E-01 -0.40243702138E-01 -0.11139781958E+00  0.89064264820E+00  0.88000000000E+00 0. -1.
        -11    1    4    4    0    0 -0.19959263577E-01  0.23520084602E-01  0.34112394834E-01  0.45994382098E-01  0.51100000000E-03 0. -1.
         11    1    4    4    0    0 -0.26404390537E-01  0.21568349950E-01  0.76491024974E-01  0.83746782516E-01  0.51100000000E-03 0.  1.
</event>
<event>
 8    1  0.1131376E+005  0.1043930E+01  0.7957747E-01            NaN
         13   -1    0    0    0    0  0.00000000000E+00  0.00000000000E+00  0.74505805969E-08  0.10566000000E+00  0.10566000000E+00 0.  1.
     999900   -1    0    0    0    0 -0.00000000000E+00 -0.00000000000E+00 -0.74505805969E-08  0.93827000000E+00  0.93827000000E+00 0. -1.
     999902    2    1    2    0    0  0.16303418267E-01  0.11293595443E-01  0.10538769033E-01  0.10214708727E+01  0.10212239379E+01 0.  0.
     999903    2    3    3    0    0 -0.12565333642E+00  0.10255313305E-01 -0.23104439202E-01  0.12945929001E+00  0.18219776460E-01 0.  0.
         14    1    1    2    0    0 -0.16303418267E-01 -0.11293595443E-01 -0.10538769033E-01  0.22459127275E-01  0.00000000000E+00 0. -1.
     999901    1    3    3    0    0  0.14195675469E+00  0.10382821381E-02  0.33643208235E-01  0.89201158271E+00  0.88000000000E+00 0.  1.
        -11    1    4    4    0    0 -0.98406631879E-01  0.60049205316E-02 -0.25317157284E-01  0.10178970401E+00  0.51100000000E-03 0.  1.
         11    1    4    4    0    0 -0.27246704545E-01  0.42503927730E-02  0.22127180818E-02  0.27669586004E-01  0.51100000000E-03 0. -1.
</event>
<event>
 8    1  0.1812964E+005  0.1043930E+01  0.7957747E-01            NaN
         13   -1    0    0    0    0  0.00000000000E+00  0.00000000000E+00  0.74505805969E-08  0.10566000000E+00  0.10566000000E+00 0.  1.
     999900   -1    0    0    0    0 -0.00000000000E+00 -0.00000000000E+00 -0.74505805969E-08  0.93827000000E+00  0.93827000000E+00 0.  1.
     999902    2    1    2    0    0  0.49029813912E-02 -0.20306412394E-01  0.11017330315E-01  0.10203128203E+01  0.10200394502E+01 0.  0.
     999903    2    3    3    0    0  0.12245092492E-01  0.23596209769E-01 -0.12426763895E+00  0.12886267039E+00  0.21363949185E-01 0.  0.
         14    1    1    2    0    0 -0.49029813912E-02  0.20306412394E-01 -0.11017330315E-01  0.23617179724E-01  0.00000000000E+00 0. -1.
     999901    1    3    3    0    0 -0.73421111006E-02 -0.43902622163E-01  0.13528496926E+00  0.89145014989E+00  0.88000000000E+00 0. -1.
        -11    1    4    4    0    0  0.14185719967E-01  0.24759222103E-01 -0.87814309461E-01  0.92335625830E-01  0.51100000000E-03 0.  1.
         11    1    4    4    0    0 -0.19406274751E-02 -0.11630123343E-02 -0.36453329484E-01  0.36527044558E-01  0.51100000000E-03 0. -1.
</event>
<event>
 8    1  0.1131376E+005  0.1043930E+01  0.7957747E-01            NaN
         13   -1    0    0    0    0  0.00000000000E+00  0.00000000000E+00  0.74505805969E-08  0.10566000000E+00  0.10566000000E+00 0. -1.
     999900   -1    0    0    0    0 -0.00000000000E+00 -0.00000000000E+00 -0.74505805969E-08  0.93827000000E+00  0.93827000000E+00 0. -1.
     999902    2    1    2    0    0 -0.87972824900E-02  0.21932437525E-01  0.72302058366E-02  0.10192176575E+01  0.10189180210E+01 0.  0.
     999903    2    3    3    0    0 -0.10604526108E+00  0.25163883129E-01 -0.68854382165E-01  0.13059148407E+00  0.20842057428E-01 0.  0.
         14    1    1    2    0    0  0.87972824900E-02 -0.21932437525E-01 -0.72302058366E-02  0.24712342492E-01  0.00000000000E+00 0. -1.
     999901    1    3    3    0    0  0.97247978590E-01 -0.32314456043E-02  0.76084588001E-01  0.88862617343E+00  0.88000000000E+00 0.  1.
        -11    1    4    4    0    0 -0.50109507326E-01  0.60931618230E-02 -0.21536715170E-01  0.54883335966E-01  0.51100000000E-03 0. -1.
         11    1    4    4    0    0 -0.55935753754E-01  0.19070721306E-01 -0.47317666995E-01  0.75708148108E-01  0.51100000000E-03 0.  1.
</event>
<event>
 8    1  0.1131376E+005  0.1043930E+01  0.7957747E-01            NaN
         13   -1    0    0    0    0  0.00000000000E+00  0.00000000000E+00  0.74505805969E-08  0.10566000000E+00  0.10566000000E+00 0.  1.
     999900   -1    0    0    0    0 -0.00000000000E+00 -0.00000000000E+00 -0.74505805969E-08  0.93827000000E+00  0.93827000000E+00 0.  1.
     999902    2    1    2    0    0  0.20702225554E-01 -0.61859793137E-02 -0.48328162489E-02  0.10217894355E+01  0.10215495318E+01 0.  0.
     999903    2    3    3    0    0  0.77554197967E-01 -0.88394146629E-01 -0.61102589934E-01  0.13434556857E+00  0.22068677297E-01 0.  0.
         14    1    1    2    0    0 -0.20702225554E-01  0.61859793137E-02  0.48328162489E-02  0.22140564488E-01  0.00000000000E+00 0.  1.
     999901    1    3    3    0    0 -0.56851972413E-01  0.82208167315E-01  0.56269773685E-01  0.88744386694E+00  0.88000000000E+00 0. -1.
        -11    1    4    4    0    0  0.32515948933E-01 -0.53517892423E-01 -0.34069471571E-01  0.71291246016E-01  0.51100000000E-03 0.  1.
         11    1    4    4    0    0  0.45038249034E-01 -0.34876254205E-01 -0.27033118363E-01  0.63054322555E-01  0.51100000000E-03 0. -1.
</event>
<event>
 8    1  0.1131376E+005  0.1043930E+01  0.7957747E-01            NaN
         13   -1    0    0    0    0  0.00000000000E+00  0.00000000000E+00  0.74505805969E-08  0.10566000000E+00  0.10566000000E+00 0. -1.
     999900   -1    0    0    0    0 -0.00000000000E+00 -0.00000000000E+00 -0.74505805969E-08  0.93827000000E+00  0.93827000000E+00 0. -1.
     999902    2    1    2    0    0  0.17492349813E-01 -0.39597410592E-02  0.21293214838E-02  0.10258691069E+01  0.10257101094E+01 0.  0.
     999903    2    3    3    0    0  0.42627694829E-01 -0.10795700959E+00  0.69646186386E-01  0.13682144532E+00  0.19941924062E-01 0.  0.
         14    1    1    2    0    0 -0.17492349813E-01  0.39597410592E-02 -0.21293214838E-02  0.18060893145E-01  0.00000000000E+00 0. -1.
     999901    1    3    3    0    0 -0.25135345016E-01  0.10399726853E+00 -0.67516864902E-01  0.88904766153E+00  0.88000000000E+00 0. -1.
        -11    1    4    4    0    0  0.28620418927E-01 -0.58213322913E-01  0.28932417137E-01  0.71030030456E-01  0.51100000000E-03 0.  1.
         11    1    4    4    0    0  0.14007275901E-01 -0.49743686679E-01  0.40713769249E-01  0.65791414866E-01  0.51100000000E-03 0. -1.
</event>
<event>
 8    1  0.1131376E+005  0.1043930E+01  0.7957747E-01            NaN
         13   -1    0    0    0    0  0.00000000000E+00  0.00000000000E+00  0.74505805969E-08  0.10566000000E+00  0.10566000000E+00 0. -1.
     999900   -1    0    0    0    0 -0.00000000000E+00 -0.00000000000E+00 -0.74505805969E-08  0.93827000000E+00  0.93827000000E+00 0.  1.
     999902    2    1    2    0    0 -0.15983279747E-01 -0.10169636222E-01 -0.13508254277E-01  0.10206628630E+01  0.10203976285E+01 0.  0.
     999903    2    3    3    0    0  0.11887567252E+00  0.32063980822E-01 -0.33558275351E-01  0.12916265614E+00  0.19932624383E-01 0.  0.
         14    1    1    2    0    0  0.15983279747E-01  0.10169636222E-01  0.13508254277E-01  0.23267137039E-01  0.00000000000E+00 0. -1.
     999901    1    3    3    0    0 -0.13485895226E+00 -0.42233617045E-01  0.20050021074E-01  0.89150020682E+00  0.88000000000E+00 0. -1.
        -11    1    4    4    0    0  0.54279613273E-01  0.44191702949E-02 -0.14850608520E-01  0.56450041431E-01  0.51100000000E-03 0. -1.
         11    1    4    4    0    0  0.64596059243E-01  0.27644810527E-01 -0.18707666831E-01  0.72712614711E-01  0.51100000000E-03 0.  1.
</event>
<event>
 8    1  0.1131376E+005  0.1043930E+01  0.7957747E-01            NaN
         13   -1    0    0    0    0  0.00000000000E+00  0.00000000000E+00  0.74505805969E-08  0.10566000000E+00  0.10566000000E+00 0.  1.
     999900   -1    0    0    0    0 -0.00000000000E+00 -0.00000000000E+00 -0.74505805969E-08  0.93827000000E+00  0.93827000000E+00 0. -1.
     999902    2    1    2    0    0 -0.72899547748E-03 -0.21597349746E-01  0.10015182196E-01  0.10201123422E+01  0.10198342560E+01 0.  0.
     999903    2    3    3    0    0 -0.55268629476E-01 -0.95077073102E-02 -0.11484472762E+00  0.12954469835E+00  0.21154184083E-01 0.  0.
         14    1    1    2    0    0  0.72899547748E-03  0.21597349746E-01 -0.10015182196E-01  0.23817657838E-01  0.00000000000E+00 0. -1.
     999901    1    3    3    0    0  0.54539633999E-01 -0.12089642436E-01  0.12485990982E+00  0.89056764382E+00  0.88000000000E+00 0.  1.
        -11    1    4    4    0    0 -0.81488032172E-02 -0.14697082720E-02 -0.39147958551E-01  0.40017331445E-01  0.51100000000E-03 0. -1.
         11    1    4    4    0    0 -0.47119826259E-01 -0.80379990382E-02 -0.75696769073E-01  0.89527366902E-01  0.51100000000E-03 0.  1.
</event>
<event>
 8    1  0.1131376E+005  0.1043930E+01  0.7957747E-01            NaN
         13   -1    0    0    0    0  0.00000000000E+00  0.00000000000E+00  0.74505805969E-08  0.10566000000E+00  0.10566000000E+00 0.  1.
     999900   -1    0    0    0    0 -0.00000000000E+00 -0.00000000000E+00 -0.74505805969E-08  0.93827000000E+00  0.93827000000E+00 0.  1.
     999902    2    1    2    0    0 -0.26011236507E-01  0.20788969271E-02  0.39065565871E-02  0.10175450152E+01  0.10172028758E+01 0.  0.
     999903    2    3    3    0    0  0.33698892021E-01  0.32183266526E-01 -0.11623150601E+00  0.12686845968E+00  0.20358416087E-01 0.  0.
         14    1    1    2    0    0  0.26011236507E-01 -0.20788969271E-02 -0.39065565871E-02  0.26384984773E-01  0.00000000000E+00 0.  1.
     999901    1    3    3    0    0 -0.59710128529E-01 -0.30104369599E-01  0.12013806259E+00  0.89067655555E+00  0.88000000000E+00 0. -1.
        -11    1    4    4    0    0  0.22318734107E-01  0.87057467207E-02 -0.44560162934E-01  0.50594319442E-01  0.51100000000E-03 0.  1.
         11    1    4    4    0    0  0.11380157914E-01  0.23477519805E-01 -0.71671343072E-01  0.76274140238E-01  0.51100000000E-03 0. -1.
</event>
<event>
 8    1  0.1131376E+005  0.1043930E+01  0.7957747E-01            NaN
         13   -1    0    0    0    0  0.00000000000E+00  0.00000000000E+00  0.74505805969E-08  0.10566000000E+00  0.10566000000E+00 0. -1.
     999900   -1    0    0    0    0 -0.00000000000E+00 -0.00000000000E+00 -0.74505805969E-08  0.93827000000E+00  0.93827000000E+00 0. -1.
     999902    2    1    2    0    0 -0.22904051684E-01  0.60061310054E-02 -0.28457788246E-02  0.10200811499E+01  0.10198023263E+01 0.  0.
     999903    2    3    3    0    0 -0.10582561468E+00 -0.38103928641E-01  0.66768961974E-01  0.13234926747E+00  0.20180788331E-01 0.  0.
         14    1    1    2    0    0  0.22904051684E-01 -0.60061310054E-02  0.28457788246E-02  0.23848850084E-01  0.00000000000E+00 0. -1.
     999901    1    3    3    0    0  0.82921562993E-01  0.44110059646E-01 -0.69614740799E-01  0.88773188244E+00  0.88000000000E+00 0. -1.
        -11    1    4    4    0    0 -0.85967969638E-01 -0.22215948304E-01  0.53389993460E-01  0.10360884463E+00  0.51100000000E-03 0.  1.
         11    1    4    4    0    0 -0.19857645039E-01 -0.15887980337E-01  0.13378968514E-01  0.28740422843E-01  0.51100000000E-03 0. -1.
</event>
<event>
 8    1  0.1131376E+005  0.1043930E+01  0.7957747E-01            NaN
         13   -1    0    0    0    0  0.00000000000E+00  0.00000000000E+00  0.74505805969E-08  0.10566000000E+00  0.10566000000E+00 0. -1.
     999900   -1    0    0    0    0 -0.00000000000E+00 -0.00000000000E+00 -0.74505805969E-08  0.93827000000E+00  0.93827000000E+00 0.  1.
     999902    2    1    2    0    0  0.12007811908E-01  0.87477091442E-02  0.18980932288E-01  0.10198263540E+01  0.10195414687E+01 0.  0.
     999903    2    3    3    0    0 -0.59913884218E-02 -0.37109825880E-01 -0.12013983702E+00  0.12753633766E+00  0.20467072882E-01 0.  0.
         14    1    1    2    0    0 -0.12007811908E-01 -0.87477091442E-02 -0.18980932288E-01  0.24103646044E-01  0.00000000000E+00 0.  1.
     999901    1    3    3    0    0  0.17999200330E-01  0.45857535024E-01  0.13912076931E+00  0.89229001630E+00  0.88000000000E+00 0. -1.
        -11    1    4    4    0    0 -0.10730311097E-01 -0.16753253933E-01 -0.39500093226E-01  0.44230414643E-01  0.51100000000E-03 0. -1.
         11    1    4    4    0    0  0.47389226757E-02 -0.20356571947E-01 -0.80639743793E-01  0.83305923016E-01  0.51100000000E-03 0.  1.
</event>
<event>
 8    1  0.1131376E+005  0.1043930E+01  0.7957747E-01            NaN
         13   -1    0    0    0    0  0.00000000000E+00  0.00000000000E+00  0.74505805969E-08  0.10566000000E+00  0.10566000000E+00 0.  1.
     999900   -1    0    0    0    0 -0.00000000000E+00 -0.00000000000E+00 -0.74505805969E-08  0.93827000000E+00  0.93827000000E+00 0.  1.
     999902    2    1    2    0    0 -0.22761705019E-01  0.13919199185E-02 -0.86382463324E-02  0.10195445134E+01  0.10192528454E+01 0.  0.
     999903    2    3    3    0    0  0.40820376216E-02  0.12801680042E+00  0.65280445368E-02  0.12994659117E+00  0.20941274345E-01 0.  0.
         14    1    1    2    0    0  0.22761705019E-01 -0.13919199185E-02  0.86382463324E-02  0.24385486588E-01  0.00000000000E+00 0.  1.
     999901    1    3    3    0    0 -0.26843742640E-01 -0.12662488050E+00 -0.15166290869E-01  0.88959792224E+00  0.88000000000E+00 0. -1.
        -11    1    4    4    0    0 -0.61889809058E-02  0.44635715273E-01 -0.41570901210E-02  0.45256967219E-01  0.51100000000E-03 0. -1.
         11    1    4    4    0    0  0.10271018527E-01  0.83381085143E-01  0.10685134658E-01  0.84689623950E-01  0.51100000000E-03 0.  1.
</event>
<event>
 8    1  0.1131376E+005  0.1043930E+01  0.7957747E-01            NaN
         13   -1    0    0    0    0  0.00000000000E+00  0.00000000000E+00  0.74505805969E-08  0.10566000000E+00  0.10566000000E+00 0.  1.
     999900   -1    0    0    0    0 -0.00000000000E+00 -0.00000000000E+00 -0.74505805969E-08  0.93827000000E+00  0.93827000000E+00 0.  1.
     999902    2    1    2    0    0  0.74148616665E-02  0.18132925809E-02 -0.22238020282E-01  0.10204183486E+01  0.10201474445E+01 0.  0.
     999903    2    3    3    0    0  0.10611307920E+00 -0.50281779229E-01  0.52833907808E-01  0.13019869651E+00  0.19288231117E-01 0.  0.
         14    1    1    2    0    0 -0.74148616665E-02 -0.18132925809E-02  0.22238020282E-01  0.23511651358E-01  0.00000000000E+00 0.  1.
     999901    1    3    3    0    0 -0.98698217533E-01  0.52095071810E-01 -0.75071928090E-01  0.89021965213E+00  0.88000000000E+00 0. -1.
        -11    1    4    4    0    0  0.21893760851E-01 -0.11285245477E-01  0.28969936187E-02  0.24806193233E-01  0.51100000000E-03 0.  1.
         11    1    4    4    0    0  0.84219318348E-01 -0.38996533751E-01  0.49936914189E-01  0.10539250328E+00  0.51100000000E-03 0. -1.
</event>
<event>
 8    1  0.1131376E+005  0.1043930E+01  0.7957747E-01            NaN
         13   -1    0    0    0    0  0.00000000000E+00  0.00000000000E+00  0.74505805969E-08  0.10566000000E+00  0.10566000000E+00 0. -1.
     999900   -1    0    0    0    0 -0.00000000000E+00 -0.00000000000E+00 -0.74505805969E-08  0.93827000000E+00  0.93827000000E+00 0. -1.
     999902    2    1    2    0    0 -0.31357601860E-02  0.22097750167E-01  0.11586941377E-01  0.10187824203E+01  0.10184720021E+01 0.  0.
     999903    2    3    3    0    0 -0.11869335913E-01  0.36349964730E-01  0.12417698627E+00  0.13145163690E+00  0.19935091009E-01 0.  0.
         14    1    1    2    0    0  0.31357601860E-02 -0.22097750167E-01 -0.11586941377E-01  0.25147579702E-01  0.00000000000E+00 0.  1.
     999901    1    3    3    0    0  0.87335757269E-02 -0.14252214563E-01 -0.11259004489E+00  0.88733078340E+00  0.88000000000E+00 0. -1.
        -11    1    4    4    0    0  0.40150234482E-02  0.18466002208E-01  0.62515076969E-01  0.65310869082E-01  0.51100000000E-03 0.  1.
         11    1    4    4    0    0 -0.15884359361E-01  0.17883962522E-01  0.61661909298E-01  0.66140767814E-01  0.51100000000E-03 0. -1.
</event>
<event>
 8    1  0.1131376E+005  0.1043930E+01  0.7957747E-01            NaN
         13   -1    0    0    0    0  0.00000000000E+00  0.00000000000E+00  0.74505805969E-08  0.10566000000E+00  0.10566000000E+00 0.  1.
     999900   -1    0    0    0    0 -0.00000000000E+00 -0.00000000000E+00 -0.74505805969E-08  0.93827000000E+00  0.93827000000E+00 0.  1.
     999902    2    1    2    0    0  0.13578321865E-01  0.85165482211E-02  0.17619697880E-01  0.10201107605E+01  0.10198326370E+01 0.  0.
     999903    2    3    3    0    0  0.98667601679E-01 -0.77154433472E-01  0.35208701360E-01  0.13169133493E+00  0.20367936030E-01 0.  0.
         14    1    1    2    0    0 -0.13578321865E-01 -0.85165482211E-02 -0.17619697880E-01  0.23819239527E-01  0.00000000000E+00 0. -1.
     999901    1    3    3    0    0 -0.85089279813E-01  0.85670981693E-01 -0.17589003479E-01  0.88841942555E+00  0.88000000000E+00 0. -1.
        -11    1    4    4    0    0  0.81416556777E-02 -0.81325495849E-02 -0.24670265015E-02  0.11780163865E-01  0.51100000000E-03 0. -1.
         11    1    4    4    0    0  0.90525946001E-01 -0.69021883887E-01  0.37675727861E-01  0.11991117106E+00  0.51100000000E-03 0.  1.
</event>
<event>
 8    1  0.1131376E+005  0.1043930E+01  0.7957747E-01            NaN
         13   -1    0    0    0    0  0.00000000000E+00  0.00000000000E+00  0.74505805969E-08  0.10566000000E+00  0.10566000000E+00 0.  1.
     999900   -1    0    0    0    0 -0.00000000000E+00 -0.00000000000E+00 -0.74505805969E-08  0.93827000000E+00  0.93827000000E+00 0. -1.
     999902    2    1    2    0    0  0.11104020841E-01  0.48155259393E-02  0.26991986095E-01  0.10143486565E+01  0.10139172260E+01 0.  0.
     999903    2    3    3    0    0 -0.91973882028E-01 -0.78471314327E-01  0.21174955041E-01  0.12440731594E+00  0.20294319166E-01 0.  0.
         14    1    1    2    0    0 -0.11104020841E-01 -0.48155259393E-02 -0.26991986095E-01  0.29581343483E-01  0.00000000000E+00 0. -1.
     999901    1    3    3    0    0  0.10307790287E+00  0.83286840266E-01  0.58170310533E-02  0.88994134058E+00  0.88000000000E+00 0. -1.
        -11    1    4    4    0    0 -0.38455228287E-01 -0.45931839868E-01  0.85941975983E-02  0.60519912835E-01  0.51100000000E-03 0.  1.
         11    1    4    4    0    0 -0.53518653742E-01 -0.32539474459E-01  0.12580757443E-01  0.63887403103E-01  0.51100000000E-03 0. -1.
</event>
<event>
 8    1  0.1131376E+005  0.1043930E+01  0.7957747E-01            NaN
         13   -1    0    0    0    0  0.00000000000E+00  0.00000000000E+00  0.74505805969E-08  0.10566000000E+00  0.10566000000E+00 0.  1.
     999900   -1    0    0    0    0 -0.00000000000E+00 -0.00000000000E+00 -0.74505805969E-08  0.93827000000E+00  0.93827000000E+00 0.  1.
     999902    2    1    2    0    0 -0.91812661903E-02 -0.17036113714E-01  0.10375695290E-01  0.10219714055E+01  0.10217354715E+01 0.  0.
     999903    2    3    3    0    0  0.45326308533E-01  0.23180324207E-01  0.12070852241E+00  0.13249865701E+00  0.19837969946E-01 0.  0.
         14    1    1    2    0    0  0.91812661903E-02  0.17036113714E-01 -0.10375695290E-01  0.21958594493E-01  0.00000000000E+00 0. -1.
     999901    1    3    3    0    0 -0.54507574723E-01 -0.40216437921E-01 -0.11033282712E+00  0.88947274850E+00  0.88000000000E+00 0.  1.
        -11    1    4    4    0    0  0.36668004783E-01  0.26043819549E-01  0.92648194516E-01  0.10298918477E+00  0.51100000000E-03 0.  1.
         11    1    4    4    0    0  0.86583037498E-02 -0.28634953423E-02  0.28060327893E-01  0.29509472239E-01  0.51100000000E-03 0. -1.
</event>
<event>
 8    1  0.1131376E+005  0.1043930E+01  0.7957747E-01            NaN
         13   -1    0    0    0    0  0.00000000000E+00  0.00000000000E+00  0.74505805969E-08  0.10566000000E+00  0.10566000000E+00 0. -1.
     999900   -1    0    0    0    0 -0.00000000000E+00 -0.00000000000E+00 -0.74505805969E-08  0.93827000000E+00  0.93827000000E+00 0.  1.
     999902    2    1    2    0    0  0.56514865365E-02  0.35024356291E-02 -0.21179037344E-01  0.10217318474E+01  0.10214906804E+01 0.  0.
     999903    2    3    3    0    0  0.11037910388E+00 -0.62884884719E-02  0.67606691624E-01  0.13103176226E+00  0.19379533180E-01 0.  0.
         14    1    1    2    0    0 -0.56514865365E-02 -0.35024356291E-02  0.21179037344E-01  0.22198152586E-01  0.00000000000E+00 0. -1.
     999901    1    3    3    0    0 -0.10472761735E+00  0.97909241010E-02 -0.88785728968E-01  0.89070008516E+00  0.88000000000E+00 0.  1.
        -11    1    4    4    0    0  0.88721076675E-01 -0.11158440352E-01  0.59431526573E-01  0.10736995720E+00  0.51100000000E-03 0. -1.
         11    1    4    4    0    0  0.21658027209E-01  0.48699518800E-02  0.81751650505E-02  0.23661805056E-01  0.51100000000E-03 0.  1.
</event>
<event>
 8    1  0.1131376E+005  0.1043930E+01  0.7957747E-01            NaN
         13   -1    0    0    0    0  0.00000000000E+00  0.00000000000E+00  0.74505805969E-08  0.10566000000E+00  0.10566000000E+00 0. -1.
     999900   -1    0    0    0    0 -0.00000000000E+00 -0.00000000000E+00 -0.74505805969E-08  0.93827000000E+00  0.93827000000E+00 0.  1.
     999902    2    1    2    0    0 -0.10990682363E-01  0.21101339146E-01  0.13486098159E-02  0.10200997595E+01  0.10198213760E+01 0.  0.
     999903    2    3    3    0    0  0.52290412881E-01  0.88544184302E-01 -0.79648050695E-01  0.13155404129E+00  0.19705175664E-01 0.  0.
         14    1    1    2    0    0  0.10990682363E-01 -0.21101339146E-01 -0.13486098159E-02  0.23830240473E-01  0.00000000000E+00 0. -1.
     999901    1    3    3    0    0 -0.63281095244E-01 -0.67442845156E-01  0.80996660511E-01  0.88854571823E+00  0.88000000000E+00 0. -1.
        -11    1    4    4    0    0  0.47343352130E-01  0.78490104370E-01 -0.77708769031E-01  0.12017072597E+00  0.51100000000E-03 0.  1.
         11    1    4    4    0    0  0.49470607508E-02  0.10054079932E-01 -0.19392816639E-02  0.11383315322E-01  0.51100000000E-03 0. -1.
</event>
<event>
 8    1  0.1131376E+005  0.1043930E+01  0.7957747E-01            NaN
         13   -1    0    0    0    0  0.00000000000E+00  0.00000000000E+00  0.74505805969E-08  0.10566000000E+00  0.10566000000E+00 0.  1.
     999900   -1    0    0    0    0 -0.00000000000E+00 -0.00000000000E+00 -0.74505805969E-08  0.93827000000E+00  0.93827000000E+00 0.  1.
     999902    2    1    2    0    0  0.24958858809E-02 -0.90246565870E-03  0.23209226118E-01  0.10205695191E+01  0.10203021274E+01 0.  0.
     999903    2    3    3    0    0  0.11824665334E+00  0.33061821441E-01  0.44742224504E-01  0.13207895473E+00  0.19173642470E-01 0.  0.
         14    1    1    2    0    0 -0.24958858809E-02  0.90246565870E-03 -0.23209226118E-01  0.23360480894E-01  0.00000000000E+00 0. -1.
     999901    1    3    3    0    0 -0.11575076746E+00 -0.33964287100E-01 -0.21532998386E-01  0.88849056438E+00  0.88000000000E+00 0.  1.
        -11    1    4    4    0    0  0.34675654962E-01  0.57367176863E-02  0.21225542506E-01  0.41062096299E-01  0.51100000000E-03 0.  1.
         11    1    4    4    0    0  0.83570998379E-01  0.27325103755E-01  0.23516681998E-01  0.91016858431E-01  0.51100000000E-03 0. -1.
</event>
<event>
 8    1  0.1131376E+005  0.1043930E+01  0.7957747E-01            NaN
         13   -1    0    0    0    0  0.00000000000E+00  0.00000000000E+00  0.74505805969E-08  0.10566000000E+00  0.10566000000E+00 0.  1.
     999900   -1    0    0    0    0 -0.00000000000E+00 -0.00000000000E+00 -0.74505805969E-08  0.93827000000E+00  0.93827000000E+00 0. -1.
     999902    2    1    2    0    0  0.18028126526E-01  0.43395164581E-02 -0.15059070937E-01  0.10200423386E+01  0.10197625960E+01 0.  0.
     999903    2    3    3    0    0  0.44317312619E-01 -0.73840452461E-01  0.94270999021E-01  0.12944911326E+00  0.21298240532E-01 0.  0.
         14    1    1    2    0    0 -0.18028126526E-01 -0.43395164581E-02  0.15059070937E-01  0.23887661389E-01  0.00000000000E+00 0.  1.
     999901    1    3    3    0    0 -0.26289186093E-01  0.78179968920E-01 -0.10933006996E+00  0.89059322535E+00  0.88000000000E+00 0. -1.
        -11    1    4    4    0    0  0.43457380262E-01 -0.61585379697E-01  0.73305617025E-01  0.10514407972E+00  0.51100000000E-03 0.  1.
         11    1    4    4    0    0  0.85993235614E-03 -0.12255072764E-01  0.20965381996E-01  0.24305033540E-01  0.51100000000E-03 0. -1.
</event>
<event>
 8    1  0.1131376E+005  0.1043930E+01  0.7957747E-01            NaN
         13   -1    0    0    0    0  0.00000000000E+00  0.00000000000E+00  0.74505805969E-08  0.10566000000E+00  0.10566000000E+00 0.  1.
     999900   -1    0    0    0    0 -0.00000000000E+00 -0.00000000000E+00 -0.74505805969E-08  0.93827000000E+00  0.93827000000E+00 0. -1.
     999902    2    1    2    0    0 -0.21214938233E-01  0.10383964292E-01  0.83942917357E-02  0.10188628013E+01  0.10185543890E+01 0.  0.
     999903    2    3    3    0    0  0.59205631889E-01 -0.69739917024E-01 -0.85168853921E-01  0.12665129793E+00  0.20441494951E-01 0.  0.
         14    1    1    2    0    0  0.21214938233E-01 -0.10383964292E-01 -0.83942917357E-02  0.25067198734E-01  0.00000000000E+00 0. -1.
     999901    1    3    3    0    0 -0.80420570122E-01  0.80123881315E-01  0.93563145656E-01  0.89221150333E+00  0.88000000000E+00 0.  1.
        -11    1    4    4    0    0  0.63560444057E-02 -0.12335373459E-01 -0.23072306062E-01  0.26928668124E-01  0.51100000000E-03 0. -1.
         11    1    4    4    0    0  0.52849587483E-01 -0.57404543565E-01 -0.62096547858E-01  0.99722629808E-01  0.51100000000E-03 0.  1.
</event>
<event>
 8    1  0.1131376E+005  0.1043930E+01  0.7957747E-01            NaN
         13   -1    0    0    0    0  0.00000000000E+00  0.00000000000E+00  0.74505805969E-08  0.10566000000E+00  0.10566000000E+00 0.  1.
     999900   -1    0    0    0    0 -0.00000000000E+00 -0.00000000000E+00 -0.74505805969E-08  0.93827000000E+00  0.93827000000E+00 0.  1.
     999902    2    1    2    0    0 -0.21253927658E-01 -0.22643686078E-03 -0.10497345626E-01  0.10202239885E+01  0.10199485339E+01 0.  0.
     999903    2    3    3    0    0 -0.79942986890E-01 -0.10329548909E+00 -0.10674805695E-02  0.13221691786E+00  0.20477661861E-01 0.  0.
         14    1    1    2    0    0  0.21253927658E-01  0.22643686078E-03  0.10497345626E-01  0.23706011469E-01  0.00000000000E+00 0. -1.
     999901    1    3    3    0    0  0.58689059232E-01  0.10306905223E+00 -0.94298650563E-02  0.88800707067E+00  0.88000000000E+00 0. -1.
        -11    1    4    4    0    0 -0.35682821702E-01 -0.30499359014E-01  0.17060391077E-02  0.46974954553E-01  0.51100000000E-03 0. -1.
         11    1    4    4    0    0 -0.44260165188E-01 -0.72796130076E-01 -0.27735196773E-02  0.85241963310E-01  0.51100000000E-03 0.  1.
</event>
<event>
 8    1  0.1131376E+005  0.1043930E+01  0.7957747E-01            NaN
         13   -1    0    0    0    0  0.00000000000E+00  0.00000000000E+00  0.74505805969E-08  0.10566000000E+00  0.10566000000E+00 0.  1.
     999900   -1    0    0    0    0 -0.00000000000E+00 -0.00000000000E+00 -0.74505805969E-08  0.93827000000E+00  0.93827000000E+00 0.  1.
     999902    2    1    2    0    0 -0.12694585855E-01  0.18814052549E-01  0.12283632967E-01  0.10181228552E+01  0.10177957259E+01 0.  0.
     999903    2    3    3    0    0 -0.84218255420E-01  0.64085762713E-01 -0.72737801416E-01  0.12998220905E+00  0.20121813718E-01 0.  0.
         14    1    1    2    0    0  0.12694585855E-01 -0.18814052549E-01 -0.12283632967E-01  0.25807144790E-01  0.00000000000E+00 0. -1.
     999901    1    3    3    0    0  0.71523669565E-01 -0.45271710164E-01  0.85021434383E-01  0.88814064616E+00  0.88000000000E+00 0. -1.
        -11    1    4    4    0    0  0.52896691505E-03  0.23116717026E-02 -0.37023657350E-02  0.44263150694E-02  0.51100000000E-03 0.  1.
         11    1    4    4    0    0 -0.84747222335E-01  0.61774091010E-01 -0.69035435681E-01  0.12555589399E+00  0.51100000000E-03 0. -1.
</event>
<event>
 8    1  0.1131376E+005  0.1043930E+01  0.7957747E-01            NaN
         13   -1    0    0    0    0  0.00000000000E+00  0.00000000000E+00  0.74505805969E-08  0.10566000000E+00  0.10566000000E+00 0.  1.
     999900   -1    0    0    0    0 -0.00000000000E+00 -0.00000000000E+00 -0.74505805969E-08  0.93827000000E+00  0.93827000000E+00 0. -1.
     999902    2    1    2    0    0  0.73812589784E-02  0.15123756653E-01  0.16829788219E-01  0.10201297317E+01  0.10198520563E+01 0.  0.
     999903    2    3    3    0    0  0.15248541913E-01  0.47274156283E-01  0.12202584431E+00  0.13324656434E+00  0.19924265254E-01 0.  0.
         14    1    1    2    0    0 -0.73812589784E-02 -0.15123756653E-01 -0.16829788219E-01  0.23800268295E-01  0.00000000000E+00 0.  1.
     999901    1    3    3    0    0 -0.78672829345E-02 -0.32150399630E-01 -0.10519605609E+00  0.88688316736E+00  0.88000000000E+00 0. -1.
        -11    1    4    4    0    0 -0.39534026266E-02  0.79167294671E-02  0.12813827224E-01  0.15580734479E-01  0.51100000000E-03 0. -1.
         11    1    4    4    0    0  0.19201944539E-01  0.39357426816E-01  0.10921201709E+00  0.11766582986E+00  0.51100000000E-03 0.  1.
</event>
<event>
 8    1  0.1131376E+005  0.1043930E+01  0.7957747E-01            NaN
         13   -1    0    0    0    0  0.00000000000E+00  0.00000000000E+00  0.74505805969E-08  0.10566000000E+00  0.10566000000E+00 0.  1.
     999900   -1    0    0    0    0 -0.00000000000E+00 -0.00000000000E+00 -0.74505805969E-08  0.93827000000E+00  0.93827000000E+00 0.  1.
     999902    2    1    2    0    0  0.15749346681E-01 -0.12111105100E-01 -0.18977655141E-01  0.10164550627E+01  0.10160836689E+01 0.  0.
     999903    2    3    3    0    0 -0.11001411330E+00  0.54992426342E-03  0.53723100351E-01  0.12445610000E+00  0.22354904902E-01 0.  0.
         14    1    1    2    0    0 -0.15749346681E-01  0.12111105100E-01  0.18977655141E-01  0.27474937348E-01  0.00000000000E+00 0. -1.
     999901    1    3    3    0    0  0.12576345998E+00 -0.12661029364E-01 -0.72700755492E-01  0.89199896266E+00  0.88000000000E+00 0.  1.
        -11    1    4    4    0    0 -0.60736371650E-01  0.69339150015E-03  0.41855321123E-01  0.73766636498E-01  0.51100000000E-03 0. -1.
         11    1    4    4    0    0 -0.49277741649E-01 -0.14346723673E-03  0.11867779228E-01  0.50689463497E-01  0.51100000000E-03 0.  1.
</event>
<event>
 8    1  0.1131376E+005  0.1043930E+01  0.7957747E-01            NaN
         13   -1    0    0    0    0  0.00000000000E+00  0.00000000000E+00  0.74505805969E-08  0.10566000000E+00  0.10566000000E+00 0.  1.
     999900   -1    0    0    0    0 -0.00000000000E+00 -0.00000000000E+00 -0.74505805969E-08  0.93827000000E+00  0.93827000000E+00 0. -1.
     999902    2    1    2    0    0  0.24890810454E-01 -0.13285970072E-01  0.33754443995E-02  0.10155141053E+01  0.10151164638E+01 0.  0.
     999903    2    3    3    0    0 -0.99053334789E-01 -0.29036106052E-01 -0.65644120099E-01  0.12401316970E+00  0.20382766438E-01 0.  0.
         14    1    1    2    0    0 -0.24890810454E-01  0.13285970072E-01 -0.33754443995E-02  0.28415894684E-01  0.00000000000E+00 0. -1.
     999901    1    3    3    0    0  0.12394414524E+00  0.15750135980E-01  0.69019564498E-01  0.89150093562E+00  0.88000000000E+00 0.  1.
        -11    1    4    4    0    0 -0.34354575356E-01 -0.80320725236E-03 -0.17502689996E-01  0.38567956491E-01  0.51100000000E-03 0.  1.
         11    1    4    4    0    0 -0.64698759433E-01 -0.28232898800E-01 -0.48141430102E-01  0.85445213208E-01  0.51100000000E-03 0. -1.
</event>
<event>
 8    1  0.1131376E+005  0.1043930E+01  0.7957747E-01            NaN
         13   -1    0    0    0    0  0.00000000000E+00  0.00000000000E+00  0.74505805969E-08  0.10566000000E+00  0.10566000000E+00 0. -1.
     999900   -1    0    0    0    0 -0.00000000000E+00 -0.00000000000E+00 -0.74505805969E-08  0.93827000000E+00  0.93827000000E+00 0.  1.
     999902    2    1    2    0    0 -0.14068078644E-01 -0.11441942090E-02 -0.18549663154E-01  0.10206209884E+01  0.10203547873E+01 0.  0.
     999903    2    3    3    0    0  0.79172703535E-02 -0.11735826637E+00 -0.56279140990E-01  0.13190698515E+00  0.19911433051E-01 0.  0.
         14    1    1    2    0    0  0.14068078644E-01  0.11441942090E-02  0.18549663154E-01  0.23309011567E-01  0.00000000000E+00 0. -1.
     999901    1    3    3    0    0 -0.21985348998E-01  0.11621407216E+00  0.37729477836E-01  0.88871400329E+00  0.88000000000E+00 0. -1.
        -11    1    4    4    0    0 -0.27194199493E-03 -0.89573685322E-01 -0.35975863945E-01  0.96530010681E-01  0.51100000000E-03 0. -1.
         11    1    4    4    0    0  0.81892123484E-02 -0.27784581044E-01 -0.20303277044E-01  0.35376974466E-01  0.51100000000E-03 0.  1.
</event>
<event>
 7    1  0.1131376E+005  0.1043930E+01  0.7957747E-01            NaN
         13   -1    0    0    0    0  0.00000000000E+00  0.00000000000E+00  0.74505805969E-08  0.10566000000E+00  0.10566000000E+00 0.  1.
     999900   -1    0    0    0    0 -0.00000000000E+00 -0.00000000000E+00 -0.74505805969E-08  0.93827000000E+00  0.93827000000E+00 0. -1.
     999903    2    1    2    0    0 -0.47561926041E-01  0.12198660585E-01 -0.92569256773E-01  0.10685953648E+00  0.20951112324E-01 0.  0.
         14    1    1    2    0    0  0.20002692157E-01  0.38025566869E-02 -0.41614682522E-01  0.46328705273E-01  0.00000000000E+00 0. -1.
     999901    1    1    2    0    0  0.27559233885E-01 -0.16001217272E-01  0.13418393930E+00  0.89074175825E+00  0.88000000000E+00 0.  1.
        -11    1    3    3    0    0 -0.36189758664E-01  0.61663850856E-02 -0.47796711403E-01  0.60270305119E-01  0.51100000000E-03 0. -1.
         11    1    3    3    0    0 -0.11372167377E-01  0.60322754996E-02 -0.44772545371E-01  0.46589231358E-01  0.51100000000E-03 0.  1.
</event>
<event>
 8    1  0.1131376E+005  0.1043930E+01  0.7957747E-01            NaN
         13   -1    0    0    0    0  0.00000000000E+00  0.00000000000E+00  0.74505805969E-08  0.10566000000E+00  0.10566000000E+00 0.  1.
     999900   -1    0    0    0    0 -0.00000000000E+00 -0.00000000000E+00 -0.74505805969E-08  0.93827000000E+00  0.93827000000E+00 0.  1.
     999902    2    1    2    0    0 -0.29934305401E-01 -0.33513176334E-02  0.89492245820E-02  0.10125073555E+01  0.10120196452E+01 0.  0.
     999903    2    3    3    0    0  0.65599173983E-01 -0.97142901618E-01 -0.26598782628E-01  0.12167225975E+00  0.18885142163E-01 0.  0.
         14    1    1    2    0    0  0.29934305401E-01  0.33513176334E-02 -0.89492245820E-02  0.31422644548E-01  0.00000000000E+00 0.  1.
     999901    1    3    3    0    0 -0.95533479384E-01  0.93791583985E-01  0.35548007210E-01  0.89083509570E+00  0.88000000000E+00 0. -1.
        -11    1    4    4    0    0  0.27393207184E-01 -0.57368393960E-01 -0.14121558003E-01  0.65124495751E-01  0.51100000000E-03 0.  1.
         11    1    4    4    0    0  0.38205966799E-01 -0.39774507658E-01 -0.12477224625E-01  0.56547764004E-01  0.51100000000E-03 0. -1.
</event>
<event>
 8    1  0.1131376E+005  0.1043930E+01  0.7957747E-01            NaN
         13   -1    0    0    0    0  0.00000000000E+00  0.00000000000E+00  0.74505805969E-08  0.10566000000E+00  0.10566000000E+00 0.  1.
     999900   -1    0    0    0    0 -0.00000000000E+00 -0.00000000000E+00 -0.74505805969E-08  0.93827000000E+00  0.93827000000E+00 0. -1.
     999902    2    1    2    0    0  0.20545986554E-01  0.37302532733E-02 -0.98076514316E-02  0.10208596212E+01  0.10205989044E+01 0.  0.
     999903    2    3    3    0    0 -0.10935475748E-01  0.59970241534E-01  0.11293649335E+00  0.13000601713E+00  0.20758093856E-01 0.  0.
         14    1    1    2    0    0 -0.20545986554E-01 -0.37302532733E-02  0.98076514316E-02  0.23070378835E-01  0.00000000000E+00 0.  1.
     999901    1    3    3    0    0  0.31481462302E-01 -0.56239988260E-01 -0.12274414478E+00  0.89085360404E+00  0.88000000000E+00 0. -1.
        -11    1    4    4    0    0 -0.16280320340E-01  0.45492482181E-01  0.92843019698E-01  0.10466471322E+00  0.51100000000E-03 0.  1.
         11    1    4    4    0    0  0.53448445917E-02  0.14477759352E-01  0.20093473649E-01  0.25341303910E-01  0.51100000000E-03 0. -1.
</event>
<event>
 8    1  0.1131376E+005  0.1043930E+01  0.7957747E-01            NaN
         13   -1    0    0    0    0  0.00000000000E+00  0.00000000000E+00  0.74505805969E-08  0.10566000000E+00  0.10566000000E+00 0. -1.
     999900   -1    0    0    0    0 -0.00000000000E+00 -0.00000000000E+00 -0.74505805969E-08  0.93827000000E+00  0.93827000000E+00 0. -1.
     999902    2    1    2    0    0  0.74207827529E-02 -0.40187933422E-02 -0.22980375644E-01  0.10194490609E+01  0.10191550772E+01 0.  0.
     999903    2    3    3    0    0  0.70543845400E-01 -0.52413651717E-01  0.91576708097E-01  0.12846650840E+00  0.19842512529E-01 0.  0.
         14    1    1    2    0    0 -0.74207827529E-02  0.40187933422E-02  0.22980375644E-01  0.24480939143E-01  0.00000000000E+00 0. -1.
     999901    1    3    3    0    0 -0.63123062647E-01  0.48394858375E-01 -0.11455708374E+00  0.89098255246E+00  0.88000000000E+00 0. -1.
        -11    1    4    4    0    0  0.15135446941E-01 -0.29079168489E-02  0.11578290870E-01  0.19283559707E-01  0.51100000000E-03 0.  1.
         11    1    4    4    0    0  0.55408398459E-01 -0.49505734868E-01  0.79998417227E-01  0.10918294869E+00  0.51100000000E-03 0. -1.
</event>
<event>
 7    1  0.1131376E+005  0.1043930E+01  0.7957747E-01            NaN
         13   -1    0    0    0    0  0.00000000000E+00  0.00000000000E+00  0.74505805969E-08  0.10566000000E+00  0.10566000000E+00 0.  1.
     999900   -1    0    0    0    0 -0.00000000000E+00 -0.00000000000E+00 -0.74505805969E-08  0.93827000000E+00  0.93827000000E+00 0. -1.
     999903    2    1    2    0    0  0.65237596527E-01  0.84499485511E-01 -0.63355805943E-02  0.10874768611E+00  0.19743672396E-01 0.  0.
         14    1    1    2    0    0  0.47692393160E-03  0.28021889871E-01  0.35352883820E-01  0.45114079429E-01  0.00000000000E+00 0.  1.
     999901    1    1    2    0    0 -0.65714520459E-01 -0.11252137538E+00 -0.29017303225E-01  0.89006823446E+00  0.88000000000E+00 0.  1.
        -11    1    3    3    0    0  0.56885918160E-01  0.68098055550E-01  0.14785542800E-02  0.88745704676E-01  0.51100000000E-03 0.  1.
         11    1    3    3    0    0  0.83516783669E-02  0.16401429960E-01 -0.78141348743E-02  0.20001981430E-01  0.51100000000E-03 0. -1.
</event>
<event>
 8    1  0.1131376E+005  0.1043930E+01  0.7957747E-01            NaN
         13   -1    0    0    0    0  0.00000000000E+00  0.00000000000E+00  0.74505805969E-08  0.10566000000E+00  0.10566000000E+00 0. -1.
     999900   -1    0    0    0    0 -0.00000000000E+00 -0.00000000000E+00 -0.74505805969E-08  0.93827000000E+00  0.93827000000E+00 0.  1.
     999902    2    1    2    0    0  0.14909422952E-01  0.38819382142E-02  0.12684470913E-01  0.10239736441E+01  0.10237791597E+01 0.  0.
     999903    2    3    3    0    0  0.30268985323E-02  0.13234809551E+00  0.13177111558E-01  0.13456654350E+00  0.20232099785E-01 0.  0.
         14    1    1    2    0    0 -0.14909422952E-01 -0.38819382142E-02 -0.12684470913E-01  0.19956355865E-01  0.00000000000E+00 0.  1.
     999901    1    3    3    0    0  0.11882524420E-01 -0.12846615730E+00 -0.49264064559E-03  0.88940710063E+00  0.88000000000E+00 0. -1.
        -11    1    4    4    0    0 -0.28806638760E-02  0.66605789040E-01 -0.25163237898E-02  0.66717481700E-01  0.51100000000E-03 0.  1.
         11    1    4    4    0    0  0.59075624083E-02  0.65742306471E-01  0.15693435348E-01  0.67849061804E-01  0.51100000000E-03 0. -1.
</event>
<event>
 8    1  0.1131376E+005  0.1043930E+01  0.7957747E-01            NaN
         13   -1    0    0    0    0  0.00000000000E+00  0.00000000000E+00  0.74505805969E-08  0.10566000000E+00  0.10566000000E+00 0. -1.
     999900   -1    0    0    0    0 -0.00000000000E+00 -0.00000000000E+00 -0.74505805969E-08  0.93827000000E+00  0.93827000000E+00 0.  1.
     999902    2    1    2    0    0 -0.85802397214E-02 -0.20945729068E-01  0.93463005887E-02  0.10194412799E+01  0.10191471070E+01 0.  0.
     999903    2    3    3    0    0  0.42400924720E-01  0.10304113583E+00  0.61089476711E-01  0.12778597758E+00  0.13491397642E-01 0.  0.
         14    1    1    2    0    0  0.85802397214E-02  0.20945729068E-01 -0.93463005887E-02  0.24488720150E-01  0.00000000000E+00 0.  1.
     999901    1    3    3    0    0 -0.50981164442E-01 -0.12398686490E+00 -0.51743176123E-01  0.89165530227E+00  0.88000000000E+00 0. -1.
        -11    1    4    4    0    0  0.74077188714E-02  0.33943713488E-01  0.20436576759E-01  0.40310851825E-01  0.51100000000E-03 0.  1.
         11    1    4    4    0    0  0.34993205849E-01  0.69097422342E-01  0.40652899952E-01  0.87475125752E-01  0.51100000000E-03 0. -1.
</event>
<event>
 8    1  0.1131376E+005  0.1043930E+01  0.7957747E-01            NaN
         13   -1    0    0    0    0  0.00000000000E+00  0.00000000000E+00  0.74505805969E-08  0.10566000000E+00  0.10566000000E+00 0. -1.
     999900   -1    0    0    0    0 -0.00000000000E+00 -0.00000000000E+00 -0.74505805969E-08  0.93827000000E+00  0.93827000000E+00 0. -1.
     999902    2    1    2    0    0  0.17094878918E-01  0.40458394042E-04 -0.17994812416E-01  0.10191096496E+01  0.10188073557E+01 0.  0.
     999903    2    3    3    0    0  0.11199227662E+00  0.10858252370E-01  0.62433827853E-01  0.13029509807E+00  0.20461135227E-01 0.  0.
         14    1    1    2    0    0 -0.17094878918E-01 -0.40458394042E-04  0.17994812416E-01  0.24820350440E-01  0.00000000000E+00 0. -1.
     999901    1    3    3    0    0 -0.94897397702E-01 -0.10817793976E-01 -0.80428640269E-01  0.88881455149E+00  0.88000000000E+00 0.  1.
        -11    1    4    4    0    0  0.39689486422E-01 -0.26921314343E-02  0.30353790662E-01  0.50041149394E-01  0.51100000000E-03 0.  1.
         11    1    4    4    0    0  0.72302790198E-01  0.13550383804E-01  0.32080037191E-01  0.80253948680E-01  0.51100000000E-03 0. -1.
</event>
<event>
 8    1  0.1131376E+005  0.1043930E+01  0.7957747E-01            NaN
         13   -1    0    0    0    0  0.00000000000E+00  0.00000000000E+00  0.74505805969E-08  0.10566000000E+00  0.10566000000E+00 0. -1.
     999900   -1    0    0    0    0 -0.00000000000E+00 -0.00000000000E+00 -0.74505805969E-08  0.93827000000E+00  0.93827000000E+00 0. -1.
     999902    2    1    2    0    0  0.19849234686E-01 -0.18015743785E-01  0.22089071717E-01  0.10091954893E+01  0.10085975657E+01 0.  0.
     999903    2    3    3    0    0  0.81765784143E-01 -0.55742232648E-02  0.91273243050E-01  0.12422379482E+00  0.19596705880E-01 0.  0.
         14    1    1    2    0    0 -0.19849234686E-01  0.18015743785E-01 -0.22089071717E-01  0.34734510664E-01  0.00000000000E+00 0.  1.
     999901    1    3    3    0    0 -0.61916549458E-01 -0.12441520520E-01 -0.69184171332E-01  0.88497169451E+00  0.88000000000E+00 0. -1.
        -11    1    4    4    0    0  0.38700294050E-01  0.59117093482E-02  0.35716281348E-01  0.52995989860E-01  0.51100000000E-03 0.  1.
         11    1    4    4    0    0  0.43065490094E-01 -0.11485932613E-01  0.55556961702E-01  0.71227804961E-01  0.51100000000E-03 0. -1.
</event>
<event>
 7    1  0.1131376E+005  0.1043930E+01  0.7957747E-01            NaN
         13   -1    0    0    0    0  0.00000000000E+00  0.00000000000E+00  0.74505805969E-08  0.10566000000E+00  0.10566000000E+00 0.  1.
     999900   -1    0    0    0    0 -0.00000000000E+00 -0.00000000000E+00 -0.74505805969E-08  0.93827000000E+00  0.93827000000E+00 0. -1.
     999903    2    1    2    0    0  0.28798749155E-02 -0.93052530864E-02  0.11576410584E+00  0.11785813304E+00  0.19857741736E-01 0.  0.
         14    1    1    2    0    0 -0.49119612702E-02 -0.15656015484E-01 -0.39076550803E-01  0.42381776827E-01  0.00000000000E+00 0. -1.
     999901    1    1    2    0    0  0.20320863547E-02  0.24961268570E-01 -0.76687555041E-01  0.88369009013E+00  0.88000000000E+00 0. -1.
        -11    1    3    3    0    0  0.28259498746E-03  0.55049130558E-02  0.54217151909E-01  0.54499033109E-01  0.51100000000E-03 0.  1.
         11    1    3    3    0    0  0.25972799280E-02 -0.14810166142E-01  0.61546953936E-01  0.63359099930E-01  0.51100000000E-03 0. -1.
</event>
<event>
 8    1  0.1131376E+005  0.1043930E+01  0.7957747E-01            NaN
         13   -1    0    0    0    0  0.00000000000E+00  0.00000000000E+00  0.74505805969E-08  0.10566000000E+00  0.10566000000E+00 0.  1.
     999900   -1    0    0    0    0 -0.00000000000E+00 -0.00000000000E+00 -0.74505805969E-08  0.93827000000E+00  0.93827000000E+00 0.  1.
     999902    2    1    2    0    0  0.16591851767E-01  0.17731027199E-01  0.45830430858E-02  0.10192179957E+01  0.10189183675E+01 0.  0.
     999903    2    3    3    0    0  0.90257482820E-01  0.12002879698E-01 -0.91811212364E-01  0.13087611935E+00  0.20218248523E-01 0.  0.
         14    1    1    2    0    0 -0.16591851767E-01 -0.17731027199E-01 -0.45830430858E-02  0.24712004260E-01  0.00000000000E+00 0. -1.
     999901    1    3    3    0    0 -0.73665631052E-01  0.57281475008E-02  0.96394255450E-01  0.88834187639E+00  0.88000000000E+00 0. -1.
        -11    1    4    4    0    0  0.74433720003E-01  0.27688312495E-02 -0.78564070686E-01  0.10826180963E+00  0.51100000000E-03 0. -1.
         11    1    4    4    0    0  0.15823762817E-01  0.92340484487E-02 -0.13247141678E-01  0.22614309719E-01  0.51100000000E-03 0.  1.
</event>
<event>
 8    1  0.1131376E+005  0.1043930E+01  0.7957747E-01            NaN
         13   -1    0    0    0    0  0.00000000000E+00  0.00000000000E+00  0.74505805969E-08  0.10566000000E+00  0.10566000000E+00 0. -1.
     999900   -1    0    0    0    0 -0.00000000000E+00 -0.00000000000E+00 -0.74505805969E-08  0.93827000000E+00  0.93827000000E+00 0. -1.
     999902    2    1    2    0    0  0.39439386142E-03  0.13158230230E-02  0.23302159039E-01  0.10205873876E+01  0.10203204096E+01 0.  0.
     999903    2    3    3    0    0 -0.65542200648E-01  0.10950374199E+00 -0.16144267391E-01  0.13063891672E+00  0.22782440985E-01 0.  0.
         14    1    1    2    0    0 -0.39439386142E-03 -0.13158230230E-02 -0.23302159039E-01  0.23342612378E-01  0.00000000000E+00 0.  1.
     999901    1    3    3    0    0  0.65936594509E-01 -0.10818791896E+00  0.39446426430E-01  0.88994847090E+00  0.88000000000E+00 0. -1.
        -11    1    4    4    0    0 -0.22370068965E-01  0.22662467758E-01  0.22539332809E-02  0.31927241763E-01  0.51100000000E-03 0.  1.
         11    1    4    4    0    0 -0.43172131683E-01  0.86841274228E-01 -0.18398200672E-01  0.98711674956E-01  0.51100000000E-03 0. -1.
</event>
<event>
 8    1  0.1131376E+005  0.1043930E+01  0.7957747E-01            NaN
         13   -1    0    0    0    0  0.00000000000E+00  0.00000000000E+00  0.74505805969E-08  0.10566000000E+00  0.10566000000E+00 0. -1.
     999900   -1    0    0    0    0 -0.00000000000E+00 -0.00000000000E+00 -0.74505805969E-08  0.93827000000E+00  0.93827000000E+00 0. -1.
     999902    2    1    2    0    0 -0.12827258008E-01  0.17091436846E-01 -0.74613934015E-02  0.10212953329E+01  0.10210444794E+01 0.  0.
     999903    2    3    3    0    0  0.46229964426E-01 -0.75058882048E-01 -0.93984749602E-01  0.13030390315E+00  0.19363073947E-01 0.  0.
         14    1    1    2    0    0  0.12827258008E-01 -0.17091436846E-01  0.74613934015E-02  0.22634667061E-01  0.00000000000E+00 0. -1.
     999901    1    3    3    0    0 -0.59057222435E-01  0.92150318894E-01  0.86523356200E-01  0.89099142979E+00  0.88000000000E+00 0.  1.
        -11    1    4    4    0    0  0.33936740661E-01 -0.67962932038E-01 -0.77057985858E-01  0.10820747111E+00  0.51100000000E-03 0.  1.
         11    1    4    4    0    0  0.12293223766E-01 -0.70959500102E-02 -0.16926763743E-01  0.22096432041E-01  0.51100000000E-03 0. -1.
</event>
<event>
 8    1  0.1131376E+005  0.1043930E+01  0.7957747E-01            NaN
         13   -1    0    0    0    0  0.00000000000E+00  0.00000000000E+00  0.74505805969E-08  0.10566000000E+00  0.10566000000E+00 0. -1.
     999900   -1    0    0    0    0 -0.00000000000E+00 -0.00000000000E+00 -0.74505805969E-08  0.93827000000E+00  0.93827000000E+00 0. -1.
     999902    2    1    2    0    0  0.65620532122E-02  0.20011288237E-01 -0.10805478905E-01  0.10202599646E+01  0.10199853552E+01 0.  0.
     999903    2    3    3    0    0 -0.17894781900E-01 -0.11511396425E+00 -0.50775620948E-01  0.12871378923E+00  0.20435945567E-01 0.  0.
         14    1    1    2    0    0 -0.65620532122E-02 -0.20011288237E-01  0.10805478905E-01  0.23670035353E-01  0.00000000000E+00 0. -1.
     999901    1    3    3    0    0  0.24456835112E-01  0.13512525249E+00  0.39970142043E-01  0.89154617542E+00  0.88000000000E+00 0. -1.
        -11    1    4    4    0    0  0.45447328223E-02 -0.15633329584E-01 -0.74247705028E-02  0.17900947693E-01  0.51100000000E-03 0. -1.
         11    1    4    4    0    0 -0.22439514722E-01 -0.99480634666E-01 -0.43350850445E-01  0.11081284154E+00  0.51100000000E-03 0.  1.
</event>
<event>
 8    1  0.1131376E+005  0.1043930E+01  0.7957747E-01            NaN
         13   -1    0    0    0    0  0.00000000000E+00  0.00000000000E+00  0.74505805969E-08  0.10566000000E+00  0.10566000000E+00 0.  1.
     999900   -1    0    0    0    0 -0.00000000000E+00 -0.00000000000E+00 -0.74505805969E-08  0.93827000000E+00  0.93827000000E+00 0.  1.
     999902    2    1    2    0    0 -0.89107077368E-02  0.19873634104E-01 -0.90434977434E-02  0.10203472331E+01  0.10200746684E+01 0.  0.
     999903    2    3    3    0    0  0.57050460359E-01 -0.10113919423E+00  0.49328146918E-01  0.12770944022E+00  0.19812708209E-01 0.  0.
         14    1    1    2    0    0  0.89107077368E-02 -0.19873634104E-01  0.90434977434E-02  0.23582766935E-01  0.00000000000E+00 0.  1.
     999901    1    3    3    0    0 -0.65961168096E-01  0.12101282833E+00 -0.58371644662E-01  0.89263779285E+00  0.88000000000E+00 0.  1.
        -11    1    4    4    0    0  0.22479810697E-01 -0.29107382756E-01  0.23887405699E-01  0.43857164658E-01  0.51100000000E-03 0. -1.
         11    1    4    4    0    0  0.34570649663E-01 -0.72031811471E-01  0.25440741220E-01  0.83852275561E-01  0.51100000000E-03 0.  1.
</event>
<event>
 8    1  0.1131376E+005  0.1043930E+01  0.7957747E-01            NaN
         13   -1    0    0    0    0  0.00000000000E+00  0.00000000000E+00  0.74505805969E-08  0.10566000000E+00  0.10566000000E+00 0.  1.
     999900   -1    0    0    0    0 -0.00000000000E+00 -0.00000000000E+00 -0.74505805969E-08  0.93827000000E+00  0.93827000000E+00 0. -1.
     999902    2    1    2    0    0  0.87662541495E-02 -0.20968772255E-01 -0.61152966546E-02  0.10203942086E+01  0.10201227414E+01 0.  0.
     999903    2    3    3    0    0  0.19782459938E-01 -0.89677483359E-01  0.92764598512E-01  0.13212652520E+00  0.20463410822E-01 0.  0.
         14    1    1    2    0    0 -0.87662541495E-02  0.20968772255E-01  0.61152966546E-02  0.23535791359E-01  0.00000000000E+00 0.  1.
     999901    1    3    3    0    0 -0.11016205789E-01  0.68708711104E-01 -0.98879895166E-01  0.88826768344E+00  0.88000000000E+00 0. -1.
        -11    1    4    4    0    0  0.11295804900E-01 -0.17222375342E-01  0.14896741867E-01  0.25423993786E-01  0.51100000000E-03 0. -1.
         11    1    4    4    0    0  0.84866550376E-02 -0.72455108017E-01  0.77867856645E-01  0.10670253142E+00  0.51100000000E-03 0.  1.
</event>
<event>
 8    1  0.1131376E+005  0.1043930E+01  0.7957747E-01            NaN
         13   -1    0    0    0    0  0.00000000000E+00  0.00000000000E+00  0.74505805969E-08  0.10566000000E+00  0.10566000000E+00 0. -1.
     999900   -1    0    0    0    0 -0.00000000000E+00 -0.00000000000E+00 -0.74505805969E-08  0.93827000000E+00  0.93827000000E+00 0.  1.
     999902    2    1    2    0    0  0.11778197460E-01  0.29705242178E-02  0.20367428597E-01  0.10202154033E+01  0.10199397468E+01 0.  0.
     999903    2    3    3    0    0  0.39176085600E-02 -0.12852892130E+00 -0.38227672348E-04  0.13017591886E+00  0.20266650479E-01 0.  0.
         14    1    1    2    0    0 -0.11778197460E-01 -0.29705242178E-02 -0.20367428597E-01  0.23714596712E-01  0.00000000000E+00 0.  1.
     999901    1    3    3    0    0  0.78605889003E-02  0.13149944552E+00  0.20405656269E-01  0.89003948443E+00  0.88000000000E+00 0.  1.
        -11    1    4    4    0    0 -0.35615419292E-02 -0.36260980814E-01 -0.78496717335E-02  0.37274948395E-01  0.51100000000E-03 0.  1.
         11    1    4    4    0    0  0.74791504892E-02 -0.92267940490E-01  0.78114440611E-02  0.92900970467E-01  0.51100000000E-03 0. -1.
</event>
<event>
 8    1  0.1131376E+005  0.1043930E+01  0.7957747E-01            NaN
         13   -1    0    0    0    0  0.00000000000E+00  0.00000000000E+00  0.74505805969E-08  0.10566000000E+00  0.10566000000E+00 0. -1.
     999900   -1    0    0    0    0 -0.00000000000E+00 -0.00000000000E+00 -0.74505805969E-08  0.93827000000E+00  0.93827000000E+00 0.  1.
     999902    2    1    2    0    0  0.23505744414E-01  0.28357438941E-02 -0.23466781346E-02  0.10201378088E+01  0.10198603241E+01 0.  0.
     999903    2    3    3    0    0 -0.23986918100E-01 -0.60235027567E-01 -0.10975137490E+00  0.13009890847E+00  0.26014052110E-01 0.  0.
         14    1    1    2    0    0 -0.23505744414E-01 -0.28357438941E-02  0.23466781346E-02  0.23792191201E-01  0.00000000000E+00 0.  1.
     999901    1    3    3    0    0  0.47492662513E-01  0.63070771461E-01  0.10740469677E+00  0.89003890033E+00  0.88000000000E+00 0. -1.
        -11    1    4    4    0    0 -0.21906032978E-01 -0.23873412954E-01 -0.62875361970E-01  0.70734619464E-01  0.51100000000E-03 0.  1.
         11    1    4    4    0    0 -0.20808851220E-02 -0.36361614613E-01 -0.46876012932E-01  0.59364289009E-01  0.51100000000E-03 0. -1.
</event>
<event>
 8    1  0.1131376E+005  0.1043930E+01  0.7957747E-01            NaN
         13   -1    0    0    0    0  0.00000000000E+00  0.00000000000E+00  0.74505805969E-08  0.10566000000E+00  0.10566000000E+00 0.  1.
     999900   -1    0    0    0    0 -0.00000000000E+00 -0.00000000000E+00 -0.74505805969E-08  0.93827000000E+00  0.93827000000E+00 0. -1.
     999902    2    1    2    0    0  0.92016369351E-02  0.44607926098E-02 -0.25470478383E-01  0.10164834326E+01  0.10161128159E+01 0.  0.
     999903    2    3    3    0    0 -0.63568306060E-01  0.10086729545E+00 -0.42277593654E-01  0.12807352860E+00  0.20007323075E-01 0.  0.
         14    1    1    2    0    0 -0.92016369351E-02 -0.44607926098E-02  0.25470478383E-01  0.27446567400E-01  0.00000000000E+00 0.  1.
     999901    1    3    3    0    0  0.72769942995E-01 -0.96406502843E-01  0.16807115271E-01  0.88840990400E+00  0.88000000000E+00 0.  1.
        -11    1    4    4    0    0 -0.21362979893E-01  0.48404008723E-01 -0.12053232712E-01  0.54266624275E-01  0.51100000000E-03 0. -1.
         11    1    4    4    0    0 -0.42205326166E-01  0.52463286730E-01 -0.30224360942E-01  0.73806904330E-01  0.51100000000E-03 0.  1.
</event>
<event>
 8    1  0.1131376E+005  0.1043930E+01  0.7957747E-01            NaN
         13   -1    0    0    0    0  0.00000000000E+00  0.00000000000E+00  0.74505805969E-08  0.10566000000E+00  0.10566000000E+00 0. -1.
     999900   -1    0    0    0    0 -0.00000000000E+00 -0.00000000000E+00 -0.74505805969E-08  0.93827000000E+00  0.93827000000E+00 0.  1.
     999902    2    1    2    0    0 -0.92619319754E-02  0.17024979416E-01  0.84296460285E-02  0.10227949050E+01  0.10225765133E+01 0.  0.
     999903    2    3    3    0    0  0.53634785088E-01  0.11699696716E+00  0.33507910500E-01  0.13454982920E+00  0.20393527823E-01 0.  0.
         14    1    1    2    0    0  0.92619319754E-02 -0.17024979416E-01 -0.84296460285E-02  0.21135094989E-01  0.00000000000E+00 0.  1.
     999901    1    3    3    0    0 -0.62896717063E-01 -0.99971987740E-01 -0.25078264472E-01  0.88824507581E+00  0.88000000000E+00 0.  1.
        -11    1    4    4    0    0  0.25991325962E-01  0.79979233888E-01  0.22399628155E-01  0.87030059985E-01  0.51100000000E-03 0.  1.
         11    1    4    4    0    0  0.27643459126E-01  0.37017733268E-01  0.11108282346E-01  0.47519769217E-01  0.51100000000E-03 0. -1.
</event>
<event>
 8    1  0.1131376E+005  0.1043930E+01  0.7957747E-01            NaN
         13   -1    0    0    0    0  0.00000000000E+00  0.00000000000E+00  0.74505805969E-08  0.10566000000E+00  0.10566000000E+00 0.  1.
     999900   -1    0    0    0    0 -0.00000000000E+00 -0.00000000000E+00 -0.74505805969E-08  0.93827000000E+00  0.93827000000E+00 0.  1.
     999902    2    1    2    0    0 -0.84897845983E-02  0.18445882649E-01  0.11871039456E-01  0.10204087626E+01  0.10201376350E+01 0.  0.
     999903    2    3    3    0    0  0.10671360022E+00 -0.56948450324E-01 -0.39992014850E-01  0.12819471785E+00  0.14269056299E-01 0.  0.
         14    1    1    2    0    0  0.84897845983E-02 -0.18445882649E-01 -0.11871039456E-01  0.23521237360E-01  0.00000000000E+00 0. -1.
     999901    1    3    3    0    0 -0.11520338481E+00  0.75394332972E-01  0.51863054305E-01  0.89221404479E+00  0.88000000000E+00 0. -1.
        -11    1    4    4    0    0  0.61103579926E-01 -0.29106510130E-01 -0.15631958296E-01  0.69465499731E-01  0.51100000000E-03 0. -1.
         11    1    4    4    0    0  0.45610020290E-01 -0.27841940193E-01 -0.24360056554E-01  0.58729218119E-01  0.51100000000E-03 0.  1.
</event>
<event>
 8    1  0.1131376E+005  0.1043930E+01  0.7957747E-01            NaN
         13   -1    0    0    0    0  0.00000000000E+00  0.00000000000E+00  0.74505805969E-08  0.10566000000E+00  0.10566000000E+00 0. -1.
     999900   -1    0    0    0    0 -0.00000000000E+00 -0.00000000000E+00 -0.74505805969E-08  0.93827000000E+00  0.93827000000E+00 0. -1.
     999902    2    1    2    0    0 -0.74816061791E-02 -0.16733824064E-01 -0.16317565374E-01  0.10193890498E+01  0.10190936054E+01 0.  0.
     999903    2    3    3    0    0 -0.11528488561E+00 -0.29136135313E-01  0.48900543581E-01  0.13032844096E+00  0.21324167749E-01 0.  0.
         14    1    1    2    0    0  0.74816061791E-02  0.16733824064E-01  0.16317565374E-01  0.24540950237E-01  0.00000000000E+00 0. -1.
     999901    1    3    3    0    0  0.10780327943E+00  0.12402311250E-01 -0.65218108955E-01  0.88906060880E+00  0.88000000000E+00 0. -1.
        -11    1    4    4    0    0 -0.24417824617E-01 -0.99261379348E-03  0.27498737436E-02  0.24597527676E-01  0.51100000000E-03 0.  1.
         11    1    4    4    0    0 -0.90867060995E-01 -0.28143521520E-01  0.46150669837E-01  0.10573091329E+00  0.51100000000E-03 0. -1.
</event>
<event>
 8    1  0.1131376E+005  0.1043930E+01  0.7957747E-01            NaN
         13   -1    0    0    0    0  0.00000000000E+00  0.00000000000E+00  0.74505805969E-08  0.10566000000E+00  0.10566000000E+00 0.  1.
     999900   -1    0    0    0    0 -0.00000000000E+00 -0.00000000000E+00 -0.74505805969E-08  0.93827000000E+00  0.93827000000E+00 0. -1.
     999902    2    1    2    0    0  0.73896423764E-02  0.20235924489E-01  0.95286521554E-02  0.10203737977E+01  0.10201018539E+01 0.  0.
     999903    2    3    3    0    0  0.63170289886E-01  0.36507748023E-01  0.10921995646E+00  0.13284091999E+00  0.19859756933E-01 0.  0.
         14    1    1    2    0    0 -0.73896423764E-02 -0.20235924489E-01 -0.95286521554E-02  0.23556202289E-01  0.00000000000E+00 0. -1.
     999901    1    3    3    0    0 -0.55780647510E-01 -0.16271823533E-01 -0.99691304304E-01  0.88753287772E+00  0.88000000000E+00 0. -1.
        -11    1    4    4    0    0  0.24794332440E-01  0.25360291414E-01  0.55936449632E-01  0.66234815771E-01  0.51100000000E-03 0.  1.
         11    1    4    4    0    0  0.38375957446E-01  0.11147456609E-01  0.53283506827E-01  0.66606104221E-01  0.51100000000E-03 0. -1.
</event>
<event>
 8    1  0.1131376E+005  0.1043930E+01  0.7957747E-01            NaN
         13   -1    0    0    0    0  0.00000000000E+00  0.00000000000E+00  0.74505805969E-08  0.10566000000E+00  0.10566000000E+00 0.  1.
     999900   -1    0    0    0    0 -0.00000000000E+00 -0.00000000000E+00 -0.74505805969E-08  0.93827000000E+00  0.93827000000E+00 0. -1.
     999902    2    1    2    0    0 -0.10123593074E-02 -0.31295549417E-02 -0.17844851607E-01  0.10257845401E+01  0.10256240369E+01 0.  0.
     999903    2    3    3    0    0 -0.65973098614E-01 -0.30589202976E-01  0.11055755793E+00  0.13367406002E+00  0.18911150874E-01 0.  0.
         14    1    1    2    0    0  0.10123593074E-02  0.31295549417E-02  0.17844851607E-01  0.18145459884E-01  0.00000000000E+00 0.  1.
     999901    1    3    3    0    0  0.64960739307E-01  0.27459648034E-01 -0.12840240954E+00  0.89211048010E+00  0.88000000000E+00 0. -1.
        -11    1    4    4    0    0 -0.20918673262E-01 -0.10820328811E-01  0.52688305462E-01  0.57714721346E-01  0.51100000000E-03 0. -1.
         11    1    4    4    0    0 -0.45054425353E-01 -0.19768874165E-01  0.57869252469E-01  0.75959338675E-01  0.51100000000E-03 0.  1.
</event>
<event>
 8    1  0.1131376E+005  0.1043930E+01  0.7957747E-01            NaN
         13   -1    0    0    0    0  0.00000000000E+00  0.00000000000E+00  0.74505805969E-08  0.10566000000E+00  0.10566000000E+00 0.  1.
     999900   -1    0    0    0    0 -0.00000000000E+00 -0.00000000000E+00 -0.74505805969E-08  0.93827000000E+00  0.93827000000E+00 0. -1.
     999902    2    1    2    0    0  0.25161083944E-01 -0.13722404822E-02  0.24860810114E-01  0.10085319341E+01  0.10079105313E+01 0.  0.
     999903    2    3    3    0    0  0.17848381143E-01  0.11655984857E+00  0.14548308580E-01  0.12057484002E+00  0.20539614316E-01 0.  0.
         14    1    1    2    0    0 -0.25161083944E-01  0.13722404822E-02 -0.24860810114E-01  0.35398065889E-01  0.00000000000E+00 0. -1.
     999901    1    3    3    0    0  0.73127028008E-02 -0.11793208905E+00  0.10312501534E-01  0.88795709409E+00  0.88000000000E+00 0.  1.
        -11    1    4    4    0    0  0.20857160536E-01  0.70934839510E-01  0.10245994079E-01  0.74645924990E-01  0.51100000000E-03 0. -1.
         11    1    4    4    0    0 -0.30087793934E-02  0.45625009060E-01  0.43023145013E-02  0.45928915035E-01  0.51100000000E-03 0.  1.
</event>
<event>
 7    1  0.1131376E+005  0.1043930E+01  0.7957747E-01            NaN
         13   -1    0    0    0    0  0.00000000000E+00  0.00000000000E+00  0.74505805969E-08  0.10566000000E+00  0.10566000000E+00 0. -1.
     999900   -1    0    0    0    0 -0.00000000000E+00 -0.00000000000E+00 -0.74505805969E-08  0.93827000000E+00  0.93827000000E+00 0. -1.
     999903    2    1    2    0    0  0.24590561067E-01 -0.91119627186E-01 -0.12864390173E-01  0.97302990880E-01  0.19872024245E-01 0.  0.
         14    1    1    2    0    0 -0.56786261301E-01  0.26507840715E-01  0.11245760292E-01  0.63669554863E-01  0.00000000000E+00 0. -1.
     999901    1    1    2    0    0  0.32195700234E-01  0.64611786472E-01  0.16186298814E-02  0.88295745426E+00  0.88000000000E+00 0. -1.
        -11    1    3    3    0    0 -0.16506646979E-02 -0.28464000375E-01 -0.40645715668E-02  0.28804615503E-01  0.51100000000E-03 0. -1.
         11    1    3    3    0    0  0.26241225765E-01 -0.62655626811E-01 -0.87998186064E-02  0.68498375377E-01  0.51100000000E-03 0.  1.
</event>
