<event>
 8    1  0.1123191E+005  0.1043930E+01  0.7957747E-01            NaN
         13   -1    0    0    0    0  0.00000000000E+00  0.00000000000E+00  0.74505805969E-08  0.10566000000E+00  0.10566000000E+00 0. -1.
     999900   -1    0    0    0    0 -0.00000000000E+00 -0.00000000000E+00 -0.74505805969E-08  0.93827000000E+00  0.93827000000E+00 0.  1.
     999902    2    1    2    0    0  0.20173280618E-03 -0.19431354286E-01 -0.15782307007E-01  0.10188960343E+01  0.10185884494E+01 0.  0.
     999903    2    3    3    0    0  0.11811646538E+00 -0.32931333844E-01  0.35937012329E-01  0.12942370665E+00  0.20568297104E-01 0.  0.
         14    1    1    2    0    0 -0.20173280618E-03  0.19431354286E-01  0.15782307007E-01  0.25033965726E-01  0.00000000000E+00 0. -1.
     999901    1    3    3    0    0 -0.11791473258E+00  0.13499979558E-01 -0.51719319336E-01  0.88947232762E+00  0.88000000000E+00 0.  1.
        -11    1    4    4    0    0  0.51984489233E-01 -0.18737152769E-01  0.25950433754E-01  0.61050422994E-01  0.51100000000E-03 0.  1.
         11    1    4    4    0    0  0.66131976150E-01 -0.14194181075E-01  0.99865785747E-02  0.68373283661E-01  0.51100000000E-03 0. -1.
</event>
<event>
 8    1  0.1123191E+005  0.1043930E+01  0.7957747E-01            NaN
         13   -1    0    0    0    0  0.00000000000E+00  0.00000000000E+00  0.74505805969E-08  0.10566000000E+00  0.10566000000E+00 0.  1.
     999900   -1    0    0    0    0 -0.00000000000E+00 -0.00000000000E+00 -0.74505805969E-08  0.93827000000E+00  0.93827000000E+00 0. -1.
     999902    2    1    2    0    0 -0.10356836230E-01 -0.21217155913E-01 -0.87956999240E-02  0.10187348398E+01  0.10184232311E+01 0.  0.
     999903    2    3    3    0    0  0.60798706853E-05 -0.62652041248E-01 -0.11381534704E+00  0.13146184569E+00  0.20074992890E-01 0.  0.
         14    1    1    2    0    0  0.10356836230E-01  0.21217155913E-01  0.87956999240E-02  0.25195160227E-01  0.00000000000E+00 0. -1.
     999901    1    3    3    0    0 -0.10362916100E-01  0.41434885335E-01  0.10501964712E+00  0.88727299409E+00  0.88000000000E+00 0. -1.
        -11    1    4    4    0    0 -0.91797746686E-03 -0.40212920872E-03 -0.12468966646E-01  0.12519610248E-01  0.51100000000E-03 0.  1.
         11    1    4    4    0    0  0.92405733755E-03 -0.62249912040E-01 -0.10134638040E+00  0.11894223544E+00  0.51100000000E-03 0. -1.
</event>
<event>
 8    1  0.1123191E+005  0.1043930E+01  0.7957747E-01            NaN
         13   -1    0    0    0    0  0.00000000000E+00  0.00000000000E+00  0.74505805969E-08  0.10566000000E+00  0.10566000000E+00 0.  1.
     999900   -1    0    0    0    0 -0.00000000000E+00 -0.00000000000E+00 -0.74505805969E-08  0.93827000000E+00  0.93827000000E+00 0. -1.
     999902    2    1    2    0    0 -0.15166315276E-01  0.13290320540E-01 -0.12567513010E-01  0.10201688527E+01  0.10198921001E+01 0.  0.
     999903    2    3    3    0    0 -0.12407296326E+00 -0.15067424980E-01 -0.39453076243E-01  0.13259482578E+00  0.20092662592E-01 0.  0.
         14    1    1    2    0    0  0.15166315276E-01 -0.13290320540E-01  0.12567513010E-01  0.23761147329E-01  0.00000000000E+00 0. -1.
     999901    1    3    3    0    0  0.10890664798E+00  0.28357745521E-01  0.26885563233E-01  0.88757402689E+00  0.88000000000E+00 0.  1.
        -11    1    4    4    0    0 -0.10540328545E+00 -0.19232126552E-01 -0.30079107352E-01  0.11128675166E+00  0.51100000000E-03 0.  1.
         11    1    4    4    0    0 -0.18669677810E-01  0.41647015719E-02 -0.93739688906E-02  0.21308074115E-01  0.51100000000E-03 0. -1.
</event>
<event>
 8    1  0.1123191E+005  0.1043930E+01  0.7957747E-01            NaN
         13   -1    0    0    0    0  0.00000000000E+00  0.00000000000E+00  0.74505805969E-08  0.10566000000E+00  0.10566000000E+00 0.  1.
     999900   -1    0    0    0    0 -0.00000000000E+00 -0.00000000000E+00 -0.74505805969E-08  0.93827000000E+00  0.93827000000E+00 0. -1.
     999902    2    1    2    0    0 -0.20546742932E-03 -0.20246975532E-01 -0.81355432954E-03  0.10236656445E+01  0.10234650495E+01 0.  0.
     999903    2    3    3    0    0  0.93832523241E-02 -0.80905684379E-01 -0.10596755317E+00  0.13528015044E+00  0.20924186674E-01 0.  0.
         14    1    1    2    0    0  0.20546742932E-03  0.20246975532E-01  0.81355432954E-03  0.20264355546E-01  0.00000000000E+00 0. -1.
     999901    1    3    3    0    0 -0.95887197534E-02  0.60658708847E-01  0.10515399884E+00  0.88838549402E+00  0.88000000000E+00 0.  1.
        -11    1    4    4    0    0 -0.31994585656E-02 -0.43027905825E-02 -0.25284255486E-02  0.59501763558E-02  0.51100000000E-03 0. -1.
         11    1    4    4    0    0  0.12582710890E-01 -0.76602893796E-01 -0.10343912762E+00  0.12932997408E+00  0.51100000000E-03 0.  1.
</event>
<event>
 8    1  0.1123191E+005  0.1043930E+01  0.7957747E-01            NaN
         13   -1    0    0    0    0  0.00000000000E+00  0.00000000000E+00  0.74505805969E-08  0.10566000000E+00  0.10566000000E+00 0. -1.
     999900   -1    0    0    0    0 -0.00000000000E+00 -0.00000000000E+00 -0.74505805969E-08  0.93827000000E+00  0.93827000000E+00 0. -1.
     999902    2    1    2    0    0  0.14842864284E-03 -0.19643128130E-01 -0.13706429993E-01  0.10199771142E+01  0.10196958237E+01 0.  0.
     999903    2    3    3    0    0  0.63604583825E-01 -0.85878943454E-01  0.73271588087E-01  0.13094447000E+00  0.18894247577E-01 0.  0.
         14    1    1    2    0    0 -0.14842864284E-03  0.19643128130E-01  0.13706429993E-01  0.23952885775E-01  0.00000000000E+00 0. -1.
     999901    1    3    3    0    0 -0.63456155182E-01  0.66235815324E-01 -0.86978018080E-01  0.88903264422E+00  0.88000000000E+00 0. -1.
        -11    1    4    4    0    0  0.67681521715E-02 -0.21422081934E-01  0.17685202381E-01  0.28596170766E-01  0.51100000000E-03 0. -1.
         11    1    4    4    0    0  0.56836431654E-01 -0.64456861519E-01  0.55586385706E-01  0.10234829924E+00  0.51100000000E-03 0.  1.
</event>
<event>
 8    1  0.1123191E+005  0.1043930E+01  0.7957747E-01            NaN
         13   -1    0    0    0    0  0.00000000000E+00  0.00000000000E+00  0.74505805969E-08  0.10566000000E+00  0.10566000000E+00 0.  1.
     999900   -1    0    0    0    0 -0.00000000000E+00 -0.00000000000E+00 -0.74505805969E-08  0.93827000000E+00  0.93827000000E+00 0.  1.
     999902    2    1    2    0    0  0.11871280958E-01  0.15802583225E-01  0.12333707320E-01  0.10206325906E+01  0.10203666575E+01 0.  0.
     999903    2    3    3    0    0  0.83542101463E-01  0.54774226736E-01 -0.83183264132E-01  0.13171246633E+00  0.21194804168E-01 0.  0.
         14    1    1    2    0    0 -0.11871280958E-01 -0.15802583225E-01 -0.12333707320E-01  0.23297409393E-01  0.00000000000E+00 0. -1.
     999901    1    3    3    0    0 -0.71670820504E-01 -0.38971643510E-01  0.95516971452E-01  0.88892012428E+00  0.88000000000E+00 0. -1.
        -11    1    4    4    0    0  0.39722227424E-01  0.22678496668E-01 -0.51279759403E-01  0.68717133293E-01  0.51100000000E-03 0. -1.
         11    1    4    4    0    0  0.43819874039E-01  0.32095730068E-01 -0.31903504729E-01  0.62995333037E-01  0.51100000000E-03 0.  1.
</event>
<event>
 8    1  0.1123191E+005  0.1043930E+01  0.7957747E-01            NaN
         13   -1    0    0    0    0  0.00000000000E+00  0.00000000000E+00  0.74505805969E-08  0.10566000000E+00  0.10566000000E+00 0. -1.
     999900   -1    0    0    0    0 -0.00000000000E+00 -0.00000000000E+00 -0.74505805969E-08  0.93827000000E+00  0.93827000000E+00 0. -1.
     999902    2    1    2    0    0  0.12472095572E-01 -0.19878783276E-01  0.62445235039E-03  0.10204542863E+01  0.10201842193E+01 0.  0.
     999903    2    3    3    0    0  0.10125452054E+00  0.58275807560E-01 -0.55990781093E-01  0.13073762146E+00  0.17573002640E-01 0.  0.
         14    1    1    2    0    0 -0.12472095572E-01  0.19878783276E-01 -0.62445235039E-03  0.23475713690E-01  0.00000000000E+00 0.  1.
     999901    1    3    3    0    0 -0.88782424966E-01 -0.78154590837E-01  0.56615233444E-01  0.88971666485E+00  0.88000000000E+00 0.  1.
        -11    1    4    4    0    0  0.27769989034E-01  0.24207003651E-01 -0.13249717965E-01  0.39153128404E-01  0.51100000000E-03 0. -1.
         11    1    4    4    0    0  0.73484531504E-01  0.34068803909E-01 -0.42741063129E-01  0.91584493057E-01  0.51100000000E-03 0.  1.
</event>
<event>
 8    1  0.1123191E+005  0.1043930E+01  0.7957747E-01            NaN
         13   -1    0    0    0    0  0.00000000000E+00  0.00000000000E+00  0.74505805969E-08  0.10566000000E+00  0.10566000000E+00 0. -1.
     999900   -1    0    0    0    0 -0.00000000000E+00 -0.00000000000E+00 -0.74505805969E-08  0.93827000000E+00  0.93827000000E+00 0. -1.
     999902    2    1    2    0    0 -0.12434101232E-01 -0.35686409501E-02  0.18132315868E-01  0.10216561824E+01  0.10214133503E+01 0.  0.
     999903    2    3    3    0    0  0.99835265264E-01 -0.80010360070E-01 -0.16469350174E-01  0.13056414318E+00  0.20174689085E-01 0.  0.
         14    1    1    2    0    0  0.12434101232E-01  0.35686409501E-02 -0.18132315868E-01  0.22273817599E-01  0.00000000000E+00 0.  1.
     999901    1    3    3    0    0 -0.11226936650E+00  0.76441719119E-01  0.34601666042E-01  0.89109203922E+00  0.88000000000E+00 0. -1.
        -11    1    4    4    0    0  0.43284249431E-01 -0.29559733497E-01  0.23724357726E-02  0.52470883981E-01  0.51100000000E-03 0.  1.
         11    1    4    4    0    0  0.56551015833E-01 -0.50450626572E-01 -0.18841785946E-01  0.78093259196E-01  0.51100000000E-03 0. -1.
</event>
<event>
 7    1  0.1123191E+005  0.1043930E+01  0.7957747E-01            NaN
         13   -1    0    0    0    0  0.00000000000E+00  0.00000000000E+00  0.74505805969E-08  0.10566000000E+00  0.10566000000E+00 0.  1.
     999900   -1    0    0    0    0 -0.00000000000E+00 -0.00000000000E+00 -0.74505805969E-08  0.93827000000E+00  0.93827000000E+00 0. -1.
     999903    2    1    2    0    0 -0.85551689647E-02 -0.74831377613E-01 -0.64048575125E-01  0.10079381888E+00  0.19602243682E-01 0.  0.
         14    1    1    2    0    0 -0.22709119099E-01 -0.46013275767E-01 -0.55249885401E-02  0.51608634311E-01  0.00000000000E+00 0.  1.
     999901    1    1    2    0    0  0.31264288064E-01  0.12084465338E+00  0.69573563665E-01  0.89152754681E+00  0.88000000000E+00 0.  1.
        -11    1    3    3    0    0  0.71764559721E-03 -0.61670130905E-01 -0.49398074894E-01  0.79019940428E-01  0.51100000000E-03 0.  1.
         11    1    3    3    0    0 -0.92728145619E-02 -0.13161246708E-01 -0.14650500231E-01  0.21773878452E-01  0.51100000000E-03 0. -1.
</event>
<event>
 8    1  0.1123191E+005  0.1043930E+01  0.7957747E-01            NaN
         13   -1    0    0    0    0  0.00000000000E+00  0.00000000000E+00  0.74505805969E-08  0.10566000000E+00  0.10566000000E+00 0.  1.
     999900   -1    0    0    0    0 -0.00000000000E+00 -0.00000000000E+00 -0.74505805969E-08  0.93827000000E+00  0.93827000000E+00 0. -1.
     999902    2    1    2    0    0 -0.55107803359E-02 -0.18706735560E-01 -0.13935122608E-01  0.10199613059E+01  0.10196796395E+01 0.  0.
     999903    2    3    3    0    0 -0.11104345669E+00 -0.52562810709E-01  0.41481382894E-01  0.13128005331E+00  0.20499973830E-01 0.  0.
         14    1    1    2    0    0  0.55107803359E-02  0.18706735560E-01  0.13935122608E-01  0.23968694110E-01  0.00000000000E+00 0. -1.
     999901    1    3    3    0    0  0.10553267636E+00  0.33856075149E-01 -0.55416505502E-01  0.88868125258E+00  0.88000000000E+00 0. -1.
        -11    1    4    4    0    0 -0.55651933432E-01 -0.26610017416E-01  0.10038580031E-01  0.62500119453E-01  0.51100000000E-03 0.  1.
         11    1    4    4    0    0 -0.55391523259E-01 -0.25952793294E-01  0.31442802862E-01  0.68779933858E-01  0.51100000000E-03 0. -1.
</event>
<event>
 8    1  0.1123191E+005  0.1043930E+01  0.7957747E-01            NaN
         13   -1    0    0    0    0  0.00000000000E+00  0.00000000000E+00  0.74505805969E-08  0.10566000000E+00  0.10566000000E+00 0.  1.
     999900   -1    0    0    0    0 -0.00000000000E+00 -0.00000000000E+00 -0.74505805969E-08  0.93827000000E+00  0.93827000000E+00 0.  1.
     999902    2    1    2    0    0  0.11788313066E-01 -0.19985763255E-01 -0.60892601330E-02  0.10199409578E+01  0.10196588073E+01 0.  0.
     999903    2    3    3    0    0 -0.37628144077E-02  0.84468278005E-01 -0.96007910093E-01  0.12907741721E+00  0.17158440245E-01 0.  0.
         14    1    1    2    0    0 -0.11788313066E-01  0.19985763255E-01  0.60892601330E-02  0.23989042224E-01  0.00000000000E+00 0.  1.
     999901    1    3    3    0    0  0.15551127474E-01 -0.10445404126E+00  0.89918649960E-01  0.89086354057E+00  0.88000000000E+00 0.  1.
        -11    1    4    4    0    0  0.50750798424E-02  0.52342905002E-01 -0.64435342260E-01  0.83172775550E-01  0.51100000000E-03 0.  1.
         11    1    4    4    0    0 -0.88378942501E-02  0.32125373003E-01 -0.31572567833E-01  0.45904641660E-01  0.51100000000E-03 0. -1.
</event>
<event>
 8    1  0.1123191E+005  0.1043930E+01  0.7957747E-01            NaN
         13   -1    0    0    0    0  0.00000000000E+00  0.00000000000E+00  0.74505805969E-08  0.10566000000E+00  0.10566000000E+00 0.  1.
     999900   -1    0    0    0    0 -0.00000000000E+00 -0.00000000000E+00 -0.74505805969E-08  0.93827000000E+00  0.93827000000E+00 0. -1.
     999902    2    1    2    0    0 -0.13258348973E-01 -0.15881718639E-01 -0.12311322575E-01  0.10198555017E+01  0.10195713133E+01 0.  0.
     999903    2    3    3    0    0  0.38428713482E-01 -0.47899521993E-01  0.11153129361E+00  0.12910655518E+00  0.21404273131E-01 0.  0.
         14    1    1    2    0    0  0.13258348973E-01  0.15881718639E-01  0.12311322575E-01  0.24074498291E-01  0.00000000000E+00 0.  1.
     999901    1    3    3    0    0 -0.51687062454E-01  0.32017803354E-01 -0.12384261619E+00  0.89074894653E+00  0.88000000000E+00 0. -1.
        -11    1    4    4    0    0 -0.16487513124E-02 -0.27771127687E-02  0.14283088444E-01  0.14652592696E-01  0.51100000000E-03 0. -1.
         11    1    4    4    0    0  0.40077464794E-01 -0.45122409224E-01  0.97248205171E-01  0.11445396248E+00  0.51100000000E-03 0.  1.
</event>
<event>
 8    1  0.1123191E+005  0.1043930E+01  0.7957747E-01            NaN
         13   -1    0    0    0    0  0.00000000000E+00  0.00000000000E+00  0.74505805969E-08  0.10566000000E+00  0.10566000000E+00 0. -1.
     999900   -1    0    0    0    0 -0.00000000000E+00 -0.00000000000E+00 -0.74505805969E-08  0.93827000000E+00  0.93827000000E+00 0.  1.
     999902    2    1    2    0    0 -0.35223916883E-02  0.20199233294E-01 -0.90343634973E-03  0.10234060514E+01  0.10232002314E+01 0.  0.
     999903    2    3    3    0    0 -0.92513251831E-01 -0.87388739346E-01 -0.28413306383E-01  0.13197386778E+00  0.20354170787E-01 0.  0.
         14    1    1    2    0    0  0.35223916883E-02 -0.20199233294E-01  0.90343634973E-03  0.20523948599E-01  0.00000000000E+00 0. -1.
     999901    1    3    3    0    0  0.88990860142E-01  0.10758797264E+00  0.27509870033E-01  0.89143218362E+00  0.88000000000E+00 0. -1.
        -11    1    4    4    0    0 -0.39850789173E-01 -0.38052551468E-01 -0.20374990789E-02  0.55140680032E-01  0.51100000000E-03 0. -1.
         11    1    4    4    0    0 -0.52662462658E-01 -0.49336187878E-01 -0.26375807304E-01  0.76833187748E-01  0.51100000000E-03 0.  1.
</event>
<event>
 8    1  0.1123191E+005  0.1043930E+01  0.7957747E-01            NaN
         13   -1    0    0    0    0  0.00000000000E+00  0.00000000000E+00  0.74505805969E-08  0.10566000000E+00  0.10566000000E+00 0.  1.
     999900   -1    0    0    0    0 -0.00000000000E+00 -0.00000000000E+00 -0.74505805969E-08  0.93827000000E+00  0.93827000000E+00 0.  1.
     999902    2    1    2    0    0  0.16469822666E-01 -0.99197946365E-02 -0.11058866944E-01  0.10217499206E+01  0.10215091504E+01 0.  0.
     999903    2    3    3    0    0  0.51832953306E-01  0.11045574692E+00 -0.46758363835E-01  0.13213468012E+00  0.19649478976E-01 0.  0.
         14    1    1    2    0    0 -0.16469822666E-01  0.99197946365E-02  0.11058866944E-01  0.22180079404E-01  0.00000000000E+00 0.  1.
     999901    1    3    3    0    0 -0.35363130640E-01 -0.12037554156E+00  0.35699496891E-01  0.88961524048E+00  0.88000000000E+00 0. -1.
        -11    1    4    4    0    0  0.20873205355E-01  0.45237676724E-01 -0.88899723211E-02  0.50610580179E-01  0.51100000000E-03 0.  1.
         11    1    4    4    0    0  0.30959747951E-01  0.65218070200E-01 -0.37868391514E-01  0.81524099938E-01  0.51100000000E-03 0. -1.
</event>
<event>
 8    1  0.1123191E+005  0.1043930E+01  0.7957747E-01            NaN
         13   -1    0    0    0    0  0.00000000000E+00  0.00000000000E+00  0.74505805969E-08  0.10566000000E+00  0.10566000000E+00 0.  1.
     999900   -1    0    0    0    0 -0.00000000000E+00 -0.00000000000E+00 -0.74505805969E-08  0.93827000000E+00  0.93827000000E+00 0.  1.
     999902    2    1    2    0    0 -0.10520487402E-01 -0.18648226937E-01  0.88985975858E-02  0.10207433215E+01  0.10204799392E+01 0.  0.
     999903    2    3    3    0    0 -0.69980307811E-01  0.59908882924E-01 -0.88567708855E-01  0.12989744778E+00  0.23297857256E-01 0.  0.
         14    1    1    2    0    0  0.10520487402E-01  0.18648226937E-01 -0.88985975858E-02  0.23186678548E-01  0.00000000000E+00 0. -1.
     999901    1    3    3    0    0  0.59459820408E-01 -0.78557109862E-01  0.97466306441E-01  0.89084587368E+00  0.88000000000E+00 0. -1.
        -11    1    4    4    0    0 -0.14039793629E-01  0.28881223351E-02 -0.79157869097E-02  0.16382242190E-01  0.51100000000E-03 0.  1.
         11    1    4    4    0    0 -0.55940514182E-01  0.57020760589E-01 -0.80651921945E-01  0.11351520559E+00  0.51100000000E-03 0. -1.
</event>
<event>
 8    1  0.1123191E+005  0.1043930E+01  0.7957747E-01            NaN
         13   -1    0    0    0    0  0.00000000000E+00  0.00000000000E+00  0.74505805969E-08  0.10566000000E+00  0.10566000000E+00 0.  1.
     999900   -1    0    0    0    0 -0.00000000000E+00 -0.00000000000E+00 -0.74505805969E-08  0.93827000000E+00  0.93827000000E+00 0. -1.
     999902    2    1    2    0    0  0.18185821571E-01 -0.45268315323E-02 -0.14761559866E-01  0.10200737648E+01  0.10197947664E+01 0.  0.
     999903    2    3    3    0    0  0.12276503411E-01 -0.87140580343E-01 -0.96341344380E-01  0.13242788223E+00  0.22611857005E-01 0.  0.
         14    1    1    2    0    0 -0.18185821571E-01  0.45268315323E-02  0.14761559866E-01  0.23856235236E-01  0.00000000000E+00 0.  1.
     999901    1    3    3    0    0  0.59093181602E-02  0.82613748810E-01  0.81579784515E-01  0.88764588253E+00  0.88000000000E+00 0. -1.
        -11    1    4    4    0    0  0.15265770093E-01 -0.76854798702E-01 -0.74621525810E-01  0.10820506945E+00  0.51100000000E-03 0. -1.
         11    1    4    4    0    0 -0.29892666821E-02 -0.10285781641E-01 -0.21719818570E-01  0.24222812780E-01  0.51100000000E-03 0.  1.
</event>
<event>
 8    1  0.1123191E+005  0.1043930E+01  0.7957747E-01            NaN
         13   -1    0    0    0    0  0.00000000000E+00  0.00000000000E+00  0.74505805969E-08  0.10566000000E+00  0.10566000000E+00 0. -1.
     999900   -1    0    0    0    0 -0.00000000000E+00 -0.00000000000E+00 -0.74505805969E-08  0.93827000000E+00  0.93827000000E+00 0.  1.
     999902    2    1    2    0    0  0.49910959075E-02  0.86583248489E-02  0.21940276729E-01  0.10198208032E+01  0.10195357852E+01 0.  0.
     999903    2    3    3    0    0  0.86983467020E-01  0.86637587843E-01  0.44930473815E-01  0.13227809237E+00  0.20163111917E-01 0.  0.
         14    1    1    2    0    0 -0.49910959075E-02 -0.86583248489E-02 -0.21940276729E-01  0.24109196803E-01  0.00000000000E+00 0. -1.
     999901    1    3    3    0    0 -0.81992371113E-01 -0.77979262994E-01 -0.22990197086E-01  0.88754271083E+00  0.88000000000E+00 0. -1.
        -11    1    4    4    0    0  0.62723337183E-01  0.74149224532E-01  0.35348317669E-01  0.10335419299E+00  0.51100000000E-03 0. -1.
         11    1    4    4    0    0  0.24260129837E-01  0.12488363311E-01  0.95821561465E-02  0.28923899379E-01  0.51100000000E-03 0.  1.
</event>
<event>
 8    1  0.1123191E+005  0.1043930E+01  0.7957747E-01            NaN
         13   -1    0    0    0    0  0.00000000000E+00  0.00000000000E+00  0.74505805969E-08  0.10566000000E+00  0.10566000000E+00 0. -1.
     999900   -1    0    0    0    0 -0.00000000000E+00 -0.00000000000E+00 -0.74505805969E-08  0.93827000000E+00  0.93827000000E+00 0.  1.
     999902    2    1    2    0    0  0.12103800175E-01 -0.74975615770E-02  0.18438174042E-01  0.10206344710E+01  0.10203685813E+01 0.  0.
     999903    2    3    3    0    0  0.22414271428E-01  0.58372396069E-01 -0.11073167434E+00  0.12870958244E+00  0.19872511800E-01 0.  0.
         14    1    1    2    0    0 -0.12103800175E-01  0.74975615770E-02 -0.18438174042E-01  0.23295528976E-01  0.00000000000E+00 0.  1.
     999901    1    3    3    0    0 -0.10310471253E-01 -0.65869957646E-01  0.12916984838E+00  0.89192488858E+00  0.88000000000E+00 0. -1.
        -11    1    4    4    0    0  0.40296355625E-02  0.88340380967E-02 -0.35271635147E-01  0.36587259515E-01  0.51100000000E-03 0. -1.
         11    1    4    4    0    0  0.18384635866E-01  0.49538357972E-01 -0.75460039188E-01  0.92122322929E-01  0.51100000000E-03 0.  1.
</event>
<event>
 8    1  0.1123191E+005  0.1043930E+01  0.7957747E-01            NaN
         13   -1    0    0    0    0  0.00000000000E+00  0.00000000000E+00  0.74505805969E-08  0.10566000000E+00  0.10566000000E+00 0. -1.
     999900   -1    0    0    0    0 -0.00000000000E+00 -0.00000000000E+00 -0.74505805969E-08  0.93827000000E+00  0.93827000000E+00 0.  1.
     999902    2    1    2    0    0  0.19345167554E-01 -0.81589375249E-02  0.13594670855E-01  0.10189176262E+01  0.10186105782E+01 0.  0.
     999903    2    3    3    0    0 -0.10783410093E-01 -0.10359393293E-01  0.12854380498E+00  0.13092783082E+00  0.19874308068E-01 0.  0.
         14    1    1    2    0    0 -0.19345167554E-01  0.81589375249E-02 -0.13594670855E-01  0.25012373836E-01  0.00000000000E+00 0. -1.
     999901    1    3    3    0    0  0.30128577648E-01  0.22004557685E-02 -0.11494913413E+00  0.88798979534E+00  0.88000000000E+00 0.  1.
        -11    1    4    4    0    0 -0.11918880964E-01 -0.63820310894E-03  0.37476333226E-01  0.39334510290E-01  0.51100000000E-03 0.  1.
         11    1    4    4    0    0  0.11354708705E-02 -0.97211901845E-02  0.91067471758E-01  0.91593320532E-01  0.51100000000E-03 0. -1.
</event>
<event>
 8    1  0.1123191E+005  0.1043930E+01  0.7957747E-01            NaN
         13   -1    0    0    0    0  0.00000000000E+00  0.00000000000E+00  0.74505805969E-08  0.10566000000E+00  0.10566000000E+00 0.  1.
     999900   -1    0    0    0    0 -0.00000000000E+00 -0.00000000000E+00 -0.74505805969E-08  0.93827000000E+00  0.93827000000E+00 0.  1.
     999902    2    1    2    0    0  0.15862759747E-01 -0.16686551638E-01 -0.71371315744E-02  0.10198259174E+01  0.10195410217E+01 0.  0.
     999903    2    3    3    0    0 -0.88321665412E-01 -0.78447649489E-01 -0.48334843520E-01  0.13057562689E+00  0.27549717735E-01 0.  0.
         14    1    1    2    0    0 -0.15862759747E-01  0.16686551638E-01  0.71371315744E-02  0.24104082630E-01  0.00000000000E+00 0. -1.
     999901    1    3    3    0    0  0.10418442516E+00  0.61761097852E-01  0.41197711946E-01  0.88925029048E+00  0.88000000000E+00 0.  1.
        -11    1    4    4    0    0 -0.77231262711E-02  0.11295819186E-03  0.76641870840E-03  0.77786861094E-02  0.51100000000E-03 0.  1.
         11    1    4    4    0    0 -0.80598539141E-01 -0.78560607681E-01 -0.49101262228E-01  0.12279694078E+00  0.51100000000E-03 0. -1.
</event>
<event>
 8    1  0.1123191E+005  0.1043930E+01  0.7957747E-01            NaN
         13   -1    0    0    0    0  0.00000000000E+00  0.00000000000E+00  0.74505805969E-08  0.10566000000E+00  0.10566000000E+00 0.  1.
     999900   -1    0    0    0    0 -0.00000000000E+00 -0.00000000000E+00 -0.74505805969E-08  0.93827000000E+00  0.93827000000E+00 0. -1.
     999902    2    1    2    0    0  0.65435932801E-02  0.13950331343E-01  0.18185311744E-01  0.10200943980E+01  0.10198158878E+01 0.  0.
     999903    2    3    3    0    0 -0.51050847291E-01  0.65649715948E-01  0.10206796489E+00  0.13272398753E+00  0.16784313959E-01 0.  0.
         14    1    1    2    0    0 -0.65435932801E-02 -0.13950331343E-01 -0.18185311744E-01  0.23835601961E-01  0.00000000000E+00 0. -1.
     999901    1    3    3    0    0  0.57594440571E-01 -0.51699384605E-01 -0.83882653146E-01  0.88737041051E+00  0.88000000000E+00 0.  1.
        -11    1    4    4    0    0 -0.13858769809E-01  0.17019503315E-01  0.39458280086E-01  0.45154689480E-01  0.51100000000E-03 0.  1.
         11    1    4    4    0    0 -0.37192077482E-01  0.48630212633E-01  0.62609684805E-01  0.87569298047E-01  0.51100000000E-03 0. -1.
</event>
<event>
 8    1  0.1123191E+005  0.1043930E+01  0.7957747E-01            NaN
         13   -1    0    0    0    0  0.00000000000E+00  0.00000000000E+00  0.74505805969E-08  0.10566000000E+00  0.10566000000E+00 0. -1.
     999900   -1    0    0    0    0 -0.00000000000E+00 -0.00000000000E+00 -0.74505805969E-08  0.93827000000E+00  0.93827000000E+00 0. -1.
     999902    2    1    2    0    0 -0.13941945579E-01  0.12950638824E-01  0.14118420583E-01  0.10202355557E+01  0.10199603729E+01 0.  0.
     999903    2    3    3    0    0 -0.26991587867E-01  0.12340931318E+00  0.36277932404E-01  0.13295743925E+00  0.20079538819E-01 0.  0.
         14    1    1    2    0    0  0.13941945579E-01 -0.12950638824E-01 -0.14118420583E-01  0.23694444333E-01  0.00000000000E+00 0.  1.
     999901    1    3    3    0    0  0.13049642287E-01 -0.11045867435E+00 -0.22159511821E-01  0.88727811641E+00  0.88000000000E+00 0.  1.
        -11    1    4    4    0    0 -0.24701521656E-01  0.10287284206E+00  0.37509610814E-01  0.11225069635E+00  0.51100000000E-03 0. -1.
         11    1    4    4    0    0 -0.22900662107E-02  0.20536471114E-01 -0.12316784106E-02  0.20706742906E-01  0.51100000000E-03 0.  1.
</event>
<event>
 8    1  0.1123191E+005  0.1043930E+01  0.7957747E-01            NaN
         13   -1    0    0    0    0  0.00000000000E+00  0.00000000000E+00  0.74505805969E-08  0.10566000000E+00  0.10566000000E+00 0. -1.
     999900   -1    0    0    0    0 -0.00000000000E+00 -0.00000000000E+00 -0.74505805969E-08  0.93827000000E+00  0.93827000000E+00 0.  1.
     999902    2    1    2    0    0  0.18898241803E-01 -0.13229155732E-01  0.12766544996E-02  0.10208262351E+01  0.10205647546E+01 0.  0.
     999903    2    3    3    0    0 -0.31473334312E-03  0.12234795338E+00 -0.36480446386E-01  0.12943637115E+00  0.21303296845E-01 0.  0.
         14    1    1    2    0    0 -0.18898241803E-01  0.13229155732E-01 -0.12766544996E-02  0.23103764874E-01  0.00000000000E+00 0.  1.
     999901    1    3    3    0    0  0.19212975146E-01 -0.13557710911E+00  0.37757100885E-01  0.89138986397E+00  0.88000000000E+00 0. -1.
        -11    1    4    4    0    0 -0.12516668183E-02  0.98373517779E-01 -0.20194923466E-01  0.10043411634E+00  0.51100000000E-03 0. -1.
         11    1    4    4    0    0  0.93693347521E-03  0.23974435596E-01 -0.16285522920E-01  0.29002254813E-01  0.51100000000E-03 0.  1.
</event>
<event>
 8    1  0.1123191E+005  0.1043930E+01  0.7957747E-01            NaN
         13   -1    0    0    0    0  0.00000000000E+00  0.00000000000E+00  0.74505805969E-08  0.10566000000E+00  0.10566000000E+00 0.  1.
     999900   -1    0    0    0    0 -0.00000000000E+00 -0.00000000000E+00 -0.74505805969E-08  0.93827000000E+00  0.93827000000E+00 0. -1.
     999902    2    1    2    0    0  0.93268407403E-02 -0.38610507987E-02 -0.19007931598E-01  0.10224079384E+01  0.10221813897E+01 0.  0.
     999903    2    3    3    0    0 -0.10847789868E+00  0.63836071622E-01  0.28903184924E-01  0.13069255102E+00  0.20066146915E-01 0.  0.
         14    1    1    2    0    0 -0.93268407403E-02  0.38610507987E-02  0.19007931598E-01  0.21522061591E-01  0.00000000000E+00 0.  1.
     999901    1    3    3    0    0  0.11780473942E+00 -0.67697122421E-01 -0.47911116522E-01  0.89171538739E+00  0.88000000000E+00 0. -1.
        -11    1    4    4    0    0 -0.63173130167E-01  0.47359504966E-01  0.13654092842E-01  0.80127788302E-01  0.51100000000E-03 0.  1.
         11    1    4    4    0    0 -0.45304768513E-01  0.16476566656E-01  0.15249092081E-01  0.50564762722E-01  0.51100000000E-03 0. -1.
</event>
<event>
 8    1  0.1123191E+005  0.1043930E+01  0.7957747E-01            NaN
         13   -1    0    0    0    0  0.00000000000E+00  0.00000000000E+00  0.74505805969E-08  0.10566000000E+00  0.10566000000E+00 0.  1.
     999900   -1    0    0    0    0 -0.00000000000E+00 -0.00000000000E+00 -0.74505805969E-08  0.93827000000E+00  0.93827000000E+00 0. -1.
     999902    2    1    2    0    0  0.17820478327E-01 -0.10810431093E-02 -0.15830408178E-01  0.10200691550E+01  0.10197900475E+01 0.  0.
     999903    2    3    3    0    0  0.97674001945E-01 -0.26148621060E-01 -0.84764708949E-01  0.13341425790E+00  0.19757208502E-01 0.  0.
         14    1    1    2    0    0 -0.17820478327E-01  0.10810431093E-02  0.15830408178E-01  0.23860845020E-01  0.00000000000E+00 0.  1.
     999901    1    3    3    0    0 -0.79853523618E-01  0.25067577951E-01  0.68934300771E-01  0.88665489708E+00  0.88000000000E+00 0.  1.
        -11    1    4    4    0    0  0.50297886960E-01 -0.32634972363E-02 -0.40954230274E-01  0.64946423651E-01  0.51100000000E-03 0. -1.
         11    1    4    4    0    0  0.47376114985E-01 -0.22885123824E-01 -0.43810478675E-01  0.68467834246E-01  0.51100000000E-03 0.  1.
</event>
<event>
 8    1  0.1123191E+005  0.1043930E+01  0.7957747E-01            NaN
         13   -1    0    0    0    0  0.00000000000E+00  0.00000000000E+00  0.74505805969E-08  0.10566000000E+00  0.10566000000E+00 0. -1.
     999900   -1    0    0    0    0 -0.00000000000E+00 -0.00000000000E+00 -0.74505805969E-08  0.93827000000E+00  0.93827000000E+00 0. -1.
     999902    2    1    2    0    0 -0.20946775149E-02  0.23799190687E-01 -0.56128391811E-02  0.10193883392E+01  0.10190928775E+01 0.  0.
     999903    2    3    3    0    0 -0.65968159206E-01 -0.59929465112E-01 -0.91796395340E-01  0.12892895505E+00  0.15898378375E-01 0.  0.
         14    1    1    2    0    0  0.20946775149E-02 -0.23799190687E-01  0.56128391811E-02  0.24541660802E-01  0.00000000000E+00 0. -1.
     999901    1    3    3    0    0  0.63873481691E-01  0.83728655800E-01  0.86183556159E-01  0.89045938415E+00  0.88000000000E+00 0.  1.
        -11    1    4    4    0    0 -0.38697251864E-01 -0.28238195122E-01 -0.57555870914E-01  0.74885328091E-01  0.51100000000E-03 0.  1.
         11    1    4    4    0    0 -0.27270907342E-01 -0.31691269990E-01 -0.34240524426E-01  0.54043626958E-01  0.51100000000E-03 0. -1.
</event>
<event>
 8    1  0.1123191E+005  0.1043930E+01  0.7957747E-01            NaN
         13   -1    0    0    0    0  0.00000000000E+00  0.00000000000E+00  0.74505805969E-08  0.10566000000E+00  0.10566000000E+00 0.  1.
     999900   -1    0    0    0    0 -0.00000000000E+00 -0.00000000000E+00 -0.74505805969E-08  0.93827000000E+00  0.93827000000E+00 0.  1.
     999902    2    1    2    0    0  0.13330796687E-02  0.94926745963E-04  0.24309709387E-01  0.10195835817E+01  0.10192928588E+01 0.  0.
     999903    2    3    3    0    0  0.25603732182E-01  0.10852135438E+00 -0.60629081402E-01  0.12853927701E+00  0.20347598494E-01 0.  0.
         14    1    1    2    0    0 -0.13330796687E-02 -0.94926745963E-04 -0.24309709387E-01  0.24346418278E-01  0.00000000000E+00 0. -1.
     999901    1    3    3    0    0 -0.24270652513E-01 -0.10842642763E+00  0.84938790789E-01  0.89104430471E+00  0.88000000000E+00 0. -1.
        -11    1    4    4    0    0  0.16647110548E-01  0.32604731838E-01 -0.15422393935E-01  0.39727901827E-01  0.51100000000E-03 0.  1.
         11    1    4    4    0    0  0.89566216333E-02  0.75916622540E-01 -0.45206687467E-01  0.88811375182E-01  0.51100000000E-03 0. -1.
</event>
<event>
 8    1  0.1123191E+005  0.1043930E+01  0.7957747E-01            NaN
         13   -1    0    0    0    0  0.00000000000E+00  0.00000000000E+00  0.74505805969E-08  0.10566000000E+00  0.10566000000E+00 0.  1.
     999900   -1    0    0    0    0 -0.00000000000E+00 -0.00000000000E+00 -0.74505805969E-08  0.93827000000E+00  0.93827000000E+00 0. -1.
     999902    2    1    2    0    0  0.69057605449E-02 -0.21325369741E-01 -0.93492178373E-02  0.10196427853E+01  0.10193534916E+01 0.  0.
     999903    2    3    3    0    0 -0.10315042916E+00 -0.71119234997E-01 -0.32452739341E-01  0.13109027329E+00  0.20821211265E-01 0.  0.
         14    1    1    2    0    0 -0.69057605449E-02  0.21325369741E-01  0.93492178373E-02  0.24287214691E-01  0.00000000000E+00 0.  1.
     999901    1    3    3    0    0  0.11005618970E+00  0.49793865257E-01  0.23103521503E-01  0.88855251202E+00  0.88000000000E+00 0. -1.
        -11    1    4    4    0    0 -0.38566616584E-01 -0.32083700389E-01 -0.22452209558E-01  0.54964630267E-01  0.51100000000E-03 0. -1.
         11    1    4    4    0    0 -0.64583812574E-01 -0.39035534608E-01 -0.10000529783E-01  0.76125643023E-01  0.51100000000E-03 0.  1.
</event>
<event>
 8    1  0.1123191E+005  0.1043930E+01  0.7957747E-01            NaN
         13   -1    0    0    0    0  0.00000000000E+00  0.00000000000E+00  0.74505805969E-08  0.10566000000E+00  0.10566000000E+00 0. -1.
     999900   -1    0    0    0    0 -0.00000000000E+00 -0.00000000000E+00 -0.74505805969E-08  0.93827000000E+00  0.93827000000E+00 0.  1.
     999902    2    1    2    0    0  0.14208315645E-01 -0.23776841852E-02  0.18921039237E-01  0.10201490130E+01  0.10198717926E+01 0.  0.
     999903    2    3    3    0    0 -0.40201806841E-01 -0.71199613966E-01  0.10149827756E+00  0.13193962345E+00  0.20508378457E-01 0.  0.
         14    1    1    2    0    0 -0.14208315645E-01  0.23776841852E-02 -0.18921039237E-01  0.23780986972E-01  0.00000000000E+00 0.  1.
     999901    1    3    3    0    0  0.54410122486E-01  0.68821929780E-01 -0.82577238318E-01  0.88820938958E+00  0.88000000000E+00 0.  1.
        -11    1    4    4    0    0  0.14284660490E-02 -0.10428532664E-01  0.14866216714E-01  0.18222522579E-01  0.51100000000E-03 0. -1.
         11    1    4    4    0    0 -0.41630272890E-01 -0.60771081302E-01  0.86632060842E-01  0.11371710087E+00  0.51100000000E-03 0.  1.
</event>
<event>
 8    1  0.1123191E+005  0.1043930E+01  0.7957747E-01            NaN
         13   -1    0    0    0    0  0.00000000000E+00  0.00000000000E+00  0.74505805969E-08  0.10566000000E+00  0.10566000000E+00 0. -1.
     999900   -1    0    0    0    0 -0.00000000000E+00 -0.00000000000E+00 -0.74505805969E-08  0.93827000000E+00  0.93827000000E+00 0.  1.
     999902    2    1    2    0    0  0.97927749378E-02 -0.68805055131E-02  0.20924882144E-01  0.10198241814E+01  0.10195392442E+01 0.  0.
     999903    2    3    3    0    0  0.68909279182E-01  0.57426987020E-01 -0.89969443277E-01  0.12857350619E+00  0.19755965555E-01 0.  0.
         14    1    1    2    0    0 -0.97927749378E-02  0.68805055131E-02 -0.20924882144E-01  0.24105818589E-01  0.00000000000E+00 0.  1.
     999901    1    3    3    0    0 -0.59116504244E-01 -0.64307492533E-01  0.11089432542E+00  0.89125067522E+00  0.88000000000E+00 0. -1.
        -11    1    4    4    0    0  0.93328112608E-02  0.13352149174E-02 -0.14201137373E-01  0.17053374698E-01  0.51100000000E-03 0.  1.
         11    1    4    4    0    0  0.59576467921E-01  0.56091772102E-01 -0.75768305904E-01  0.11152013149E+00  0.51100000000E-03 0. -1.
</event>
<event>
 8    1  0.1123191E+005  0.1043930E+01  0.7957747E-01            NaN
         13   -1    0    0    0    0  0.00000000000E+00  0.00000000000E+00  0.74505805969E-08  0.10566000000E+00  0.10566000000E+00 0. -1.
     999900   -1    0    0    0    0 -0.00000000000E+00 -0.00000000000E+00 -0.74505805969E-08  0.93827000000E+00  0.93827000000E+00 0. -1.
     999902    2    1    2    0    0 -0.17304640617E-02  0.14618789223E-01  0.18850749714E-01  0.10200123440E+01  0.10197318901E+01 0.  0.
     999903    2    3    3    0    0 -0.91361435505E-01  0.87313835885E-01 -0.29472755405E-01  0.13116283929E+00  0.19090030544E-01 0.  0.
         14    1    1    2    0    0  0.17304640617E-02 -0.14618789223E-01 -0.18850749714E-01  0.23917656010E-01  0.00000000000E+00 0.  1.
     999901    1    3    3    0    0  0.89630971443E-01 -0.72695046662E-01  0.48323505119E-01  0.88884950470E+00  0.88000000000E+00 0.  1.
        -11    1    4    4    0    0 -0.38870617439E-01  0.40320728368E-01 -0.36589871529E-02  0.56127848206E-01  0.51100000000E-03 0. -1.
         11    1    4    4    0    0 -0.52490818065E-01  0.46993107517E-01 -0.25813768252E-01  0.75034991088E-01  0.51100000000E-03 0.  1.
</event>
<event>
 8    1  0.1123191E+005  0.1043930E+01  0.7957747E-01            NaN
         13   -1    0    0    0    0  0.00000000000E+00  0.00000000000E+00  0.74505805969E-08  0.10566000000E+00  0.10566000000E+00 0. -1.
     999900   -1    0    0    0    0 -0.00000000000E+00 -0.00000000000E+00 -0.74505805969E-08  0.93827000000E+00  0.93827000000E+00 0.  1.
     999902    2    1    2    0    0 -0.15196070493E-01 -0.18004352674E-01 -0.53740925355E-02  0.10197647741E+01  0.10194784138E+01 0.  0.
     999903    2    3    3    0    0  0.53027881729E-01 -0.18483805593E-01 -0.11597587242E+00  0.13022135678E+00  0.18804027964E-01 0.  0.
         14    1    1    2    0    0  0.15196070493E-01  0.18004352674E-01  0.53740925355E-02  0.24165225929E-01  0.00000000000E+00 0. -1.
     999901    1    3    3    0    0 -0.68223952222E-01  0.47945291905E-03  0.11060177989E+00  0.88954341729E+00  0.88000000000E+00 0. -1.
        -11    1    4    4    0    0  0.28809468079E-01 -0.70726079404E-02 -0.41012327539E-01  0.50618962506E-01  0.51100000000E-03 0. -1.
         11    1    4    4    0    0  0.24218413649E-01 -0.11411197653E-01 -0.74963544883E-01  0.79602394273E-01  0.51100000000E-03 0.  1.
</event>
<event>
 8    1  0.1123191E+005  0.1043930E+01  0.7957747E-01            NaN
         13   -1    0    0    0    0  0.00000000000E+00  0.00000000000E+00  0.74505805969E-08  0.10566000000E+00  0.10566000000E+00 0. -1.
     999900   -1    0    0    0    0 -0.00000000000E+00 -0.00000000000E+00 -0.74505805969E-08  0.93827000000E+00  0.93827000000E+00 0. -1.
     999902    2    1    2    0    0  0.10961643160E-01 -0.18947164784E-01  0.19565516172E-02  0.10219531766E+01  0.10217168465E+01 0.  0.
     999903    2    3    3    0    0 -0.11421457940E+00 -0.18168423499E-01  0.58868923736E-01  0.13127438416E+00  0.19807877102E-01 0.  0.
         14    1    1    2    0    0 -0.10961643160E-01  0.18947164784E-01 -0.19565516172E-02  0.21976823436E-01  0.00000000000E+00 0. -1.
     999901    1    3    3    0    0  0.12517622256E+00 -0.77874128516E-03 -0.56912372119E-01  0.89067879240E+00  0.88000000000E+00 0. -1.
        -11    1    4    4    0    0 -0.41511008869E-01 -0.21473945874E-02  0.30686657908E-01  0.51669209936E-01  0.51100000000E-03 0.  1.
         11    1    4    4    0    0 -0.72703570531E-01 -0.16021028911E-01  0.28182265828E-01  0.79605174226E-01  0.51100000000E-03 0. -1.
</event>
<event>
 8    1  0.1123191E+005  0.1043930E+01  0.7957747E-01            NaN
         13   -1    0    0    0    0  0.00000000000E+00  0.00000000000E+00  0.74505805969E-08  0.10566000000E+00  0.10566000000E+00 0.  1.
     999900   -1    0    0    0    0 -0.00000000000E+00 -0.00000000000E+00 -0.74505805969E-08  0.93827000000E+00  0.93827000000E+00 0.  1.
     999902    2    1    2    0    0 -0.11114026353E-01  0.19955663422E-01 -0.30724517474E-02  0.10208824395E+01  0.10206222442E+01 0.  0.
     999903    2    3    3    0    0  0.22940364396E-02 -0.47321496351E-01 -0.12009425846E+00  0.13048921424E+00  0.18979396669E-01 0.  0.
         14    1    1    2    0    0  0.11114026353E-01 -0.19955663422E-01  0.30724517474E-02  0.23047560481E-01  0.00000000000E+00 0.  1.
     999901    1    3    3    0    0 -0.13408062793E-01  0.67277159773E-01  0.11702180671E+00  0.89039322528E+00  0.88000000000E+00 0. -1.
        -11    1    4    4    0    0  0.25078172783E-02 -0.10483078801E-01 -0.11294928432E-01  0.15621159302E-01  0.51100000000E-03 0.  1.
         11    1    4    4    0    0 -0.21378083867E-03 -0.36838417550E-01 -0.10879933003E+00  0.11486805494E+00  0.51100000000E-03 0. -1.
</event>
<event>
 8    1  0.1123191E+005  0.1043930E+01  0.7957747E-01            NaN
         13   -1    0    0    0    0  0.00000000000E+00  0.00000000000E+00  0.74505805969E-08  0.10566000000E+00  0.10566000000E+00 0.  1.
     999900   -1    0    0    0    0 -0.00000000000E+00 -0.00000000000E+00 -0.74505805969E-08  0.93827000000E+00  0.93827000000E+00 0.  1.
     999902    2    1    2    0    0  0.93650016339E-04  0.38787798097E-02  0.23199594643E-01  0.10204082038E+01  0.10201370631E+01 0.  0.
     999903    2    3    3    0    0  0.87715383426E-01 -0.29303437931E-02  0.97734529076E-01  0.13289516800E+00  0.20162145215E-01 0.  0.
         14    1    1    2    0    0 -0.93650016339E-04 -0.38787798097E-02 -0.23199594643E-01  0.23521796163E-01  0.00000000000E+00 0. -1.
     999901    1    3    3    0    0 -0.87621733410E-01  0.68091236028E-02 -0.74534934433E-01  0.88751303584E+00  0.88000000000E+00 0.  1.
        -11    1    4    4    0    0  0.49448996248E-01 -0.74945815398E-02  0.43039364179E-01  0.65984998085E-01  0.51100000000E-03 0. -1.
         11    1    4    4    0    0  0.38266387178E-01  0.45642377467E-02  0.54695164897E-01  0.66910169914E-01  0.51100000000E-03 0.  1.
</event>
<event>
 8    1  0.1123191E+005  0.1043930E+01  0.7957747E-01            NaN
         13   -1    0    0    0    0  0.00000000000E+00  0.00000000000E+00  0.74505805969E-08  0.10566000000E+00  0.10566000000E+00 0.  1.
     999900   -1    0    0    0    0 -0.00000000000E+00 -0.00000000000E+00 -0.74505805969E-08  0.93827000000E+00  0.93827000000E+00 0.  1.
     999902    2    1    2    0    0  0.16367121485E-01 -0.94519593249E-02  0.13606215356E-01  0.10206415630E+01  0.10203758371E+01 0.  0.
     999903    2    3    3    0    0  0.16056266228E-01  0.96547177427E-01 -0.81881512306E-01  0.12915189973E+00  0.19911554204E-01 0.  0.
         14    1    1    2    0    0 -0.16367121485E-01  0.94519593249E-02 -0.13606215356E-01  0.23288436983E-01  0.00000000000E+00 0. -1.
     999901    1    3    3    0    0  0.31085525689E-03 -0.10599913675E+00  0.95487727662E-01  0.89148966329E+00  0.88000000000E+00 0. -1.
        -11    1    4    4    0    0  0.12378432939E-01  0.26386269520E-01 -0.29865589926E-01  0.41733384764E-01  0.51100000000E-03 0.  1.
         11    1    4    4    0    0  0.36778332888E-02  0.70160907907E-01 -0.52015922380E-01  0.87418514961E-01  0.51100000000E-03 0. -1.
</event>
<event>
 8    1  0.1123191E+005  0.1043930E+01  0.7957747E-01            NaN
         13   -1    0    0    0    0  0.00000000000E+00  0.00000000000E+00  0.74505805969E-08  0.10566000000E+00  0.10566000000E+00 0. -1.
     999900   -1    0    0    0    0 -0.00000000000E+00 -0.00000000000E+00 -0.74505805969E-08  0.93827000000E+00  0.93827000000E+00 0. -1.
     999902    2    1    2    0    0  0.10297556980E-01 -0.20299367027E-01  0.62539747046E-02  0.10203245731E+01  0.10200514782E+01 0.  0.
     999903    2    3    3    0    0  0.12310660072E+00  0.34712226701E-01  0.22246986108E-01  0.13127568115E+00  0.19447422597E-01 0.  0.
         14    1    1    2    0    0 -0.10297556980E-01  0.20299367027E-01 -0.62539747046E-02  0.23605426941E-01  0.00000000000E+00 0.  1.
     999901    1    3    3    0    0 -0.11280904374E+00 -0.55011593728E-01 -0.15993011403E-01  0.88904889191E+00  0.88000000000E+00 0.  1.
        -11    1    4    4    0    0  0.10124456707E+00  0.22886398332E-01  0.12410433122E-01  0.10453960762E+00  0.51100000000E-03 0. -1.
         11    1    4    4    0    0  0.21862033650E-01  0.11825828369E-01  0.98365529855E-02  0.26736073526E-01  0.51100000000E-03 0.  1.
</event>
<event>
 8    1  0.1123191E+005  0.1043930E+01  0.7957747E-01            NaN
         13   -1    0    0    0    0  0.00000000000E+00  0.00000000000E+00  0.74505805969E-08  0.10566000000E+00  0.10566000000E+00 0.  1.
     999900   -1    0    0    0    0 -0.00000000000E+00 -0.00000000000E+00 -0.74505805969E-08  0.93827000000E+00  0.93827000000E+00 0. -1.
     999902    2    1    2    0    0  0.75211330359E-02 -0.50114794061E-02  0.19336454725E-01  0.10225856600E+01  0.10223628765E+01 0.  0.
     999903    2    3    3    0    0 -0.98696060579E-01  0.77305278134E-02  0.87240679274E-01  0.13351005318E+00  0.20330389685E-01 0.  0.
         14    1    1    2    0    0 -0.75211330359E-02  0.50114794061E-02 -0.19336454725E-01  0.21344339983E-01  0.00000000000E+00 0. -1.
     999901    1    3    3    0    0  0.10621719362E+00 -0.12742007220E-01 -0.67904224548E-01  0.88907560684E+00  0.88000000000E+00 0.  1.
        -11    1    4    4    0    0 -0.75635139248E-01  0.11533452063E-01  0.57651887580E-01  0.95800292631E-01  0.51100000000E-03 0.  1.
         11    1    4    4    0    0 -0.23060921331E-01 -0.38029242493E-02  0.29588791694E-01  0.37709760545E-01  0.51100000000E-03 0. -1.
</event>
<event>
 8    1  0.1123191E+005  0.1043930E+01  0.7957747E-01            NaN
         13   -1    0    0    0    0  0.00000000000E+00  0.00000000000E+00  0.74505805969E-08  0.10566000000E+00  0.10566000000E+00 0. -1.
     999900   -1    0    0    0    0 -0.00000000000E+00 -0.00000000000E+00 -0.74505805969E-08  0.93827000000E+00  0.93827000000E+00 0. -1.
     999902    2    1    2    0    0  0.14850675953E-01  0.10990953868E-01  0.14948248262E-01  0.10201646098E+01  0.10198877573E+01 0.  0.
     999903    2    3    3    0    0  0.81425328610E-01  0.30159287900E-01  0.99301412795E-01  0.13342052851E+00  0.20014995877E-01 0.  0.
         14    1    1    2    0    0 -0.14850675953E-01 -0.10990953868E-01 -0.14948248262E-01  0.23765390157E-01  0.00000000000E+00 0.  1.
     999901    1    3    3    0    0 -0.66574652657E-01 -0.19168334032E-01 -0.84353164533E-01  0.88674408133E+00  0.88000000000E+00 0. -1.
        -11    1    4    4    0    0  0.55022085918E-02  0.76773604862E-03  0.15981911015E-01  0.16927679071E-01  0.51100000000E-03 0. -1.
         11    1    4    4    0    0  0.75923120018E-01  0.29391551851E-01  0.83319501780E-01  0.11649284944E+00  0.51100000000E-03 0.  1.
</event>
<event>
 8    1  0.1123191E+005  0.1043930E+01  0.7957747E-01            NaN
         13   -1    0    0    0    0  0.00000000000E+00  0.00000000000E+00  0.74505805969E-08  0.10566000000E+00  0.10566000000E+00 0.  1.
     999900   -1    0    0    0    0 -0.00000000000E+00 -0.00000000000E+00 -0.74505805969E-08  0.93827000000E+00  0.93827000000E+00 0. -1.
     999902    2    1    2    0    0  0.69200465122E-02  0.38532448783E-02  0.24961232071E-01  0.10177422615E+01  0.10174052847E+01 0.  0.
     999903    2    3    3    0    0  0.11209928363E-01  0.19851117650E-01 -0.12172355241E+00  0.12544704075E+00  0.20015180617E-01 0.  0.
         14    1    1    2    0    0 -0.69200465122E-02 -0.38532448783E-02 -0.24961232071E-01  0.26187738472E-01  0.00000000000E+00 0. -1.
     999901    1    3    3    0    0 -0.42898818509E-02 -0.15997872772E-01  0.14668478449E+00  0.89229522078E+00  0.88000000000E+00 0.  1.
        -11    1    4    4    0    0  0.15509976405E-01  0.20752295103E-01 -0.10360022735E+00  0.10679178502E+00  0.51100000000E-03 0. -1.
         11    1    4    4    0    0 -0.43000480420E-02 -0.90117745307E-03 -0.18123325065E-01  0.18655255730E-01  0.51100000000E-03 0.  1.
</event>
<event>
 8    1  0.1123191E+005  0.1043930E+01  0.7957747E-01            NaN
         13   -1    0    0    0    0  0.00000000000E+00  0.00000000000E+00  0.74505805969E-08  0.10566000000E+00  0.10566000000E+00 0. -1.
     999900   -1    0    0    0    0 -0.00000000000E+00 -0.00000000000E+00 -0.74505805969E-08  0.93827000000E+00  0.93827000000E+00 0.  1.
     999902    2    1    2    0    0  0.18240269263E-01  0.10504737576E-01 -0.83950325703E-03  0.10228643479E+01  0.10226474038E+01 0.  0.
     999903    2    3    3    0    0 -0.17967429964E-01  0.26238494565E-01  0.12712653292E+00  0.13273297834E+00  0.21109264100E-01 0.  0.
         14    1    1    2    0    0 -0.18240269263E-01 -0.10504737576E-01  0.83950325703E-03  0.21065652139E-01  0.00000000000E+00 0. -1.
     999901    1    3    3    0    0  0.36207699226E-01 -0.15733756990E-01 -0.12796603617E+00  0.89013136952E+00  0.88000000000E+00 0.  1.
        -11    1    4    4    0    0 -0.17282119237E-01  0.24924496785E-01  0.79653187514E-01  0.85233758497E-01  0.51100000000E-03 0.  1.
         11    1    4    4    0    0 -0.68531072704E-03  0.13139977803E-02  0.47473345403E-01  0.47499219843E-01  0.51100000000E-03 0. -1.
</event>
<event>
 8    1  0.1123191E+005  0.1043930E+01  0.7957747E-01            NaN
         13   -1    0    0    0    0  0.00000000000E+00  0.00000000000E+00  0.74505805969E-08  0.10566000000E+00  0.10566000000E+00 0.  1.
     999900   -1    0    0    0    0 -0.00000000000E+00 -0.00000000000E+00 -0.74505805969E-08  0.93827000000E+00  0.93827000000E+00 0. -1.
     999902    2    1    2    0    0  0.15172348545E-01 -0.19812926283E-01  0.91704745331E-02  0.10173433528E+01  0.10169958936E+01 0.  0.
     999903    2    3    3    0    0  0.60424499697E-01  0.10898313444E+00  0.12798574051E-01  0.12681017227E+00  0.19712243337E-01 0.  0.
         14    1    1    2    0    0 -0.15172348545E-01  0.19812926283E-01 -0.91704745331E-02  0.26586647239E-01  0.00000000000E+00 0. -1.
     999901    1    3    3    0    0 -0.45252151152E-01 -0.12879606073E+00 -0.36280995177E-02  0.89053318049E+00  0.88000000000E+00 0.  1.
        -11    1    4    4    0    0  0.43293986226E-01  0.62033919448E-01  0.19913736869E-02  0.75675644005E-01  0.51100000000E-03 0. -1.
         11    1    4    4    0    0  0.17130513471E-01  0.46949214996E-01  0.10807200364E-01  0.51134528268E-01  0.51100000000E-03 0.  1.
</event>
<event>
 8    1  0.1123191E+005  0.1043930E+01  0.7957747E-01            NaN
         13   -1    0    0    0    0  0.00000000000E+00  0.00000000000E+00  0.74505805969E-08  0.10566000000E+00  0.10566000000E+00 0. -1.
     999900   -1    0    0    0    0 -0.00000000000E+00 -0.00000000000E+00 -0.74505805969E-08  0.93827000000E+00  0.93827000000E+00 0. -1.
     999902    2    1    2    0    0 -0.13866448614E-01  0.10217347958E-01  0.15988029827E-01  0.10204291555E+01  0.10201585032E+01 0.  0.
     999903    2    3    3    0    0  0.10660752069E+00  0.69118409290E-01  0.20586163590E-01  0.13025812968E+00  0.20021794225E-01 0.  0.
         14    1    1    2    0    0  0.13866448614E-01 -0.10217347958E-01 -0.15988029827E-01  0.23500844542E-01  0.00000000000E+00 0. -1.
     999901    1    3    3    0    0 -0.12047396931E+00 -0.58901061331E-01 -0.45981337632E-02  0.89017102578E+00  0.88000000000E+00 0.  1.
        -11    1    4    4    0    0  0.52263444727E-01  0.22111807476E-01  0.80930882494E-02  0.57325028417E-01  0.51100000000E-03 0.  1.
         11    1    4    4    0    0  0.54344075968E-01  0.47006601813E-01  0.12493075341E-01  0.72933101259E-01  0.51100000000E-03 0. -1.
</event>
<event>
 8    1  0.1123191E+005  0.1043930E+01  0.7957747E-01            NaN
         13   -1    0    0    0    0  0.00000000000E+00  0.00000000000E+00  0.74505805969E-08  0.10566000000E+00  0.10566000000E+00 0.  1.
     999900   -1    0    0    0    0 -0.00000000000E+00 -0.00000000000E+00 -0.74505805969E-08  0.93827000000E+00  0.93827000000E+00 0.  1.
     999902    2    1    2    0    0  0.72628445774E-02 -0.21795543572E-02  0.26419951198E-01  0.10164433998E+01  0.10160716864E+01 0.  0.
     999903    2    3    3    0    0 -0.26282179145E-01  0.11397707050E-01  0.12548230763E+00  0.13014606759E+00  0.19275080164E-01 0.  0.
         14    1    1    2    0    0 -0.72628445774E-02  0.21795543572E-02 -0.26419951198E-01  0.27486600187E-01  0.00000000000E+00 0. -1.
     999901    1    3    3    0    0  0.33545023722E-01 -0.13577261407E-01 -0.99062356429E-01  0.88629733222E+00  0.88000000000E+00 0.  1.
        -11    1    4    4    0    0 -0.16767627780E-01 -0.32175627983E-02  0.62134011059E-01  0.64439137975E-01  0.51100000000E-03 0.  1.
         11    1    4    4    0    0 -0.95145513652E-02  0.14615269848E-01  0.63348296567E-01  0.65706929615E-01  0.51100000000E-03 0. -1.
</event>
<event>
 8    1  0.1123191E+005  0.1043930E+01  0.7957747E-01            NaN
         13   -1    0    0    0    0  0.00000000000E+00  0.00000000000E+00  0.74505805969E-08  0.10566000000E+00  0.10566000000E+00 0. -1.
     999900   -1    0    0    0    0 -0.00000000000E+00 -0.00000000000E+00 -0.74505805969E-08  0.93827000000E+00  0.93827000000E+00 0. -1.
     999902    2    1    2    0    0  0.16738584436E-01  0.46170551247E-03  0.11094373296E-01  0.10238432258E+01  0.10236461656E+01 0.  0.
     999903    2    3    3    0    0 -0.73347105428E-01 -0.48023821505E-02  0.10991443031E+00  0.13372607290E+00  0.19965466017E-01 0.  0.
         14    1    1    2    0    0 -0.16738584436E-01 -0.46170551247E-03 -0.11094373296E-01  0.20086774249E-01  0.00000000000E+00 0.  1.
     999901    1    3    3    0    0  0.90085689864E-01  0.52640876630E-02 -0.98820057013E-01  0.89011715285E+00  0.88000000000E+00 0.  1.
        -11    1    4    4    0    0 -0.62084937734E-02  0.34760724384E-02  0.19794506284E-01  0.21040724193E-01  0.51100000000E-03 0. -1.
         11    1    4    4    0    0 -0.67138611655E-01 -0.82784545889E-02  0.90119924024E-01  0.11268534870E+00  0.51100000000E-03 0.  1.
</event>
<event>
 8    1  0.1123191E+005  0.1043930E+01  0.7957747E-01            NaN
         13   -1    0    0    0    0  0.00000000000E+00  0.00000000000E+00  0.74505805969E-08  0.10566000000E+00  0.10566000000E+00 0. -1.
     999900   -1    0    0    0    0 -0.00000000000E+00 -0.00000000000E+00 -0.74505805969E-08  0.93827000000E+00  0.93827000000E+00 0. -1.
     999902    2    1    2    0    0 -0.73852185287E-02  0.14106683249E-01  0.19772275407E-01  0.10185433334E+01  0.10182269095E+01 0.  0.
     999903    2    3    3    0    0 -0.85497387512E-01 -0.64795714141E-02 -0.92914952958E-01  0.12768772433E+00  0.17865563072E-01 0.  0.
         14    1    1    2    0    0  0.73852185287E-02 -0.14106683249E-01 -0.19772275407E-01  0.25386666574E-01  0.00000000000E+00 0. -1.
     999901    1    3    3    0    0  0.78112168983E-01  0.20586254663E-01  0.11268722836E+00  0.89085560910E+00  0.88000000000E+00 0.  1.
        -11    1    4    4    0    0 -0.30246680374E-01  0.59979825476E-02 -0.29874663498E-01  0.42937094783E-01  0.51100000000E-03 0. -1.
         11    1    4    4    0    0 -0.55250707137E-01 -0.12477553962E-01 -0.63040289460E-01  0.84750629545E-01  0.51100000000E-03 0.  1.
</event>
<event>
 8    1  0.1123191E+005  0.1043930E+01  0.7957747E-01            NaN
         13   -1    0    0    0    0  0.00000000000E+00  0.00000000000E+00  0.74505805969E-08  0.10566000000E+00  0.10566000000E+00 0. -1.
     999900   -1    0    0    0    0 -0.00000000000E+00 -0.00000000000E+00 -0.74505805969E-08  0.93827000000E+00  0.93827000000E+00 0.  1.
     999902    2    1    2    0    0 -0.16465258029E-01 -0.16846352214E-01 -0.30774412238E-02  0.10201734230E+01  0.10198967782E+01 0.  0.
     999903    2    3    3    0    0  0.97856447966E-01 -0.53433203539E-01 -0.63671454195E-01  0.12996014265E+00  0.20114496019E-01 0.  0.
         14    1    1    2    0    0  0.16465258029E-01  0.16846352214E-01  0.30774412238E-02  0.23756576971E-01  0.00000000000E+00 0. -1.
     999901    1    3    3    0    0 -0.11432170599E+00  0.36586851325E-01  0.60594012971E-01  0.89021328038E+00  0.88000000000E+00 0. -1.
        -11    1    4    4    0    0  0.35052583877E-01 -0.88266310175E-02 -0.23018207593E-01  0.42856645381E-01  0.51100000000E-03 0.  1.
         11    1    4    4    0    0  0.62803864089E-01 -0.44606572521E-01 -0.40653246602E-01  0.87103497271E-01  0.51100000000E-03 0. -1.
</event>
<event>
 8    1  0.1123191E+005  0.1043930E+01  0.7957747E-01            NaN
         13   -1    0    0    0    0  0.00000000000E+00  0.00000000000E+00  0.74505805969E-08  0.10566000000E+00  0.10566000000E+00 0. -1.
     999900   -1    0    0    0    0 -0.00000000000E+00 -0.00000000000E+00 -0.74505805969E-08  0.93827000000E+00  0.93827000000E+00 0.  1.
     999902    2    1    2    0    0  0.23531968613E-01 -0.27991706357E-04 -0.25138724373E-02  0.10202641198E+01  0.10199896079E+01 0.  0.
     999903    2    3    3    0    0 -0.55949463359E-01  0.63193061313E-01 -0.96234721421E-01  0.12947918668E+00  0.19494428100E-01 0.  0.
         14    1    1    2    0    0 -0.23531968613E-01  0.27991706357E-04  0.25138724373E-02  0.23665880185E-01  0.00000000000E+00 0. -1.
     999901    1    3    3    0    0  0.79481431971E-01 -0.63221053019E-01  0.93720848984E-01  0.89078493314E+00  0.88000000000E+00 0. -1.
        -11    1    4    4    0    0 -0.29570808581E-01  0.35381580910E-01 -0.37973592689E-01  0.59737290284E-01  0.51100000000E-03 0. -1.
         11    1    4    4    0    0 -0.26378654777E-01  0.27811480403E-01 -0.58261128732E-01  0.69741896391E-01  0.51100000000E-03 0.  1.
</event>
<event>
 8    1  0.1123191E+005  0.1043930E+01  0.7957747E-01            NaN
         13   -1    0    0    0    0  0.00000000000E+00  0.00000000000E+00  0.74505805969E-08  0.10566000000E+00  0.10566000000E+00 0. -1.
     999900   -1    0    0    0    0 -0.00000000000E+00 -0.00000000000E+00 -0.74505805969E-08  0.93827000000E+00  0.93827000000E+00 0.  1.
     999902    2    1    2    0    0  0.40169483707E-02 -0.15954566238E-01  0.18426961711E-01  0.10192270250E+01  0.10189276183E+01 0.  0.
     999903    2    3    3    0    0 -0.69564675555E-01  0.10527918168E+00  0.33335523555E-02  0.12774528761E+00  0.19616211535E-01 0.  0.
         14    1    1    2    0    0 -0.40169483707E-02  0.15954566238E-01 -0.18426961711E-01  0.24702975043E-01  0.00000000000E+00 0.  1.
     999901    1    3    3    0    0  0.73581623926E-01 -0.12123374792E+00  0.15093409356E-01  0.89148173735E+00  0.88000000000E+00 0. -1.
        -11    1    4    4    0    0 -0.52139467523E-01  0.87381488098E-01 -0.35892165317E-02  0.10181940941E+00  0.51100000000E-03 0.  1.
         11    1    4    4    0    0 -0.17425208032E-01  0.17897693584E-01  0.69227688872E-02  0.25925878204E-01  0.51100000000E-03 0. -1.
</event>
<event>
 8    1  0.1123191E+005  0.1043930E+01  0.7957747E-01            NaN
         13   -1    0    0    0    0  0.00000000000E+00  0.00000000000E+00  0.74505805969E-08  0.10566000000E+00  0.10566000000E+00 0.  1.
     999900   -1    0    0    0    0 -0.00000000000E+00 -0.00000000000E+00 -0.74505805969E-08  0.93827000000E+00  0.93827000000E+00 0. -1.
     999902    2    1    2    0    0  0.32101221161E-02  0.19390890353E-01 -0.10510129773E-01  0.10216415649E+01  0.10213984104E+01 0.  0.
     999903    2    3    3    0    0  0.96749897781E-01 -0.70819960096E-01 -0.49451219548E-01  0.13124609338E+00  0.20102349248E-01 0.  0.
         14    1    1    2    0    0 -0.32101221161E-02 -0.19390890353E-01  0.10510129773E-01  0.22288435130E-01  0.00000000000E+00 0.  1.
     999901    1    3    3    0    0 -0.93539775665E-01  0.90210850449E-01  0.38941089775E-01  0.89039547149E+00  0.88000000000E+00 0. -1.
        -11    1    4    4    0    0  0.67960006467E-01 -0.60405286101E-01 -0.38189403968E-01  0.98620752199E-01  0.51100000000E-03 0. -1.
         11    1    4    4    0    0  0.28789891314E-01 -0.10414673995E-01 -0.11261815580E-01  0.32625341185E-01  0.51100000000E-03 0.  1.
</event>
<event>
 8    1  0.1123191E+005  0.1043930E+01  0.7957747E-01            NaN
         13   -1    0    0    0    0  0.00000000000E+00  0.00000000000E+00  0.74505805969E-08  0.10566000000E+00  0.10566000000E+00 0.  1.
     999900   -1    0    0    0    0 -0.00000000000E+00 -0.00000000000E+00 -0.74505805969E-08  0.93827000000E+00  0.93827000000E+00 0.  1.
     999902    2    1    2    0    0  0.26864204730E-01  0.13628389084E-01 -0.18960105675E-01  0.10083364038E+01  0.10077079930E+01 0.  0.
     999903    2    3    3    0    0  0.49729706916E-01 -0.49597571016E-01  0.93477705779E-01  0.11863835687E+00  0.20100135409E-01 0.  0.
         14    1    1    2    0    0 -0.26864204730E-01 -0.13628389084E-01  0.18960105675E-01  0.35593596222E-01  0.00000000000E+00 0.  1.
     999901    1    3    3    0    0 -0.22865502186E-01  0.63225960099E-01 -0.11243781145E+00  0.88969804690E+00  0.88000000000E+00 0.  1.
        -11    1    4    4    0    0  0.27258923321E-01 -0.39992576731E-01  0.57775558689E-01  0.75370626885E-01  0.51100000000E-03 0. -1.
         11    1    4    4    0    0  0.22470783595E-01 -0.96049942849E-02  0.35702147090E-01  0.43267729989E-01  0.51100000000E-03 0.  1.
</event>
<event>
 8    1  0.1123191E+005  0.1043930E+01  0.7957747E-01            NaN
         13   -1    0    0    0    0  0.00000000000E+00  0.00000000000E+00  0.74505805969E-08  0.10566000000E+00  0.10566000000E+00 0.  1.
     999900   -1    0    0    0    0 -0.00000000000E+00 -0.00000000000E+00 -0.74505805969E-08  0.93827000000E+00  0.93827000000E+00 0. -1.
     999902    2    1    2    0    0  0.20537353048E-01 -0.53283921273E-02  0.10203423752E-01  0.10203867528E+01  0.10201151115E+01 0.  0.
     999903    2    3    3    0    0  0.12543630425E+00 -0.75763598482E-02  0.39143311119E-01  0.13368141256E+00  0.23384901232E-01 0.  0.
         14    1    1    2    0    0 -0.20537353048E-01  0.53283921273E-02 -0.10203423752E-01  0.23543247209E-01  0.00000000000E+00 0. -1.
     999901    1    3    3    0    0 -0.10489895120E+00  0.22479677209E-02 -0.28939887367E-01  0.88670534024E+00  0.88000000000E+00 0. -1.
        -11    1    4    4    0    0  0.82195242482E-01 -0.15969170104E-01  0.27185499274E-01  0.88036269640E-01  0.51100000000E-03 0.  1.
         11    1    4    4    0    0  0.43241061766E-01  0.83928102553E-02  0.11957811846E-01  0.45645142915E-01  0.51100000000E-03 0. -1.
</event>
<event>
 8    1  0.1123191E+005  0.1043930E+01  0.7957747E-01            NaN
         13   -1    0    0    0    0  0.00000000000E+00  0.00000000000E+00  0.74505805969E-08  0.10566000000E+00  0.10566000000E+00 0. -1.
     999900   -1    0    0    0    0 -0.00000000000E+00 -0.00000000000E+00 -0.74505805969E-08  0.93827000000E+00  0.93827000000E+00 0.  1.
     999902    2    1    2    0    0  0.71338636683E-02  0.19460907034E-01 -0.11265435771E-01  0.10203391340E+01  0.10200663800E+01 0.  0.
     999903    2    3    3    0    0 -0.12694969706E+00  0.19297976526E-01 -0.33862626340E-02  0.13014785731E+00  0.20937060587E-01 0.  0.
         14    1    1    2    0    0 -0.71338636683E-02 -0.19460907034E-01  0.11265435771E-01  0.23590865955E-01  0.00000000000E+00 0. -1.
     999901    1    3    3    0    0  0.13408356073E+00  0.16293050773E-03 -0.78791731371E-02  0.89019127673E+00  0.88000000000E+00 0. -1.
        -11    1    4    4    0    0 -0.37969499168E-01 -0.38289196962E-02 -0.85817170245E-03  0.38175136840E-01  0.51100000000E-03 0.  1.
         11    1    4    4    0    0 -0.88980197893E-01  0.23126896222E-01 -0.25280909315E-02  0.91972720470E-01  0.51100000000E-03 0. -1.
</event>
<event>
 7    1  0.1284708E+005  0.1043930E+01  0.7957747E-01            NaN
         13   -1    0    0    0    0  0.00000000000E+00  0.00000000000E+00  0.74505805969E-08  0.10566000000E+00  0.10566000000E+00 0.  1.
     999900   -1    0    0    0    0 -0.00000000000E+00 -0.00000000000E+00 -0.74505805969E-08  0.93827000000E+00  0.93827000000E+00 0. -1.
     999903    2    1    2    0    0 -0.59801058428E-01  0.19680503821E-01  0.38898335947E-01  0.76452325063E-01  0.19193453269E-01 0.  0.
         14    1    1    2    0    0  0.25947773150E-02 -0.50630092946E-01  0.61140303740E-01  0.79424655633E-01  0.00000000000E+00 0.  1.
     999901    1    1    2    0    0  0.57206281113E-01  0.30949589124E-01 -0.10003863969E+00  0.88805301930E+00  0.88000000000E+00 0. -1.
        -11    1    3    3    0    0 -0.38821606208E-01  0.18092805860E-01  0.34386029523E-01  0.54928379549E-01  0.51100000000E-03 0.  1.
         11    1    3    3    0    0 -0.20979452219E-01  0.15876979612E-02  0.45123064234E-02  0.21523945514E-01  0.51100000000E-03 0. -1.
</event>
<event>
 8    1  0.1123191E+005  0.1043930E+01  0.7957747E-01            NaN
         13   -1    0    0    0    0  0.00000000000E+00  0.00000000000E+00  0.74505805969E-08  0.10566000000E+00  0.10566000000E+00 0. -1.
     999900   -1    0    0    0    0 -0.00000000000E+00 -0.00000000000E+00 -0.74505805969E-08  0.93827000000E+00  0.93827000000E+00 0. -1.
     999902    2    1    2    0    0  0.21007403569E-01 -0.64764456063E-03 -0.10034799272E-01  0.10206399239E+01  0.10203741601E+01 0.  0.
     999903    2    3    3    0    0 -0.37450466116E-01  0.11898200971E+00  0.29608318530E-01  0.12974141481E+00  0.19923005420E-01 0.  0.
         14    1    1    2    0    0 -0.21007403569E-01  0.64764456063E-03  0.10034799272E-01  0.23290076097E-01  0.00000000000E+00 0.  1.
     999901    1    3    3    0    0  0.58457869685E-01 -0.11962965427E+00 -0.39643117802E-01  0.89089850909E+00  0.88000000000E+00 0.  1.
        -11    1    4    4    0    0 -0.25554285284E-01  0.91839543347E-01  0.30495456280E-01  0.10008874659E+00  0.51100000000E-03 0. -1.
         11    1    4    4    0    0 -0.11896180832E-01  0.27142466361E-01 -0.88713774940E-03  0.29652668226E-01  0.51100000000E-03 0.  1.
</event>
<event>
 8    1  0.1123191E+005  0.1043930E+01  0.7957747E-01            NaN
         13   -1    0    0    0    0  0.00000000000E+00  0.00000000000E+00  0.74505805969E-08  0.10566000000E+00  0.10566000000E+00 0. -1.
     999900   -1    0    0    0    0 -0.00000000000E+00 -0.00000000000E+00 -0.74505805969E-08  0.93827000000E+00  0.93827000000E+00 0.  1.
     999902    2    1    2    0    0 -0.59914334093E-02  0.19532713143E-01 -0.11309811022E-01  0.10205775701E+01  0.10203103648E+01 0.  0.
     999903    2    3    3    0    0  0.66585520636E-01  0.18654769478E-02  0.10898525613E+00  0.12925807145E+00  0.19817956962E-01 0.  0.
         14    1    1    2    0    0  0.59914334093E-02 -0.19532713143E-01  0.11309811022E-01  0.23352429903E-01  0.00000000000E+00 0. -1.
     999901    1    3    3    0    0 -0.72576954046E-01  0.17667236195E-01 -0.12029506715E+00  0.89131949865E+00  0.88000000000E+00 0.  1.
        -11    1    4    4    0    0  0.58862872852E-01 -0.44615692400E-02  0.97982975329E-01  0.11439260455E+00  0.51100000000E-03 0.  1.
         11    1    4    4    0    0  0.77226477843E-02  0.63270461878E-02  0.11002280799E-01  0.14865466896E-01  0.51100000000E-03 0. -1.
</event>
<event>
 8    1  0.1123191E+005  0.1043930E+01  0.7957747E-01            NaN
         13   -1    0    0    0    0  0.00000000000E+00  0.00000000000E+00  0.74505805969E-08  0.10566000000E+00  0.10566000000E+00 0. -1.
     999900   -1    0    0    0    0 -0.00000000000E+00 -0.00000000000E+00 -0.74505805969E-08  0.93827000000E+00  0.93827000000E+00 0.  1.
     999902    2    1    2    0    0 -0.17759795642E-01  0.12865462860E-01 -0.10340778213E-01  0.10196841309E+01  0.10193958331E+01 0.  0.
     999903    2    3    3    0    0 -0.10601376199E+00 -0.59096338359E-01  0.42991707189E-01  0.13074565301E+00  0.22690173103E-01 0.  0.
         14    1    1    2    0    0  0.17759795642E-01 -0.12865462860E-01  0.10340778213E-01  0.24245869130E-01  0.00000000000E+00 0. -1.
     999901    1    3    3    0    0  0.88253966353E-01  0.71961801219E-01 -0.53332485401E-01  0.88893847785E+00  0.88000000000E+00 0.  1.
        -11    1    4    4    0    0 -0.52520811662E-01 -0.40645093712E-01  0.17495478833E-01  0.68679052127E-01  0.51100000000E-03 0.  1.
         11    1    4    4    0    0 -0.53492950333E-01 -0.18451244647E-01  0.25496228355E-01  0.62066600888E-01  0.51100000000E-03 0. -1.
</event>
<event>
 8    1  0.1123191E+005  0.1043930E+01  0.7957747E-01            NaN
         13   -1    0    0    0    0  0.00000000000E+00  0.00000000000E+00  0.74505805969E-08  0.10566000000E+00  0.10566000000E+00 0.  1.
     999900   -1    0    0    0    0 -0.00000000000E+00 -0.00000000000E+00 -0.74505805969E-08  0.93827000000E+00  0.93827000000E+00 0.  1.
     999902    2    1    2    0    0  0.18331058524E-01  0.12027857247E-01  0.71143484521E-02  0.10208798154E+01  0.10206195601E+01 0.  0.
     999903    2    3    3    0    0 -0.63496487671E-01 -0.22242170863E-01  0.10991718323E+00  0.13046496546E+00  0.20317527699E-01 0.  0.
         14    1    1    2    0    0 -0.18331058524E-01 -0.12027857247E-01 -0.71143484521E-02  0.23050184608E-01  0.00000000000E+00 0.  1.
     999901    1    3    3    0    0  0.81827546195E-01  0.34270028110E-01 -0.10280283478E+00  0.89041484993E+00  0.88000000000E+00 0. -1.
        -11    1    4    4    0    0 -0.60476505439E-01 -0.16231267867E-01  0.91716524980E-01  0.11105423829E+00  0.51100000000E-03 0.  1.
         11    1    4    4    0    0 -0.30199822311E-02 -0.60109029961E-02  0.18200658250E-01  0.19410727169E-01  0.51100000000E-03 0. -1.
</event>
<event>
 8    1  0.1123191E+005  0.1043930E+01  0.7957747E-01            NaN
         13   -1    0    0    0    0  0.00000000000E+00  0.00000000000E+00  0.74505805969E-08  0.10566000000E+00  0.10566000000E+00 0.  1.
     999900   -1    0    0    0    0 -0.00000000000E+00 -0.00000000000E+00 -0.74505805969E-08  0.93827000000E+00  0.93827000000E+00 0.  1.
     999902    2    1    2    0    0  0.10604267948E-01 -0.45308538029E-02  0.19182047154E-01  0.10215485329E+01  0.10213033218E+01 0.  0.
     999903    2    3    3    0    0 -0.95475727488E-01  0.42313511958E-01  0.76267883965E-01  0.13210704931E+00  0.27008045444E-01 0.  0.
         14    1    1    2    0    0 -0.10604267948E-01  0.45308538029E-02 -0.19182047154E-01  0.22381467063E-01  0.00000000000E+00 0. -1.
     999901    1    3    3    0    0  0.10607999544E+00 -0.46844365761E-01 -0.57085836812E-01  0.88944148363E+00  0.88000000000E+00 0.  1.
        -11    1    4    4    0    0 -0.50080926963E-01  0.10626778631E-01  0.26436193256E-01  0.57620839151E-01  0.51100000000E-03 0.  1.
         11    1    4    4    0    0 -0.45394800525E-01  0.31686733327E-01  0.49831690710E-01  0.74486210157E-01  0.51100000000E-03 0. -1.
</event>
<event>
 8    1  0.1123191E+005  0.1043930E+01  0.7957747E-01            NaN
         13   -1    0    0    0    0  0.00000000000E+00  0.00000000000E+00  0.74505805969E-08  0.10566000000E+00  0.10566000000E+00 0. -1.
     999900   -1    0    0    0    0 -0.00000000000E+00 -0.00000000000E+00 -0.74505805969E-08  0.93827000000E+00  0.93827000000E+00 0. -1.
     999902    2    1    2    0    0  0.11955725530E-01 -0.14957214470E-01 -0.13945897598E-01  0.10202414860E+01  0.10199664426E+01 0.  0.
     999903    2    3    3    0    0 -0.12386800158E+00 -0.31651579599E-01  0.34173817617E-02  0.12949557935E+00  0.20305720056E-01 0.  0.
         14    1    1    2    0    0 -0.11955725530E-01  0.14957214470E-01  0.13945897598E-01  0.23688514040E-01  0.00000000000E+00 0. -1.
     999901    1    3    3    0    0  0.13582372711E+00  0.16694365130E-01 -0.17363279360E-01  0.89074590661E+00  0.88000000000E+00 0. -1.
        -11    1    4    4    0    0 -0.75072034932E-02  0.27944968331E-02 -0.81847187586E-03  0.80683538625E-02  0.51100000000E-03 0.  1.
         11    1    4    4    0    0 -0.11636079808E+00 -0.34446076432E-01  0.42358536376E-02  0.12142722549E+00  0.51100000000E-03 0. -1.
</event>
<event>
 7    1  0.1123191E+005  0.1043930E+01  0.7957747E-01            NaN
         13   -1    0    0    0    0  0.00000000000E+00  0.00000000000E+00  0.74505805969E-08  0.10566000000E+00  0.10566000000E+00 0.  1.
     999900   -1    0    0    0    0 -0.00000000000E+00 -0.00000000000E+00 -0.74505805969E-08  0.93827000000E+00  0.93827000000E+00 0.  1.
     999903    2    1    2    0    0  0.70801924660E-01  0.64588220935E-01  0.39782027897E-02  0.98325941370E-01  0.21624380446E-01 0.  0.
         14    1    1    2    0    0 -0.44878298363E-03  0.80954803864E-02  0.57131346874E-01  0.57703804073E-01  0.00000000000E+00 0.  1.
     999901    1    1    2    0    0 -0.70353141676E-01 -0.72683701322E-01 -0.61109549664E-01  0.88790025456E+00  0.88000000000E+00 0.  1.
        -11    1    3    3    0    0  0.32037423399E-01  0.29887696666E-01 -0.89330211488E-02  0.44718350796E-01  0.51100000000E-03 0.  1.
         11    1    3    3    0    0  0.38764501261E-01  0.34700524269E-01  0.12911223939E-01  0.53607590574E-01  0.51100000000E-03 0. -1.
</event>
<event>
 8    1  0.1123191E+005  0.1043930E+01  0.7957747E-01            NaN
         13   -1    0    0    0    0  0.00000000000E+00  0.00000000000E+00  0.74505805969E-08  0.10566000000E+00  0.10566000000E+00 0.  1.
     999900   -1    0    0    0    0 -0.00000000000E+00 -0.00000000000E+00 -0.74505805969E-08  0.93827000000E+00  0.93827000000E+00 0.  1.
     999902    2    1    2    0    0 -0.16335169524E-01  0.13500542645E-01  0.10336360445E-01  0.10203515615E+01  0.10200790981E+01 0.  0.
     999903    2    3    3    0    0 -0.89666753103E-01  0.90830759144E-01  0.34053645046E-01  0.13360470183E+00  0.20005304099E-01 0.  0.
         14    1    1    2    0    0  0.16335169524E-01 -0.13500542645E-01 -0.10336360445E-01  0.23578438505E-01  0.00000000000E+00 0. -1.
     999901    1    3    3    0    0  0.73331583578E-01 -0.77330216499E-01 -0.23717284601E-01  0.88674685966E+00  0.88000000000E+00 0.  1.
        -11    1    4    4    0    0 -0.39041297586E-01  0.37016246126E-01  0.43730400369E-02  0.53979718364E-01  0.51100000000E-03 0. -1.
         11    1    4    4    0    0 -0.50625455516E-01  0.53814513018E-01  0.29680605009E-01  0.79624983468E-01  0.51100000000E-03 0.  1.
</event>
<event>
 8    1  0.1123191E+005  0.1043930E+01  0.7957747E-01            NaN
         13   -1    0    0    0    0  0.00000000000E+00  0.00000000000E+00  0.74505805969E-08  0.10566000000E+00  0.10566000000E+00 0.  1.
     999900   -1    0    0    0    0 -0.00000000000E+00 -0.00000000000E+00 -0.74505805969E-08  0.93827000000E+00  0.93827000000E+00 0. -1.
     999902    2    1    2    0    0 -0.34305474416E-02 -0.30204849684E-02 -0.24106206368E-01  0.10193942879E+01  0.10190989711E+01 0.  0.
     999903    2    3    3    0    0  0.73829556442E-01 -0.90831099463E-01 -0.55188042619E-01  0.13111172683E+00  0.21058794597E-01 0.  0.
         14    1    1    2    0    0  0.34305474416E-02  0.30204849684E-02  0.24106206368E-01  0.24535712149E-01  0.00000000000E+00 0.  1.
     999901    1    3    3    0    0 -0.77260103884E-01  0.87810614495E-01  0.31081836251E-01  0.88828256102E+00  0.88000000000E+00 0.  1.
        -11    1    4    4    0    0  0.12430703598E-01 -0.29043903109E-01 -0.11159350544E-01  0.33509146890E-01  0.51100000000E-03 0.  1.
         11    1    4    4    0    0  0.61398852844E-01 -0.61787196354E-01 -0.44028692076E-01  0.97602579939E-01  0.51100000000E-03 0. -1.
</event>
<event>
 8    1  0.1123191E+005  0.1043930E+01  0.7957747E-01            NaN
         13   -1    0    0    0    0  0.00000000000E+00  0.00000000000E+00  0.74505805969E-08  0.10566000000E+00  0.10566000000E+00 0.  1.
     999900   -1    0    0    0    0 -0.00000000000E+00 -0.00000000000E+00 -0.74505805969E-08  0.93827000000E+00  0.93827000000E+00 0.  1.
     999902    2    1    2    0    0 -0.18128649202E-01  0.78617958267E-03  0.14573193917E-01  0.10206567540E+01  0.10203913786E+01 0.  0.
     999903    2    3    3    0    0  0.79203236566E-01  0.31676893364E-01 -0.94086669972E-01  0.12811280647E+00  0.16852639530E-01 0.  0.
         14    1    1    2    0    0  0.18128649202E-01 -0.78617958267E-03 -0.14573193917E-01  0.23273246038E-01  0.00000000000E+00 0. -1.
     999901    1    3    3    0    0 -0.97331885768E-01 -0.30890713782E-01  0.10865986389E+00  0.89254394749E+00  0.88000000000E+00 0. -1.
        -11    1    4    4    0    0  0.50018692154E-01  0.14037630816E-01 -0.65563181043E-01  0.83652354858E-01  0.51100000000E-03 0. -1.
         11    1    4    4    0    0  0.29184544412E-01  0.17639262549E-01 -0.28523488929E-01  0.44460451612E-01  0.51100000000E-03 0.  1.
</event>
<event>
 8    1  0.1123191E+005  0.1043930E+01  0.7957747E-01            NaN
         13   -1    0    0    0    0  0.00000000000E+00  0.00000000000E+00  0.74505805969E-08  0.10566000000E+00  0.10566000000E+00 0.  1.
     999900   -1    0    0    0    0 -0.00000000000E+00 -0.00000000000E+00 -0.74505805969E-08  0.93827000000E+00  0.93827000000E+00 0. -1.
     999902    2    1    2    0    0 -0.20937179417E-01  0.23886140694E-02  0.10676739788E-01  0.10203066274E+01  0.10200331123E+01 0.  0.
     999903    2    3    3    0    0  0.13296602799E-01  0.12283791572E+00 -0.36128687580E-01  0.13021071454E+00  0.19585579640E-01 0.  0.
         14    1    1    2    0    0  0.20937179417E-01 -0.23886140694E-02 -0.10676739788E-01  0.23623372571E-01  0.00000000000E+00 0. -1.
     999901    1    3    3    0    0 -0.34233782216E-01 -0.12044930165E+00  0.46805427368E-01  0.89009591289E+00  0.88000000000E+00 0.  1.
        -11    1    4    4    0    0  0.83907862924E-02  0.29005252353E-01 -0.15768938660E-01  0.34068027623E-01  0.51100000000E-03 0. -1.
         11    1    4    4    0    0  0.49058165065E-02  0.93832663368E-01 -0.20359748920E-01  0.96142686916E-01  0.51100000000E-03 0.  1.
</event>
<event>
 8    1  0.1123191E+005  0.1043930E+01  0.7957747E-01            NaN
         13   -1    0    0    0    0  0.00000000000E+00  0.00000000000E+00  0.74505805969E-08  0.10566000000E+00  0.10566000000E+00 0. -1.
     999900   -1    0    0    0    0 -0.00000000000E+00 -0.00000000000E+00 -0.74505805969E-08  0.93827000000E+00  0.93827000000E+00 0. -1.
     999902    2    1    2    0    0  0.21210931870E-01 -0.18822921748E-01 -0.39835854924E-02  0.10152930489E+01  0.10148891073E+01 0.  0.
     999903    2    3    3    0    0 -0.68776197016E-01  0.96553880593E-01  0.24660959069E-01  0.12275173345E+00  0.20174439999E-01 0.  0.
         14    1    1    2    0    0 -0.21210931870E-01  0.18822921748E-01  0.39835854924E-02  0.28636951082E-01  0.00000000000E+00 0. -1.
     999901    1    3    3    0    0  0.89987128885E-01 -0.11537680234E+00 -0.28644544561E-01  0.89254131547E+00  0.88000000000E+00 0.  1.
        -11    1    4    4    0    0 -0.19480018056E-01  0.31435208138E-01  0.17040239380E-01  0.40721914165E-01  0.51100000000E-03 0.  1.
         11    1    4    4    0    0 -0.49296178959E-01  0.65118672456E-01  0.76207196881E-02  0.82029819285E-01  0.51100000000E-03 0. -1.
</event>
<event>
 8    1  0.1123191E+005  0.1043930E+01  0.7957747E-01            NaN
         13   -1    0    0    0    0  0.00000000000E+00  0.00000000000E+00  0.74505805969E-08  0.10566000000E+00  0.10566000000E+00 0.  1.
     999900   -1    0    0    0    0 -0.00000000000E+00 -0.00000000000E+00 -0.74505805969E-08  0.93827000000E+00  0.93827000000E+00 0.  1.
     999902    2    1    2    0    0 -0.17545017839E-01 -0.24669556491E-02 -0.18113066579E-01  0.10185923462E+01  0.10182771582E+01 0.  0.
     999903    2    3    3    0    0  0.37777284256E-02 -0.12357513328E+00 -0.32835199712E-01  0.12991997042E+00  0.22714831672E-01 0.  0.
         14    1    1    2    0    0  0.17545017839E-01  0.24669556491E-02  0.18113066579E-01  0.25337653838E-01  0.00000000000E+00 0.  1.
     999901    1    3    3    0    0 -0.21322746264E-01  0.12110817763E+00  0.14722133133E-01  0.88867237574E+00  0.88000000000E+00 0. -1.
        -11    1    4    4    0    0 -0.91332516149E-02 -0.39540754950E-01 -0.12982658424E-01  0.42611009468E-01  0.51100000000E-03 0. -1.
         11    1    4    4    0    0  0.12910980041E-01 -0.84034378328E-01 -0.19852541288E-01  0.87308960955E-01  0.51100000000E-03 0.  1.
</event>
<event>
 8    1  0.1123191E+005  0.1043930E+01  0.7957747E-01            NaN
         13   -1    0    0    0    0  0.00000000000E+00  0.00000000000E+00  0.74505805969E-08  0.10566000000E+00  0.10566000000E+00 0.  1.
     999900   -1    0    0    0    0 -0.00000000000E+00 -0.00000000000E+00 -0.74505805969E-08  0.93827000000E+00  0.93827000000E+00 0. -1.
     999902    2    1    2    0    0  0.21771174290E-01  0.35322393966E-02 -0.84097351998E-02  0.10203252464E+01  0.10200521673E+01 0.  0.
     999903    2    3    3    0    0  0.12407269253E+00 -0.41332043042E-01  0.15654981477E-01  0.13293721684E+00  0.18023716644E-01 0.  0.
         14    1    1    2    0    0 -0.21771174290E-01 -0.35322393966E-02  0.84097351998E-02  0.23604753573E-01  0.00000000000E+00 0. -1.
     999901    1    3    3    0    0 -0.10230151824E+00  0.44864282438E-01 -0.24064716677E-01  0.88738802959E+00  0.88000000000E+00 0. -1.
        -11    1    4    4    0    0  0.75541820630E-01 -0.17215417493E-01  0.45346142913E-02  0.77612892687E-01  0.51100000000E-03 0. -1.
         11    1    4    4    0    0  0.48530871899E-01 -0.24116625549E-01  0.11120367186E-01  0.55324324149E-01  0.51100000000E-03 0.  1.
</event>
<event>
 8    1  0.1123191E+005  0.1043930E+01  0.7957747E-01            NaN
         13   -1    0    0    0    0  0.00000000000E+00  0.00000000000E+00  0.74505805969E-08  0.10566000000E+00  0.10566000000E+00 0. -1.
     999900   -1    0    0    0    0 -0.00000000000E+00 -0.00000000000E+00 -0.74505805969E-08  0.93827000000E+00  0.93827000000E+00 0.  1.
     999902    2    1    2    0    0 -0.11919260305E-01 -0.15998582185E-01 -0.15405069671E-01  0.10187240569E+01  0.10184121781E+01 0.  0.
     999903    2    3    3    0    0 -0.88115579981E-01  0.91311430443E-01  0.62276780756E-02  0.12867389326E+00  0.20397403459E-01 0.  0.
         14    1    1    2    0    0  0.11919260305E-01  0.15998582185E-01  0.15405069671E-01  0.25205943143E-01  0.00000000000E+00 0. -1.
     999901    1    3    3    0    0  0.76196319675E-01 -0.10731001263E+00 -0.21632747746E-01  0.89005016360E+00  0.88000000000E+00 0.  1.
        -11    1    4    4    0    0 -0.14276325689E-01  0.20304628684E-01 -0.58946980210E-02  0.25516661359E-01  0.51100000000E-03 0. -1.
         11    1    4    4    0    0 -0.73839254292E-01  0.71006801759E-01  0.12122376097E-01  0.10315723190E+00  0.51100000000E-03 0.  1.
</event>
<event>
 8    1  0.1123191E+005  0.1043930E+01  0.7957747E-01            NaN
         13   -1    0    0    0    0  0.00000000000E+00  0.00000000000E+00  0.74505805969E-08  0.10566000000E+00  0.10566000000E+00 0. -1.
     999900   -1    0    0    0    0 -0.00000000000E+00 -0.00000000000E+00 -0.74505805969E-08  0.93827000000E+00  0.93827000000E+00 0.  1.
     999902    2    1    2    0    0 -0.63549514536E-02  0.22859639875E-01 -0.31103806209E-02  0.10200004574E+01  0.10197197213E+01 0.  0.
     999903    2    3    3    0    0 -0.23378969625E-01 -0.54879778708E-01 -0.11307836453E+00  0.12959257786E+00  0.21193239022E-01 0.  0.
         14    1    1    2    0    0  0.63549514536E-02 -0.22859639875E-01  0.31103806209E-02  0.23929542636E-01  0.00000000000E+00 0. -1.
     999901    1    3    3    0    0  0.17024018171E-01  0.77739418583E-01  0.10996798391E+00  0.89040787950E+00  0.88000000000E+00 0. -1.
        -11    1    4    4    0    0 -0.10019070431E-01 -0.60036914583E-02 -0.31017609061E-01  0.33147839693E-01  0.51100000000E-03 0. -1.
         11    1    4    4    0    0 -0.13359899194E-01 -0.48876087250E-01 -0.82060755467E-01  0.96444738167E-01  0.51100000000E-03 0.  1.
</event>
<event>
 8    1  0.1123191E+005  0.1043930E+01  0.7957747E-01            NaN
         13   -1    0    0    0    0  0.00000000000E+00  0.00000000000E+00  0.74505805969E-08  0.10566000000E+00  0.10566000000E+00 0. -1.
     999900   -1    0    0    0    0 -0.00000000000E+00 -0.00000000000E+00 -0.74505805969E-08  0.93827000000E+00  0.93827000000E+00 0.  1.
     999902    2    1    2    0    0 -0.73468236858E-02 -0.13438468605E-01 -0.17396336604E-01  0.10207524077E+01  0.10204892342E+01 0.  0.
     999903    2    3    3    0    0  0.90848762733E-01 -0.35159906311E-01 -0.87240539676E-01  0.13227482964E+00  0.19899801280E-01 0.  0.
         14    1    1    2    0    0  0.73468236858E-02  0.13438468605E-01  0.17396336604E-01  0.23177592282E-01  0.00000000000E+00 0. -1.
     999901    1    3    3    0    0 -0.98195586419E-01  0.21721437706E-01  0.69844203072E-01  0.88847757808E+00  0.88000000000E+00 0.  1.
        -11    1    4    4    0    0  0.56105037000E-01 -0.28390639977E-01 -0.45919747627E-01  0.77863264497E-01  0.51100000000E-03 0.  1.
         11    1    4    4    0    0  0.34743725733E-01 -0.67692663337E-02 -0.41320792049E-01  0.54411565141E-01  0.51100000000E-03 0. -1.
</event>
<event>
 8    1  0.1123191E+005  0.1043930E+01  0.7957747E-01            NaN
         13   -1    0    0    0    0  0.00000000000E+00  0.00000000000E+00  0.74505805969E-08  0.10566000000E+00  0.10566000000E+00 0.  1.
     999900   -1    0    0    0    0 -0.00000000000E+00 -0.00000000000E+00 -0.74505805969E-08  0.93827000000E+00  0.93827000000E+00 0.  1.
     999902    2    1    2    0    0 -0.81880208970E-02  0.19104649237E-01  0.97686613790E-02  0.10209635450E+01  0.10207051985E+01 0.  0.
     999903    2    3    3    0    0 -0.10904330550E-01  0.10477154395E+00  0.80353264123E-01  0.13398644198E+00  0.19993467287E-01 0.  0.
         14    1    1    2    0    0  0.81880208970E-02 -0.19104649237E-01 -0.97686613790E-02  0.22966454969E-01  0.00000000000E+00 0. -1.
     999901    1    3    3    0    0  0.27163096530E-02 -0.85666894710E-01 -0.70584602744E-01  0.88697710305E+00  0.88000000000E+00 0.  1.
        -11    1    4    4    0    0  0.12427893129E-02  0.70360122744E-01  0.47704468305E-01  0.85018049937E-01  0.51100000000E-03 0.  1.
         11    1    4    4    0    0 -0.12147119863E-01  0.34411421204E-01  0.32648795818E-01  0.48968392046E-01  0.51100000000E-03 0. -1.
</event>
<event>
 8    1  0.1123191E+005  0.1043930E+01  0.7957747E-01            NaN
         13   -1    0    0    0    0  0.00000000000E+00  0.00000000000E+00  0.74505805969E-08  0.10566000000E+00  0.10566000000E+00 0.  1.
     999900   -1    0    0    0    0 -0.00000000000E+00 -0.00000000000E+00 -0.74505805969E-08  0.93827000000E+00  0.93827000000E+00 0.  1.
     999902    2    1    2    0    0  0.93396854072E-02 -0.10887585036E-02  0.20517132825E-01  0.10213608206E+01  0.10211114327E+01 0.  0.
     999903    2    3    3    0    0  0.28158697580E-01 -0.30471713904E-01 -0.12090385903E+00  0.12938693635E+00  0.20044913838E-01 0.  0.
         14    1    1    2    0    0 -0.93396854072E-02  0.10887585036E-02 -0.20517132825E-01  0.22569179381E-01  0.00000000000E+00 0. -1.
     999901    1    3    3    0    0 -0.18819012173E-01  0.29382955400E-01  0.14142099186E+00  0.89197388427E+00  0.88000000000E+00 0. -1.
        -11    1    4    4    0    0 -0.22356276421E-03 -0.10940159691E-01 -0.39498386091E-01  0.40989275416E-01  0.51100000000E-03 0.  1.
         11    1    4    4    0    0  0.28382260344E-01 -0.19531554213E-01 -0.81405472940E-01  0.88397660930E-01  0.51100000000E-03 0. -1.
</event>
<event>
 8    1  0.1123191E+005  0.1043930E+01  0.7957747E-01            NaN
         13   -1    0    0    0    0  0.00000000000E+00  0.00000000000E+00  0.74505805969E-08  0.10566000000E+00  0.10566000000E+00 0.  1.
     999900   -1    0    0    0    0 -0.00000000000E+00 -0.00000000000E+00 -0.74505805969E-08  0.93827000000E+00  0.93827000000E+00 0.  1.
     999902    2    1    2    0    0  0.95962410735E-02  0.19917614449E-01  0.71382653913E-02  0.10206973927E+01  0.10204329539E+01 0.  0.
     999903    2    3    3    0    0 -0.82350127171E-01 -0.80981221567E-01  0.54048939520E-01  0.12893771597E+00  0.19082584830E-01 0.  0.
         14    1    1    2    0    0 -0.95962410735E-02 -0.19917614449E-01 -0.71382653913E-02  0.23232607277E-01  0.00000000000E+00 0. -1.
     999901    1    3    3    0    0  0.91946368244E-01  0.10089883602E+00 -0.46910674129E-01  0.89175967676E+00  0.88000000000E+00 0. -1.
        -11    1    4    4    0    0 -0.55164115339E-01 -0.65688334891E-01  0.37434440519E-01  0.93592923984E-01  0.51100000000E-03 0. -1.
         11    1    4    4    0    0 -0.27186011832E-01 -0.15292886676E-01  0.16614499002E-01  0.35344791982E-01  0.51100000000E-03 0.  1.
</event>
<event>
 8    1  0.1123191E+005  0.1043930E+01  0.7957747E-01            NaN
         13   -1    0    0    0    0  0.00000000000E+00  0.00000000000E+00  0.74505805969E-08  0.10566000000E+00  0.10566000000E+00 0. -1.
     999900   -1    0    0    0    0 -0.00000000000E+00 -0.00000000000E+00 -0.74505805969E-08  0.93827000000E+00  0.93827000000E+00 0. -1.
     999902    2    1    2    0    0  0.34900978731E-02  0.20973527533E-01 -0.96437855945E-02  0.10205832178E+01  0.10203161432E+01 0.  0.
     999903    2    3    3    0    0  0.38789566256E-02 -0.11397037149E+00 -0.56795743813E-01  0.12904897038E+00  0.20581262284E-01 0.  0.
         14    1    1    2    0    0 -0.34900978731E-02 -0.20973527533E-01  0.96437855945E-02  0.23346782240E-01  0.00000000000E+00 0. -1.
     999901    1    3    3    0    0 -0.38885875248E-03  0.13494389903E+00  0.47151958219E-01  0.89153424738E+00  0.88000000000E+00 0.  1.
        -11    1    4    4    0    0  0.11020030510E-01 -0.38639715179E-01 -0.20977359872E-01  0.45329674715E-01  0.51100000000E-03 0. -1.
         11    1    4    4    0    0 -0.71410738847E-02 -0.75330656314E-01 -0.35818383941E-01  0.83719295661E-01  0.51100000000E-03 0.  1.
</event>
<event>
 8    1  0.1123191E+005  0.1043930E+01  0.7957747E-01            NaN
         13   -1    0    0    0    0  0.00000000000E+00  0.00000000000E+00  0.74505805969E-08  0.10566000000E+00  0.10566000000E+00 0.  1.
     999900   -1    0    0    0    0 -0.00000000000E+00 -0.00000000000E+00 -0.74505805969E-08  0.93827000000E+00  0.93827000000E+00 0. -1.
     999902    2    1    2    0    0 -0.80752422888E-02 -0.20343090360E-01  0.10207060021E-01  0.10197797425E+01  0.10194937412E+01 0.  0.
     999903    2    3    3    0    0 -0.86996245189E-01  0.63680060259E-01  0.70390565117E-01  0.13022340992E+00  0.19488665456E-01 0.  0.
         14    1    1    2    0    0  0.80752422888E-02  0.20343090360E-01 -0.10207060021E-01  0.24150257508E-01  0.00000000000E+00 0.  1.
     999901    1    3    3    0    0  0.78921002900E-01 -0.84023150619E-01 -0.60183505096E-01  0.88955633258E+00  0.88000000000E+00 0.  1.
        -11    1    4    4    0    0 -0.60032920680E-01  0.38161683857E-01  0.55478051191E-01  0.90212753894E-01  0.51100000000E-03 0.  1.
         11    1    4    4    0    0 -0.26963324509E-01  0.25518376402E-01  0.14912513926E-01  0.40010656023E-01  0.51100000000E-03 0. -1.
</event>
<event>
 8    1  0.1123191E+005  0.1043930E+01  0.7957747E-01            NaN
         13   -1    0    0    0    0  0.00000000000E+00  0.00000000000E+00  0.74505805969E-08  0.10566000000E+00  0.10566000000E+00 0.  1.
     999900   -1    0    0    0    0 -0.00000000000E+00 -0.00000000000E+00 -0.74505805969E-08  0.93827000000E+00  0.93827000000E+00 0.  1.
     999902    2    1    2    0    0  0.19173101377E-01  0.67946596843E-02 -0.10816745086E-01  0.10208913978E+01  0.10206314070E+01 0.  0.
     999903    2    3    3    0    0 -0.96287500528E-01  0.82740212641E-01  0.16628484392E-01  0.12968316276E+00  0.20591033570E-01 0.  0.
         14    1    1    2    0    0 -0.19173101377E-01 -0.67946596843E-02  0.10816745086E-01  0.23038602190E-01  0.00000000000E+00 0.  1.
     999901    1    3    3    0    0  0.11546060190E+00 -0.75945552957E-01 -0.27445229478E-01  0.89120823505E+00  0.88000000000E+00 0. -1.
        -11    1    4    4    0    0 -0.62703491150E-01  0.60883526129E-01  0.33394094494E-02  0.87463960194E-01  0.51100000000E-03 0.  1.
         11    1    4    4    0    0 -0.33584009378E-01  0.21856686512E-01  0.13289074943E-01  0.42219202563E-01  0.51100000000E-03 0. -1.
</event>
<event>
 8    1  0.1123191E+005  0.1043930E+01  0.7957747E-01            NaN
         13   -1    0    0    0    0  0.00000000000E+00  0.00000000000E+00  0.74505805969E-08  0.10566000000E+00  0.10566000000E+00 0. -1.
     999900   -1    0    0    0    0 -0.00000000000E+00 -0.00000000000E+00 -0.74505805969E-08  0.93827000000E+00  0.93827000000E+00 0. -1.
     999902    2    1    2    0    0 -0.18994744314E-01 -0.43858944555E-02  0.12501268924E-01  0.10207714572E+01  0.10205087210E+01 0.  0.
     999903    2    3    3    0    0 -0.11191261311E-01  0.97953214950E-01 -0.82025245837E-01  0.12977793886E+00  0.19851846547E-01 0.  0.
         14    1    1    2    0    0  0.18994744314E-01  0.43858944555E-02 -0.12501268924E-01  0.23158542839E-01  0.00000000000E+00 0.  1.
     999901    1    3    3    0    0 -0.78034830032E-02 -0.10233910941E+00  0.94526514761E-01  0.89099351830E+00  0.88000000000E+00 0.  1.
        -11    1    4    4    0    0 -0.16553342804E-02  0.71634598317E-01 -0.50782191024E-01  0.87825667397E-01  0.51100000000E-03 0.  1.
         11    1    4    4    0    0 -0.95359270304E-02  0.26318616633E-01 -0.31243054813E-01  0.41952271463E-01  0.51100000000E-03 0. -1.
</event>
<event>
 8    1  0.1123191E+005  0.1043930E+01  0.7957747E-01            NaN
         13   -1    0    0    0    0  0.00000000000E+00  0.00000000000E+00  0.74505805969E-08  0.10566000000E+00  0.10566000000E+00 0. -1.
     999900   -1    0    0    0    0 -0.00000000000E+00 -0.00000000000E+00 -0.74505805969E-08  0.93827000000E+00  0.93827000000E+00 0.  1.
     999902    2    1    2    0    0  0.11287946186E-01 -0.12007804071E-01  0.18458270930E-01  0.10191850439E+01  0.10188846062E+01 0.  0.
     999903    2    3    3    0    0  0.69273113827E-02  0.12491995881E+00 -0.19618939290E-01  0.12777150274E+00  0.16960848525E-01 0.  0.
         14    1    1    2    0    0 -0.11287946186E-01  0.12007804071E-01 -0.18458270930E-01  0.24744956121E-01  0.00000000000E+00 0.  1.
     999901    1    3    3    0    0  0.43606348029E-02 -0.13692776288E+00  0.38077210220E-01  0.89141354114E+00  0.88000000000E+00 0. -1.
        -11    1    4    4    0    0  0.10942081857E-01  0.77194611180E-01 -0.17022513460E-01  0.79804537691E-01  0.51100000000E-03 0.  1.
         11    1    4    4    0    0 -0.40147704743E-02  0.47725347628E-01 -0.25964258300E-02  0.47966965051E-01  0.51100000000E-03 0. -1.
</event>
<event>
 8    1  0.1123191E+005  0.1043930E+01  0.7957747E-01            NaN
         13   -1    0    0    0    0  0.00000000000E+00  0.00000000000E+00  0.74505805969E-08  0.10566000000E+00  0.10566000000E+00 0. -1.
     999900   -1    0    0    0    0 -0.00000000000E+00 -0.00000000000E+00 -0.74505805969E-08  0.93827000000E+00  0.93827000000E+00 0.  1.
     999902    2    1    2    0    0 -0.16336606508E-01  0.16261652943E-01  0.73959120875E-02  0.10197220347E+01  0.10194346484E+01 0.  0.
     999903    2    3    3    0    0  0.54143089005E-01  0.56125165512E-01 -0.10110423838E+00  0.12936886333E+00  0.20802103003E-01 0.  0.
         14    1    1    2    0    0  0.16336606508E-01 -0.16261652943E-01 -0.73959120875E-02  0.24207965306E-01  0.00000000000E+00 0. -1.
     999901    1    3    3    0    0 -0.70479695513E-01 -0.39863512569E-01  0.10850015047E+00  0.89035317137E+00  0.88000000000E+00 0. -1.
        -11    1    4    4    0    0  0.44242102171E-01  0.51752456448E-01 -0.76074914866E-01  0.10209473123E+00  0.51100000000E-03 0. -1.
         11    1    4    4    0    0  0.99009868339E-02  0.43727090638E-02 -0.25029323513E-01  0.27274132092E-01  0.51100000000E-03 0.  1.
</event>
<event>
 8    1  0.1123191E+005  0.1043930E+01  0.7957747E-01            NaN
         13   -1    0    0    0    0  0.00000000000E+00  0.00000000000E+00  0.74505805969E-08  0.10566000000E+00  0.10566000000E+00 0. -1.
     999900   -1    0    0    0    0 -0.00000000000E+00 -0.00000000000E+00 -0.74505805969E-08  0.93827000000E+00  0.93827000000E+00 0.  1.
     999902    2    1    2    0    0 -0.14705351114E-01 -0.14002127147E-01 -0.14818665358E-01  0.10187923836E+01  0.10184822144E+01 0.  0.
     999903    2    3    3    0    0  0.43079457292E-01 -0.99117919787E-01 -0.71292335927E-01  0.13100127206E+00  0.19963327763E-01 0.  0.
         14    1    1    2    0    0  0.14705351114E-01  0.14002127147E-01  0.14818665358E-01  0.25137616415E-01  0.00000000000E+00 0. -1.
     999901    1    3    3    0    0 -0.57784808405E-01  0.85115792641E-01  0.56473670568E-01  0.88779111153E+00  0.88000000000E+00 0. -1.
        -11    1    4    4    0    0  0.33767666883E-01 -0.86736624474E-01 -0.67683620360E-01  0.11508618917E+00  0.51100000000E-03 0. -1.
         11    1    4    4    0    0  0.93117904084E-02 -0.12381295313E-01 -0.36087155661E-02  0.15915082886E-01  0.51100000000E-03 0.  1.
</event>
<event>
 8    1  0.1123191E+005  0.1043930E+01  0.7957747E-01            NaN
         13   -1    0    0    0    0  0.00000000000E+00  0.00000000000E+00  0.74505805969E-08  0.10566000000E+00  0.10566000000E+00 0.  1.
     999900   -1    0    0    0    0 -0.00000000000E+00 -0.00000000000E+00 -0.74505805969E-08  0.93827000000E+00  0.93827000000E+00 0. -1.
     999902    2    1    2    0    0 -0.21389463017E-01 -0.43955429803E-02 -0.93782205218E-02  0.10201648796E+01  0.10198880334E+01 0.  0.
     999903    2    3    3    0    0 -0.33750485316E-01 -0.10580732092E+00 -0.68906556790E-01  0.13225679520E+00  0.20235164607E-01 0.  0.
         14    1    1    2    0    0  0.21389463017E-01  0.43955429803E-02  0.93782205218E-02  0.23765120374E-01  0.00000000000E+00 0.  1.
     999901    1    3    3    0    0  0.12361022300E-01  0.10141177794E+00  0.59528336268E-01  0.88790808443E+00  0.88000000000E+00 0. -1.
        -11    1    4    4    0    0 -0.51464103182E-02 -0.41329731058E-01 -0.18600014138E-01  0.45616377052E-01  0.51100000000E-03 0. -1.
         11    1    4    4    0    0 -0.28604074998E-01 -0.64477589866E-01 -0.50306542652E-01  0.86640418143E-01  0.51100000000E-03 0.  1.
</event>
<event>
 8    1  0.1123191E+005  0.1043930E+01  0.7957747E-01            NaN
         13   -1    0    0    0    0  0.00000000000E+00  0.00000000000E+00  0.74505805969E-08  0.10566000000E+00  0.10566000000E+00 0. -1.
     999900   -1    0    0    0    0 -0.00000000000E+00 -0.00000000000E+00 -0.74505805969E-08  0.93827000000E+00  0.93827000000E+00 0. -1.
     999902    2    1    2    0    0  0.50597054551E-02 -0.22915797266E-01  0.75706324806E-02  0.10192713532E+01  0.10189730333E+01 0.  0.
     999903    2    3    3    0    0  0.89118271884E-01  0.83387309994E-01 -0.32744504044E-01  0.12798492149E+00  0.20308316797E-01 0.  0.
         14    1    1    2    0    0 -0.50597054551E-02  0.22915797266E-01 -0.75706324806E-02  0.24658646755E-01  0.00000000000E+00 0. -1.
     999901    1    3    3    0    0 -0.84058566429E-01 -0.10630310726E+00  0.40315136524E-01  0.89128643176E+00  0.88000000000E+00 0.  1.
        -11    1    4    4    0    0  0.54239613792E-01  0.63702618788E-01 -0.22659953676E-01  0.86681566474E-01  0.51100000000E-03 0. -1.
         11    1    4    4    0    0  0.34878658091E-01  0.19684691206E-01 -0.10084550368E-01  0.41303355012E-01  0.51100000000E-03 0.  1.
</event>
<event>
 8    1  0.1123191E+005  0.1043930E+01  0.7957747E-01            NaN
         13   -1    0    0    0    0  0.00000000000E+00  0.00000000000E+00  0.74505805969E-08  0.10566000000E+00  0.10566000000E+00 0. -1.
     999900   -1    0    0    0    0 -0.00000000000E+00 -0.00000000000E+00 -0.74505805969E-08  0.93827000000E+00  0.93827000000E+00 0. -1.
     999902    2    1    2    0    0  0.93239486830E-02  0.21888418381E-01 -0.77659078841E-02  0.10189030505E+01  0.10185956401E+01 0.  0.
     999903    2    3    3    0    0  0.88132870679E-01  0.59542897834E-01 -0.75500144256E-01  0.13198894369E+00  0.20200244949E-01 0.  0.
         14    1    1    2    0    0 -0.93239486830E-02 -0.21888418381E-01  0.77659078841E-02  0.25026949545E-01  0.00000000000E+00 0. -1.
     999901    1    3    3    0    0 -0.78808921996E-01 -0.37654479453E-01  0.67734236372E-01  0.88691410677E+00  0.88000000000E+00 0. -1.
        -11    1    4    4    0    0  0.81739332424E-01  0.47739661171E-01 -0.63595069091E-01  0.11403941269E+00  0.51100000000E-03 0.  1.
         11    1    4    4    0    0  0.63935382543E-02  0.11803236663E-01 -0.11905075165E-01  0.17949530991E-01  0.51100000000E-03 0. -1.
</event>
<event>
 7    1  0.1123191E+005  0.1043930E+01  0.7957747E-01            NaN
         13   -1    0    0    0    0  0.00000000000E+00  0.00000000000E+00  0.74505805969E-08  0.10566000000E+00  0.10566000000E+00 0. -1.
     999900   -1    0    0    0    0 -0.00000000000E+00 -0.00000000000E+00 -0.74505805969E-08  0.93827000000E+00  0.93827000000E+00 0.  1.
     999903    2    1    2    0    0  0.61913552815E-01 -0.57598275088E-01  0.10407622134E-01  0.87540724944E-01  0.20104989679E-01 0.  0.
         14    1    1    2    0    0 -0.34859652060E-01 -0.14870492452E-01  0.59162922275E-01  0.70260787496E-01  0.00000000000E+00 0. -1.
     999901    1    1    2    0    0 -0.27053900754E-01  0.72468767540E-01 -0.69570544409E-01  0.88612848756E+00  0.88000000000E+00 0. -1.
        -11    1    3    3    0    0  0.14422286002E-01 -0.25793506939E-01  0.71309151795E-03  0.29564792478E-01  0.51100000000E-03 0.  1.
         11    1    3    3    0    0  0.47491266812E-01 -0.31804768149E-01  0.96945306161E-02  0.57975932466E-01  0.51100000000E-03 0. -1.
</event>
<event>
 8    1  0.1123191E+005  0.1043930E+01  0.7957747E-01            NaN
         13   -1    0    0    0    0  0.00000000000E+00  0.00000000000E+00  0.74505805969E-08  0.10566000000E+00  0.10566000000E+00 0. -1.
     999900   -1    0    0    0    0 -0.00000000000E+00 -0.00000000000E+00 -0.74505805969E-08  0.93827000000E+00  0.93827000000E+00 0.  1.
     999902    2    1    2    0    0 -0.14343365425E-01  0.82116105784E-03 -0.18833627544E-01  0.10202421980E+01  0.10199671713E+01 0.  0.
     999903    2    3    3    0    0 -0.10799867837E-01  0.11697339732E+00  0.51649982317E-01  0.12980868694E+00  0.19574516732E-01 0.  0.
         14    1    1    2    0    0  0.14343365425E-01 -0.82116105784E-03  0.18833627544E-01  0.23687802001E-01  0.00000000000E+00 0. -1.
     999901    1    3    3    0    0 -0.35434975881E-02 -0.11615223626E+00 -0.70483609861E-01  0.89043351106E+00  0.88000000000E+00 0.  1.
        -11    1    4    4    0    0 -0.74578770842E-02  0.35845856566E-01  0.25046517983E-01  0.44363662469E-01  0.51100000000E-03 0. -1.
         11    1    4    4    0    0 -0.33419907523E-02  0.81127540752E-01  0.26603464334E-01  0.85445024468E-01  0.51100000000E-03 0.  1.
</event>
<event>
 8    1  0.1123191E+005  0.1043930E+01  0.7957747E-01            NaN
         13   -1    0    0    0    0  0.00000000000E+00  0.00000000000E+00  0.74505805969E-08  0.10566000000E+00  0.10566000000E+00 0. -1.
     999900   -1    0    0    0    0 -0.00000000000E+00 -0.00000000000E+00 -0.74505805969E-08  0.93827000000E+00  0.93827000000E+00 0.  1.
     999902    2    1    2    0    0 -0.55570605856E-02 -0.70160982653E-02 -0.21614295506E-01  0.10205358912E+01  0.10202677202E+01 0.  0.
     999903    2    3    3    0    0  0.37843446072E-02 -0.11331910706E+00  0.61492157225E-01  0.13020209197E+00  0.17769582538E-01 0.  0.
         14    1    1    2    0    0  0.55570605856E-02  0.70160982653E-02  0.21614295506E-01  0.23394108819E-01  0.00000000000E+00 0. -1.
     999901    1    3    3    0    0 -0.93414051927E-02  0.10630300880E+00 -0.83106452731E-01  0.89033379921E+00  0.88000000000E+00 0.  1.
        -11    1    4    4    0    0 -0.34936238909E-02 -0.45056062697E-01  0.16458124604E-01  0.48097662938E-01  0.51100000000E-03 0. -1.
         11    1    4    4    0    0  0.72779684980E-02 -0.68263044367E-01  0.45034032620E-01  0.82104429032E-01  0.51100000000E-03 0.  1.
</event>
<event>
 8    1  0.1123191E+005  0.1043930E+01  0.7957747E-01            NaN
         13   -1    0    0    0    0  0.00000000000E+00  0.00000000000E+00  0.74505805969E-08  0.10566000000E+00  0.10566000000E+00 0.  1.
     999900   -1    0    0    0    0 -0.00000000000E+00 -0.00000000000E+00 -0.74505805969E-08  0.93827000000E+00  0.93827000000E+00 0. -1.
     999902    2    1    2    0    0 -0.71225760172E-02 -0.10064584401E-01 -0.95201109468E-02  0.10283524694E+01  0.10282344780E+01 0.  0.
     999903    2    3    3    0    0 -0.63970149839E-01 -0.11807432425E+00  0.29560292438E-01  0.13906903396E+00  0.20800461523E-01 0.  0.
         14    1    1    2    0    0  0.71225760172E-02  0.10064584401E-01  0.95201109468E-02  0.15577530636E-01  0.00000000000E+00 0.  1.
     999901    1    3    3    0    0  0.56847573822E-01  0.10800973985E+00 -0.39080403384E-01  0.88928343540E+00  0.88000000000E+00 0.  1.
        -11    1    4    4    0    0 -0.37228476184E-01 -0.82096061153E-01  0.12077156484E-01  0.90949664791E-01  0.51100000000E-03 0.  1.
         11    1    4    4    0    0 -0.26741673655E-01 -0.35978263100E-01  0.17483135953E-01  0.48119369170E-01  0.51100000000E-03 0. -1.
</event>
<event>
 8    1  0.1123191E+005  0.1043930E+01  0.7957747E-01            NaN
         13   -1    0    0    0    0  0.00000000000E+00  0.00000000000E+00  0.74505805969E-08  0.10566000000E+00  0.10566000000E+00 0. -1.
     999900   -1    0    0    0    0 -0.00000000000E+00 -0.00000000000E+00 -0.74505805969E-08  0.93827000000E+00  0.93827000000E+00 0. -1.
     999902    2    1    2    0    0 -0.15038055027E-01  0.12650919303E-01 -0.13417062639E-01  0.10201349075E+01  0.10198573543E+01 0.  0.
     999903    2    3    3    0    0 -0.18005592821E-01 -0.53927206379E-01 -0.11691343389E+00  0.13156698550E+00  0.20218201924E-01 0.  0.
         14    1    1    2    0    0  0.15038055027E-01 -0.12650919303E-01  0.13417062639E-01  0.23795092520E-01  0.00000000000E+00 0. -1.
     999901    1    3    3    0    0  0.29675377937E-02  0.66578125682E-01  0.10349637126E+00  0.88856792198E+00  0.88000000000E+00 0.  1.
        -11    1    4    4    0    0 -0.13076742840E-01 -0.19017573518E-01 -0.30615054607E-01  0.38343343561E-01  0.51100000000E-03 0. -1.
         11    1    4    4    0    0 -0.49288499810E-02 -0.34909632861E-01 -0.86298379287E-01  0.93223641944E-01  0.51100000000E-03 0.  1.
</event>
<event>
 8    1  0.1123191E+005  0.1043930E+01  0.7957747E-01            NaN
         13   -1    0    0    0    0  0.00000000000E+00  0.00000000000E+00  0.74505805969E-08  0.10566000000E+00  0.10566000000E+00 0. -1.
     999900   -1    0    0    0    0 -0.00000000000E+00 -0.00000000000E+00 -0.74505805969E-08  0.93827000000E+00  0.93827000000E+00 0.  1.
     999902    2    1    2    0    0  0.12091490128E-02 -0.98002574301E-02  0.21979352823E-01  0.10198343772E+01  0.10195496839E+01 0.  0.
     999903    2    3    3    0    0  0.67577757939E-01 -0.13247196421E-04 -0.10668310554E+00  0.12795175825E+00  0.20581882530E-01 0.  0.
         14    1    1    2    0    0 -0.12091490128E-02  0.98002574301E-02 -0.21979352823E-01  0.24095622788E-01  0.00000000000E+00 0.  1.
     999901    1    3    3    0    0 -0.66368608926E-01 -0.97870102337E-02  0.12866245836E+00  0.89188261896E+00  0.88000000000E+00 0. -1.
        -11    1    4    4    0    0  0.27478177066E-02 -0.10890201127E-02 -0.17121260529E-01  0.17382035268E-01  0.51100000000E-03 0. -1.
         11    1    4    4    0    0  0.64829940232E-01  0.10757729162E-02 -0.89561845006E-01  0.11056972298E+00  0.51100000000E-03 0.  1.
</event>
<event>
 8    1  0.1123191E+005  0.1043930E+01  0.7957747E-01            NaN
         13   -1    0    0    0    0  0.00000000000E+00  0.00000000000E+00  0.74505805969E-08  0.10566000000E+00  0.10566000000E+00 0. -1.
     999900   -1    0    0    0    0 -0.00000000000E+00 -0.00000000000E+00 -0.74505805969E-08  0.93827000000E+00  0.93827000000E+00 0. -1.
     999902    2    1    2    0    0  0.16534633678E-01 -0.12742654822E-01  0.11894046637E-01  0.10199042283E+01  0.10196212027E+01 0.  0.
     999903    2    3    3    0    0  0.10412898187E+00 -0.76578796204E-01 -0.21961626616E-01  0.13260831966E+00  0.19887093975E-01 0.  0.
         14    1    1    2    0    0 -0.16534633678E-01  0.12742654822E-01 -0.11894046637E-01  0.24025771750E-01  0.00000000000E+00 0. -1.
     999901    1    3    3    0    0 -0.87594348194E-01  0.63836141382E-01  0.33855673253E-01  0.88729590859E+00  0.88000000000E+00 0. -1.
        -11    1    4    4    0    0  0.42444690279E-01 -0.41680975502E-01 -0.47826536672E-02  0.59682412391E-01  0.51100000000E-03 0.  1.
         11    1    4    4    0    0  0.61684291593E-01 -0.34897820702E-01 -0.17178972949E-01  0.72925907273E-01  0.51100000000E-03 0. -1.
</event>
<event>
 8    1  0.1123191E+005  0.1043930E+01  0.7957747E-01            NaN
         13   -1    0    0    0    0  0.00000000000E+00  0.00000000000E+00  0.74505805969E-08  0.10566000000E+00  0.10566000000E+00 0.  1.
     999900   -1    0    0    0    0 -0.00000000000E+00 -0.00000000000E+00 -0.74505805969E-08  0.93827000000E+00  0.93827000000E+00 0.  1.
     999902    2    1    2    0    0  0.63388249457E-02 -0.23263768910E-01  0.89125436123E-03  0.10198016354E+01  0.10195161585E+01 0.  0.
     999903    2    3    3    0    0  0.11893852743E+00 -0.19942222668E-01 -0.47894466601E-01  0.13128052012E+00  0.19915558731E-01 0.  0.
         14    1    1    2    0    0 -0.63388249457E-02  0.23263768910E-01 -0.89125436123E-03  0.24128364635E-01  0.00000000000E+00 0.  1.
     999901    1    3    3    0    0 -0.11259970248E+00 -0.33215462426E-02  0.48785720962E-01  0.88852111525E+00  0.88000000000E+00 0.  1.
        -11    1    4    4    0    0  0.94693759248E-01 -0.15337217628E-01 -0.29066889962E-01  0.10023613868E+00  0.51100000000E-03 0.  1.
         11    1    4    4    0    0  0.24244768182E-01 -0.46050050394E-02 -0.18827576639E-01  0.31044381436E-01  0.51100000000E-03 0. -1.
</event>
<event>
 8    1  0.1123191E+005  0.1043930E+01  0.7957747E-01            NaN
         13   -1    0    0    0    0  0.00000000000E+00  0.00000000000E+00  0.74505805969E-08  0.10566000000E+00  0.10566000000E+00 0.  1.
     999900   -1    0    0    0    0 -0.00000000000E+00 -0.00000000000E+00 -0.74505805969E-08  0.93827000000E+00  0.93827000000E+00 0. -1.
     999902    2    1    2    0    0  0.50733821888E-02  0.17993026928E-01 -0.13612277257E-01  0.10208046391E+01  0.10205426639E+01 0.  0.
     999903    2    3    3    0    0  0.65392343237E-01 -0.76645299285E-01 -0.81621710283E-01  0.13107430195E+00  0.19175729098E-01 0.  0.
         14    1    1    2    0    0 -0.50733821888E-02 -0.17993026928E-01  0.13612277257E-01  0.23125360905E-01  0.00000000000E+00 0.  1.
     999901    1    3    3    0    0 -0.60318961048E-01  0.94638326213E-01  0.68009433026E-01  0.88973033714E+00  0.88000000000E+00 0. -1.
        -11    1    4    4    0    0  0.54056155516E-01 -0.50913621777E-01 -0.62570687220E-01  0.97106214280E-01  0.51100000000E-03 0. -1.
         11    1    4    4    0    0  0.11336187721E-01 -0.25731677507E-01 -0.19051023063E-01  0.33968087673E-01  0.51100000000E-03 0.  1.
</event>
<event>
 8    1  0.1123191E+005  0.1043930E+01  0.7957747E-01            NaN
         13   -1    0    0    0    0  0.00000000000E+00  0.00000000000E+00  0.74505805969E-08  0.10566000000E+00  0.10566000000E+00 0. -1.
     999900   -1    0    0    0    0 -0.00000000000E+00 -0.00000000000E+00 -0.74505805969E-08  0.93827000000E+00  0.93827000000E+00 0.  1.
     999902    2    1    2    0    0  0.19062071218E-01 -0.12884453413E-01 -0.38805098171E-02  0.10205969750E+01  0.10203302188E+01 0.  0.
     999903    2    3    3    0    0  0.35307758575E-01 -0.40951587635E-02 -0.12572690627E+00  0.13200949007E+00  0.18863784580E-01 0.  0.
         14    1    1    2    0    0 -0.19062071218E-01  0.12884453413E-01  0.38805098171E-02  0.23333024993E-01  0.00000000000E+00 0.  1.
     999901    1    3    3    0    0 -0.16245687356E-01 -0.87892946492E-02  0.12184639645E+00  0.88858748494E+00  0.88000000000E+00 0. -1.
        -11    1    4    4    0    0  0.18715224452E-01 -0.37030430642E-02 -0.96729567604E-01  0.98594333124E-01  0.51100000000E-03 0. -1.
         11    1    4    4    0    0  0.16592534123E-01 -0.39211569924E-03 -0.28997338661E-01  0.33415156947E-01  0.51100000000E-03 0.  1.
</event>
<event>
 8    1  0.1123191E+005  0.1043930E+01  0.7957747E-01            NaN
         13   -1    0    0    0    0  0.00000000000E+00  0.00000000000E+00  0.74505805969E-08  0.10566000000E+00  0.10566000000E+00 0. -1.
     999900   -1    0    0    0    0 -0.00000000000E+00 -0.00000000000E+00 -0.74505805969E-08  0.93827000000E+00  0.93827000000E+00 0.  1.
     999902    2    1    2    0    0  0.11540919864E-01  0.31984320627E-02 -0.20738094893E-01  0.10199823200E+01  0.10197011531E+01 0.  0.
     999903    2    3    3    0    0  0.64861234329E-01 -0.99546027828E-01  0.48407603822E-01  0.12971235663E+00  0.19120878132E-01 0.  0.
         14    1    1    2    0    0 -0.11540919864E-01 -0.31984320627E-02  0.20738094893E-01  0.23947680028E-01  0.00000000000E+00 0. -1.
     999901    1    3    3    0    0 -0.53320314465E-01  0.10274445989E+00 -0.69145698714E-01  0.89026996334E+00  0.88000000000E+00 0.  1.
        -11    1    4    4    0    0  0.24906982067E-01 -0.43249913379E-01  0.30121260659E-01  0.58296348322E-01  0.51100000000E-03 0. -1.
         11    1    4    4    0    0  0.39954252262E-01 -0.56296114449E-01  0.18286343163E-01  0.71416008311E-01  0.51100000000E-03 0.  1.
</event>
<event>
 8    1  0.1123191E+005  0.1043930E+01  0.7957747E-01            NaN
         13   -1    0    0    0    0  0.00000000000E+00  0.00000000000E+00  0.74505805969E-08  0.10566000000E+00  0.10566000000E+00 0. -1.
     999900   -1    0    0    0    0 -0.00000000000E+00 -0.00000000000E+00 -0.74505805969E-08  0.93827000000E+00  0.93827000000E+00 0. -1.
     999902    2    1    2    0    0 -0.21561183749E-01  0.60598045180E-02 -0.25849807601E-02  0.10213847566E+01  0.10211359033E+01 0.  0.
     999903    2    3    3    0    0  0.81203568029E-01  0.58369676036E-01  0.80617441418E-01  0.12997039730E+00  0.19801357855E-01 0.  0.
         14    1    1    2    0    0  0.21561183749E-01 -0.60598045180E-02  0.25849807601E-02  0.22545243423E-01  0.00000000000E+00 0. -1.
     999901    1    3    3    0    0 -0.10276475178E+00 -0.52309871518E-01 -0.83202422178E-01  0.89141435928E+00  0.88000000000E+00 0.  1.
        -11    1    4    4    0    0  0.37053700046E-01  0.27668197331E-01  0.49912408349E-01  0.68044216939E-01  0.51100000000E-03 0.  1.
         11    1    4    4    0    0  0.44149867983E-01  0.30701478705E-01  0.30705033069E-01  0.61926180363E-01  0.51100000000E-03 0. -1.
</event>
<event>
 8    1  0.1123191E+005  0.1043930E+01  0.7957747E-01            NaN
         13   -1    0    0    0    0  0.00000000000E+00  0.00000000000E+00  0.74505805969E-08  0.10566000000E+00  0.10566000000E+00 0.  1.
     999900   -1    0    0    0    0 -0.00000000000E+00 -0.00000000000E+00 -0.74505805969E-08  0.93827000000E+00  0.93827000000E+00 0. -1.
     999902    2    1    2    0    0  0.25532838786E-01 -0.12630416286E-01 -0.40750831628E-02  0.10151539757E+01  0.10147460445E+01 0.  0.
     999903    2    3    3    0    0 -0.23954509495E-01 -0.82601122639E-01 -0.91905765662E-01  0.12663885136E+00  0.13927129094E-01 0.  0.
         14    1    1    2    0    0 -0.25532838786E-01  0.12630416286E-01  0.40750831628E-02  0.28776024305E-01  0.00000000000E+00 0. -1.
     999901    1    3    3    0    0  0.49487348281E-01  0.69970706353E-01  0.87830682500E-01  0.88851512434E+00  0.88000000000E+00 0.  1.
        -11    1    4    4    0    0 -0.58933221357E-02 -0.90396499989E-02 -0.70884182274E-02  0.12921041439E-01  0.51100000000E-03 0. -1.
         11    1    4    4    0    0 -0.18061187359E-01 -0.73561472640E-01 -0.84817347435E-01  0.11371780992E+00  0.51100000000E-03 0.  1.
</event>
<event>
 8    1  0.1123191E+005  0.1043930E+01  0.7957747E-01            NaN
         13   -1    0    0    0    0  0.00000000000E+00  0.00000000000E+00  0.74505805969E-08  0.10566000000E+00  0.10566000000E+00 0. -1.
     999900   -1    0    0    0    0 -0.00000000000E+00 -0.00000000000E+00 -0.74505805969E-08  0.93827000000E+00  0.93827000000E+00 0.  1.
     999902    2    1    2    0    0 -0.23056231629E-01  0.14309682433E-02 -0.23765541676E-02  0.10207074787E+01  0.10204432721E+01 0.  0.
     999903    2    3    3    0    0 -0.62609497711E-01  0.10704276337E+00  0.42567438177E-01  0.13237292763E+00  0.18234658825E-01 0.  0.
         14    1    1    2    0    0  0.23056231629E-01 -0.14309682433E-02  0.23765541676E-02  0.23222521326E-01  0.00000000000E+00 0. -1.
     999901    1    3    3    0    0  0.39553266082E-01 -0.10561179513E+00 -0.44943992345E-01  0.88833455104E+00  0.88000000000E+00 0.  1.
        -11    1    4    4    0    0 -0.24050657788E-01  0.36034343190E-01  0.23743016302E-01  0.49405465015E-01  0.51100000000E-03 0.  1.
         11    1    4    4    0    0 -0.38558839923E-01  0.71008420183E-01  0.18824421875E-01  0.82967462616E-01  0.51100000000E-03 0. -1.
</event>
<event>
 8    1  0.1123191E+005  0.1043930E+01  0.7957747E-01            NaN
         13   -1    0    0    0    0  0.00000000000E+00  0.00000000000E+00  0.74505805969E-08  0.10566000000E+00  0.10566000000E+00 0.  1.
     999900   -1    0    0    0    0 -0.00000000000E+00 -0.00000000000E+00 -0.74505805969E-08  0.93827000000E+00  0.93827000000E+00 0. -1.
     999902    2    1    2    0    0  0.96334877106E-03 -0.23961368728E-02  0.23786658904E-01  0.10200035574E+01  0.10197228950E+01 0.  0.
     999903    2    3    3    0    0 -0.55038323229E-01  0.11500637960E+00  0.18959974490E-01  0.13042903270E+00  0.19914004286E-01 0.  0.
         14    1    1    2    0    0 -0.96334877106E-03  0.23961368728E-02 -0.23786658904E-01  0.23926442581E-01  0.00000000000E+00 0. -1.
     999901    1    3    3    0    0  0.56001672000E-01 -0.11740251647E+00  0.48266844136E-02  0.88957452472E+00  0.88000000000E+00 0.  1.
        -11    1    4    4    0    0 -0.23669835136E-01  0.68413676594E-01  0.16234886491E-01  0.74192485474E-01  0.51100000000E-03 0.  1.
         11    1    4    4    0    0 -0.31368488093E-01  0.46592703007E-01  0.27250879989E-02  0.56236547230E-01  0.51100000000E-03 0. -1.
</event>
<event>
 8    1  0.1123191E+005  0.1043930E+01  0.7957747E-01            NaN
         13   -1    0    0    0    0  0.00000000000E+00  0.00000000000E+00  0.74505805969E-08  0.10566000000E+00  0.10566000000E+00 0.  1.
     999900   -1    0    0    0    0 -0.00000000000E+00 -0.00000000000E+00 -0.74505805969E-08  0.93827000000E+00  0.93827000000E+00 0. -1.
     999902    2    1    2    0    0 -0.17484129094E-01 -0.15461479801E-01 -0.11482678560E-01  0.10179183865E+01  0.10175859854E+01 0.  0.
     999903    2    3    3    0    0  0.53663170876E-01  0.85221538782E-01  0.72099289269E-01  0.12540230609E+00  0.19621016233E-01 0.  0.
         14    1    1    2    0    0  0.17484129094E-01  0.15461479801E-01  0.11482678560E-01  0.26011613458E-01  0.00000000000E+00 0.  1.
     999901    1    3    3    0    0 -0.71147299970E-01 -0.10068301858E+00 -0.83581967829E-01  0.89251608045E+00  0.88000000000E+00 0.  1.
        -11    1    4    4    0    0  0.16566107416E-01  0.19359455073E-01  0.93060075594E-02  0.27130929091E-01  0.51100000000E-03 0.  1.
         11    1    4    4    0    0  0.37097063460E-01  0.65862083709E-01  0.62793281710E-01  0.98271376996E-01  0.51100000000E-03 0. -1.
</event>
<event>
 8    1  0.1123191E+005  0.1043930E+01  0.7957747E-01            NaN
         13   -1    0    0    0    0  0.00000000000E+00  0.00000000000E+00  0.74505805969E-08  0.10566000000E+00  0.10566000000E+00 0.  1.
     999900   -1    0    0    0    0 -0.00000000000E+00 -0.00000000000E+00 -0.74505805969E-08  0.93827000000E+00  0.93827000000E+00 0. -1.
     999902    2    1    2    0    0 -0.19264487286E-01  0.12387611532E-01 -0.42575733113E-02  0.10206340707E+01  0.10203681718E+01 0.  0.
     999903    2    3    3    0    0  0.60292123006E-02  0.11400191687E+00  0.62879855508E-01  0.13188625913E+00  0.20182186849E-01 0.  0.
         14    1    1    2    0    0  0.19264487286E-01 -0.12387611532E-01  0.42575733113E-02  0.23295929266E-01  0.00000000000E+00 0. -1.
     999901    1    3    3    0    0 -0.25293699587E-01 -0.10161430534E+00 -0.67137428819E-01  0.88874781161E+00  0.88000000000E+00 0. -1.
        -11    1    4    4    0    0  0.10659235483E-01  0.52518015984E-01  0.22149344354E-01  0.57988066706E-01  0.51100000000E-03 0.  1.
         11    1    4    4    0    0 -0.46300231820E-02  0.61483900889E-01  0.40730511153E-01  0.73898192420E-01  0.51100000000E-03 0. -1.
</event>
<event>
 8    1  0.1123191E+005  0.1043930E+01  0.7957747E-01            NaN
         13   -1    0    0    0    0  0.00000000000E+00  0.00000000000E+00  0.74505805969E-08  0.10566000000E+00  0.10566000000E+00 0.  1.
     999900   -1    0    0    0    0 -0.00000000000E+00 -0.00000000000E+00 -0.74505805969E-08  0.93827000000E+00  0.93827000000E+00 0.  1.
     999902    2    1    2    0    0  0.64215299282E-02 -0.21211765523E-01 -0.84071341696E-02  0.10202265203E+01  0.10199511252E+01 0.  0.
     999903    2    3    3    0    0  0.11967204041E+00  0.46736331756E-01 -0.12448601424E-01  0.13036194890E+00  0.18264393793E-01 0.  0.
         14    1    1    2    0    0 -0.64215299282E-02  0.21211765523E-01  0.84071341696E-02  0.23703479664E-01  0.00000000000E+00 0.  1.
     999901    1    3    3    0    0 -0.11325051048E+00 -0.67948097279E-01  0.40414672548E-02  0.88986457144E+00  0.88000000000E+00 0.  1.
        -11    1    4    4    0    0  0.31865535744E-01  0.42038686382E-02 -0.47091855296E-02  0.32488804674E-01  0.51100000000E-03 0. -1.
         11    1    4    4    0    0  0.87806504665E-01  0.42532463118E-01 -0.77394158948E-02  0.97873144221E-01  0.51100000000E-03 0.  1.
</event>
<event>
 8    1  0.1123191E+005  0.1043930E+01  0.7957747E-01            NaN
         13   -1    0    0    0    0  0.00000000000E+00  0.00000000000E+00  0.74505805969E-08  0.10566000000E+00  0.10566000000E+00 0.  1.
     999900   -1    0    0    0    0 -0.00000000000E+00 -0.00000000000E+00 -0.74505805969E-08  0.93827000000E+00  0.93827000000E+00 0. -1.
     999902    2    1    2    0    0 -0.75878899605E-02  0.72206766876E-02  0.18732600242E-01  0.10224678343E+01  0.10222425581E+01 0.  0.
     999903    2    3    3    0    0  0.12576460486E+00  0.33368984458E-01  0.50940841210E-02  0.13193280914E+00  0.21215359383E-01 0.  0.
         14    1    1    2    0    0  0.75878899605E-02 -0.72206766876E-02 -0.18732600242E-01  0.21462165728E-01  0.00000000000E+00 0. -1.
     999901    1    3    3    0    0 -0.13335249482E+00 -0.26148307771E-01  0.13638516121E-01  0.89053502514E+00  0.88000000000E+00 0.  1.
        -11    1    4    4    0    0  0.32828080591E-01  0.18586574247E-01  0.15574327366E-02  0.37760168634E-01  0.51100000000E-03 0. -1.
         11    1    4    4    0    0  0.92936524270E-01  0.14782410211E-01  0.35366513843E-02  0.94172640501E-01  0.51100000000E-03 0.  1.
</event>
<event>
 8    1  0.1123191E+005  0.1043930E+01  0.7957747E-01            NaN
         13   -1    0    0    0    0  0.00000000000E+00  0.00000000000E+00  0.74505805969E-08  0.10566000000E+00  0.10566000000E+00 0. -1.
     999900   -1    0    0    0    0 -0.00000000000E+00 -0.00000000000E+00 -0.74505805969E-08  0.93827000000E+00  0.93827000000E+00 0. -1.
     999902    2    1    2    0    0 -0.17789678172E-01 -0.17539517069E-01 -0.85142155105E-02  0.10175368347E+01  0.10171944803E+01 0.  0.
     999903    2    3    3    0    0 -0.56855596422E-01  0.10889268868E+00 -0.27003002901E-01  0.12745083668E+00  0.20600415360E-01 0.  0.
         14    1    1    2    0    0  0.17789678172E-01  0.17539517069E-01  0.85142155105E-02  0.26393165294E-01  0.00000000000E+00 0. -1.
     999901    1    3    3    0    0  0.39065918250E-01 -0.12643220575E+00  0.18488787391E-01  0.89008599802E+00  0.88000000000E+00 0.  1.
        -11    1    4    4    0    0 -0.32911697089E-02  0.22501280416E-01 -0.74595668765E-02  0.23938372488E-01  0.51100000000E-03 0.  1.
         11    1    4    4    0    0 -0.53564426713E-01  0.86391408264E-01 -0.19543436025E-01  0.10351246419E+00  0.51100000000E-03 0. -1.
</event>
<event>
 8    1  0.1123191E+005  0.1043930E+01  0.7957747E-01            NaN
         13   -1    0    0    0    0  0.00000000000E+00  0.00000000000E+00  0.74505805969E-08  0.10566000000E+00  0.10566000000E+00 0. -1.
     999900   -1    0    0    0    0 -0.00000000000E+00 -0.00000000000E+00 -0.74505805969E-08  0.93827000000E+00  0.93827000000E+00 0. -1.
     999902    2    1    2    0    0 -0.41596867059E-02  0.18947304187E-01  0.14172781091E-01  0.10199056154E+01  0.10196226230E+01 0.  0.
     999903    2    3    3    0    0  0.61828670259E-01  0.59869313973E-01  0.98666673836E-01  0.13245517060E+00  0.20053440396E-01 0.  0.
         14    1    1    2    0    0  0.41596867059E-02 -0.18947304187E-01 -0.14172781091E-01  0.24024384556E-01  0.00000000000E+00 0.  1.
     999901    1    3    3    0    0 -0.65988356965E-01 -0.40922009786E-01 -0.84493892745E-01  0.88745044484E+00  0.88000000000E+00 0. -1.
        -11    1    4    4    0    0  0.33878922630E-02  0.12673115991E-01  0.12298326016E-01  0.17988763901E-01  0.51100000000E-03 0.  1.
         11    1    4    4    0    0  0.58440777996E-01  0.47196197982E-01  0.86368347820E-01  0.11446640670E+00  0.51100000000E-03 0. -1.
</event>
<event>
 8    1  0.1123191E+005  0.1043930E+01  0.7957747E-01            NaN
         13   -1    0    0    0    0  0.00000000000E+00  0.00000000000E+00  0.74505805969E-08  0.10566000000E+00  0.10566000000E+00 0.  1.
     999900   -1    0    0    0    0 -0.00000000000E+00 -0.00000000000E+00 -0.74505805969E-08  0.93827000000E+00  0.93827000000E+00 0.  1.
     999902    2    1    2    0    0  0.18316515332E-01  0.42732283539E-02 -0.14629189295E-01  0.10201021089E+01  0.10198237810E+01 0.  0.
     999903    2    3    3    0    0  0.11464082158E+00  0.32240950393E-01 -0.56726686050E-01  0.13340443513E+00  0.19920580972E-01 0.  0.
         14    1    1    2    0    0 -0.18316515332E-01 -0.42732283539E-02  0.14629189295E-01  0.23827891092E-01  0.00000000000E+00 0.  1.
     999901    1    3    3    0    0 -0.96324306252E-01 -0.27967722039E-01  0.42097496755E-01  0.88669767378E+00  0.88000000000E+00 0. -1.
        -11    1    4    4    0    0  0.11018233392E+00  0.34159382325E-01 -0.56665903198E-01  0.12852352242E+00  0.51100000000E-03 0. -1.
         11    1    4    4    0    0  0.44584876675E-02 -0.19184319320E-02 -0.60782852834E-04  0.48809127132E-02  0.51100000000E-03 0.  1.
</event>
<event>
 8    1  0.1123191E+005  0.1043930E+01  0.7957747E-01            NaN
         13   -1    0    0    0    0  0.00000000000E+00  0.00000000000E+00  0.74505805969E-08  0.10566000000E+00  0.10566000000E+00 0.  1.
     999900   -1    0    0    0    0 -0.00000000000E+00 -0.00000000000E+00 -0.74505805969E-08  0.93827000000E+00  0.93827000000E+00 0.  1.
     999902    2    1    2    0    0  0.14191210789E-01  0.20196599795E-01 -0.37805059152E-03  0.10192432418E+01  0.10189442330E+01 0.  0.
     999903    2    3    3    0    0 -0.76073170248E-01  0.10449583426E+00 -0.37111811152E-02  0.13061219962E+00  0.18419207726E-01 0.  0.
         14    1    1    2    0    0 -0.14191210789E-01 -0.20196599795E-01  0.37805059152E-03  0.24686758175E-01  0.00000000000E+00 0.  1.
     999901    1    3    3    0    0  0.90264381037E-01 -0.84299234469E-01  0.33331305237E-02  0.88863104221E+00  0.88000000000E+00 0. -1.
        -11    1    4    4    0    0 -0.42486314752E-01  0.42807957013E-01 -0.22357312867E-02  0.60356174002E-01  0.51100000000E-03 0. -1.
         11    1    4    4    0    0 -0.33586855496E-01  0.61687877252E-01 -0.14754498285E-02  0.70256025614E-01  0.51100000000E-03 0.  1.
</event>
<event>
 8    1  0.1123191E+005  0.1043930E+01  0.7957747E-01            NaN
         13   -1    0    0    0    0  0.00000000000E+00  0.00000000000E+00  0.74505805969E-08  0.10566000000E+00  0.10566000000E+00 0. -1.
     999900   -1    0    0    0    0 -0.00000000000E+00 -0.00000000000E+00 -0.74505805969E-08  0.93827000000E+00  0.93827000000E+00 0. -1.
     999902    2    1    2    0    0  0.21970462786E-01  0.95546764257E-02  0.31706578861E-02  0.10197629533E+01  0.10194765494E+01 0.  0.
     999903    2    3    3    0    0  0.33663082129E-01  0.90324298811E-01 -0.86989553248E-01  0.13139967570E+00  0.20174497406E-01 0.  0.
         14    1    1    2    0    0 -0.21970462786E-01 -0.95546764257E-02 -0.31706578861E-02  0.24167046739E-01  0.00000000000E+00 0. -1.
     999901    1    3    3    0    0 -0.11692619342E-01 -0.80769622386E-01  0.90160211134E-01  0.88836327756E+00  0.88000000000E+00 0.  1.
        -11    1    4    4    0    0  0.22106856538E-01  0.32195495215E-01 -0.30971983210E-01  0.49847646716E-01  0.51100000000E-03 0. -1.
         11    1    4    4    0    0  0.11556225590E-01  0.58128803597E-01 -0.56017570038E-01  0.81552028984E-01  0.51100000000E-03 0.  1.
</event>
<event>
 8    1  0.1123191E+005  0.1043930E+01  0.7957747E-01            NaN
         13   -1    0    0    0    0  0.00000000000E+00  0.00000000000E+00  0.74505805969E-08  0.10566000000E+00  0.10566000000E+00 0. -1.
     999900   -1    0    0    0    0 -0.00000000000E+00 -0.00000000000E+00 -0.74505805969E-08  0.93827000000E+00  0.93827000000E+00 0.  1.
     999902    2    1    2    0    0 -0.13266914528E-01 -0.13301861129E-01 -0.17746402824E-02  0.10250593911E+01  0.10248856792E+01 0.  0.
     999903    2    3    3    0    0  0.89871121966E-01  0.87208597603E-01  0.38014494412E-01  0.13246598867E+00  0.20493372365E-01 0.  0.
         14    1    1    2    0    0  0.13266914528E-01  0.13301861129E-01  0.17746402824E-02  0.18870608859E-01  0.00000000000E+00 0. -1.
     999901    1    3    3    0    0 -0.10313803649E+00 -0.10051045873E+00 -0.39789134694E-01  0.89259340247E+00  0.88000000000E+00 0.  1.
        -11    1    4    4    0    0  0.56628666053E-01  0.67908794355E-01  0.25196918473E-01  0.91943221562E-01  0.51100000000E-03 0. -1.
         11    1    4    4    0    0  0.33242455912E-01  0.19299803249E-01  0.12817575939E-01  0.40522767113E-01  0.51100000000E-03 0.  1.
</event>
<event>
 8    1  0.1123191E+005  0.1043930E+01  0.7957747E-01            NaN
         13   -1    0    0    0    0  0.00000000000E+00  0.00000000000E+00  0.74505805969E-08  0.10566000000E+00  0.10566000000E+00 0. -1.
     999900   -1    0    0    0    0 -0.00000000000E+00 -0.00000000000E+00 -0.74505805969E-08  0.93827000000E+00  0.93827000000E+00 0. -1.
     999902    2    1    2    0    0 -0.71643352677E-03  0.12461226675E-01  0.20957564140E-01  0.10195370719E+01  0.10192452237E+01 0.  0.
     999903    2    3    3    0    0  0.48608698226E-01  0.89505389683E-01 -0.75535464459E-01  0.12954848980E+00  0.26517626079E-01 0.  0.
         14    1    1    2    0    0  0.71643352677E-03 -0.12461226675E-01 -0.20957564140E-01  0.24392928114E-01  0.00000000000E+00 0.  1.
     999901    1    3    3    0    0 -0.49325131753E-01 -0.77044163007E-01  0.96493028599E-01  0.88998858209E+00  0.88000000000E+00 0.  1.
        -11    1    4    4    0    0  0.25548330119E-01  0.67979176476E-01 -0.43855123551E-01  0.84837601268E-01  0.51100000000E-03 0.  1.
         11    1    4    4    0    0  0.23060368108E-01  0.21526213207E-01 -0.31680340908E-01  0.44710888532E-01  0.51100000000E-03 0. -1.
</event>
<event>
 8    1  0.1123191E+005  0.1043930E+01  0.7957747E-01            NaN
         13   -1    0    0    0    0  0.00000000000E+00  0.00000000000E+00  0.74505805969E-08  0.10566000000E+00  0.10566000000E+00 0.  1.
     999900   -1    0    0    0    0 -0.00000000000E+00 -0.00000000000E+00 -0.74505805969E-08  0.93827000000E+00  0.93827000000E+00 0.  1.
     999902    2    1    2    0    0 -0.23162622401E-01  0.14559066149E-02 -0.12329860178E-03  0.10207213391E+01  0.10204574514E+01 0.  0.
     999903    2    3    3    0    0  0.89841911754E-01 -0.88976789848E-01 -0.12512834978E-01  0.12881237624E+00  0.21157008157E-01 0.  0.
         14    1    1    2    0    0  0.23162622401E-01 -0.14559066149E-02  0.12329860178E-03  0.23208660950E-01  0.00000000000E+00 0.  1.
     999901    1    3    3    0    0 -0.11300453416E+00  0.90432696463E-01  0.12389536376E-01  0.89190896281E+00  0.88000000000E+00 0.  1.
        -11    1    4    4    0    0  0.89904171259E-01 -0.85095926447E-01 -0.14091996940E-01  0.12459101977E+00  0.51100000000E-03 0. -1.
         11    1    4    4    0    0 -0.62259504115E-04 -0.38808634008E-02  0.15791619620E-02  0.42213564744E-02  0.51100000000E-03 0.  1.
</event>
<event>
 8    1  0.1123191E+005  0.1043930E+01  0.7957747E-01            NaN
         13   -1    0    0    0    0  0.00000000000E+00  0.00000000000E+00  0.74505805969E-08  0.10566000000E+00  0.10566000000E+00 0. -1.
     999900   -1    0    0    0    0 -0.00000000000E+00 -0.00000000000E+00 -0.74505805969E-08  0.93827000000E+00  0.93827000000E+00 0. -1.
     999902    2    1    2    0    0  0.37085702094E-02 -0.22050870450E-01 -0.63393362117E-02  0.10206881936E+01  0.10204235430E+01 0.  0.
     999903    2    3    3    0    0 -0.41152716645E-02  0.38198620627E-01  0.12251801242E+00  0.12923127936E+00  0.14628401053E-01 0.  0.
         14    1    1    2    0    0 -0.37085702094E-02  0.22050870450E-01  0.63393362117E-02  0.23241806389E-01  0.00000000000E+00 0. -1.
     999901    1    3    3    0    0  0.78238418740E-02 -0.60249491077E-01 -0.12885734863E+00  0.89145691426E+00  0.88000000000E+00 0. -1.
        -11    1    4    4    0    0  0.42122802616E-02  0.24542020115E-01  0.80686117543E-01  0.84442671331E-01  0.51100000000E-03 0. -1.
         11    1    4    4    0    0 -0.83275519261E-02  0.13656600513E-01  0.41831894879E-01  0.44788608025E-01  0.51100000000E-03 0.  1.
</event>
<event>
 8    1  0.1123191E+005  0.1043930E+01  0.7957747E-01            NaN
         13   -1    0    0    0    0  0.00000000000E+00  0.00000000000E+00  0.74505805969E-08  0.10566000000E+00  0.10566000000E+00 0. -1.
     999900   -1    0    0    0    0 -0.00000000000E+00 -0.00000000000E+00 -0.74505805969E-08  0.93827000000E+00  0.93827000000E+00 0. -1.
     999902    2    1    2    0    0 -0.32211979714E-03  0.21400332029E-02 -0.20886997670E-01  0.10229311863E+01  0.10227156310E+01 0.  0.
     999903    2    3    3    0    0 -0.45141427326E-01  0.11992510407E+00 -0.33092546417E-01  0.13386928261E+00  0.20151653847E-01 0.  0.
         14    1    1    2    0    0  0.32211979714E-03 -0.21400332029E-02  0.20886997670E-01  0.20998813655E-01  0.00000000000E+00 0. -1.
     999901    1    3    3    0    0  0.44819307528E-01 -0.11778507086E+00  0.12205548747E-01  0.88906190373E+00  0.88000000000E+00 0. -1.
        -11    1    4    4    0    0 -0.62809985510E-02  0.43360547208E-01 -0.97118779458E-02  0.44879501905E-01  0.51100000000E-03 0. -1.
         11    1    4    4    0    0 -0.38860428775E-01  0.76564556859E-01 -0.23380668471E-01  0.88989780709E-01  0.51100000000E-03 0.  1.
</event>
<event>
 8    1  0.1123191E+005  0.1043930E+01  0.7957747E-01            NaN
         13   -1    0    0    0    0  0.00000000000E+00  0.00000000000E+00  0.74505805969E-08  0.10566000000E+00  0.10566000000E+00 0. -1.
     999900   -1    0    0    0    0 -0.00000000000E+00 -0.00000000000E+00 -0.74505805969E-08  0.93827000000E+00  0.93827000000E+00 0. -1.
     999902    2    1    2    0    0  0.61666038205E-02  0.21344098220E-01  0.75590493726E-02  0.10204622187E+01  0.10201923363E+01 0.  0.
     999903    2    3    3    0    0  0.84830397797E-01 -0.15423711911E-01 -0.95741796103E-01  0.13017522620E+00  0.18574464090E-01 0.  0.
         14    1    1    2    0    0 -0.61666038205E-02 -0.21344098220E-01 -0.75590493726E-02  0.23467781295E-01  0.00000000000E+00 0.  1.
     999901    1    3    3    0    0 -0.78663793976E-01  0.36767810131E-01  0.10330084548E+00  0.89028699250E+00  0.88000000000E+00 0.  1.
        -11    1    4    4    0    0  0.55545237432E-01 -0.16700020725E-01 -0.54622076599E-01  0.79674314974E-01  0.51100000000E-03 0.  1.
         11    1    4    4    0    0  0.29285160365E-01  0.12763088139E-02 -0.41119719504E-01  0.50500911228E-01  0.51100000000E-03 0. -1.
</event>
<event>
 8    1  0.1123191E+005  0.1043930E+01  0.7957747E-01            NaN
         13   -1    0    0    0    0  0.00000000000E+00  0.00000000000E+00  0.74505805969E-08  0.10566000000E+00  0.10566000000E+00 0. -1.
     999900   -1    0    0    0    0 -0.00000000000E+00 -0.00000000000E+00 -0.74505805969E-08  0.93827000000E+00  0.93827000000E+00 0. -1.
     999902    2    1    2    0    0  0.19275259238E-01 -0.80999444684E-02 -0.11775097807E-01  0.10199342160E+01  0.10196519050E+01 0.  0.
     999903    2    3    3    0    0  0.13696882369E-01  0.28909538716E-01  0.12344088623E+00  0.12882020400E+00  0.18265446838E-01 0.  0.
         14    1    1    2    0    0 -0.19275259238E-01  0.80999444684E-02  0.11775097807E-01  0.23995783952E-01  0.00000000000E+00 0. -1.
     999901    1    3    3    0    0  0.55783768689E-02 -0.37009483184E-01 -0.13521598404E+00  0.89111401205E+00  0.88000000000E+00 0. -1.
        -11    1    4    4    0    0  0.68711884859E-02  0.95888558685E-02  0.18872964127E-01  0.22262283890E-01  0.51100000000E-03 0.  1.
         11    1    4    4    0    0  0.68256938833E-02  0.19320682847E-01  0.10456792211E+00  0.10655792011E+00  0.51100000000E-03 0. -1.
</event>
<event>
 8    1  0.1123191E+005  0.1043930E+01  0.7957747E-01            NaN
         13   -1    0    0    0    0  0.00000000000E+00  0.00000000000E+00  0.74505805969E-08  0.10566000000E+00  0.10566000000E+00 0. -1.
     999900   -1    0    0    0    0 -0.00000000000E+00 -0.00000000000E+00 -0.74505805969E-08  0.93827000000E+00  0.93827000000E+00 0.  1.
     999902    2    1    2    0    0 -0.52376448948E-02 -0.33167438860E-02 -0.16388365756E-01  0.10264082351E+01  0.10262586676E+01 0.  0.
     999903    2    3    3    0    0 -0.50336544798E-01 -0.96942784244E-01 -0.81772835506E-01  0.13788424829E+00  0.19839307953E-01 0.  0.
         14    1    1    2    0    0  0.52376448948E-02  0.33167438860E-02  0.16388365756E-01  0.17521764928E-01  0.00000000000E+00 0. -1.
     999901    1    3    3    0    0  0.45098899904E-01  0.93626040358E-01  0.65384469750E-01  0.88852398678E+00  0.88000000000E+00 0. -1.
        -11    1    4    4    0    0 -0.23311043688E-01 -0.64926283790E-01 -0.54109736079E-01  0.87675263011E-01  0.51100000000E-03 0.  1.
         11    1    4    4    0    0 -0.27025501111E-01 -0.32016500454E-01 -0.27663099427E-01  0.50208985277E-01  0.51100000000E-03 0. -1.
</event>
<event>
 8    1  0.1123191E+005  0.1043930E+01  0.7957747E-01            NaN
         13   -1    0    0    0    0  0.00000000000E+00  0.00000000000E+00  0.74505805969E-08  0.10566000000E+00  0.10566000000E+00 0. -1.
     999900   -1    0    0    0    0 -0.00000000000E+00 -0.00000000000E+00 -0.74505805969E-08  0.93827000000E+00  0.93827000000E+00 0. -1.
     999902    2    1    2    0    0  0.32192317716E-02  0.21611859689E-01  0.95751109659E-02  0.10200737915E+01  0.10197947938E+01 0.  0.
     999903    2    3    3    0    0  0.65814186878E-01  0.55736981404E-01 -0.96517960427E-01  0.13083906879E+00  0.19105678372E-01 0.  0.
         14    1    1    2    0    0 -0.32192317716E-02 -0.21611859689E-01 -0.95751109659E-02  0.23856208467E-01  0.00000000000E+00 0. -1.
     999901    1    3    3    0    0 -0.62594955106E-01 -0.34125121716E-01  0.10609307139E+00  0.88923472274E+00  0.88000000000E+00 0.  1.
        -11    1    4    4    0    0  0.37387114276E-01  0.33759732189E-01 -0.42232446949E-01  0.65737025547E-01  0.51100000000E-03 0. -1.
         11    1    4    4    0    0  0.28427072602E-01  0.21977249215E-01 -0.54285513478E-01  0.65102043242E-01  0.51100000000E-03 0.  1.
</event>
<event>
 8    1  0.1123191E+005  0.1043930E+01  0.7957747E-01            NaN
         13   -1    0    0    0    0  0.00000000000E+00  0.00000000000E+00  0.74505805969E-08  0.10566000000E+00  0.10566000000E+00 0.  1.
     999900   -1    0    0    0    0 -0.00000000000E+00 -0.00000000000E+00 -0.74505805969E-08  0.93827000000E+00  0.93827000000E+00 0.  1.
     999902    2    1    2    0    0 -0.16690097968E-01  0.15776736941E-01 -0.65699195990E-02  0.10200421654E+01  0.10197624187E+01 0.  0.
     999903    2    3    3    0    0  0.43231408589E-01  0.64707181239E-01 -0.10394865146E+00  0.13129732420E+00  0.19434279222E-01 0.  0.
         14    1    1    2    0    0  0.16690097968E-01 -0.15776736941E-01  0.65699195990E-02  0.23887834607E-01  0.00000000000E+00 0.  1.
     999901    1    3    3    0    0 -0.59921506557E-01 -0.48930444298E-01  0.97378731863E-01  0.88874484119E+00  0.88000000000E+00 0.  1.
        -11    1    4    4    0    0  0.38967950000E-01  0.46420247828E-01 -0.86768906950E-01  0.10584160274E+00  0.51100000000E-03 0.  1.
         11    1    4    4    0    0  0.42634585892E-02  0.18286933411E-01 -0.17179744512E-01  0.25455721463E-01  0.51100000000E-03 0. -1.
</event>
<event>
 8    1  0.1123191E+005  0.1043930E+01  0.7957747E-01            NaN
         13   -1    0    0    0    0  0.00000000000E+00  0.00000000000E+00  0.74505805969E-08  0.10566000000E+00  0.10566000000E+00 0.  1.
     999900   -1    0    0    0    0 -0.00000000000E+00 -0.00000000000E+00 -0.74505805969E-08  0.93827000000E+00  0.93827000000E+00 0.  1.
     999902    2    1    2    0    0  0.91701609001E-02  0.14314110630E-01  0.17264784177E-01  0.10197007122E+01  0.10194128134E+01 0.  0.
     999903    2    3    3    0    0  0.12019278537E+00 -0.39414935340E-01  0.24058318026E-01  0.13107312676E+00  0.24525886533E-01 0.  0.
         14    1    1    2    0    0 -0.91701609001E-02 -0.14314110630E-01 -0.17264784177E-01  0.24229287788E-01  0.00000000000E+00 0. -1.
     999901    1    3    3    0    0 -0.11102262447E+00  0.53729045970E-01 -0.67935338496E-02  0.88862758545E+00  0.88000000000E+00 0. -1.
        -11    1    4    4    0    0  0.11507482286E+00 -0.37900315929E-01  0.28083271760E-01  0.12436872628E+00  0.51100000000E-03 0.  1.
         11    1    4    4    0    0  0.51179625062E-02 -0.15146194106E-02 -0.40249537335E-02  0.67044004751E-02  0.51100000000E-03 0. -1.
</event>
<event>
 8    1  0.1123191E+005  0.1043930E+01  0.7957747E-01            NaN
         13   -1    0    0    0    0  0.00000000000E+00  0.00000000000E+00  0.74505805969E-08  0.10566000000E+00  0.10566000000E+00 0.  1.
     999900   -1    0    0    0    0 -0.00000000000E+00 -0.00000000000E+00 -0.74505805969E-08  0.93827000000E+00  0.93827000000E+00 0.  1.
     999902    2    1    2    0    0 -0.83209946377E-02  0.23452994813E-01 -0.15988682145E-02  0.10189933142E+01  0.10186881447E+01 0.  0.
     999903    2    3    3    0    0  0.12020073543E+00 -0.14877780477E-01  0.36141556811E-01  0.12803235936E+00  0.20408521857E-01 0.  0.
         14    1    1    2    0    0  0.83209946377E-02 -0.23452994813E-01  0.15988682145E-02  0.24936685766E-01  0.00000000000E+00 0.  1.
     999901    1    3    3    0    0 -0.12852173007E+00  0.38330775289E-01 -0.37740425025E-01  0.89096095488E+00  0.88000000000E+00 0.  1.
        -11    1    4    4    0    0  0.74536162846E-02 -0.47865299587E-02  0.65525424982E-02  0.11030149544E-01  0.51100000000E-03 0. -1.
         11    1    4    4    0    0  0.11274711914E+00 -0.10091250518E-01  0.29589014313E-01  0.11700220981E+00  0.51100000000E-03 0.  1.
</event>
<event>
 8    1  0.1123191E+005  0.1043930E+01  0.7957747E-01            NaN
         13   -1    0    0    0    0  0.00000000000E+00  0.00000000000E+00  0.74505805969E-08  0.10566000000E+00  0.10566000000E+00 0.  1.
     999900   -1    0    0    0    0 -0.00000000000E+00 -0.00000000000E+00 -0.74505805969E-08  0.93827000000E+00  0.93827000000E+00 0. -1.
     999902    2    1    2    0    0 -0.11277134034E-01 -0.13437623746E-01  0.14824261550E-01  0.10209625836E+01  0.10207042152E+01 0.  0.
     999903    2    3    3    0    0  0.82566922949E-01 -0.57768394761E-01  0.83145685515E-01  0.13223329906E+00  0.20443976175E-01 0.  0.
         14    1    1    2    0    0  0.11277134034E-01  0.13437623746E-01 -0.14824261550E-01  0.22967416365E-01  0.00000000000E+00 0. -1.
     999901    1    3    3    0    0 -0.93844056983E-01  0.44330771014E-01 -0.68321423966E-01  0.88872928458E+00  0.88000000000E+00 0. -1.
        -11    1    4    4    0    0  0.54938149690E-01 -0.31578199128E-01  0.41197344782E-01  0.75583498792E-01  0.51100000000E-03 0.  1.
         11    1    4    4    0    0  0.27628773259E-01 -0.26190195633E-01  0.41948340734E-01  0.56649800268E-01  0.51100000000E-03 0. -1.
</event>
<event>
 8    1  0.1123191E+005  0.1043930E+01  0.7957747E-01            NaN
         13   -1    0    0    0    0  0.00000000000E+00  0.00000000000E+00  0.74505805969E-08  0.10566000000E+00  0.10566000000E+00 0.  1.
     999900   -1    0    0    0    0 -0.00000000000E+00 -0.00000000000E+00 -0.74505805969E-08  0.93827000000E+00  0.93827000000E+00 0.  1.
     999902    2    1    2    0    0 -0.76189704576E-02  0.24226511615E-03  0.22759522523E-01  0.10199278487E+01  0.10196453860E+01 0.  0.
     999903    2    3    3    0    0 -0.19361194938E-01  0.12504876336E+00 -0.21680458239E-01  0.12993377356E+00  0.20017346325E-01 0.  0.
         14    1    1    2    0    0  0.76189704576E-02 -0.24226511615E-03 -0.22759522523E-01  0.24002151334E-01  0.00000000000E+00 0. -1.
     999901    1    3    3    0    0  0.11742224480E-01 -0.12480649824E+00  0.44439980762E-01  0.88999407511E+00  0.88000000000E+00 0. -1.
        -11    1    4    4    0    0 -0.99203743475E-02  0.17305696023E-01 -0.35747137604E-02  0.20271670910E-01  0.51100000000E-03 0.  1.
         11    1    4    4    0    0 -0.94408205905E-02  0.10774306734E+00 -0.18105744479E-01  0.10966210265E+00  0.51100000000E-03 0. -1.
</event>
<event>
 8    1  0.1123191E+005  0.1043930E+01  0.7957747E-01            NaN
         13   -1    0    0    0    0  0.00000000000E+00  0.00000000000E+00  0.74505805969E-08  0.10566000000E+00  0.10566000000E+00 0.  1.
     999900   -1    0    0    0    0 -0.00000000000E+00 -0.00000000000E+00 -0.74505805969E-08  0.93827000000E+00  0.93827000000E+00 0.  1.
     999902    2    1    2    0    0  0.13578389549E-01  0.13499270506E-01  0.12650113585E-01  0.10209816157E+01  0.10207236802E+01 0.  0.
     999903    2    3    3    0    0  0.12863183538E+00 -0.21581826740E-01  0.15257258006E-01  0.13279538752E+00  0.19746055474E-01 0.  0.
         14    1    1    2    0    0 -0.13578389549E-01 -0.13499270506E-01 -0.12650113585E-01  0.22948384272E-01  0.00000000000E+00 0. -1.
     999901    1    3    3    0    0 -0.11505344583E+00  0.35081097246E-01 -0.26071444204E-02  0.88818622821E+00  0.88000000000E+00 0.  1.
        -11    1    4    4    0    0  0.24364740842E-01 -0.17647353205E-02  0.10383519384E-01  0.26548700210E-01  0.51100000000E-03 0. -1.
         11    1    4    4    0    0  0.10426709453E+00 -0.19817091420E-01  0.48737386213E-02  0.10624668731E+00  0.51100000000E-03 0.  1.
</event>
<event>
 8    1  0.1123191E+005  0.1043930E+01  0.7957747E-01            NaN
         13   -1    0    0    0    0  0.00000000000E+00  0.00000000000E+00  0.74505805969E-08  0.10566000000E+00  0.10566000000E+00 0.  1.
     999900   -1    0    0    0    0 -0.00000000000E+00 -0.00000000000E+00 -0.74505805969E-08  0.93827000000E+00  0.93827000000E+00 0. -1.
     999902    2    1    2    0    0 -0.12251159648E-01  0.19149258701E-01 -0.26962935782E-02  0.10210377520E+01  0.10207810911E+01 0.  0.
     999903    2    3    3    0    0  0.89146667057E-01 -0.35832696998E-01 -0.86519918954E-01  0.12956092394E+00  0.83202292757E-02 0.  0.
         14    1    1    2    0    0  0.12251159648E-01 -0.19149258701E-01  0.26962935782E-02  0.22892248045E-01  0.00000000000E+00 0. -1.
     999901    1    3    3    0    0 -0.10139782670E+00  0.54981955699E-01  0.83823625376E-01  0.89147682801E+00  0.88000000000E+00 0.  1.
        -11    1    4    4    0    0  0.41284755375E-01 -0.16137908804E-01 -0.45440356346E-01  0.63481889014E-01  0.51100000000E-03 0. -1.
         11    1    4    4    0    0  0.47861911682E-01 -0.19694788194E-01 -0.41079562609E-01  0.66079034927E-01  0.51100000000E-03 0.  1.
</event>
<event>
 8    1  0.1123191E+005  0.1043930E+01  0.7957747E-01            NaN
         13   -1    0    0    0    0  0.00000000000E+00  0.00000000000E+00  0.74505805969E-08  0.10566000000E+00  0.10566000000E+00 0. -1.
     999900   -1    0    0    0    0 -0.00000000000E+00 -0.00000000000E+00 -0.74505805969E-08  0.93827000000E+00  0.93827000000E+00 0.  1.
     999902    2    1    2    0    0 -0.12345964256E-01 -0.19537311554E-01 -0.81991979966E-02  0.10194074344E+01  0.10191124379E+01 0.  0.
     999903    2    3    3    0    0  0.17876139774E-01  0.75020994519E-01 -0.10131456170E+00  0.12894400461E+00  0.20352147805E-01 0.  0.
         14    1    1    2    0    0  0.12345964256E-01  0.19537311554E-01  0.81991979966E-02  0.24522565607E-01  0.00000000000E+00 0. -1.
     999901    1    3    3    0    0 -0.30222104029E-01 -0.94558306074E-01  0.93115363707E-01  0.89046342978E+00  0.88000000000E+00 0. -1.
        -11    1    4    4    0    0  0.11558227621E-01  0.47158565698E-01 -0.47033366276E-01  0.67601195320E-01  0.51100000000E-03 0. -1.
         11    1    4    4    0    0  0.63179121532E-02  0.27862428822E-01 -0.54281195427E-01  0.61342809292E-01  0.51100000000E-03 0.  1.
</event>
<event>
 8    1  0.1123191E+005  0.1043930E+01  0.7957747E-01            NaN
         13   -1    0    0    0    0  0.00000000000E+00  0.00000000000E+00  0.74505805969E-08  0.10566000000E+00  0.10566000000E+00 0. -1.
     999900   -1    0    0    0    0 -0.00000000000E+00 -0.00000000000E+00 -0.74505805969E-08  0.93827000000E+00  0.93827000000E+00 0.  1.
     999902    2    1    2    0    0  0.11530513999E-01 -0.20249431883E-01  0.40620585986E-02  0.10202764048E+01  0.10200021812E+01 0.  0.
     999903    2    3    3    0    0 -0.35843143510E-01 -0.40812453831E-01 -0.11686434169E+00  0.13050660562E+00  0.20598845269E-01 0.  0.
         14    1    1    2    0    0 -0.11530513999E-01  0.20249431883E-01 -0.40620585986E-02  0.23653595175E-01  0.00000000000E+00 0.  1.
     999901    1    3    3    0    0  0.47373657509E-01  0.20563021948E-01  0.12092640029E+00  0.88976979921E+00  0.88000000000E+00 0. -1.
        -11    1    4    4    0    0 -0.31688699075E-01 -0.28469319129E-01 -0.10307703836E+00  0.11153390847E+00  0.51100000000E-03 0. -1.
         11    1    4    4    0    0 -0.41544444342E-02 -0.12343134702E-01 -0.13787303329E-01  0.18972697144E-01  0.51100000000E-03 0.  1.
</event>
<event>
 8    1  0.1123191E+005  0.1043930E+01  0.7957747E-01            NaN
         13   -1    0    0    0    0  0.00000000000E+00  0.00000000000E+00  0.74505805969E-08  0.10566000000E+00  0.10566000000E+00 0.  1.
     999900   -1    0    0    0    0 -0.00000000000E+00 -0.00000000000E+00 -0.74505805969E-08  0.93827000000E+00  0.93827000000E+00 0. -1.
     999902    2    1    2    0    0  0.19302796940E-01  0.10619108929E-01 -0.43910658947E-02  0.10214656971E+01  0.10212186472E+01 0.  0.
     999903    2    3    3    0    0 -0.74852278619E-01 -0.31514935527E-01 -0.99761405293E-01  0.13032263476E+00  0.20870945573E-01 0.  0.
         14    1    1    2    0    0 -0.19302796940E-01 -0.10619108929E-01  0.43910658947E-02  0.22464302879E-01  0.00000000000E+00 0.  1.
     999901    1    3    3    0    0  0.94155075560E-01  0.42134044456E-01  0.95370339398E-01  0.89114306236E+00  0.88000000000E+00 0.  1.
        -11    1    4    4    0    0 -0.24226835762E-02 -0.57930485830E-03 -0.12572153702E-01  0.12826736121E-01  0.51100000000E-03 0. -1.
         11    1    4    4    0    0 -0.72429595043E-01 -0.30935630668E-01 -0.87189251591E-01  0.11749589864E+00  0.51100000000E-03 0.  1.
</event>
<event>
 8    1  0.1123191E+005  0.1043930E+01  0.7957747E-01            NaN
         13   -1    0    0    0    0  0.00000000000E+00  0.00000000000E+00  0.74505805969E-08  0.10566000000E+00  0.10566000000E+00 0.  1.
     999900   -1    0    0    0    0 -0.00000000000E+00 -0.00000000000E+00 -0.74505805969E-08  0.93827000000E+00  0.93827000000E+00 0.  1.
     999902    2    1    2    0    0 -0.14613490897E-01 -0.98120187552E-02  0.16912379717E-01  0.10195197887E+01  0.10192275218E+01 0.  0.
     999903    2    3    3    0    0  0.97875969304E-01  0.54021916822E-01 -0.56824732494E-01  0.12701443201E+00  0.20138094558E-01 0.  0.
         14    1    1    2    0    0  0.14613490897E-01  0.98120187552E-02 -0.16912379717E-01  0.24410211305E-01  0.00000000000E+00 0. -1.
     999901    1    3    3    0    0 -0.11248946020E+00 -0.63833935577E-01  0.73737112212E-01  0.89250535668E+00  0.88000000000E+00 0. -1.
        -11    1    4    4    0    0  0.21470855857E-01  0.21716895008E-01 -0.13004633943E-01  0.33196427594E-01  0.51100000000E-03 0.  1.
         11    1    4    4    0    0  0.76405113447E-01  0.32305021814E-01 -0.43820098552E-01  0.93818004420E-01  0.51100000000E-03 0. -1.
</event>
<event>
 8    1  0.1123191E+005  0.1043930E+01  0.7957747E-01            NaN
         13   -1    0    0    0    0  0.00000000000E+00  0.00000000000E+00  0.74505805969E-08  0.10566000000E+00  0.10566000000E+00 0. -1.
     999900   -1    0    0    0    0 -0.00000000000E+00 -0.00000000000E+00 -0.74505805969E-08  0.93827000000E+00  0.93827000000E+00 0. -1.
     999902    2    1    2    0    0 -0.39918246803E-02 -0.41542412169E-02 -0.23284148015E-01  0.10199436720E+01  0.10196615860E+01 0.  0.
     999903    2    3    3    0    0  0.62575025427E-01  0.63931669796E-02 -0.11470314996E+00  0.13264449621E+00  0.21937259929E-01 0.  0.
         14    1    1    2    0    0  0.39918246803E-02  0.41542412169E-02  0.23284148015E-01  0.23986328046E-01  0.00000000000E+00 0. -1.
     999901    1    3    3    0    0 -0.66566850107E-01 -0.10547408197E-01  0.91419001948E-01  0.88729917574E+00  0.88000000000E+00 0. -1.
        -11    1    4    4    0    0  0.41261938787E-02 -0.24456162599E-02 -0.17031969374E-02  0.51155171413E-02  0.51100000000E-03 0.  1.
         11    1    4    4    0    0  0.58448831548E-01  0.88387832395E-02 -0.11299995303E+00  0.12752897907E+00  0.51100000000E-03 0. -1.
</event>
<event>
 8    1  0.1123191E+005  0.1043930E+01  0.7957747E-01            NaN
         13   -1    0    0    0    0  0.00000000000E+00  0.00000000000E+00  0.74505805969E-08  0.10566000000E+00  0.10566000000E+00 0.  1.
     999900   -1    0    0    0    0 -0.00000000000E+00 -0.00000000000E+00 -0.74505805969E-08  0.93827000000E+00  0.93827000000E+00 0. -1.
     999902    2    1    2    0    0  0.20174026532E-01 -0.11289053992E-01  0.33487682316E-02  0.10205708833E+01  0.10203035232E+01 0.  0.
     999903    2    3    3    0    0 -0.19717996543E-01  0.62723311259E-01  0.11039095513E+00  0.13010626661E+00  0.20456404231E-01 0.  0.
         14    1    1    2    0    0 -0.20174026532E-01  0.11289053992E-01 -0.33487682316E-02  0.23359116747E-01  0.00000000000E+00 0.  1.
     999901    1    3    3    0    0  0.39892023075E-01 -0.74012365251E-01 -0.10704218690E+00  0.89046461664E+00  0.88000000000E+00 0. -1.
        -11    1    4    4    0    0 -0.67495937585E-02  0.17443700955E-01  0.50871219495E-01  0.54203153163E-01  0.51100000000E-03 0. -1.
         11    1    4    4    0    0 -0.12968402785E-01  0.45279610304E-01  0.59519735635E-01  0.75903113448E-01  0.51100000000E-03 0.  1.
</event>
<event>
 8    1  0.1123191E+005  0.1043930E+01  0.7957747E-01            NaN
         13   -1    0    0    0    0  0.00000000000E+00  0.00000000000E+00  0.74505805969E-08  0.10566000000E+00  0.10566000000E+00 0.  1.
     999900   -1    0    0    0    0 -0.00000000000E+00 -0.00000000000E+00 -0.74505805969E-08  0.93827000000E+00  0.93827000000E+00 0. -1.
     999902    2    1    2    0    0  0.10836330980E-01 -0.12380575685E-02  0.20967160171E-01  0.10202956889E+01  0.10200219175E+01 0.  0.
     999903    2    3    3    0    0  0.83098777219E-01 -0.10974832665E-01 -0.96456245593E-01  0.12950675646E+00  0.21031855092E-01 0.  0.
         14    1    1    2    0    0 -0.10836330980E-01  0.12380575685E-02 -0.20967160171E-01  0.23634311102E-01  0.00000000000E+00 0.  1.
     999901    1    3    3    0    0 -0.72262446240E-01  0.97367750960E-02  0.11742340576E+00  0.89078893243E+00  0.88000000000E+00 0.  1.
        -11    1    4    4    0    0  0.79805873294E-01 -0.74513491574E-02 -0.95289954630E-01  0.12451882023E+00  0.51100000000E-03 0. -1.
         11    1    4    4    0    0  0.32929039258E-02 -0.35234835071E-02 -0.11662909623E-02  0.49879362364E-02  0.51100000000E-03 0.  1.
</event>
<event>
 8    1  0.1123191E+005  0.1043930E+01  0.7957747E-01            NaN
         13   -1    0    0    0    0  0.00000000000E+00  0.00000000000E+00  0.74505805969E-08  0.10566000000E+00  0.10566000000E+00 0.  1.
     999900   -1    0    0    0    0 -0.00000000000E+00 -0.00000000000E+00 -0.74505805969E-08  0.93827000000E+00  0.93827000000E+00 0. -1.
     999902    2    1    2    0    0 -0.83441958375E-02  0.17929467967E-01 -0.94393744261E-02  0.10220166886E+01  0.10217817373E+01 0.  0.
     999903    2    3    3    0    0  0.11673973775E+00  0.33878031413E-01  0.45291851418E-01  0.13134511380E+00  0.20598537129E-01 0.  0.
         14    1    1    2    0    0  0.83441958375E-02 -0.17929467967E-01  0.94393744261E-02  0.21913311372E-01  0.00000000000E+00 0.  1.
     999901    1    3    3    0    0 -0.12508393359E+00 -0.15948563447E-01 -0.54731225845E-01  0.89067157482E+00  0.88000000000E+00 0.  1.
        -11    1    4    4    0    0  0.35310351400E-01  0.97775079678E-02  0.38321045937E-02  0.36842458179E-01  0.51100000000E-03 0.  1.
         11    1    4    4    0    0  0.81429386353E-01  0.24100523445E-01  0.41459746825E-01  0.94502655624E-01  0.51100000000E-03 0. -1.
</event>
<event>
 8    1  0.1123191E+005  0.1043930E+01  0.7957747E-01            NaN
         13   -1    0    0    0    0  0.00000000000E+00  0.00000000000E+00  0.74505805969E-08  0.10566000000E+00  0.10566000000E+00 0.  1.
     999900   -1    0    0    0    0 -0.00000000000E+00 -0.00000000000E+00 -0.74505805969E-08  0.93827000000E+00  0.93827000000E+00 0.  1.
     999902    2    1    2    0    0 -0.16998550306E-01 -0.12763292383E-01 -0.10673881869E-01  0.10201437834E+01  0.10198664397E+01 0.  0.
     999903    2    3    3    0    0  0.12654436486E+00  0.51896691189E-02 -0.31353022054E-02  0.12830091189E+00  0.20270296682E-01 0.  0.
         14    1    1    2    0    0  0.16998550306E-01  0.12763292383E-01  0.10673881869E-01  0.23786216578E-01  0.00000000000E+00 0.  1.
     999901    1    3    3    0    0 -0.14354291517E+00 -0.17952961502E-01 -0.75385796634E-02  0.89184287153E+00  0.88000000000E+00 0.  1.
        -11    1    4    4    0    0  0.11714505342E+00 -0.22083536646E-03 -0.51442935625E-02  0.11725927335E+00  0.51100000000E-03 0. -1.
         11    1    4    4    0    0  0.93993114437E-02  0.54105044853E-02  0.20089913571E-02  0.11041638541E-01  0.51100000000E-03 0.  1.
</event>
<event>
 8    1  0.1123191E+005  0.1043930E+01  0.7957747E-01            NaN
         13   -1    0    0    0    0  0.00000000000E+00  0.00000000000E+00  0.74505805969E-08  0.10566000000E+00  0.10566000000E+00 0. -1.
     999900   -1    0    0    0    0 -0.00000000000E+00 -0.00000000000E+00 -0.74505805969E-08  0.93827000000E+00  0.93827000000E+00 0.  1.
     999902    2    1    2    0    0 -0.22601068625E-01  0.57887632721E-02 -0.12087631385E-02  0.10205680825E+01  0.10203006575E+01 0.  0.
     999903    2    3    3    0    0 -0.44546517010E-02  0.90759447854E-01  0.92641291900E-01  0.13132281678E+00  0.20153211808E-01 0.  0.
         14    1    1    2    0    0  0.22601068625E-01 -0.57887632721E-02  0.12087631385E-02  0.23361917548E-01  0.00000000000E+00 0. -1.
     999901    1    3    3    0    0 -0.18146416924E-01 -0.84970684582E-01 -0.93850055038E-01  0.88924526567E+00  0.88000000000E+00 0.  1.
        -11    1    4    4    0    0 -0.55884282314E-02  0.11203814832E-01  0.67162932116E-02  0.14217092262E-01  0.51100000000E-03 0. -1.
         11    1    4    4    0    0  0.11337765304E-02  0.79555633022E-01  0.85924998688E-01  0.11710572452E+00  0.51100000000E-03 0.  1.
</event>
<event>
 8    1  0.1123191E+005  0.1043930E+01  0.7957747E-01            NaN
         13   -1    0    0    0    0  0.00000000000E+00  0.00000000000E+00  0.74505805969E-08  0.10566000000E+00  0.10566000000E+00 0. -1.
     999900   -1    0    0    0    0 -0.00000000000E+00 -0.00000000000E+00 -0.74505805969E-08  0.93827000000E+00  0.93827000000E+00 0.  1.
     999902    2    1    2    0    0  0.58354677656E-02  0.20422619300E-01  0.11449302882E-01  0.10198007108E+01  0.10195152118E+01 0.  0.
     999903    2    3    3    0    0 -0.11604943324E+00  0.54166401220E-01  0.18903029414E-01  0.13072808720E+00  0.18194457564E-01 0.  0.
         14    1    1    2    0    0 -0.58354677656E-02 -0.20422619300E-01 -0.11449302882E-01  0.24129289248E-01  0.00000000000E+00 0.  1.
     999901    1    3    3    0    0  0.12188490100E+00 -0.33743781921E-01 -0.74537265318E-02  0.88907262355E+00  0.88000000000E+00 0. -1.
        -11    1    4    4    0    0 -0.25916834304E-01  0.47013087668E-02  0.98352460824E-03  0.26363100086E-01  0.51100000000E-03 0.  1.
         11    1    4    4    0    0 -0.90132598933E-01  0.49465092453E-01  0.17919504806E-01  0.10436498711E+00  0.51100000000E-03 0. -1.
</event>
<event>
 8    1  0.1123191E+005  0.1043930E+01  0.7957747E-01            NaN
         13   -1    0    0    0    0  0.00000000000E+00  0.00000000000E+00  0.74505805969E-08  0.10566000000E+00  0.10566000000E+00 0. -1.
     999900   -1    0    0    0    0 -0.00000000000E+00 -0.00000000000E+00 -0.74505805969E-08  0.93827000000E+00  0.93827000000E+00 0. -1.
     999902    2    1    2    0    0 -0.69688492207E-02 -0.17733866300E-01  0.10990437205E-01  0.10219335325E+01  0.10216967751E+01 0.  0.
     999903    2    3    3    0    0  0.92061741680E-01 -0.72894560092E-01 -0.57059005204E-01  0.13205686311E+00  0.19857085585E-01 0.  0.
         14    1    1    2    0    0  0.69688492207E-02  0.17733866300E-01 -0.10990437205E-01  0.21996467520E-01  0.00000000000E+00 0.  1.
     999901    1    3    3    0    0 -0.99030590900E-01  0.55160693793E-01  0.68049442409E-01  0.88987666937E+00  0.88000000000E+00 0.  1.
        -11    1    4    4    0    0  0.55672371445E-01 -0.50147225263E-01 -0.45297010721E-01  0.87557052515E-01  0.51100000000E-03 0. -1.
         11    1    4    4    0    0  0.36389370235E-01 -0.22747334830E-01 -0.11761994483E-01  0.44499810597E-01  0.51100000000E-03 0.  1.
</event>
<event>
 8    1  0.1123191E+005  0.1043930E+01  0.7957747E-01            NaN
         13   -1    0    0    0    0  0.00000000000E+00  0.00000000000E+00  0.74505805969E-08  0.10566000000E+00  0.10566000000E+00 0. -1.
     999900   -1    0    0    0    0 -0.00000000000E+00 -0.00000000000E+00 -0.74505805969E-08  0.93827000000E+00  0.93827000000E+00 0. -1.
     999902    2    1    2    0    0 -0.15389752793E-01  0.13962027430E-01  0.11969069583E-01  0.10199499807E+01  0.10196680449E+01 0.  0.
     999903    2    3    3    0    0  0.11865684137E-01 -0.83802061609E-01  0.96792580397E-01  0.13006476113E+00  0.19607612746E-01 0.  0.
         14    1    1    2    0    0  0.15389752793E-01 -0.13962027430E-01 -0.11969069583E-01  0.23980019343E-01  0.00000000000E+00 0.  1.
     999901    1    3    3    0    0 -0.27255436930E-01  0.97764089039E-01 -0.84823510814E-01  0.88988521953E+00  0.88000000000E+00 0. -1.
        -11    1    4    4    0    0 -0.42540605747E-02 -0.39292030101E-01  0.42937182241E-01  0.58359432833E-01  0.51100000000E-03 0. -1.
         11    1    4    4    0    0  0.16119744712E-01 -0.44510031508E-01  0.53855398157E-01  0.71705328296E-01  0.51100000000E-03 0.  1.
</event>
<event>
 8    1  0.1123191E+005  0.1043930E+01  0.7957747E-01            NaN
         13   -1    0    0    0    0  0.00000000000E+00  0.00000000000E+00  0.74505805969E-08  0.10566000000E+00  0.10566000000E+00 0. -1.
     999900   -1    0    0    0    0 -0.00000000000E+00 -0.00000000000E+00 -0.74505805969E-08  0.93827000000E+00  0.93827000000E+00 0.  1.
     999902    2    1    2    0    0 -0.17388666938E-01  0.36799060300E-02 -0.15229476357E-01  0.10205239239E+01  0.10202554753E+01 0.  0.
     999903    2    3    3    0    0 -0.11049246072E+00 -0.61907395039E-01  0.30124847344E-01  0.13202686421E+00  0.21965359318E-01 0.  0.
         14    1    1    2    0    0  0.17388666938E-01 -0.36799060300E-02  0.15229476357E-01  0.23406076057E-01  0.00000000000E+00 0. -1.
     999901    1    3    3    0    0  0.93103793778E-01  0.65587301069E-01 -0.45354323701E-01  0.88849705973E+00  0.88000000000E+00 0.  1.
        -11    1    4    4    0    0 -0.31400110999E-01 -0.89207452166E-02  0.17821165245E-02  0.32695316580E-01  0.51100000000E-03 0. -1.
         11    1    4    4    0    0 -0.79092349716E-01 -0.52986649823E-01  0.28342730820E-01  0.99331547629E-01  0.51100000000E-03 0.  1.
</event>
<event>
 8    1  0.1123191E+005  0.1043930E+01  0.7957747E-01            NaN
         13   -1    0    0    0    0  0.00000000000E+00  0.00000000000E+00  0.74505805969E-08  0.10566000000E+00  0.10566000000E+00 0.  1.
     999900   -1    0    0    0    0 -0.00000000000E+00 -0.00000000000E+00 -0.74505805969E-08  0.93827000000E+00  0.93827000000E+00 0. -1.
     999902    2    1    2    0    0 -0.71310877552E-02 -0.35992609625E-02 -0.22023952712E-01  0.10205022049E+01  0.10202332520E+01 0.  0.
     999903    2    3    3    0    0  0.79426735340E-01  0.26004281200E-01  0.94395352015E-01  0.12813340164E+00  0.22866071073E-01 0.  0.
         14    1    1    2    0    0  0.71310877552E-02  0.35992609625E-02  0.22023952712E-01  0.23427795140E-01  0.00000000000E+00 0.  1.
     999901    1    3    3    0    0 -0.86557823095E-01 -0.29603542163E-01 -0.11641930473E+00  0.89236880322E+00  0.88000000000E+00 0. -1.
        -11    1    4    4    0    0  0.50079029468E-01  0.55564047163E-02  0.61790954840E-01  0.79731838352E-01  0.51100000000E-03 0.  1.
         11    1    4    4    0    0  0.29347705871E-01  0.20447876484E-01  0.32604397175E-01  0.48401563288E-01  0.51100000000E-03 0. -1.
</event>
<event>
 8    1  0.1123191E+005  0.1043930E+01  0.7957747E-01            NaN
         13   -1    0    0    0    0  0.00000000000E+00  0.00000000000E+00  0.74505805969E-08  0.10566000000E+00  0.10566000000E+00 0.  1.
     999900   -1    0    0    0    0 -0.00000000000E+00 -0.00000000000E+00 -0.74505805969E-08  0.93827000000E+00  0.93827000000E+00 0.  1.
     999902    2    1    2    0    0  0.78191830543E-02  0.62681275129E-02 -0.21734674089E-01  0.10199962351E+01  0.10197153987E+01 0.  0.
     999903    2    3    3    0    0 -0.17738210310E-01 -0.91269596080E-01  0.85850051378E-01  0.12772875217E+00  0.17309521534E-01 0.  0.
         14    1    1    2    0    0 -0.78191830543E-02 -0.62681275129E-02  0.21734674089E-01  0.23933764934E-01  0.00000000000E+00 0. -1.
     999901    1    3    3    0    0  0.25557393365E-01  0.97537723593E-01 -0.10758472547E+00  0.89226748290E+00  0.88000000000E+00 0.  1.
        -11    1    4    4    0    0 -0.37697040995E-02 -0.14422687203E-01  0.61439845976E-02  0.16131777425E-01  0.51100000000E-03 0.  1.
         11    1    4    4    0    0 -0.13968506211E-01 -0.76846908877E-01  0.79706066781E-01  0.11159697475E+00  0.51100000000E-03 0. -1.
</event>
<event>
 8    1  0.1123191E+005  0.1043930E+01  0.7957747E-01            NaN
         13   -1    0    0    0    0  0.00000000000E+00  0.00000000000E+00  0.74505805969E-08  0.10566000000E+00  0.10566000000E+00 0. -1.
     999900   -1    0    0    0    0 -0.00000000000E+00 -0.00000000000E+00 -0.74505805969E-08  0.93827000000E+00  0.93827000000E+00 0. -1.
     999902    2    1    2    0    0 -0.12736665784E-02  0.17567028787E-01 -0.91965296321E-03  0.10262928662E+01  0.10261413054E+01 0.  0.
     999903    2    3    3    0    0 -0.12745608141E+00  0.42848469158E-01  0.12555471730E-01  0.13683081978E+00  0.21999758504E-01 0.  0.
         14    1    1    2    0    0  0.12736665784E-02 -0.17567028787E-01  0.91965296321E-03  0.17637133795E-01  0.00000000000E+00 0. -1.
     999901    1    3    3    0    0  0.12618241483E+00 -0.25281440371E-01 -0.13475124694E-01  0.88946204642E+00  0.88000000000E+00 0. -1.
        -11    1    4    4    0    0 -0.73559600596E-01  0.17017741317E-01 -0.11406323314E-02  0.75512783835E-01  0.51100000000E-03 0.  1.
         11    1    4    4    0    0 -0.53896480815E-01  0.25830727841E-01  0.13696104062E-01  0.61318035948E-01  0.51100000000E-03 0. -1.
</event>
<event>
 8    1  0.1123191E+005  0.1043930E+01  0.7957747E-01            NaN
         13   -1    0    0    0    0  0.00000000000E+00  0.00000000000E+00  0.74505805969E-08  0.10566000000E+00  0.10566000000E+00 0. -1.
     999900   -1    0    0    0    0 -0.00000000000E+00 -0.00000000000E+00 -0.74505805969E-08  0.93827000000E+00  0.93827000000E+00 0.  1.
     999902    2    1    2    0    0  0.55854702279E-02 -0.59677633708E-02  0.15910720182E-01  0.10260424989E+01  0.10258865663E+01 0.  0.
     999903    2    3    3    0    0  0.91239037946E-01  0.79374665195E-01  0.60271906509E-01  0.13666756191E+00  0.20504151856E-01 0.  0.
         14    1    1    2    0    0 -0.55854702279E-02  0.59677633708E-02 -0.15910720182E-01  0.17887501056E-01  0.00000000000E+00 0.  1.
     999901    1    3    3    0    0 -0.85653567718E-01 -0.85342428565E-01 -0.44361186327E-01  0.88937493704E+00  0.88000000000E+00 0.  1.
        -11    1    4    4    0    0  0.37478698466E-01  0.34719958360E-01  0.14448480252E-01  0.53095650009E-01  0.51100000000E-03 0.  1.
         11    1    4    4    0    0  0.53760339480E-01  0.44654706835E-01  0.45823426257E-01  0.83571911899E-01  0.51100000000E-03 0. -1.
</event>
<event>
 8    1  0.1123191E+005  0.1043930E+01  0.7957747E-01            NaN
         13   -1    0    0    0    0  0.00000000000E+00  0.00000000000E+00  0.74505805969E-08  0.10566000000E+00  0.10566000000E+00 0. -1.
     999900   -1    0    0    0    0 -0.00000000000E+00 -0.00000000000E+00 -0.74505805969E-08  0.93827000000E+00  0.93827000000E+00 0. -1.
     999902    2    1    2    0    0 -0.95825821750E-02  0.22973976378E-01 -0.51659508755E-02  0.10185072440E+01  0.10181899084E+01 0.  0.
     999903    2    3    3    0    0 -0.87269606701E-01  0.95528195225E-01  0.14619037580E-01  0.13188960706E+00  0.20965014995E-01 0.  0.
         14    1    1    2    0    0  0.95825821750E-02 -0.22973976378E-01  0.51659508755E-02  0.25422755952E-01  0.00000000000E+00 0. -1.
     999901    1    3    3    0    0  0.77687024525E-01 -0.72554218848E-01 -0.19784988455E-01  0.88661763699E+00  0.88000000000E+00 0. -1.
        -11    1    4    4    0    0 -0.99018904273E-02  0.48563303049E-02  0.55319190860E-02  0.12348871521E-01  0.51100000000E-03 0.  1.
         11    1    4    4    0    0 -0.77367716273E-01  0.90671864920E-01  0.90871184939E-02  0.11954073554E+00  0.51100000000E-03 0. -1.
</event>
<event>
 8    1  0.1123191E+005  0.1043930E+01  0.7957747E-01            NaN
         13   -1    0    0    0    0  0.00000000000E+00  0.00000000000E+00  0.74505805969E-08  0.10566000000E+00  0.10566000000E+00 0.  1.
     999900   -1    0    0    0    0 -0.00000000000E+00 -0.00000000000E+00 -0.74505805969E-08  0.93827000000E+00  0.93827000000E+00 0.  1.
     999902    2    1    2    0    0  0.98175356888E-03 -0.72213313448E-02 -0.22225008679E-01  0.10205406332E+01  0.10202725722E+01 0.  0.
     999903    2    3    3    0    0  0.91233344391E-01  0.68971476889E-01  0.56515390889E-01  0.12916487398E+00  0.20223439637E-01 0.  0.
         14    1    1    2    0    0 -0.98175356888E-03  0.72213313448E-02  0.22225008679E-01  0.23389366756E-01  0.00000000000E+00 0.  1.
     999901    1    3    3    0    0 -0.90251590823E-01 -0.76192808234E-01 -0.78740399568E-01  0.89137575926E+00  0.88000000000E+00 0.  1.
        -11    1    4    4    0    0  0.28497413838E-01  0.17319592608E-01  0.26265872639E-01  0.42452656808E-01  0.51100000000E-03 0.  1.
         11    1    4    4    0    0  0.62735930553E-01  0.51651884281E-01  0.30249518250E-01  0.86712217175E-01  0.51100000000E-03 0. -1.
</event>
<event>
 8    1  0.1123191E+005  0.1043930E+01  0.7957747E-01            NaN
         13   -1    0    0    0    0  0.00000000000E+00  0.00000000000E+00  0.74505805969E-08  0.10566000000E+00  0.10566000000E+00 0.  1.
     999900   -1    0    0    0    0 -0.00000000000E+00 -0.00000000000E+00 -0.74505805969E-08  0.93827000000E+00  0.93827000000E+00 0. -1.
     999902    2    1    2    0    0  0.10801769468E-01  0.12361663293E-01  0.17695302272E-01  0.10197926293E+01  0.10195069367E+01 0.  0.
     999903    2    3    3    0    0 -0.14740130605E-01  0.10032188785E+00 -0.78919721713E-01  0.12977922903E+00  0.18236589016E-01 0.  0.
         14    1    1    2    0    0 -0.10801769468E-01 -0.12361663293E-01 -0.17695302272E-01  0.24137370725E-01  0.00000000000E+00 0. -1.
     999901    1    3    3    0    0  0.25541900073E-01 -0.87960224557E-01  0.96615023985E-01  0.89001340025E+00  0.88000000000E+00 0. -1.
        -11    1    4    4    0    0 -0.79115481689E-03  0.18663384118E-01 -0.66239172475E-02  0.19826377212E-01  0.51100000000E-03 0. -1.
         11    1    4    4    0    0 -0.13948975788E-01  0.81658503733E-01 -0.72295804466E-01  0.10995285181E+00  0.51100000000E-03 0.  1.
</event>
<event>
 8    1  0.1123191E+005  0.1043930E+01  0.7957747E-01            NaN
         13   -1    0    0    0    0  0.00000000000E+00  0.00000000000E+00  0.74505805969E-08  0.10566000000E+00  0.10566000000E+00 0.  1.
     999900   -1    0    0    0    0 -0.00000000000E+00 -0.00000000000E+00 -0.74505805969E-08  0.93827000000E+00  0.93827000000E+00 0. -1.
     999902    2    1    2    0    0  0.11482762199E-01  0.75469940152E-02 -0.19026236488E-01  0.10204606877E+01  0.10201907696E+01 0.  0.
     999903    2    3    3    0    0  0.24025465329E-01  0.95530187576E-01 -0.87505462680E-01  0.13333737822E+00  0.20455090040E-01 0.  0.
         14    1    1    2    0    0 -0.11482762199E-01 -0.75469940152E-02  0.19026236488E-01  0.23469312331E-01  0.00000000000E+00 0.  1.
     999901    1    3    3    0    0 -0.12542703130E-01 -0.87983193561E-01  0.68479226192E-01  0.88712330945E+00  0.88000000000E+00 0.  1.
        -11    1    4    4    0    0  0.14524646024E-01  0.77214933890E-01 -0.77646938519E-01  0.11046456237E+00  0.51100000000E-03 0. -1.
         11    1    4    4    0    0  0.95008193059E-02  0.18315253687E-01 -0.98585241612E-02  0.22872815846E-01  0.51100000000E-03 0.  1.
</event>
<event>
 7    1  0.1123191E+005  0.1043930E+01  0.7957747E-01            NaN
         13   -1    0    0    0    0  0.00000000000E+00  0.00000000000E+00  0.74505805969E-08  0.10566000000E+00  0.10566000000E+00 0.  1.
     999900   -1    0    0    0    0 -0.00000000000E+00 -0.00000000000E+00 -0.74505805969E-08  0.93827000000E+00  0.93827000000E+00 0.  1.
     999902    2    1    2    0    0  0.23733910658E-01 -0.10967529501E-02  0.61409882177E-02  0.10193899691E+01  0.10190945471E+01 0.  0.
         14    1    1    2    0    0 -0.23733910658E-01  0.10967529501E-02 -0.61409882177E-02  0.24540030938E-01  0.00000000000E+00 0. -1.
     999901    1    3    3    0    0  0.11079784725E+00 -0.46625476371E-01 -0.64455027762E-01  0.89050802838E+00  0.88000000000E+00 0.  1.
        -11    1    3    3    0    0 -0.71572708360E-01  0.34899279510E-01  0.75206620109E-01  0.10953040273E+00  0.51100000000E-03 0. -1.
         11    1    3    3    0    0 -0.15491228228E-01  0.10629443911E-01 -0.46106041294E-02  0.19351537958E-01  0.51100000000E-03 0.  1.
</event>
<event>
 8    1  0.1123191E+005  0.1043930E+01  0.7957747E-01            NaN
         13   -1    0    0    0    0  0.00000000000E+00  0.00000000000E+00  0.74505805969E-08  0.10566000000E+00  0.10566000000E+00 0. -1.
     999900   -1    0    0    0    0 -0.00000000000E+00 -0.00000000000E+00 -0.74505805969E-08  0.93827000000E+00  0.93827000000E+00 0.  1.
     999902    2    1    2    0    0  0.15924850990E-01  0.51135685559E-02 -0.17030851896E-01  0.10200595291E+01  0.10197801938E+01 0.  0.
     999903    2    3    3    0    0  0.68403305078E-01  0.33854875059E-01  0.10324840868E+00  0.12986452165E+00  0.19478074279E-01 0.  0.
         14    1    1    2    0    0 -0.15924850990E-01 -0.51135685559E-02  0.17030851896E-01  0.23870470853E-01  0.00000000000E+00 0. -1.
     999901    1    3    3    0    0 -0.52478454088E-01 -0.28741306503E-01 -0.12027926058E+00  0.89019500749E+00  0.88000000000E+00 0.  1.
        -11    1    4    4    0    0  0.21145164420E-01  0.20855751761E-01  0.41190361957E-01  0.50783731637E-01  0.51100000000E-03 0.  1.
         11    1    4    4    0    0  0.47258140658E-01  0.12999123298E-01  0.62058046726E-01  0.79080790015E-01  0.51100000000E-03 0. -1.
</event>
<event>
 8    1  0.1123191E+005  0.1043930E+01  0.7957747E-01            NaN
         13   -1    0    0    0    0  0.00000000000E+00  0.00000000000E+00  0.74505805969E-08  0.10566000000E+00  0.10566000000E+00 0. -1.
     999900   -1    0    0    0    0 -0.00000000000E+00 -0.00000000000E+00 -0.74505805969E-08  0.93827000000E+00  0.93827000000E+00 0. -1.
     999902    2    1    2    0    0 -0.33273292908E-02 -0.12832097372E-02  0.23558576768E-01  0.10201030345E+01  0.10198247284E+01 0.  0.
     999903    2    3    3    0    0  0.11504547577E+00  0.54319109689E-02 -0.54574987219E-01  0.12872092355E+00  0.18046600224E-01 0.  0.
         14    1    1    2    0    0  0.33273292908E-02  0.12832097372E-02 -0.23558576768E-01  0.23826965538E-01  0.00000000000E+00 0.  1.
     999901    1    3    3    0    0 -0.11837280506E+00 -0.67151207061E-02  0.78133563987E-01  0.89138211091E+00  0.88000000000E+00 0.  1.
        -11    1    4    4    0    0  0.46458086817E-01  0.76625171081E-02 -0.14593370920E-01  0.49298028307E-01  0.51100000000E-03 0. -1.
         11    1    4    4    0    0  0.68587388950E-01 -0.22306061392E-02 -0.39981616299E-01  0.79422895248E-01  0.51100000000E-03 0.  1.
</event>
<event>
 8    1  0.1123191E+005  0.1043930E+01  0.7957747E-01            NaN
         13   -1    0    0    0    0  0.00000000000E+00  0.00000000000E+00  0.74505805969E-08  0.10566000000E+00  0.10566000000E+00 0. -1.
     999900   -1    0    0    0    0 -0.00000000000E+00 -0.00000000000E+00 -0.74505805969E-08  0.93827000000E+00  0.93827000000E+00 0. -1.
     999902    2    1    2    0    0  0.18736261896E-01  0.81658810933E-02  0.12385656412E-01  0.10200315982E+01  0.10197516010E+01 0.  0.
     999903    2    3    3    0    0 -0.12563214932E+00 -0.10648570552E-01 -0.49235696271E-02  0.12790165752E+00  0.20922797665E-01 0.  0.
         14    1    1    2    0    0 -0.18736261896E-01 -0.81658810933E-02 -0.12385656412E-01  0.23898401801E-01  0.00000000000E+00 0.  1.
     999901    1    3    3    0    0  0.14436841121E+00  0.18814451645E-01  0.17309226039E-01  0.89212994068E+00  0.88000000000E+00 0. -1.
        -11    1    4    4    0    0 -0.51057010141E-01 -0.26161326515E-04  0.73264243693E-02  0.51582522078E-01  0.51100000000E-03 0.  1.
         11    1    4    4    0    0 -0.74575139177E-01 -0.10622409225E-01 -0.12249993996E-01  0.76319135444E-01  0.51100000000E-03 0. -1.
</event>
<event>
 8    1  0.1123191E+005  0.1043930E+01  0.7957747E-01            NaN
         13   -1    0    0    0    0  0.00000000000E+00  0.00000000000E+00  0.74505805969E-08  0.10566000000E+00  0.10566000000E+00 0.  1.
     999900   -1    0    0    0    0 -0.00000000000E+00 -0.00000000000E+00 -0.74505805969E-08  0.93827000000E+00  0.93827000000E+00 0.  1.
     999902    2    1    2    0    0  0.22266256491E-02  0.15860993641E-01 -0.20662590185E-01  0.10177867100E+01  0.10174508909E+01 0.  0.
     999903    2    3    3    0    0 -0.95274987619E-01  0.58567024600E-01  0.58992534258E-01  0.12780058168E+00  0.18586283766E-01 0.  0.
         14    1    1    2    0    0 -0.22266256491E-02 -0.15860993641E-01  0.20662590185E-01  0.26143290042E-01  0.00000000000E+00 0.  1.
     999901    1    3    3    0    0  0.97501613268E-01 -0.42706030959E-01 -0.79655124443E-01  0.88998612827E+00  0.88000000000E+00 0.  1.
        -11    1    4    4    0    0 -0.85472611966E-01  0.54218861020E-01  0.58807403821E-01  0.11706333393E+00  0.51100000000E-03 0. -1.
         11    1    4    4    0    0 -0.98023756534E-02  0.43481635802E-02  0.18513043729E-03  0.10737247750E-01  0.51100000000E-03 0.  1.
</event>
<event>
 8    1  0.1123191E+005  0.1043930E+01  0.7957747E-01            NaN
         13   -1    0    0    0    0  0.00000000000E+00  0.00000000000E+00  0.74505805969E-08  0.10566000000E+00  0.10566000000E+00 0.  1.
     999900   -1    0    0    0    0 -0.00000000000E+00 -0.00000000000E+00 -0.74505805969E-08  0.93827000000E+00  0.93827000000E+00 0.  1.
     999902    2    1    2    0    0 -0.58272840189E-02 -0.21936957945E-01  0.76100182687E-03  0.10212195071E+01  0.10209669511E+01 0.  0.
     999903    2    3    3    0    0  0.12865732985E+00 -0.14451710915E-01 -0.29220879618E-02  0.13096352964E+00  0.19528108591E-01 0.  0.
         14    1    1    2    0    0  0.58272840189E-02  0.21936957945E-01 -0.76100182687E-03  0.22710492877E-01  0.00000000000E+00 0. -1.
     999901    1    3    3    0    0 -0.13448461387E+00 -0.74852470302E-02  0.36830897886E-02  0.89025597748E+00  0.88000000000E+00 0. -1.
        -11    1    4    4    0    0  0.72247747800E-01 -0.10271199338E-01 -0.11077841417E-01  0.73812019953E-01  0.51100000000E-03 0. -1.
         11    1    4    4    0    0  0.56409582052E-01 -0.41805115775E-02  0.81557534554E-02  0.57151509689E-01  0.51100000000E-03 0.  1.
</event>
<event>
 8    1  0.1123191E+005  0.1043930E+01  0.7957747E-01            NaN
         13   -1    0    0    0    0  0.00000000000E+00  0.00000000000E+00  0.74505805969E-08  0.10566000000E+00  0.10566000000E+00 0. -1.
     999900   -1    0    0    0    0 -0.00000000000E+00 -0.00000000000E+00 -0.74505805969E-08  0.93827000000E+00  0.93827000000E+00 0.  1.
     999902    2    1    2    0    0  0.57352524134E-03  0.17932457632E-01 -0.17671619770E-01  0.10187469082E+01  0.10184356017E+01 0.  0.
     999903    2    3    3    0    0 -0.22955709750E-01 -0.69672793363E-01 -0.10513794261E+00  0.12977072036E+00  0.20129335301E-01 0.  0.
         14    1    1    2    0    0 -0.57352524134E-03 -0.17932457632E-01  0.17671619770E-01  0.25183091812E-01  0.00000000000E+00 0. -1.
     999901    1    3    3    0    0  0.23529234992E-01  0.87605250994E-01  0.87466322844E-01  0.88897618783E+00  0.88000000000E+00 0. -1.
        -11    1    4    4    0    0 -0.15691810633E-01 -0.26751840488E-01 -0.56805185471E-01  0.64722361729E-01  0.51100000000E-03 0. -1.
         11    1    4    4    0    0 -0.72638991173E-02 -0.42920952874E-01 -0.48332757142E-01  0.65048358627E-01  0.51100000000E-03 0.  1.
</event>
<event>
 8    1  0.1123191E+005  0.1043930E+01  0.7957747E-01            NaN
         13   -1    0    0    0    0  0.00000000000E+00  0.00000000000E+00  0.74505805969E-08  0.10566000000E+00  0.10566000000E+00 0.  1.
     999900   -1    0    0    0    0 -0.00000000000E+00 -0.00000000000E+00 -0.74505805969E-08  0.93827000000E+00  0.93827000000E+00 0.  1.
     999902    2    1    2    0    0 -0.12025027546E-01 -0.17228799005E-01 -0.13851034347E-01  0.10187648663E+01  0.10184540092E+01 0.  0.
     999903    2    3    3    0    0 -0.10212689672E+00 -0.79819622162E-01 -0.14546872701E-01  0.13195234823E+00  0.19968364540E-01 0.  0.
         14    1    1    2    0    0  0.12025027546E-01  0.17228799005E-01  0.13851034347E-01  0.25165133720E-01  0.00000000000E+00 0.  1.
     999901    1    3    3    0    0  0.90101869178E-01  0.62590823157E-01  0.69583835357E-03  0.88681251805E+00  0.88000000000E+00 0. -1.
        -11    1    4    4    0    0 -0.89588743551E-01 -0.61920194754E-01 -0.83224287431E-02  0.10922352050E+00  0.51100000000E-03 0. -1.
         11    1    4    4    0    0 -0.12538153174E-01 -0.17899427408E-01 -0.62244439580E-02  0.22728827733E-01  0.51100000000E-03 0.  1.
</event>
<event>
 8    1  0.1123191E+005  0.1043930E+01  0.7957747E-01            NaN
         13   -1    0    0    0    0  0.00000000000E+00  0.00000000000E+00  0.74505805969E-08  0.10566000000E+00  0.10566000000E+00 0. -1.
     999900   -1    0    0    0    0 -0.00000000000E+00 -0.00000000000E+00 -0.74505805969E-08  0.93827000000E+00  0.93827000000E+00 0.  1.
     999902    2    1    2    0    0 -0.56834604713E-02 -0.14536583071E-01  0.18467876795E-01  0.10197499164E+01  0.10194631997E+01 0.  0.
     999903    2    3    3    0    0 -0.75715632231E-01 -0.46310410785E-01  0.96943563785E-01  0.13291706029E+00  0.19783307218E-01 0.  0.
         14    1    1    2    0    0  0.56834604713E-02  0.14536583071E-01 -0.18467876795E-01  0.24180083615E-01  0.00000000000E+00 0.  1.
     999901    1    3    3    0    0  0.70032171760E-01  0.31773827713E-01 -0.78475686989E-01  0.88683285610E+00  0.88000000000E+00 0.  1.
        -11    1    4    4    0    0 -0.47500788360E-01 -0.34850270949E-01  0.51741873134E-01  0.78411407566E-01  0.51100000000E-03 0.  1.
         11    1    4    4    0    0 -0.28214843871E-01 -0.11460139835E-01  0.45201690651E-01  0.54505652719E-01  0.51100000000E-03 0. -1.
</event>
<event>
 8    1  0.1123191E+005  0.1043930E+01  0.7957747E-01            NaN
         13   -1    0    0    0    0  0.00000000000E+00  0.00000000000E+00  0.74505805969E-08  0.10566000000E+00  0.10566000000E+00 0.  1.
     999900   -1    0    0    0    0 -0.00000000000E+00 -0.00000000000E+00 -0.74505805969E-08  0.93827000000E+00  0.93827000000E+00 0.  1.
     999902    2    1    2    0    0 -0.86252529018E-02  0.22400529636E-01  0.49971523194E-02  0.10194116345E+01  0.10191167403E+01 0.  0.
     999903    2    3    3    0    0  0.12246224167E+00 -0.11749322675E-01  0.31471068049E-01  0.12865296243E+00  0.20642417523E-01 0.  0.
         14    1    1    2    0    0  0.86252529018E-02 -0.22400529636E-01 -0.49971523194E-02  0.24518365502E-01  0.00000000000E+00 0.  1.
     999901    1    3    3    0    0 -0.13108749457E+00  0.34149852311E-01 -0.26473915729E-01  0.89075867207E+00  0.88000000000E+00 0. -1.
        -11    1    4    4    0    0  0.33502614666E-01  0.43109111463E-03  0.17427702561E-01  0.37770318592E-01  0.51100000000E-03 0.  1.
         11    1    4    4    0    0  0.88959627001E-01 -0.12180413789E-01  0.14043365488E-01  0.90882643841E-01  0.51100000000E-03 0. -1.
</event>
<event>
 8    1  0.1123191E+005  0.1043930E+01  0.7957747E-01            NaN
         13   -1    0    0    0    0  0.00000000000E+00  0.00000000000E+00  0.74505805969E-08  0.10566000000E+00  0.10566000000E+00 0. -1.
     999900   -1    0    0    0    0 -0.00000000000E+00 -0.00000000000E+00 -0.74505805969E-08  0.93827000000E+00  0.93827000000E+00 0.  1.
     999902    2    1    2    0    0 -0.13428276662E-01 -0.18838541177E-01 -0.66068051923E-02  0.10198705087E+01  0.10195866787E+01 0.  0.
     999903    2    3    3    0    0  0.60125936657E-01 -0.41389332022E-01  0.10502148374E+00  0.12948877293E+00  0.20239199659E-01 0.  0.
         14    1    1    2    0    0  0.13428276662E-01  0.18838541177E-01  0.66068051923E-02  0.24059491321E-01  0.00000000000E+00 0.  1.
     999901    1    3    3    0    0 -0.73554213320E-01  0.22550790845E-01 -0.11162828894E+00  0.89038173575E+00  0.88000000000E+00 0. -1.
        -11    1    4    4    0    0  0.20385430485E-01 -0.25962076032E-01  0.42510601549E-01  0.53823856542E-01  0.51100000000E-03 0.  1.
         11    1    4    4    0    0  0.39740506172E-01 -0.15427255990E-01  0.62510882195E-01  0.75664916388E-01  0.51100000000E-03 0. -1.
</event>
<event>
 8    1  0.1123191E+005  0.1043930E+01  0.7957747E-01            NaN
         13   -1    0    0    0    0  0.00000000000E+00  0.00000000000E+00  0.74505805969E-08  0.10566000000E+00  0.10566000000E+00 0. -1.
     999900   -1    0    0    0    0 -0.00000000000E+00 -0.00000000000E+00 -0.74505805969E-08  0.93827000000E+00  0.93827000000E+00 0.  1.
     999902    2    1    2    0    0 -0.12201542378E-01 -0.14752732210E-01 -0.14404857903E-01  0.10199712714E+01  0.10196898420E+01 0.  0.
     999903    2    3    3    0    0 -0.13670742114E-01 -0.11882508002E+00 -0.54477811487E-01  0.13293178316E+00  0.19918287976E-01 0.  0.
         14    1    1    2    0    0  0.12201542378E-01  0.14752732210E-01  0.14404857903E-01  0.23958728582E-01  0.00000000000E+00 0. -1.
     999901    1    3    3    0    0  0.14691997353E-02  0.10407234781E+00  0.40072953584E-01  0.88703948826E+00  0.88000000000E+00 0. -1.
        -11    1    4    4    0    0  0.76241457015E-03 -0.71303850879E-01 -0.36522906672E-01  0.80118688574E-01  0.51100000000E-03 0. -1.
         11    1    4    4    0    0 -0.14433156684E-01 -0.47521229145E-01 -0.17954904815E-01  0.52813094581E-01  0.51100000000E-03 0.  1.
</event>
<event>
 8    1  0.1123191E+005  0.1043930E+01  0.7957747E-01            NaN
         13   -1    0    0    0    0  0.00000000000E+00  0.00000000000E+00  0.74505805969E-08  0.10566000000E+00  0.10566000000E+00 0.  1.
     999900   -1    0    0    0    0 -0.00000000000E+00 -0.00000000000E+00 -0.74505805969E-08  0.93827000000E+00  0.93827000000E+00 0.  1.
     999902    2    1    2    0    0  0.54750018829E-02  0.23040492426E-01  0.32036047364E-02  0.10200322382E+01  0.10197522561E+01 0.  0.
     999903    2    3    3    0    0  0.28273445716E-01 -0.33492584893E-02 -0.12494880188E+00  0.13006638079E+00  0.22236345392E-01 0.  0.
         14    1    1    2    0    0 -0.54750018829E-02 -0.23040492426E-01 -0.32036047364E-02  0.23897761823E-01  0.00000000000E+00 0. -1.
     999901    1    3    3    0    0 -0.22798443833E-01  0.26389750915E-01  0.12815240661E+00  0.88996585739E+00  0.88000000000E+00 0. -1.
        -11    1    4    4    0    0  0.11593123521E-01  0.92301295012E-02 -0.42580570657E-01  0.45088379013E-01  0.51100000000E-03 0.  1.
         11    1    4    4    0    0  0.16680322196E-01 -0.12579387990E-01 -0.82368231219E-01  0.84978001777E-01  0.51100000000E-03 0. -1.
</event>
<event>
 8    1  0.1123191E+005  0.1043930E+01  0.7957747E-01            NaN
         13   -1    0    0    0    0  0.00000000000E+00  0.00000000000E+00  0.74505805969E-08  0.10566000000E+00  0.10566000000E+00 0.  1.
     999900   -1    0    0    0    0 -0.00000000000E+00 -0.00000000000E+00 -0.74505805969E-08  0.93827000000E+00  0.93827000000E+00 0. -1.
     999902    2    1    2    0    0 -0.12061189878E-01  0.20093047336E-01 -0.35349709334E-02  0.10202298128E+01  0.10199544951E+01 0.  0.
     999903    2    3    3    0    0  0.46364958408E-01  0.11592222814E+00  0.36049657478E-01  0.13221867016E+00  0.24382915933E-01 0.  0.
         14    1    1    2    0    0  0.12061189878E-01 -0.20093047336E-01  0.35349709334E-02  0.23700187173E-01  0.00000000000E+00 0.  1.
     999901    1    3    3    0    0 -0.58426148287E-01 -0.95829180802E-01 -0.39584628411E-01  0.88801114267E+00  0.88000000000E+00 0. -1.
        -11    1    4    4    0    0  0.15325259580E-01  0.23929765886E-01  0.17489407848E-01  0.33371211911E-01  0.51100000000E-03 0. -1.
         11    1    4    4    0    0  0.31039698828E-01  0.91992462253E-01  0.18560249630E-01  0.98847458247E-01  0.51100000000E-03 0.  1.
</event>
<event>
 8    1  0.1123191E+005  0.1043930E+01  0.7957747E-01            NaN
         13   -1    0    0    0    0  0.00000000000E+00  0.00000000000E+00  0.74505805969E-08  0.10566000000E+00  0.10566000000E+00 0. -1.
     999900   -1    0    0    0    0 -0.00000000000E+00 -0.00000000000E+00 -0.74505805969E-08  0.93827000000E+00  0.93827000000E+00 0.  1.
     999902    2    1    2    0    0 -0.33497831939E-02  0.19999561902E-01  0.13118940563E-01  0.10197781859E+01  0.10194921472E+01 0.  0.
     999903    2    3    3    0    0 -0.48274800042E-01 -0.11160010945E+00  0.36651488482E-01  0.12854841110E+00  0.19907828646E-01 0.  0.
         14    1    1    2    0    0  0.33497831939E-02 -0.19999561902E-01 -0.13118940563E-01  0.24151814118E-01  0.00000000000E+00 0.  1.
     999901    1    3    3    0    0  0.44925016848E-01  0.13159967135E+00 -0.23532547919E-01  0.89122977478E+00  0.88000000000E+00 0. -1.
        -11    1    4    4    0    0 -0.41834825312E-01 -0.74253044912E-01  0.23191403394E-01  0.88327626482E-01  0.51100000000E-03 0.  1.
         11    1    4    4    0    0 -0.64399747299E-02 -0.37347064537E-01  0.13460085087E-01  0.40220784622E-01  0.51100000000E-03 0. -1.
</event>
<event>
 8    1  0.1123191E+005  0.1043930E+01  0.7957747E-01            NaN
         13   -1    0    0    0    0  0.00000000000E+00  0.00000000000E+00  0.74505805969E-08  0.10566000000E+00  0.10566000000E+00 0.  1.
     999900   -1    0    0    0    0 -0.00000000000E+00 -0.00000000000E+00 -0.74505805969E-08  0.93827000000E+00  0.93827000000E+00 0.  1.
     999902    2    1    2    0    0  0.11733480452E-01 -0.97420287621E-02 -0.16668670545E-01  0.10213373847E+01  0.10210874728E+01 0.  0.
     999903    2    3    3    0    0 -0.48032761827E-01 -0.21821391030E-01  0.11635238022E+00  0.12925414047E+00  0.19632552849E-01 0.  0.
         14    1    1    2    0    0 -0.11733480452E-01  0.97420287621E-02  0.16668670545E-01  0.22592615291E-01  0.00000000000E+00 0.  1.
     999901    1    3    3    0    0  0.59766242279E-01  0.12079362268E-01 -0.13302105076E+00  0.89208324424E+00  0.88000000000E+00 0.  1.
        -11    1    4    4    0    0 -0.30271447918E-01 -0.14959695273E-01  0.94026965279E-01  0.99907378918E-01  0.51100000000E-03 0.  1.
         11    1    4    4    0    0 -0.17761313909E-01 -0.68616957568E-02  0.22325414937E-01  0.29346761551E-01  0.51100000000E-03 0. -1.
</event>
<event>
 8    1  0.1123191E+005  0.1043930E+01  0.7957747E-01            NaN
         13   -1    0    0    0    0  0.00000000000E+00  0.00000000000E+00  0.74505805969E-08  0.10566000000E+00  0.10566000000E+00 0. -1.
     999900   -1    0    0    0    0 -0.00000000000E+00 -0.00000000000E+00 -0.74505805969E-08  0.93827000000E+00  0.93827000000E+00 0.  1.
     999902    2    1    2    0    0 -0.20446121518E-01 -0.91932723303E-02 -0.87521984372E-02  0.10198642335E+01  0.10195802536E+01 0.  0.
     999903    2    3    3    0    0  0.11333202659E+00 -0.33798114060E-01 -0.46457296535E-01  0.12861585868E+00  0.19932333950E-01 0.  0.
         14    1    1    2    0    0  0.20446121518E-01  0.91932723303E-02  0.87521984372E-02  0.24065766532E-01  0.00000000000E+00 0. -1.
     999901    1    3    3    0    0 -0.13377814811E+00  0.24604841729E-01  0.37705098098E-01  0.89124837479E+00  0.88000000000E+00 0. -1.
        -11    1    4    4    0    0  0.91009166778E-01 -0.19715295641E-01 -0.40532502288E-01  0.10156035734E+00  0.51100000000E-03 0.  1.
         11    1    4    4    0    0  0.22322859812E-01 -0.14082818419E-01 -0.59247942472E-02  0.27055501338E-01  0.51100000000E-03 0. -1.
</event>
<event>
 8    1  0.1123191E+005  0.1043930E+01  0.7957747E-01            NaN
         13   -1    0    0    0    0  0.00000000000E+00  0.00000000000E+00  0.74505805969E-08  0.10566000000E+00  0.10566000000E+00 0. -1.
     999900   -1    0    0    0    0 -0.00000000000E+00 -0.00000000000E+00 -0.74505805969E-08  0.93827000000E+00  0.93827000000E+00 0.  1.
     999902    2    1    2    0    0  0.91657166118E-02 -0.11058280213E-01  0.16707184657E-01  0.10218976161E+01  0.10216600764E+01 0.  0.
     999903    2    3    3    0    0  0.59621720929E-01  0.91928900461E-01  0.71579821147E-01  0.13276142066E+00  0.22276706997E-01 0.  0.
         14    1    1    2    0    0 -0.91657166118E-02  0.11058280213E-01 -0.16707184657E-01  0.22032383925E-01  0.00000000000E+00 0.  1.
     999901    1    3    3    0    0 -0.50456004318E-01 -0.10298718067E+00 -0.54872636490E-01  0.88913619541E+00  0.88000000000E+00 0. -1.
        -11    1    4    4    0    0  0.21629466752E-01  0.16853607495E-01  0.13895493536E-01  0.30744491851E-01  0.51100000000E-03 0. -1.
         11    1    4    4    0    0  0.37992254177E-01  0.75075292966E-01  0.57684327611E-01  0.10201692881E+00  0.51100000000E-03 0.  1.
</event>
<event>
 8    1  0.1123191E+005  0.1043930E+01  0.7957747E-01            NaN
         13   -1    0    0    0    0  0.00000000000E+00  0.00000000000E+00  0.74505805969E-08  0.10566000000E+00  0.10566000000E+00 0.  1.
     999900   -1    0    0    0    0 -0.00000000000E+00 -0.00000000000E+00 -0.74505805969E-08  0.93827000000E+00  0.93827000000E+00 0.  1.
     999902    2    1    2    0    0 -0.14362778701E-01 -0.17445552098E-01  0.93234795088E-02  0.10194848784E+01  0.10191917647E+01 0.  0.
     999903    2    3    3    0    0 -0.19848364246E-01 -0.38227265752E-01 -0.12068578318E+00  0.12967344913E+00  0.19871178548E-01 0.  0.
         14    1    1    2    0    0  0.14362778701E-01  0.17445552098E-01 -0.93234795088E-02  0.24445121603E-01  0.00000000000E+00 0. -1.
     999901    1    3    3    0    0  0.54855855449E-02  0.20781713654E-01  0.13000926269E+00  0.88981142927E+00  0.88000000000E+00 0. -1.
        -11    1    4    4    0    0 -0.86241316504E-02 -0.19838029143E-01 -0.33626104499E-01  0.39986236029E-01  0.51100000000E-03 0.  1.
         11    1    4    4    0    0 -0.11224232596E-01 -0.18389236609E-01 -0.87059678682E-01  0.89687213100E-01  0.51100000000E-03 0. -1.
</event>
<event>
 8    1  0.1123191E+005  0.1043930E+01  0.7957747E-01            NaN
         13   -1    0    0    0    0  0.00000000000E+00  0.00000000000E+00  0.74505805969E-08  0.10566000000E+00  0.10566000000E+00 0.  1.
     999900   -1    0    0    0    0 -0.00000000000E+00 -0.00000000000E+00 -0.74505805969E-08  0.93827000000E+00  0.93827000000E+00 0.  1.
     999902    2    1    2    0    0 -0.77468062562E-02 -0.19589446232E-01  0.10056795453E-01  0.10205869380E+01  0.10203199495E+01 0.  0.
     999903    2    3    3    0    0 -0.24174472235E-01 -0.11550857361E-01  0.12823476132E+00  0.13249881241E+00  0.19848271059E-01 0.  0.
         14    1    1    2    0    0  0.77468062562E-02  0.19589446232E-01 -0.10056795453E-01  0.23343062045E-01  0.00000000000E+00 0.  1.
     999901    1    3    3    0    0  0.16427665978E-01 -0.80385888716E-02 -0.11817796587E+00  0.88808812555E+00  0.88000000000E+00 0.  1.
        -11    1    4    4    0    0 -0.85845155742E-02  0.50849553107E-02  0.28838224408E-01  0.30519747479E-01  0.51100000000E-03 0. -1.
         11    1    4    4    0    0 -0.15589956660E-01 -0.16635812671E-01  0.99396536916E-01  0.10197906493E+00  0.51100000000E-03 0.  1.
</event>
<event>
 8    1  0.1123191E+005  0.1043930E+01  0.7957747E-01            NaN
         13   -1    0    0    0    0  0.00000000000E+00  0.00000000000E+00  0.74505805969E-08  0.10566000000E+00  0.10566000000E+00 0.  1.
     999900   -1    0    0    0    0 -0.00000000000E+00 -0.00000000000E+00 -0.74505805969E-08  0.93827000000E+00  0.93827000000E+00 0.  1.
     999902    2    1    2    0    0 -0.23735768616E-01  0.40281148490E-02 -0.85213596466E-03  0.10198397830E+01  0.10195552189E+01 0.  0.
     999903    2    3    3    0    0 -0.81239605449E-02  0.12513058196E+00 -0.31208631311E-01  0.13089037332E+00  0.20848258513E-01 0.  0.
         14    1    1    2    0    0  0.23735768616E-01 -0.40281148490E-02  0.85213596466E-03  0.24090217034E-01  0.00000000000E+00 0.  1.
     999901    1    3    3    0    0 -0.15611808071E-01 -0.12110246712E+00  0.30356495346E-01  0.88894940964E+00  0.88000000000E+00 0.  1.
        -11    1    4    4    0    0 -0.13098430530E-01  0.58776470802E-01 -0.19695646292E-01  0.63359466587E-01  0.51100000000E-03 0. -1.
         11    1    4    4    0    0  0.49744699848E-02  0.66354111162E-01 -0.11512985019E-01  0.67530906737E-01  0.51100000000E-03 0.  1.
</event>
<event>
 8    1  0.1123191E+005  0.1043930E+01  0.7957747E-01            NaN
         13   -1    0    0    0    0  0.00000000000E+00  0.00000000000E+00  0.74505805969E-08  0.10566000000E+00  0.10566000000E+00 0. -1.
     999900   -1    0    0    0    0 -0.00000000000E+00 -0.00000000000E+00 -0.74505805969E-08  0.93827000000E+00  0.93827000000E+00 0. -1.
     999902    2    1    2    0    0  0.73299187939E-02  0.16274136042E-01 -0.83772047662E-02  0.10242131855E+01  0.10240233868E+01 0.  0.
     999903    2    3    3    0    0  0.96801063315E-01  0.93662375753E-01 -0.22267303715E-02  0.13627633322E+00  0.20571683847E-01 0.  0.
         14    1    1    2    0    0 -0.73299187939E-02 -0.16274136042E-01  0.83772047662E-02  0.19716814477E-01  0.00000000000E+00 0. -1.
     999901    1    3    3    0    0 -0.89471144521E-01 -0.77388239711E-01 -0.61504743947E-02  0.88793685231E+00  0.88000000000E+00 0.  1.
        -11    1    4    4    0    0  0.51579152202E-01  0.36928049378E-01  0.32108189713E-02  0.63518975528E-01  0.51100000000E-03 0.  1.
         11    1    4    4    0    0  0.45221911114E-01  0.56734326375E-01 -0.54375493428E-02  0.72757357689E-01  0.51100000000E-03 0. -1.
</event>
<event>
 8    1  0.1123191E+005  0.1043930E+01  0.7957747E-01            NaN
         13   -1    0    0    0    0  0.00000000000E+00  0.00000000000E+00  0.74505805969E-08  0.10566000000E+00  0.10566000000E+00 0. -1.
     999900   -1    0    0    0    0 -0.00000000000E+00 -0.00000000000E+00 -0.74505805969E-08  0.93827000000E+00  0.93827000000E+00 0. -1.
     999902    2    1    2    0    0  0.90935059788E-02 -0.47282554317E-02  0.20914982165E-01  0.10206386984E+01  0.10203729063E+01 0.  0.
     999903    2    3    3    0    0 -0.13090017773E-01  0.25814209850E-01 -0.12325059461E+00  0.12810933507E+00  0.19584960163E-01 0.  0.
         14    1    1    2    0    0 -0.90935059788E-02  0.47282554317E-02 -0.20914982165E-01  0.23291301582E-01  0.00000000000E+00 0.  1.
     999901    1    3    3    0    0  0.22183523751E-01 -0.30542465282E-01  0.14416557678E+00  0.89252936335E+00  0.88000000000E+00 0.  1.
        -11    1    4    4    0    0 -0.11470480827E-01  0.20583762483E-01 -0.57697280241E-01  0.62325760938E-01  0.51100000000E-03 0. -1.
         11    1    4    4    0    0 -0.16195369455E-02  0.52304473673E-02 -0.65553314371E-01  0.65783574132E-01  0.51100000000E-03 0.  1.
</event>
<event>
 8    1  0.1123191E+005  0.1043930E+01  0.7957747E-01            NaN
         13   -1    0    0    0    0  0.00000000000E+00  0.00000000000E+00  0.74505805969E-08  0.10566000000E+00  0.10566000000E+00 0. -1.
     999900   -1    0    0    0    0 -0.00000000000E+00 -0.00000000000E+00 -0.74505805969E-08  0.93827000000E+00  0.93827000000E+00 0.  1.
     999902    2    1    2    0    0  0.10382998460E-01  0.16483417046E-02 -0.21302534451E-01  0.10201745446E+01  0.10198979262E+01 0.  0.
     999903    2    3    3    0    0  0.60984730460E-01  0.11112323233E+00  0.24967312734E-01  0.13074428554E+00  0.20079626131E-01 0.  0.
         14    1    1    2    0    0 -0.10382998460E-01 -0.16483417046E-02  0.21302534451E-01  0.23755455404E-01  0.00000000000E+00 0. -1.
     999901    1    3    3    0    0 -0.50601732000E-01 -0.10947489062E+00 -0.46269847185E-01  0.88943025905E+00  0.88000000000E+00 0.  1.
        -11    1    4    4    0    0  0.22470057494E-01  0.38285513287E-01 -0.83596192418E-03  0.44403197686E-01  0.51100000000E-03 0. -1.
         11    1    4    4    0    0  0.38514672966E-01  0.72837719039E-01  0.25803274658E-01  0.86341087859E-01  0.51100000000E-03 0.  1.
</event>
<event>
 8    1  0.1123191E+005  0.1043930E+01  0.7957747E-01            NaN
         13   -1    0    0    0    0  0.00000000000E+00  0.00000000000E+00  0.74505805969E-08  0.10566000000E+00  0.10566000000E+00 0. -1.
     999900   -1    0    0    0    0 -0.00000000000E+00 -0.00000000000E+00 -0.74505805969E-08  0.93827000000E+00  0.93827000000E+00 0. -1.
     999902    2    1    2    0    0  0.21195051162E-01 -0.63165722269E-02 -0.44431484661E-02  0.10213718341E+01  0.10211226923E+01 0.  0.
     999903    2    3    3    0    0 -0.45913353222E-01  0.42683096139E-01  0.11193258540E+00  0.12982945328E+00  0.19922363444E-01 0.  0.
         14    1    1    2    0    0 -0.21195051162E-01  0.63165722269E-02  0.44431484661E-02  0.22558165855E-01  0.00000000000E+00 0. -1.
     999901    1    3    3    0    0  0.67108404384E-01 -0.48999668366E-01 -0.11637573387E+00  0.89154238086E+00  0.88000000000E+00 0. -1.
        -11    1    4    4    0    0 -0.37253348224E-01  0.40363916407E-01  0.82959557561E-01  0.99496768859E-01  0.51100000000E-03 0. -1.
         11    1    4    4    0    0 -0.86600049989E-02  0.23191797320E-02  0.28973027840E-01  0.30332684425E-01  0.51100000000E-03 0.  1.
</event>
<event>
 8    1  0.1123191E+005  0.1043930E+01  0.7957747E-01            NaN
         13   -1    0    0    0    0  0.00000000000E+00  0.00000000000E+00  0.74505805969E-08  0.10566000000E+00  0.10566000000E+00 0. -1.
     999900   -1    0    0    0    0 -0.00000000000E+00 -0.00000000000E+00 -0.74505805969E-08  0.93827000000E+00  0.93827000000E+00 0.  1.
     999902    2    1    2    0    0 -0.59722063355E-02 -0.68927585570E-02 -0.20320118629E-01  0.10216570435E+01  0.10214142304E+01 0.  0.
     999903    2    3    3    0    0  0.80684022380E-01  0.27029461578E-01  0.95148631941E-01  0.12924847602E+00  0.20283075042E-01 0.  0.
         14    1    1    2    0    0  0.59722063355E-02  0.68927585570E-02  0.20320118629E-01  0.22272956475E-01  0.00000000000E+00 0. -1.
     999901    1    3    3    0    0 -0.86656228716E-01 -0.33922220135E-01 -0.11546875057E+00  0.89240856750E+00  0.88000000000E+00 0.  1.
        -11    1    4    4    0    0  0.75262831543E-01  0.23197287714E-01  0.77972190419E-01  0.11082658331E+00  0.51100000000E-03 0. -1.
         11    1    4    4    0    0  0.54211908373E-02  0.38321738636E-02  0.17176441522E-01  0.18421892709E-01  0.51100000000E-03 0.  1.
</event>
<event>
 8    1  0.1123191E+005  0.1043930E+01  0.7957747E-01            NaN
         13   -1    0    0    0    0  0.00000000000E+00  0.00000000000E+00  0.74505805969E-08  0.10566000000E+00  0.10566000000E+00 0.  1.
     999900   -1    0    0    0    0 -0.00000000000E+00 -0.00000000000E+00 -0.74505805969E-08  0.93827000000E+00  0.93827000000E+00 0.  1.
     999902    2    1    2    0    0 -0.98656280699E-02 -0.12365856434E-01  0.11037998327E-01  0.10246405617E+01  0.10244589783E+01 0.  0.
     999903    2    3    3    0    0 -0.22961216951E-01 -0.12687127482E+00 -0.37932631672E-01  0.13577549439E+00  0.19301877468E-01 0.  0.
         14    1    1    2    0    0  0.98656280699E-02  0.12365856434E-01 -0.11037998327E-01  0.19289438292E-01  0.00000000000E+00 0. -1.
     999901    1    3    3    0    0  0.13095588881E-01  0.11450541839E+00  0.48970630000E-01  0.88886506731E+00  0.88000000000E+00 0.  1.
        -11    1    4    4    0    0 -0.10832620595E-02 -0.27805515834E-01 -0.11356347905E-02  0.27854460232E-01  0.51100000000E-03 0. -1.
         11    1    4    4    0    0 -0.21877954892E-01 -0.99065758987E-01 -0.36796996882E-01  0.10792103416E+00  0.51100000000E-03 0.  1.
</event>
<event>
 8    1  0.1123191E+005  0.1043930E+01  0.7957747E-01            NaN
         13   -1    0    0    0    0  0.00000000000E+00  0.00000000000E+00  0.74505805969E-08  0.10566000000E+00  0.10566000000E+00 0.  1.
     999900   -1    0    0    0    0 -0.00000000000E+00 -0.00000000000E+00 -0.74505805969E-08  0.93827000000E+00  0.93827000000E+00 0. -1.
     999902    2    1    2    0    0  0.12864495914E-01  0.98663459763E-02  0.16413668691E-01  0.10208594873E+01  0.10205987675E+01 0.  0.
     999903    2    3    3    0    0  0.86497286337E-01 -0.92986108585E-01 -0.24718769546E-01  0.13086381721E+00  0.19650042083E-01 0.  0.
         14    1    1    2    0    0 -0.12864495914E-01 -0.98663459763E-02 -0.16413668691E-01  0.23070512737E-01  0.00000000000E+00 0.  1.
     999901    1    3    3    0    0 -0.73632790423E-01  0.10285245456E+00  0.41132438237E-01  0.88999567005E+00  0.88000000000E+00 0.  1.
        -11    1    4    4    0    0  0.20319371887E-01 -0.10901545361E-01 -0.40911015531E-02  0.23424747555E-01  0.51100000000E-03 0. -1.
         11    1    4    4    0    0  0.66177914450E-01 -0.82084563225E-01 -0.20627667993E-01  0.10743906966E+00  0.51100000000E-03 0.  1.
</event>
<event>
 8    1  0.1123191E+005  0.1043930E+01  0.7957747E-01            NaN
         13   -1    0    0    0    0  0.00000000000E+00  0.00000000000E+00  0.74505805969E-08  0.10566000000E+00  0.10566000000E+00 0.  1.
     999900   -1    0    0    0    0 -0.00000000000E+00 -0.00000000000E+00 -0.74505805969E-08  0.93827000000E+00  0.93827000000E+00 0. -1.
     999902    2    1    2    0    0  0.11775912139E-01 -0.21094575844E-01  0.13857530896E-02  0.10197313730E+01  0.10194442111E+01 0.  0.
     999903    2    3    3    0    0  0.82923718445E-01 -0.96244126633E-01  0.32386788664E-01  0.13312518674E+00  0.23111388354E-01 0.  0.
         14    1    1    2    0    0 -0.11775912139E-01  0.21094575844E-01 -0.13857530896E-02  0.24198626994E-01  0.00000000000E+00 0. -1.
     999901    1    3    3    0    0 -0.71147806305E-01  0.75149550789E-01 -0.31001035574E-01  0.88660618627E+00  0.88000000000E+00 0. -1.
        -11    1    4    4    0    0  0.58294506290E-01 -0.78295005983E-01  0.17374863538E-01  0.99148900293E-01  0.51100000000E-03 0. -1.
         11    1    4    4    0    0  0.24629212155E-01 -0.17949120650E-01  0.15011925126E-01  0.33976286443E-01  0.51100000000E-03 0.  1.
</event>
<event>
 8    1  0.1123191E+005  0.1043930E+01  0.7957747E-01            NaN
         13   -1    0    0    0    0  0.00000000000E+00  0.00000000000E+00  0.74505805969E-08  0.10566000000E+00  0.10566000000E+00 0.  1.
     999900   -1    0    0    0    0 -0.00000000000E+00 -0.00000000000E+00 -0.74505805969E-08  0.93827000000E+00  0.93827000000E+00 0. -1.
     999902    2    1    2    0    0 -0.86988939176E-02 -0.79564634529E-02 -0.19870294757E-01  0.10208257865E+01  0.10205642958E+01 0.  0.
     999903    2    3    3    0    0  0.38009274752E-01  0.59552214940E-01 -0.10987168914E+00  0.13243436060E+00  0.21815144367E-01 0.  0.
         14    1    1    2    0    0  0.86988939176E-02  0.79564634529E-02  0.19870294757E-01  0.23104213464E-01  0.00000000000E+00 0.  1.
     999901    1    3    3    0    0 -0.46708168669E-01 -0.67508678393E-01  0.90001394379E-01  0.88839142593E+00  0.88000000000E+00 0.  1.
        -11    1    4    4    0    0  0.11293212706E-02  0.40529810102E-02 -0.37548692414E-03  0.42548951845E-02  0.51100000000E-03 0.  1.
         11    1    4    4    0    0  0.36879953481E-01  0.55499233930E-01 -0.10949620221E+00  0.12817946542E+00  0.51100000000E-03 0. -1.
</event>
<event>
 8    1  0.1123191E+005  0.1043930E+01  0.7957747E-01            NaN
         13   -1    0    0    0    0  0.00000000000E+00  0.00000000000E+00  0.74505805969E-08  0.10566000000E+00  0.10566000000E+00 0. -1.
     999900   -1    0    0    0    0 -0.00000000000E+00 -0.00000000000E+00 -0.74505805969E-08  0.93827000000E+00  0.93827000000E+00 0.  1.
     999902    2    1    2    0    0 -0.12085964608E-01 -0.13693322253E-01 -0.14355316765E-01  0.10206995731E+01  0.10204351845E+01 0.  0.
     999903    2    3    3    0    0 -0.76744432157E-01  0.10069731190E+00  0.26002038558E-01  0.13002867386E+00  0.14201884590E-01 0.  0.
         14    1    1    2    0    0  0.12085964608E-01  0.13693322253E-01  0.14355316765E-01  0.23230426906E-01  0.00000000000E+00 0.  1.
     999901    1    3    3    0    0  0.64658467550E-01 -0.11439063416E+00 -0.40357355323E-01  0.89067089923E+00  0.88000000000E+00 0. -1.
        -11    1    4    4    0    0 -0.30237703651E-01  0.43032147162E-01  0.17635611441E-01  0.55473960769E-01  0.51100000000E-03 0. -1.
         11    1    4    4    0    0 -0.46506728506E-01  0.57665164740E-01  0.83664271169E-02  0.74554713094E-01  0.51100000000E-03 0.  1.
</event>
<event>
 8    1  0.1123191E+005  0.1043930E+01  0.7957747E-01            NaN
         13   -1    0    0    0    0  0.00000000000E+00  0.00000000000E+00  0.74505805969E-08  0.10566000000E+00  0.10566000000E+00 0. -1.
     999900   -1    0    0    0    0 -0.00000000000E+00 -0.00000000000E+00 -0.74505805969E-08  0.93827000000E+00  0.93827000000E+00 0.  1.
     999902    2    1    2    0    0 -0.11949833986E-01  0.11214029989E-01 -0.12759288935E-01  0.10231609737E+01  0.10229501579E+01 0.  0.
     999903    2    3    3    0    0 -0.94792594916E-01  0.94551091211E-01  0.38982452043E-02  0.13519393472E+00  0.18348263356E-01 0.  0.
         14    1    1    2    0    0  0.11949833986E-01 -0.11214029989E-01  0.12759288935E-01  0.20769026338E-01  0.00000000000E+00 0. -1.
     999901    1    3    3    0    0  0.82842760929E-01 -0.83337061223E-01 -0.16657534139E-01  0.88796703895E+00  0.88000000000E+00 0.  1.
        -11    1    4    4    0    0 -0.31532995802E-01  0.27211374392E-01 -0.67168860854E-02  0.42192018205E-01  0.51100000000E-03 0. -1.
         11    1    4    4    0    0 -0.63259599114E-01  0.67339716820E-01  0.10615131290E-01  0.93001916511E-01  0.51100000000E-03 0.  1.
</event>
<event>
 8    1  0.1123191E+005  0.1043930E+01  0.7957747E-01            NaN
         13   -1    0    0    0    0  0.00000000000E+00  0.00000000000E+00  0.74505805969E-08  0.10566000000E+00  0.10566000000E+00 0.  1.
     999900   -1    0    0    0    0 -0.00000000000E+00 -0.00000000000E+00 -0.74505805969E-08  0.93827000000E+00  0.93827000000E+00 0.  1.
     999902    2    1    2    0    0 -0.42435214880E-02 -0.22804318433E-01  0.35457371916E-02  0.10204647775E+01  0.10201949546E+01 0.  0.
     999903    2    3    3    0    0 -0.49979927194E-01  0.98800012768E-01 -0.62421077027E-01  0.12848324590E+00  0.18764806805E-01 0.  0.
         14    1    1    2    0    0  0.42435214880E-02  0.22804318433E-01 -0.35457371916E-02  0.23465222481E-01  0.00000000000E+00 0.  1.
     999901    1    3    3    0    0  0.45736405706E-01 -0.12160433120E+00  0.65966814218E-01  0.89198153162E+00  0.88000000000E+00 0.  1.
        -11    1    4    4    0    0 -0.22553309152E-01  0.51995475694E-01 -0.41885837679E-01  0.70475994249E-01  0.51100000000E-03 0.  1.
         11    1    4    4    0    0 -0.27426618042E-01  0.46804537074E-01 -0.20535239347E-01  0.58007251650E-01  0.51100000000E-03 0. -1.
</event>
<event>
 8    1  0.1123191E+005  0.1043930E+01  0.7957747E-01            NaN
         13   -1    0    0    0    0  0.00000000000E+00  0.00000000000E+00  0.74505805969E-08  0.10566000000E+00  0.10566000000E+00 0.  1.
     999900   -1    0    0    0    0 -0.00000000000E+00 -0.00000000000E+00 -0.74505805969E-08  0.93827000000E+00  0.93827000000E+00 0. -1.
     999902    2    1    2    0    0 -0.67472991954E-02 -0.13166977330E-01 -0.18266364355E-01  0.10204235029E+01  0.10201527189E+01 0.  0.
     999903    2    3    3    0    0 -0.26808865625E-01 -0.91323677117E-01  0.87014187438E-01  0.13048253254E+00  0.19887010932E-01 0.  0.
         14    1    1    2    0    0  0.67472991954E-02  0.13166977330E-01  0.18266364355E-01  0.23506497085E-01  0.00000000000E+00 0.  1.
     999901    1    3    3    0    0  0.20061566429E-01  0.78156699787E-01 -0.10528055179E+00  0.88994097038E+00  0.88000000000E+00 0. -1.
        -11    1    4    4    0    0 -0.17815928275E-01 -0.40361768132E-01  0.50977476302E-01  0.67419906839E-01  0.51100000000E-03 0.  1.
         11    1    4    4    0    0 -0.89929373497E-02 -0.50961908985E-01  0.36036711136E-01  0.63062625699E-01  0.51100000000E-03 0. -1.
</event>
<event>
 8    1  0.1123191E+005  0.1043930E+01  0.7957747E-01            NaN
         13   -1    0    0    0    0  0.00000000000E+00  0.00000000000E+00  0.74505805969E-08  0.10566000000E+00  0.10566000000E+00 0.  1.
     999900   -1    0    0    0    0 -0.00000000000E+00 -0.00000000000E+00 -0.74505805969E-08  0.93827000000E+00  0.93827000000E+00 0. -1.
     999902    2    1    2    0    0  0.16587364705E-01  0.70259266041E-02  0.64127891764E-02  0.10248085937E+01  0.10246301897E+01 0.  0.
     999903    2    3    3    0    0 -0.68257358517E-01  0.90923501456E-01  0.68563681308E-01  0.13458381116E+00  0.22038006309E-01 0.  0.
         14    1    1    2    0    0 -0.16587364705E-01 -0.70259266041E-02 -0.64127891764E-02  0.19121406265E-01  0.00000000000E+00 0. -1.
     999901    1    3    3    0    0  0.84844723222E-01 -0.83897574852E-01 -0.62150892132E-01  0.89022478258E+00  0.88000000000E+00 0.  1.
        -11    1    4    4    0    0 -0.25836738287E-01  0.52705303343E-01  0.33876713804E-01  0.67773733148E-01  0.51100000000E-03 0.  1.
         11    1    4    4    0    0 -0.42420620231E-01  0.38218198114E-01  0.34686967504E-01  0.66810078008E-01  0.51100000000E-03 0. -1.
</event>
<event>
 8    1  0.1123191E+005  0.1043930E+01  0.7957747E-01            NaN
         13   -1    0    0    0    0  0.00000000000E+00  0.00000000000E+00  0.74505805969E-08  0.10566000000E+00  0.10566000000E+00 0. -1.
     999900   -1    0    0    0    0 -0.00000000000E+00 -0.00000000000E+00 -0.74505805969E-08  0.93827000000E+00  0.93827000000E+00 0.  1.
     999902    2    1    2    0    0  0.20944544119E-01 -0.23304713850E-02 -0.12513424717E-01  0.10194210053E+01  0.10191263391E+01 0.  0.
     999903    2    3    3    0    0 -0.16316634237E-01  0.61011628800E-01 -0.11272032921E+00  0.13069042697E+00  0.19633229031E-01 0.  0.
         14    1    1    2    0    0 -0.20944544119E-01  0.23304713850E-02  0.12513424717E-01  0.24508994744E-01  0.00000000000E+00 0. -1.
     999901    1    3    3    0    0  0.37261178356E-01 -0.63342100185E-01  0.10020690450E+00  0.88873057828E+00  0.88000000000E+00 0. -1.
        -11    1    4    4    0    0 -0.47658557812E-02  0.10561992106E-01 -0.38473684414E-01  0.40184008909E-01  0.51100000000E-03 0. -1.
         11    1    4    4    0    0 -0.11550778455E-01  0.50449636694E-01 -0.74246644800E-01  0.90506418063E-01  0.51100000000E-03 0.  1.
</event>
<event>
 8    1  0.1123191E+005  0.1043930E+01  0.7957747E-01            NaN
         13   -1    0    0    0    0  0.00000000000E+00  0.00000000000E+00  0.74505805969E-08  0.10566000000E+00  0.10566000000E+00 0.  1.
     999900   -1    0    0    0    0 -0.00000000000E+00 -0.00000000000E+00 -0.74505805969E-08  0.93827000000E+00  0.93827000000E+00 0. -1.
     999902    2    1    2    0    0 -0.27463193192E-01  0.32949666897E-02 -0.13839007051E-01  0.10130010184E+01  0.10125287460E+01 0.  0.
     999903    2    3    3    0    0 -0.11530470478E+00  0.13236480782E-01  0.45927736117E-01  0.12655472650E+00  0.20889291179E-01 0.  0.
         14    1    1    2    0    0  0.27463193192E-01 -0.32949666897E-02  0.13839007051E-01  0.30928981586E-01  0.00000000000E+00 0.  1.
     999901    1    3    3    0    0  0.87841511591E-01 -0.99415140921E-02 -0.59766743168E-01  0.88644629192E+00  0.88000000000E+00 0. -1.
        -11    1    4    4    0    0 -0.65129251528E-01  0.39034491580E-02  0.36132370625E-01  0.74584620720E-01  0.51100000000E-03 0.  1.
         11    1    4    4    0    0 -0.50175453255E-01  0.93330316238E-02  0.97953654917E-02  0.51970105780E-01  0.51100000000E-03 0. -1.
</event>
<event>
 8    1  0.1123191E+005  0.1043930E+01  0.7957747E-01            NaN
         13   -1    0    0    0    0  0.00000000000E+00  0.00000000000E+00  0.74505805969E-08  0.10566000000E+00  0.10566000000E+00 0.  1.
     999900   -1    0    0    0    0 -0.00000000000E+00 -0.00000000000E+00 -0.74505805969E-08  0.93827000000E+00  0.93827000000E+00 0.  1.
     999902    2    1    2    0    0 -0.68747273991E-02 -0.18063686716E-01 -0.11870134414E-01  0.10212483170E+01  0.10209964085E+01 0.  0.
     999903    2    3    3    0    0  0.16326438282E-02 -0.11268292077E+00 -0.70189145957E-01  0.13421602785E+00  0.19680441126E-01 0.  0.
         14    1    1    2    0    0  0.68747273991E-02  0.18063686716E-01  0.11870134414E-01  0.22681683041E-01  0.00000000000E+00 0.  1.
     999901    1    3    3    0    0 -0.85073712273E-02  0.94619234051E-01  0.58319011543E-01  0.88703228911E+00  0.88000000000E+00 0.  1.
        -11    1    4    4    0    0 -0.70874205515E-02 -0.25211387202E-01 -0.20302433495E-01  0.33140541660E-01  0.51100000000E-03 0. -1.
         11    1    4    4    0    0  0.87200643797E-02 -0.87471533564E-01 -0.49886712462E-01  0.10107548619E+00  0.51100000000E-03 0.  1.
</event>
<event>
 8    1  0.1123191E+005  0.1043930E+01  0.7957747E-01            NaN
         13   -1    0    0    0    0  0.00000000000E+00  0.00000000000E+00  0.74505805969E-08  0.10566000000E+00  0.10566000000E+00 0.  1.
     999900   -1    0    0    0    0 -0.00000000000E+00 -0.00000000000E+00 -0.74505805969E-08  0.93827000000E+00  0.93827000000E+00 0.  1.
     999902    2    1    2    0    0 -0.34585665625E-03  0.17332746123E-01  0.16153690138E-01  0.10202343166E+01  0.10199591048E+01 0.  0.
     999903    2    3    3    0    0 -0.40213019930E-01  0.10702530592E+00  0.65631475599E-01  0.13339600147E+00  0.20383805826E-01 0.  0.
         14    1    1    2    0    0  0.34585665625E-03 -0.17332746123E-01 -0.16153690138E-01  0.23695683364E-01  0.00000000000E+00 0. -1.
     999901    1    3    3    0    0  0.39867163274E-01 -0.89692559798E-01 -0.49477785461E-01  0.88683831517E+00  0.88000000000E+00 0.  1.
        -11    1    4    4    0    0 -0.30403366810E-01  0.72360877893E-01  0.54960949831E-01  0.95819770873E-01  0.51100000000E-03 0.  1.
         11    1    4    4    0    0 -0.98096531204E-02  0.34664428027E-01  0.10670525768E-01  0.37576230598E-01  0.51100000000E-03 0. -1.
</event>
<event>
 8    1  0.1123191E+005  0.1043930E+01  0.7957747E-01            NaN
         13   -1    0    0    0    0  0.00000000000E+00  0.00000000000E+00  0.74505805969E-08  0.10566000000E+00  0.10566000000E+00 0. -1.
     999900   -1    0    0    0    0 -0.00000000000E+00 -0.00000000000E+00 -0.74505805969E-08  0.93827000000E+00  0.93827000000E+00 0.  1.
     999902    2    1    2    0    0  0.14697207727E-02 -0.61315328859E-02 -0.20292283008E-01  0.10226807053E+01  0.10224599222E+01 0.  0.
     999903    2    3    3    0    0  0.73701967869E-01  0.90558639996E-01 -0.60807803598E-01  0.13351930576E+00  0.22292794523E-01 0.  0.
         14    1    1    2    0    0 -0.14697207727E-02  0.61315328859E-02  0.20292283008E-01  0.21249294679E-01  0.00000000000E+00 0. -1.
     999901    1    3    3    0    0 -0.72232247096E-01 -0.96690172882E-01  0.40515520591E-01  0.88916139956E+00  0.88000000000E+00 0. -1.
        -11    1    4    4    0    0  0.30286064207E-01  0.53557564020E-01 -0.26868571564E-01  0.67140446884E-01  0.51100000000E-03 0.  1.
         11    1    4    4    0    0  0.43415903662E-01  0.37001075977E-01 -0.33939232034E-01  0.66378858881E-01  0.51100000000E-03 0. -1.
</event>
<event>
 8    1  0.1123191E+005  0.1043930E+01  0.7957747E-01            NaN
         13   -1    0    0    0    0  0.00000000000E+00  0.00000000000E+00  0.74505805969E-08  0.10566000000E+00  0.10566000000E+00 0.  1.
     999900   -1    0    0    0    0 -0.00000000000E+00 -0.00000000000E+00 -0.74505805969E-08  0.93827000000E+00  0.93827000000E+00 0. -1.
     999902    2    1    2    0    0 -0.26337673701E-01 -0.67759319582E-02 -0.20562776768E-01  0.10098358055E+01  0.10092600953E+01 0.  0.
     999903    2    3    3    0    0  0.56617520925E-01  0.56743719366E-01  0.83738889948E-01  0.11753812642E+00  0.19432346986E-01 0.  0.
         14    1    1    2    0    0  0.26337673701E-01  0.67759319582E-02  0.20562776768E-01  0.34094194496E-01  0.00000000000E+00 0.  1.
     999901    1    3    3    0    0 -0.82955194626E-01 -0.63519651324E-01 -0.10430166672E+00  0.89229767908E+00  0.88000000000E+00 0. -1.
        -11    1    4    4    0    0  0.34893186962E-01  0.26341766137E-01  0.34336187481E-01  0.55593686974E-01  0.51100000000E-03 0. -1.
         11    1    4    4    0    0  0.21724333962E-01  0.30401953229E-01  0.49402702466E-01  0.61944439446E-01  0.51100000000E-03 0.  1.
</event>
<event>
 8    1  0.1123191E+005  0.1043930E+01  0.7957747E-01            NaN
         13   -1    0    0    0    0  0.00000000000E+00  0.00000000000E+00  0.74505805969E-08  0.10566000000E+00  0.10566000000E+00 0.  1.
     999900   -1    0    0    0    0 -0.00000000000E+00 -0.00000000000E+00 -0.74505805969E-08  0.93827000000E+00  0.93827000000E+00 0. -1.
     999902    2    1    2    0    0 -0.79835531473E-02  0.18829193659E-01 -0.11681246723E-01  0.10203773530E+01  0.10201054923E+01 0.  0.
     999903    2    3    3    0    0 -0.11678378573E+00 -0.53133082889E-01 -0.62589491103E-02  0.13074514746E+00  0.24362718119E-01 0.  0.
         14    1    1    2    0    0  0.79835531473E-02 -0.18829193659E-01  0.11681246723E-01  0.23552646979E-01  0.00000000000E+00 0.  1.
     999901    1    3    3    0    0  0.10880023258E+00  0.71962276548E-01 -0.54222976129E-02  0.88963220556E+00  0.88000000000E+00 0. -1.
        -11    1    4    4    0    0 -0.45772789438E-01 -0.19222956517E-01 -0.14234063615E-01  0.51648233253E-01  0.51100000000E-03 0. -1.
         11    1    4    4    0    0 -0.71010996292E-01 -0.33910126372E-01  0.79751145049E-02  0.79096914209E-01  0.51100000000E-03 0.  1.
</event>
<event>
 8    1  0.1123191E+005  0.1043930E+01  0.7957747E-01            NaN
         13   -1    0    0    0    0  0.00000000000E+00  0.00000000000E+00  0.74505805969E-08  0.10566000000E+00  0.10566000000E+00 0. -1.
     999900   -1    0    0    0    0 -0.00000000000E+00 -0.00000000000E+00 -0.74505805969E-08  0.93827000000E+00  0.93827000000E+00 0.  1.
     999902    2    1    2    0    0  0.22378647977E-01 -0.37774289668E-02 -0.82980937218E-02  0.10197653313E+01  0.10194789844E+01 0.  0.
     999903    2    3    3    0    0  0.10837557006E+00 -0.72468795039E-01 -0.15541941183E-01  0.13287951692E+00  0.20455406167E-01 0.  0.
         14    1    1    2    0    0 -0.22378647977E-01  0.37774289668E-02  0.82980937218E-02  0.24164668718E-01  0.00000000000E+00 0. -1.
     999901    1    3    3    0    0 -0.85996922087E-01  0.68691366072E-01  0.72438474613E-02  0.88688581436E+00  0.88000000000E+00 0.  1.
        -11    1    4    4    0    0  0.77790167995E-01 -0.49610155489E-01 -0.17588936670E-02  0.92281268913E-01  0.51100000000E-03 0. -1.
         11    1    4    4    0    0  0.30585402069E-01 -0.22858639550E-01 -0.13783047516E-01  0.40598248011E-01  0.51100000000E-03 0.  1.
</event>
<event>
 8    1  0.1123191E+005  0.1043930E+01  0.7957747E-01            NaN
         13   -1    0    0    0    0  0.00000000000E+00  0.00000000000E+00  0.74505805969E-08  0.10566000000E+00  0.10566000000E+00 0. -1.
     999900   -1    0    0    0    0 -0.00000000000E+00 -0.00000000000E+00 -0.74505805969E-08  0.93827000000E+00  0.93827000000E+00 0.  1.
     999902    2    1    2    0    0  0.61993048118E-02  0.23349238422E-01 -0.84375813944E-02  0.10183407230E+01  0.10180191634E+01 0.  0.
     999903    2    3    3    0    0 -0.35008496709E-01 -0.11095525720E+00  0.43607056113E-01  0.12567929522E+00  0.18895659852E-01 0.  0.
         14    1    1    2    0    0 -0.61993048118E-02 -0.23349238422E-01  0.84375813944E-02  0.25589276950E-01  0.00000000000E+00 0.  1.
     999901    1    3    3    0    0  0.41207801521E-01  0.13430449562E+00 -0.52044637507E-01  0.89266142783E+00  0.88000000000E+00 0.  1.
        -11    1    4    4    0    0 -0.21519311368E-01 -0.81790439404E-01  0.23536069549E-01  0.87789318430E-01  0.51100000000E-03 0.  1.
         11    1    4    4    0    0 -0.13489185341E-01 -0.29164817794E-01  0.20070986564E-01  0.37889976785E-01  0.51100000000E-03 0. -1.
</event>
<event>
 8    1  0.1123191E+005  0.1043930E+01  0.7957747E-01            NaN
         13   -1    0    0    0    0  0.00000000000E+00  0.00000000000E+00  0.74505805969E-08  0.10566000000E+00  0.10566000000E+00 0. -1.
     999900   -1    0    0    0    0 -0.00000000000E+00 -0.00000000000E+00 -0.74505805969E-08  0.93827000000E+00  0.93827000000E+00 0. -1.
     999902    2    1    2    0    0 -0.21608013348E-01  0.71183463385E-02  0.45199316916E-02  0.10207350247E+01  0.10204714517E+01 0.  0.
     999903    2    3    3    0    0  0.14761942770E-01 -0.82945634849E-01 -0.96657061380E-01  0.12962836537E+00  0.19053406516E-01 0.  0.
         14    1    1    2    0    0  0.21608013348E-01 -0.71183463385E-02 -0.45199316916E-02  0.23194975274E-01  0.00000000000E+00 0. -1.
     999901    1    3    3    0    0 -0.36369956119E-01  0.90063981188E-01  0.10117699307E+00  0.89110665935E+00  0.88000000000E+00 0.  1.
        -11    1    4    4    0    0  0.72301734636E-02 -0.45088824258E-01 -0.38005369875E-01  0.59413354910E-01  0.51100000000E-03 0.  1.
         11    1    4    4    0    0  0.75317693069E-02 -0.37856810591E-01 -0.58651691505E-01  0.70215010464E-01  0.51100000000E-03 0. -1.
</event>
<event>
 8    1  0.1123191E+005  0.1043930E+01  0.7957747E-01            NaN
         13   -1    0    0    0    0  0.00000000000E+00  0.00000000000E+00  0.74505805969E-08  0.10566000000E+00  0.10566000000E+00 0.  1.
     999900   -1    0    0    0    0 -0.00000000000E+00 -0.00000000000E+00 -0.74505805969E-08  0.93827000000E+00  0.93827000000E+00 0.  1.
     999902    2    1    2    0    0  0.21032360003E-01  0.86366115815E-02  0.15085953360E-01  0.10166437907E+01  0.10162775507E+01 0.  0.
     999903    2    3    3    0    0 -0.91329761663E-01 -0.80722692491E-01  0.20288897524E-01  0.12499509185E+00  0.18837600038E-01 0.  0.
         14    1    1    2    0    0 -0.21032360003E-01 -0.86366115815E-02 -0.15085953360E-01  0.27286209258E-01  0.00000000000E+00 0. -1.
     999901    1    3    3    0    0  0.11236212167E+00  0.89359304073E-01 -0.52029441645E-02  0.89164869889E+00  0.88000000000E+00 0.  1.
        -11    1    4    4    0    0 -0.66222501032E-01 -0.47692374818E-01  0.17080788841E-01  0.83378634716E-01  0.51100000000E-03 0.  1.
         11    1    4    4    0    0 -0.25107260632E-01 -0.33030317673E-01  0.32081086826E-02  0.41616457133E-01  0.51100000000E-03 0. -1.
</event>
<event>
 8    1  0.1123191E+005  0.1043930E+01  0.7957747E-01            NaN
         13   -1    0    0    0    0  0.00000000000E+00  0.00000000000E+00  0.74505805969E-08  0.10566000000E+00  0.10566000000E+00 0. -1.
     999900   -1    0    0    0    0 -0.00000000000E+00 -0.00000000000E+00 -0.74505805969E-08  0.93827000000E+00  0.93827000000E+00 0. -1.
     999902    2    1    2    0    0 -0.14978622265E-01  0.40967179602E-02  0.17821169468E-01  0.10202923964E+01  0.10200185478E+01 0.  0.
     999903    2    3    3    0    0  0.97379776256E-01 -0.57998094420E-01 -0.55963405608E-01  0.12792232800E+00  0.19637195683E-01 0.  0.
         14    1    1    2    0    0  0.14978622265E-01 -0.40967179602E-02 -0.17821169468E-01  0.23637603606E-01  0.00000000000E+00 0. -1.
     999901    1    3    3    0    0 -0.11235839852E+00  0.62094812380E-01  0.73784575076E-01  0.89237006839E+00  0.88000000000E+00 0.  1.
        -11    1    4    4    0    0  0.28775308150E-01 -0.27626746760E-01 -0.16789836332E-01  0.43282966866E-01  0.51100000000E-03 0.  1.
         11    1    4    4    0    0  0.68604468106E-01 -0.30371347661E-01 -0.39173569276E-01  0.84639361137E-01  0.51100000000E-03 0. -1.
</event>
<event>
 8    1  0.1123191E+005  0.1043930E+01  0.7957747E-01            NaN
         13   -1    0    0    0    0  0.00000000000E+00  0.00000000000E+00  0.74505805969E-08  0.10566000000E+00  0.10566000000E+00 0. -1.
     999900   -1    0    0    0    0 -0.00000000000E+00 -0.00000000000E+00 -0.74505805969E-08  0.93827000000E+00  0.93827000000E+00 0.  1.
     999902    2    1    2    0    0 -0.97059171267E-02 -0.20778505418E-02 -0.19961699804E-01  0.10216366882E+01  0.10213934262E+01 0.  0.
     999903    2    3    3    0    0 -0.82075688567E-01  0.31669155917E-01 -0.99782158475E-01  0.13442332614E+00  0.19333840045E-01 0.  0.
         14    1    1    2    0    0  0.97059171267E-02  0.20778505418E-02  0.19961699804E-01  0.22293311760E-01  0.00000000000E+00 0. -1.
     999901    1    3    3    0    0  0.72369771440E-01 -0.33747006459E-01  0.79820458671E-01  0.88721336210E+00  0.88000000000E+00 0. -1.
        -11    1    4    4    0    0 -0.19053458853E-01  0.72317357278E-02 -0.36609599367E-01  0.41902937639E-01  0.51100000000E-03 0.  1.
         11    1    4    4    0    0 -0.63022229713E-01  0.24437420189E-01 -0.63172559108E-01  0.92520388503E-01  0.51100000000E-03 0. -1.
</event>
<event>
 8    1  0.1123191E+005  0.1043930E+01  0.7957747E-01            NaN
         13   -1    0    0    0    0  0.00000000000E+00  0.00000000000E+00  0.74505805969E-08  0.10566000000E+00  0.10566000000E+00 0. -1.
     999900   -1    0    0    0    0 -0.00000000000E+00 -0.00000000000E+00 -0.74505805969E-08  0.93827000000E+00  0.93827000000E+00 0.  1.
     999902    2    1    2    0    0  0.15014297445E-01  0.24707103112E-02 -0.18035694785E-01  0.10203329700E+01  0.10200600717E+01 0.  0.
     999903    2    3    3    0    0  0.47317780414E-01 -0.51347680264E-01 -0.11151137694E+00  0.13315900888E+00  0.20517744700E-01 0.  0.
         14    1    1    2    0    0 -0.15014297445E-01 -0.24707103112E-02  0.18035694785E-01  0.23597029973E-01  0.00000000000E+00 0. -1.
     999901    1    3    3    0    0 -0.32303482969E-01  0.53818390575E-01  0.93475682157E-01  0.88717396114E+00  0.88000000000E+00 0. -1.
        -11    1    4    4    0    0  0.30342366589E-01 -0.43114512364E-01 -0.91839200743E-01  0.10589721574E+00  0.51100000000E-03 0.  1.
         11    1    4    4    0    0  0.16975413825E-01 -0.82331679001E-02 -0.19672176198E-01  0.27261793147E-01  0.51100000000E-03 0. -1.
</event>
<event>
 8    1  0.1123191E+005  0.1043930E+01  0.7957747E-01            NaN
         13   -1    0    0    0    0  0.00000000000E+00  0.00000000000E+00  0.74505805969E-08  0.10566000000E+00  0.10566000000E+00 0.  1.
     999900   -1    0    0    0    0 -0.00000000000E+00 -0.00000000000E+00 -0.74505805969E-08  0.93827000000E+00  0.93827000000E+00 0.  1.
     999902    2    1    2    0    0 -0.13808162392E-01 -0.18709508010E-01  0.37750303188E-02  0.10203723708E+01  0.10201003937E+01 0.  0.
     999903    2    3    3    0    0 -0.14246973669E-01  0.11285030853E+00  0.58204870075E-01  0.12892927935E+00  0.17227413567E-01 0.  0.
         14    1    1    2    0    0  0.13808162392E-01  0.18709508010E-01 -0.37750303188E-02  0.23557629179E-01  0.00000000000E+00 0.  1.
     999901    1    3    3    0    0  0.43881127621E-03 -0.13155981654E+00 -0.54429839756E-01  0.89144309148E+00  0.88000000000E+00 0.  1.
        -11    1    4    4    0    0 -0.15771245926E-01  0.66422216823E-01  0.39297805064E-01  0.78773229524E-01  0.51100000000E-03 0.  1.
         11    1    4    4    0    0  0.15242722570E-02  0.46428091706E-01  0.18907065011E-01  0.50156049822E-01  0.51100000000E-03 0. -1.
</event>
<event>
 8    1  0.1123191E+005  0.1043930E+01  0.7957747E-01            NaN
         13   -1    0    0    0    0  0.00000000000E+00  0.00000000000E+00  0.74505805969E-08  0.10566000000E+00  0.10566000000E+00 0.  1.
     999900   -1    0    0    0    0 -0.00000000000E+00 -0.00000000000E+00 -0.74505805969E-08  0.93827000000E+00  0.93827000000E+00 0.  1.
     999902    2    1    2    0    0 -0.37397462649E-02  0.21393386964E-01  0.41043411306E-02  0.10218277756E+01  0.10215887111E+01 0.  0.
     999903    2    3    3    0    0  0.51062736339E-01 -0.57899875289E-01  0.10399679273E+00  0.13094661885E+00  0.19284332762E-01 0.  0.
         14    1    1    2    0    0  0.37397462649E-02 -0.21393386964E-01 -0.41043411306E-02  0.22102224413E-01  0.00000000000E+00 0. -1.
     999901    1    3    3    0    0 -0.54802482604E-01  0.79293262253E-01 -0.99892451598E-01  0.89088115673E+00  0.88000000000E+00 0.  1.
        -11    1    4    4    0    0  0.10456530708E-01 -0.21494960110E-01  0.22142078504E-01  0.32586885492E-01  0.51100000000E-03 0.  1.
         11    1    4    4    0    0  0.40606205631E-01 -0.36404915179E-01  0.81854714224E-01  0.98359733360E-01  0.51100000000E-03 0. -1.
</event>
<event>
 8    1  0.1123191E+005  0.1043930E+01  0.7957747E-01            NaN
         13   -1    0    0    0    0  0.00000000000E+00  0.00000000000E+00  0.74505805969E-08  0.10566000000E+00  0.10566000000E+00 0.  1.
     999900   -1    0    0    0    0 -0.00000000000E+00 -0.00000000000E+00 -0.74505805969E-08  0.93827000000E+00  0.93827000000E+00 0. -1.
     999902    2    1    2    0    0 -0.27753220177E-02  0.15746947871E-01 -0.57880614122E-02  0.10269249880E+01  0.10267841840E+01 0.  0.
     999903    2    3    3    0    0  0.41878626773E-01 -0.67695588579E-01 -0.10677245889E+00  0.13610823881E+00  0.28081712937E-01 0.  0.
         14    1    1    2    0    0  0.27753220177E-02 -0.15746947871E-01  0.57880614122E-02  0.17005012039E-01  0.00000000000E+00 0.  1.
     999901    1    3    3    0    0 -0.44653948791E-01  0.83442536450E-01  0.10098439748E+00  0.89081674915E+00  0.88000000000E+00 0.  1.
        -11    1    4    4    0    0  0.35532418114E-01 -0.49836699317E-01 -0.60322785400E-01  0.85938052661E-01  0.51100000000E-03 0.  1.
         11    1    4    4    0    0  0.63462086594E-02 -0.17858889262E-01 -0.46449673489E-01  0.50170186150E-01  0.51100000000E-03 0. -1.
</event>
<event>
 8    1  0.1123191E+005  0.1043930E+01  0.7957747E-01            NaN
         13   -1    0    0    0    0  0.00000000000E+00  0.00000000000E+00  0.74505805969E-08  0.10566000000E+00  0.10566000000E+00 0. -1.
     999900   -1    0    0    0    0 -0.00000000000E+00 -0.00000000000E+00 -0.74505805969E-08  0.93827000000E+00  0.93827000000E+00 0. -1.
     999902    2    1    2    0    0 -0.28927400552E-02  0.23212374937E-01  0.13106765192E-02  0.10205013814E+01  0.10202324095E+01 0.  0.
     999903    2    3    3    0    0 -0.12537010093E+00  0.32097530590E-01  0.15126366022E-01  0.13186730421E+00  0.20304317128E-01 0.  0.
         14    1    1    2    0    0  0.28927400552E-02 -0.23212374937E-01 -0.13106765192E-02  0.23428618572E-01  0.00000000000E+00 0. -1.
     999901    1    3    3    0    0  0.12247736087E+00 -0.88851556528E-02 -0.13815689502E-01  0.88863407722E+00  0.88000000000E+00 0. -1.
        -11    1    4    4    0    0 -0.57323839855E-01  0.17944618278E-01 -0.26438239618E-02  0.60127222346E-01  0.51100000000E-03 0. -1.
         11    1    4    4    0    0 -0.68046261072E-01  0.14152912312E-01  0.17770189983E-01  0.71740081864E-01  0.51100000000E-03 0.  1.
</event>
<event>
 8    1  0.1123191E+005  0.1043930E+01  0.7957747E-01            NaN
         13   -1    0    0    0    0  0.00000000000E+00  0.00000000000E+00  0.74505805969E-08  0.10566000000E+00  0.10566000000E+00 0. -1.
     999900   -1    0    0    0    0 -0.00000000000E+00 -0.00000000000E+00 -0.74505805969E-08  0.93827000000E+00  0.93827000000E+00 0. -1.
     999902    2    1    2    0    0 -0.12346165066E-01  0.20465954961E-01  0.25105028067E-02  0.10198969867E+01  0.10196137885E+01 0.  0.
     999903    2    3    3    0    0  0.67648820835E-01 -0.93055381077E-01  0.51643201395E-01  0.12765244982E+00  0.19810623090E-01 0.  0.
         14    1    1    2    0    0  0.12346165066E-01 -0.20465954961E-01 -0.25105028067E-02  0.24033013308E-01  0.00000000000E+00 0.  1.
     999901    1    3    3    0    0 -0.79994985902E-01  0.11352133604E+00 -0.49132698588E-01  0.89224453687E+00  0.88000000000E+00 0. -1.
        -11    1    4    4    0    0  0.10922230094E-01 -0.23908503864E-01  0.49292304497E-02  0.26748272861E-01  0.51100000000E-03 0. -1.
         11    1    4    4    0    0  0.56726590742E-01 -0.69146877214E-01  0.46713970945E-01  0.10090417696E+00  0.51100000000E-03 0.  1.
</event>
<event>
 8    1  0.1123191E+005  0.1043930E+01  0.7957747E-01            NaN
         13   -1    0    0    0    0  0.00000000000E+00  0.00000000000E+00  0.74505805969E-08  0.10566000000E+00  0.10566000000E+00 0. -1.
     999900   -1    0    0    0    0 -0.00000000000E+00 -0.00000000000E+00 -0.74505805969E-08  0.93827000000E+00  0.93827000000E+00 0.  1.
     999902    2    1    2    0    0  0.92508407391E-02  0.95844459388E-02 -0.19315775151E-01  0.10204664362E+01  0.10201966519E+01 0.  0.
     999903    2    3    3    0    0 -0.34538654848E-01  0.10070620924E+00 -0.76825403596E-01  0.13281332090E+00  0.20064304415E-01 0.  0.
         14    1    1    2    0    0 -0.92508407391E-02 -0.95844459388E-02  0.19315775151E-01  0.23463563838E-01  0.00000000000E+00 0. -1.
     999901    1    3    3    0    0  0.43789495587E-01 -0.91121763305E-01  0.57509628445E-01  0.88765311526E+00  0.88000000000E+00 0.  1.
        -11    1    4    4    0    0 -0.45526268053E-02  0.37797197362E-01 -0.20738847463E-01  0.43355685375E-01  0.51100000000E-03 0. -1.
         11    1    4    4    0    0 -0.29986028043E-01  0.62909011881E-01 -0.56086556133E-01  0.89457635523E-01  0.51100000000E-03 0.  1.
</event>
<event>
 8    1  0.1123191E+005  0.1043930E+01  0.7957747E-01            NaN
         13   -1    0    0    0    0  0.00000000000E+00  0.00000000000E+00  0.74505805969E-08  0.10566000000E+00  0.10566000000E+00 0. -1.
     999900   -1    0    0    0    0 -0.00000000000E+00 -0.00000000000E+00 -0.74505805969E-08  0.93827000000E+00  0.93827000000E+00 0. -1.
     999902    2    1    2    0    0 -0.21788412276E-01 -0.40445631605E-02  0.91704592449E-02  0.10199468659E+01  0.10196648559E+01 0.  0.
     999903    2    3    3    0    0 -0.84695348087E-01  0.84728311226E-01 -0.49738524342E-01  0.13129160415E+00  0.20282401412E-01 0.  0.
         14    1    1    2    0    0  0.21788412276E-01  0.40445631605E-02 -0.91704592449E-02  0.23983134146E-01  0.00000000000E+00 0. -1.
     999901    1    3    3    0    0  0.62906935810E-01 -0.88772874386E-01  0.58908983587E-01  0.88865526170E+00  0.88000000000E+00 0.  1.
        -11    1    4    4    0    0 -0.52209591372E-01  0.57582072958E-01 -0.41661709209E-01  0.88190111081E-01  0.51100000000E-03 0.  1.
         11    1    4    4    0    0 -0.32485756715E-01  0.27146238268E-01 -0.80768151329E-02  0.43101493073E-01  0.51100000000E-03 0. -1.
</event>
<event>
 8    1  0.1123191E+005  0.1043930E+01  0.7957747E-01            NaN
         13   -1    0    0    0    0  0.00000000000E+00  0.00000000000E+00  0.74505805969E-08  0.10566000000E+00  0.10566000000E+00 0. -1.
     999900   -1    0    0    0    0 -0.00000000000E+00 -0.00000000000E+00 -0.74505805969E-08  0.93827000000E+00  0.93827000000E+00 0. -1.
     999902    2    1    2    0    0 -0.20137574574E-01 -0.10524150427E-01 -0.71250139382E-02  0.10201172833E+01  0.10198393139E+01 0.  0.
     999903    2    3    3    0    0 -0.31716861286E-01  0.79739193715E-01 -0.96693489375E-01  0.13090186343E+00  0.20527266224E-01 0.  0.
         14    1    1    2    0    0  0.20137574574E-01  0.10524150427E-01  0.71250139382E-02  0.23812716677E-01  0.00000000000E+00 0. -1.
     999901    1    3    3    0    0  0.11579286711E-01 -0.90263344142E-01  0.89568475437E-01  0.88921541989E+00  0.88000000000E+00 0.  1.
        -11    1    4    4    0    0 -0.11758763851E-01  0.55463448527E-01 -0.59086770531E-01  0.81889988537E-01  0.51100000000E-03 0. -1.
         11    1    4    4    0    0 -0.19958097434E-01  0.24275745189E-01 -0.37606718844E-01  0.49011874897E-01  0.51100000000E-03 0.  1.
</event>
<event>
 8    1  0.1123191E+005  0.1043930E+01  0.7957747E-01            NaN
         13   -1    0    0    0    0  0.00000000000E+00  0.00000000000E+00  0.74505805969E-08  0.10566000000E+00  0.10566000000E+00 0.  1.
     999900   -1    0    0    0    0 -0.00000000000E+00 -0.00000000000E+00 -0.74505805969E-08  0.93827000000E+00  0.93827000000E+00 0.  1.
     999902    2    1    2    0    0  0.13140099479E-02 -0.10063365039E-01  0.21779586439E-01  0.10199019263E+01  0.10196188460E+01 0.  0.
     999903    2    3    3    0    0  0.42917222514E-02 -0.12937550327E+00  0.14622808515E-01  0.13181664183E+00  0.20133574147E-01 0.  0.
         14    1    1    2    0    0 -0.13140099479E-02  0.10063365039E-01 -0.21779586439E-01  0.24028073654E-01  0.00000000000E+00 0. -1.
     999901    1    3    3    0    0 -0.29777123035E-02  0.11931213823E+00  0.71567779239E-02  0.88808528451E+00  0.88000000000E+00 0. -1.
        -11    1    4    4    0    0 -0.75225917172E-02 -0.44483654120E-01  0.82719474898E-02  0.45870154854E-01  0.51100000000E-03 0. -1.
         11    1    4    4    0    0  0.11814313969E-01 -0.84891849153E-01  0.63508610256E-02  0.85946486978E-01  0.51100000000E-03 0.  1.
</event>
<event>
 8    1  0.1123191E+005  0.1043930E+01  0.7957747E-01            NaN
         13   -1    0    0    0    0  0.00000000000E+00  0.00000000000E+00  0.74505805969E-08  0.10566000000E+00  0.10566000000E+00 0. -1.
     999900   -1    0    0    0    0 -0.00000000000E+00 -0.00000000000E+00 -0.74505805969E-08  0.93827000000E+00  0.93827000000E+00 0.  1.
     999902    2    1    2    0    0 -0.16486731193E-01 -0.56382253224E-02  0.16900093393E-01  0.10196562478E+01  0.10193672786E+01 0.  0.
     999903    2    3    3    0    0  0.10933356091E+00 -0.19774212660E-02  0.66798208512E-01  0.12930015650E+00  0.17285603054E-01 0.  0.
         14    1    1    2    0    0  0.16486731193E-01  0.56382253224E-02 -0.16900093393E-01  0.24273752221E-01  0.00000000000E+00 0. -1.
     999901    1    3    3    0    0 -0.12582029210E+00 -0.36608040563E-02 -0.49898115120E-01  0.89035609128E+00  0.88000000000E+00 0.  1.
        -11    1    4    4    0    0  0.52455945910E-01  0.46052161068E-02  0.39721834661E-01  0.65961500487E-01  0.51100000000E-03 0.  1.
         11    1    4    4    0    0  0.56877615002E-01 -0.65826373728E-02  0.27076373852E-01  0.63338656009E-01  0.51100000000E-03 0. -1.
</event>
<event>
 8    1  0.1123191E+005  0.1043930E+01  0.7957747E-01            NaN
         13   -1    0    0    0    0  0.00000000000E+00  0.00000000000E+00  0.74505805969E-08  0.10566000000E+00  0.10566000000E+00 0.  1.
     999900   -1    0    0    0    0 -0.00000000000E+00 -0.00000000000E+00 -0.74505805969E-08  0.93827000000E+00  0.93827000000E+00 0.  1.
     999902    2    1    2    0    0 -0.44385253457E-02 -0.13580755734E-01 -0.18753544406E-01  0.10203538921E+01  0.10200814832E+01 0.  0.
     999903    2    3    3    0    0 -0.46414102775E-03 -0.15733732714E-01  0.12599873417E+00  0.12851665745E+00  0.19826357696E-01 0.  0.
         14    1    1    2    0    0  0.44385253457E-02  0.13580755734E-01  0.18753544406E-01  0.23576107850E-01  0.00000000000E+00 0.  1.
     999901    1    3    3    0    0 -0.39743843180E-02  0.21529769802E-02 -0.14475227857E+00  0.89183723470E+00  0.88000000000E+00 0.  1.
        -11    1    4    4    0    0 -0.97196634422E-02 -0.79652959061E-02  0.49773683716E-01  0.51338080486E-01  0.51100000000E-03 0.  1.
         11    1    4    4    0    0  0.92555224144E-02 -0.77684368082E-02  0.76225050450E-01  0.77178576967E-01  0.51100000000E-03 0. -1.
</event>
<event>
 8    1  0.1123191E+005  0.1043930E+01  0.7957747E-01            NaN
         13   -1    0    0    0    0  0.00000000000E+00  0.00000000000E+00  0.74505805969E-08  0.10566000000E+00  0.10566000000E+00 0. -1.
     999900   -1    0    0    0    0 -0.00000000000E+00 -0.00000000000E+00 -0.74505805969E-08  0.93827000000E+00  0.93827000000E+00 0. -1.
     999902    2    1    2    0    0 -0.11768124693E-01  0.93707707330E-02 -0.17950217731E-01  0.10205097007E+01  0.10202409219E+01 0.  0.
     999903    2    3    3    0    0 -0.11640084492E+00 -0.16843683110E-01  0.54536698090E-01  0.13096512244E+00  0.18567323412E-01 0.  0.
         14    1    1    2    0    0  0.11768124693E-01 -0.93707707330E-02  0.17950217731E-01  0.23420299305E-01  0.00000000000E+00 0. -1.
     999901    1    3    3    0    0  0.10463272023E+00  0.26214453843E-01 -0.72486915821E-01  0.88954457825E+00  0.88000000000E+00 0. -1.
        -11    1    4    4    0    0 -0.75337963776E-01 -0.60400630498E-02  0.26552311233E-01  0.80109784049E-01  0.51100000000E-03 0.  1.
         11    1    4    4    0    0 -0.41062881146E-01 -0.10803620060E-01  0.27984386857E-01  0.50855338394E-01  0.51100000000E-03 0. -1.
</event>
<event>
 8    1  0.1123191E+005  0.1043930E+01  0.7957747E-01            NaN
         13   -1    0    0    0    0  0.00000000000E+00  0.00000000000E+00  0.74505805969E-08  0.10566000000E+00  0.10566000000E+00 0. -1.
     999900   -1    0    0    0    0 -0.00000000000E+00 -0.00000000000E+00 -0.74505805969E-08  0.93827000000E+00  0.93827000000E+00 0.  1.
     999902    2    1    2    0    0 -0.21889889108E-01 -0.12424557376E-01  0.21788029152E-02  0.10186657159E+01  0.10183523735E+01 0.  0.
     999903    2    3    3    0    0  0.69934254621E-01 -0.77280730140E-01  0.72696058282E-01  0.12871589715E+00  0.20492780881E-01 0.  0.
         14    1    1    2    0    0  0.21889889108E-01  0.12424557376E-01 -0.21788029152E-02  0.25264284143E-01  0.00000000000E+00 0.  1.
     999901    1    3    3    0    0 -0.91824143729E-01  0.64856172764E-01 -0.70517255367E-01  0.88994981871E+00  0.88000000000E+00 0.  1.
        -11    1    4    4    0    0  0.20506377872E-01 -0.13882742292E-01  0.25238819812E-01  0.35362426578E-01  0.51100000000E-03 0.  1.
         11    1    4    4    0    0  0.49427876749E-01 -0.63397987848E-01  0.47457238470E-01  0.93353470569E-01  0.51100000000E-03 0. -1.
</event>
<event>
 8    1  0.1123191E+005  0.1043930E+01  0.7957747E-01            NaN
         13   -1    0    0    0    0  0.00000000000E+00  0.00000000000E+00  0.74505805969E-08  0.10566000000E+00  0.10566000000E+00 0.  1.
     999900   -1    0    0    0    0 -0.00000000000E+00 -0.00000000000E+00 -0.74505805969E-08  0.93827000000E+00  0.93827000000E+00 0.  1.
     999902    2    1    2    0    0  0.93576661138E-03  0.22887082976E-01 -0.66689564948E-02  0.10200727326E+01  0.10197937098E+01 0.  0.
     999903    2    3    3    0    0 -0.10017052677E+00 -0.77892512704E-01 -0.51013615338E-02  0.12856756335E+00  0.20055335686E-01 0.  0.
         14    1    1    2    0    0 -0.93576661138E-03 -0.22887082976E-01  0.66689564948E-02  0.23857267384E-01  0.00000000000E+00 0.  1.
     999901    1    3    3    0    0  0.10110629338E+00  0.10077959568E+00 -0.15675949610E-02  0.89150516926E+00  0.88000000000E+00 0. -1.
        -11    1    4    4    0    0 -0.63823702730E-01 -0.37090259369E-01 -0.30575775414E-02  0.73883437059E-01  0.51100000000E-03 0. -1.
         11    1    4    4    0    0 -0.36346824037E-01 -0.40802253335E-01 -0.20437839924E-02  0.54684126296E-01  0.51100000000E-03 0.  1.
</event>
<event>
 8    1  0.1123191E+005  0.1043930E+01  0.7957747E-01            NaN
         13   -1    0    0    0    0  0.00000000000E+00  0.00000000000E+00  0.74505805969E-08  0.10566000000E+00  0.10566000000E+00 0.  1.
     999900   -1    0    0    0    0 -0.00000000000E+00 -0.00000000000E+00 -0.74505805969E-08  0.93827000000E+00  0.93827000000E+00 0.  1.
     999902    2    1    2    0    0  0.17366236433E-01  0.11740396157E-01  0.12289266928E-01  0.10196308405E+01  0.10193412587E+01 0.  0.
     999903    2    3    3    0    0  0.12703467551E+00  0.53809703633E-02  0.32126744392E-01  0.13257890611E+00  0.19449293449E-01 0.  0.
         14    1    1    2    0    0 -0.17366236433E-01 -0.11740396157E-01 -0.12289266928E-01  0.24299159479E-01  0.00000000000E+00 0.  1.
     999901    1    3    3    0    0 -0.10966843908E+00  0.63594257934E-02 -0.19837477464E-01  0.88705193441E+00  0.88000000000E+00 0. -1.
        -11    1    4    4    0    0  0.84637760758E-01 -0.23397495586E-02  0.13984255018E-01  0.85818677941E-01  0.51100000000E-03 0. -1.
         11    1    4    4    0    0  0.42396914755E-01  0.77207199219E-02  0.18142489373E-01  0.46760228170E-01  0.51100000000E-03 0.  1.
</event>
<event>
 8    1  0.1123191E+005  0.1043930E+01  0.7957747E-01            NaN
         13   -1    0    0    0    0  0.00000000000E+00  0.00000000000E+00  0.74505805969E-08  0.10566000000E+00  0.10566000000E+00 0. -1.
     999900   -1    0    0    0    0 -0.00000000000E+00 -0.00000000000E+00 -0.74505805969E-08  0.93827000000E+00  0.93827000000E+00 0. -1.
     999902    2    1    2    0    0 -0.10864546617E-02  0.23229444368E-01 -0.24417352253E-02  0.10205473239E+01  0.10202794180E+01 0.  0.
     999903    2    3    3    0    0  0.99166804403E-01 -0.22409243713E-01  0.78520536241E-01  0.12999216269E+00  0.19906241491E-01 0.  0.
         14    1    1    2    0    0  0.10864546617E-02 -0.23229444368E-01  0.24417352253E-02  0.23382676072E-01  0.00000000000E+00 0. -1.
     999901    1    3    3    0    0 -0.10025325906E+00  0.45638688081E-01 -0.80962271467E-01  0.89055516124E+00  0.88000000000E+00 0. -1.
        -11    1    4    4    0    0  0.39554633578E-01 -0.48933187273E-02  0.19823133086E-01  0.44516641069E-01  0.51100000000E-03 0.  1.
         11    1    4    4    0    0  0.59612170825E-01 -0.17515924986E-01  0.58697403155E-01  0.85475521623E-01  0.51100000000E-03 0. -1.
</event>
<event>
 8    1  0.1123191E+005  0.1043930E+01  0.7957747E-01            NaN
         13   -1    0    0    0    0  0.00000000000E+00  0.00000000000E+00  0.74505805969E-08  0.10566000000E+00  0.10566000000E+00 0. -1.
     999900   -1    0    0    0    0 -0.00000000000E+00 -0.00000000000E+00 -0.74505805969E-08  0.93827000000E+00  0.93827000000E+00 0. -1.
     999902    2    1    2    0    0 -0.16528206163E-01 -0.11074549714E-01 -0.54678075279E-02  0.10232969157E+01  0.10230888786E+01 0.  0.
     999903    2    3    3    0    0  0.10408292461E+00 -0.65954853945E-01 -0.44662199897E-01  0.13251350031E+00  0.19540156381E-01 0.  0.
         14    1    1    2    0    0  0.16528206163E-01  0.11074549714E-01  0.54678075279E-02  0.20633084343E-01  0.00000000000E+00 0.  1.
     999901    1    3    3    0    0 -0.12061113077E+00  0.54880304231E-01  0.39194392369E-01  0.89078341534E+00  0.88000000000E+00 0.  1.
        -11    1    4    4    0    0  0.78937620794E-01 -0.41816662410E-01 -0.26347918601E-01  0.93135681494E-01  0.51100000000E-03 0.  1.
         11    1    4    4    0    0  0.25145303815E-01 -0.24138191535E-01 -0.18314281296E-01  0.39377818819E-01  0.51100000000E-03 0. -1.
</event>
<event>
 8    1  0.1123191E+005  0.1043930E+01  0.7957747E-01            NaN
         13   -1    0    0    0    0  0.00000000000E+00  0.00000000000E+00  0.74505805969E-08  0.10566000000E+00  0.10566000000E+00 0. -1.
     999900   -1    0    0    0    0 -0.00000000000E+00 -0.00000000000E+00 -0.74505805969E-08  0.93827000000E+00  0.93827000000E+00 0.  1.
     999902    2    1    2    0    0  0.35027721447E-02 -0.23368428880E-01  0.43094524774E-03  0.10202965789E+01  0.10200228283E+01 0.  0.
     999903    2    3    3    0    0  0.25750399102E-01 -0.37356097438E-01  0.12183877647E+00  0.13157250849E+00  0.20200902635E-01 0.  0.
         14    1    1    2    0    0 -0.35027721447E-02  0.23368428880E-01 -0.43094524774E-03  0.23633421140E-01  0.00000000000E+00 0.  1.
     999901    1    3    3    0    0 -0.22247626958E-01  0.13987668559E-01 -0.12140783123E+00  0.88872407037E+00  0.88000000000E+00 0.  1.
        -11    1    4    4    0    0  0.26717903074E-01 -0.28490586956E-01  0.83181654483E-01  0.91896728197E-01  0.51100000000E-03 0. -1.
         11    1    4    4    0    0 -0.96750397146E-03 -0.88655104827E-02  0.38657121990E-01  0.39675780290E-01  0.51100000000E-03 0.  1.
</event>
<event>
 8    1  0.1123191E+005  0.1043930E+01  0.7957747E-01            NaN
         13   -1    0    0    0    0  0.00000000000E+00  0.00000000000E+00  0.74505805969E-08  0.10566000000E+00  0.10566000000E+00 0.  1.
     999900   -1    0    0    0    0 -0.00000000000E+00 -0.00000000000E+00 -0.74505805969E-08  0.93827000000E+00  0.93827000000E+00 0. -1.
     999902    2    1    2    0    0  0.12235535355E-01 -0.27263534583E-02 -0.20801519611E-01  0.10196432846E+01  0.10193540029E+01 0.  0.
     999903    2    3    3    0    0  0.73247694835E-01 -0.32653018164E-02  0.10402562338E+00  0.12874228574E+00  0.19425725847E-01 0.  0.
         14    1    1    2    0    0 -0.12235535355E-01  0.27263534583E-02  0.20801519611E-01  0.24286715438E-01  0.00000000000E+00 0.  1.
     999901    1    3    3    0    0 -0.61012159480E-01  0.53894835814E-03 -0.12482714299E+00  0.89090099882E+00  0.88000000000E+00 0. -1.
        -11    1    4    4    0    0  0.59158152845E-01 -0.15033617163E-02  0.68749321633E-01  0.90712058131E-01  0.51100000000E-03 0.  1.
         11    1    4    4    0    0  0.14089541990E-01 -0.17619401002E-02  0.35276301745E-01  0.38030227612E-01  0.51100000000E-03 0. -1.
</event>
<event>
 8    1  0.1123191E+005  0.1043930E+01  0.7957747E-01            NaN
         13   -1    0    0    0    0  0.00000000000E+00  0.00000000000E+00  0.74505805969E-08  0.10566000000E+00  0.10566000000E+00 0.  1.
     999900   -1    0    0    0    0 -0.00000000000E+00 -0.00000000000E+00 -0.74505805969E-08  0.93827000000E+00  0.93827000000E+00 0. -1.
     999902    2    1    2    0    0 -0.28850642720E-02 -0.20748776090E-01  0.13228473071E-01  0.10191544515E+01  0.10188532613E+01 0.  0.
     999903    2    3    3    0    0  0.44128424753E-01  0.11475710798E+00 -0.23465203836E-01  0.12678763301E+00  0.20198425441E-01 0.  0.
         14    1    1    2    0    0  0.28850642720E-02  0.20748776090E-01 -0.13228473071E-01  0.24775548529E-01  0.00000000000E+00 0. -1.
     999901    1    3    3    0    0 -0.47013489025E-01 -0.13550588407E+00  0.36693676907E-01  0.89236681846E+00  0.88000000000E+00 0.  1.
        -11    1    4    4    0    0  0.12859796945E-01  0.13640149497E-01 -0.33125147601E-02  0.19043684801E-01  0.51100000000E-03 0. -1.
         11    1    4    4    0    0  0.31268627808E-01  0.10111695848E+00 -0.20152689076E-01  0.10774394821E+00  0.51100000000E-03 0.  1.
</event>
<event>
 8    1  0.1123191E+005  0.1043930E+01  0.7957747E-01            NaN
         13   -1    0    0    0    0  0.00000000000E+00  0.00000000000E+00  0.74505805969E-08  0.10566000000E+00  0.10566000000E+00 0. -1.
     999900   -1    0    0    0    0 -0.00000000000E+00 -0.00000000000E+00 -0.74505805969E-08  0.93827000000E+00  0.93827000000E+00 0.  1.
     999902    2    1    2    0    0 -0.16494741323E-01  0.16988988069E-01  0.49743207742E-02  0.10197340071E+01  0.10194469084E+01 0.  0.
     999903    2    3    3    0    0  0.14074326932E-01  0.23666753719E-01  0.12638069002E+00  0.13084786870E+00  0.19770787115E-01 0.  0.
         14    1    1    2    0    0  0.16494741323E-01 -0.16988988069E-01 -0.49743207742E-02  0.24195992934E-01  0.00000000000E+00 0. -1.
     999901    1    3    3    0    0 -0.30569068255E-01 -0.66777656505E-02 -0.12140636924E+00  0.88888613837E+00  0.88000000000E+00 0.  1.
        -11    1    4    4    0    0  0.82033421225E-03  0.14352476836E-01  0.88263031979E-01  0.89427571110E-01  0.51100000000E-03 0. -1.
         11    1    4    4    0    0  0.13253992720E-01  0.93142768832E-02  0.38117658040E-01  0.41420297589E-01  0.51100000000E-03 0.  1.
</event>
<event>
 8    1  0.1123191E+005  0.1043930E+01  0.7957747E-01            NaN
         13   -1    0    0    0    0  0.00000000000E+00  0.00000000000E+00  0.74505805969E-08  0.10566000000E+00  0.10566000000E+00 0. -1.
     999900   -1    0    0    0    0 -0.00000000000E+00 -0.00000000000E+00 -0.74505805969E-08  0.93827000000E+00  0.93827000000E+00 0. -1.
     999902    2    1    2    0    0  0.22130610959E-01  0.84477528060E-02  0.10953554268E-03  0.10202415964E+01  0.10199665556E+01 0.  0.
     999903    2    3    3    0    0  0.84240424186E-01 -0.95803514620E-01 -0.25504182421E-01  0.13154478743E+00  0.19462921115E-01 0.  0.
         14    1    1    2    0    0 -0.22130610959E-01 -0.84477528060E-02 -0.10953554268E-03  0.23688403638E-01  0.00000000000E+00 0.  1.
     999901    1    3    3    0    0 -0.62109813227E-01  0.10425126743E+00  0.25613717964E-01  0.88869680893E+00  0.88000000000E+00 0.  1.
        -11    1    4    4    0    0  0.69217127117E-01 -0.77538087080E-01 -0.12888922230E-01  0.10473562465E+00  0.51100000000E-03 0. -1.
         11    1    4    4    0    0  0.15023297068E-01 -0.18265427540E-01 -0.12615260191E-01  0.26809162775E-01  0.51100000000E-03 0.  1.
</event>
<event>
 8    1  0.1123191E+005  0.1043930E+01  0.7957747E-01            NaN
         13   -1    0    0    0    0  0.00000000000E+00  0.00000000000E+00  0.74505805969E-08  0.10566000000E+00  0.10566000000E+00 0.  1.
     999900   -1    0    0    0    0 -0.00000000000E+00 -0.00000000000E+00 -0.74505805969E-08  0.93827000000E+00  0.93827000000E+00 0.  1.
     999902    2    1    2    0    0 -0.12332423810E-01 -0.15602657666E-01 -0.12843520060E-01  0.10202553805E+01  0.10199806634E+01 0.  0.
     999903    2    3    3    0    0  0.11242769284E+00  0.24209425773E-01 -0.58450724140E-01  0.12939618520E+00  0.10040078572E-01 0.  0.
         14    1    1    2    0    0  0.12332423810E-01  0.15602657666E-01  0.12843520060E-01  0.23674619549E-01  0.00000000000E+00 0.  1.
     999901    1    3    3    0    0 -0.12476011665E+00 -0.39812083439E-01  0.45607204080E-01  0.89085919525E+00  0.88000000000E+00 0. -1.
        -11    1    4    4    0    0  0.35829315971E-01  0.34283425337E-02 -0.20436605369E-01  0.41393349412E-01  0.51100000000E-03 0. -1.
         11    1    4    4    0    0  0.76598376874E-01  0.20781083239E-01 -0.38014118770E-01  0.88002835790E-01  0.51100000000E-03 0.  1.
</event>
<event>
 8    1  0.1123191E+005  0.1043930E+01  0.7957747E-01            NaN
         13   -1    0    0    0    0  0.00000000000E+00  0.00000000000E+00  0.74505805969E-08  0.10566000000E+00  0.10566000000E+00 0.  1.
     999900   -1    0    0    0    0 -0.00000000000E+00 -0.00000000000E+00 -0.74505805969E-08  0.93827000000E+00  0.93827000000E+00 0.  1.
     999902    2    1    2    0    0 -0.12446966821E-01 -0.13912843242E-01  0.17188306563E-01  0.10185541833E+01  0.10182380332E+01 0.  0.
     999903    2    3    3    0    0  0.11215272488E-01  0.12478056296E+00  0.72588494444E-02  0.12732225132E+00  0.21501012914E-01 0.  0.
         14    1    1    2    0    0  0.12446966821E-01  0.13912843242E-01 -0.17188306563E-01  0.25375816688E-01  0.00000000000E+00 0. -1.
     999901    1    3    3    0    0 -0.23662239308E-01 -0.13869340620E+00  0.99294571185E-02  0.89123193200E+00  0.88000000000E+00 0.  1.
        -11    1    4    4    0    0  0.88081314657E-03  0.10159527753E-01  0.67392072776E-02  0.12233963859E-01  0.51100000000E-03 0.  1.
         11    1    4    4    0    0  0.10334459341E-01  0.11462103520E+00  0.51964216680E-03  0.11508828746E+00  0.51100000000E-03 0. -1.
</event>
<event>
 8    1  0.1123191E+005  0.1043930E+01  0.7957747E-01            NaN
         13   -1    0    0    0    0  0.00000000000E+00  0.00000000000E+00  0.74505805969E-08  0.10566000000E+00  0.10566000000E+00 0.  1.
     999900   -1    0    0    0    0 -0.00000000000E+00 -0.00000000000E+00 -0.74505805969E-08  0.93827000000E+00  0.93827000000E+00 0. -1.
     999902    2    1    2    0    0 -0.16028957614E-01  0.12360023731E-02  0.17833022801E-01  0.10199201710E+01  0.10196375255E+01 0.  0.
     999903    2    3    3    0    0  0.91082291178E-01 -0.72962178450E-01  0.53628376602E-01  0.12960590237E+00  0.17384588067E-01 0.  0.
         14    1    1    2    0    0  0.16028957614E-01 -0.12360023731E-02 -0.17833022801E-01  0.24009828951E-01  0.00000000000E+00 0. -1.
     999901    1    3    3    0    0 -0.10711124879E+00  0.74198180824E-01 -0.35795353801E-01  0.89031426868E+00  0.88000000000E+00 0.  1.
        -11    1    4    4    0    0  0.57767880857E-01 -0.50062765009E-01  0.43394185554E-01  0.87901791563E-01  0.51100000000E-03 0. -1.
         11    1    4    4    0    0  0.33314410321E-01 -0.22899413441E-01  0.10234191048E-01  0.41704110809E-01  0.51100000000E-03 0.  1.
</event>
<event>
 8    1  0.1123191E+005  0.1043930E+01  0.7957747E-01            NaN
         13   -1    0    0    0    0  0.00000000000E+00  0.00000000000E+00  0.74505805969E-08  0.10566000000E+00  0.10566000000E+00 0. -1.
     999900   -1    0    0    0    0 -0.00000000000E+00 -0.00000000000E+00 -0.74505805969E-08  0.93827000000E+00  0.93827000000E+00 0.  1.
     999902    2    1    2    0    0  0.17947015922E-01 -0.42720587391E-02  0.13757684819E-01  0.10209165309E+01  0.10206571135E+01 0.  0.
     999903    2    3    3    0    0 -0.10107089202E+00 -0.75612965729E-01  0.23547541513E-01  0.12998969404E+00  0.20253099625E-01 0.  0.
         14    1    1    2    0    0 -0.17947015922E-01  0.42720587391E-02 -0.13757684819E-01  0.23013469056E-01  0.00000000000E+00 0.  1.
     999901    1    3    3    0    0  0.11901790795E+00  0.71340906990E-01 -0.97898566935E-02  0.89092683690E+00  0.88000000000E+00 0.  1.
        -11    1    4    4    0    0 -0.45431290156E-01 -0.38772433440E-01  0.16350619503E-02  0.59751470849E-01  0.51100000000E-03 0. -1.
         11    1    4    4    0    0 -0.55639601868E-01 -0.36840532289E-01  0.21912479563E-01  0.70238223191E-01  0.51100000000E-03 0.  1.
</event>
<event>
 8    1  0.1123191E+005  0.1043930E+01  0.7957747E-01            NaN
         13   -1    0    0    0    0  0.00000000000E+00  0.00000000000E+00  0.74505805969E-08  0.10566000000E+00  0.10566000000E+00 0.  1.
     999900   -1    0    0    0    0 -0.00000000000E+00 -0.00000000000E+00 -0.74505805969E-08  0.93827000000E+00  0.93827000000E+00 0. -1.
     999902    2    1    2    0    0  0.14628333882E-01  0.17232004486E-01 -0.82111297291E-02  0.10198810337E+01  0.10195974549E+01 0.  0.
     999903    2    3    3    0    0 -0.11546013431E+00  0.34884544997E-01 -0.42362222848E-01  0.12948734606E+00  0.20601960406E-01 0.  0.
         14    1    1    2    0    0 -0.14628333882E-01 -0.17232004486E-01  0.82111297291E-02  0.24048966344E-01  0.00000000000E+00 0.  1.
     999901    1    3    3    0    0  0.13008846819E+00 -0.17652540511E-01  0.34151093119E-01  0.89039368759E+00  0.88000000000E+00 0. -1.
        -11    1    4    4    0    0 -0.56498049509E-01  0.22498232709E-01 -0.30674291528E-01  0.68112945577E-01  0.51100000000E-03 0.  1.
         11    1    4    4    0    0 -0.58962084797E-01  0.12386312287E-01 -0.11687931319E-01  0.61374400487E-01  0.51100000000E-03 0. -1.
</event>
<event>
 8    1  0.1123191E+005  0.1043930E+01  0.7957747E-01            NaN
         13   -1    0    0    0    0  0.00000000000E+00  0.00000000000E+00  0.74505805969E-08  0.10566000000E+00  0.10566000000E+00 0.  1.
     999900   -1    0    0    0    0 -0.00000000000E+00 -0.00000000000E+00 -0.74505805969E-08  0.93827000000E+00  0.93827000000E+00 0.  1.
     999902    2    1    2    0    0 -0.14844287471E-01  0.10214487478E-01 -0.16237709651E-01  0.10196740350E+01  0.10193854942E+01 0.  0.
     999903    2    3    3    0    0 -0.10463579751E+00  0.71662165697E-01  0.29773793675E-01  0.13178024015E+00  0.19885592543E-01 0.  0.
         14    1    1    2    0    0  0.14844287471E-01 -0.10214487478E-01  0.16237709651E-01  0.24255965033E-01  0.00000000000E+00 0. -1.
     999901    1    3    3    0    0  0.89791510043E-01 -0.61447678219E-01 -0.46011503326E-01  0.88789379482E+00  0.88000000000E+00 0.  1.
        -11    1    4    4    0    0 -0.72436388938E-01  0.42239147415E-01  0.12131046631E-01  0.84726615831E-01  0.51100000000E-03 0. -1.
         11    1    4    4    0    0 -0.32199408576E-01  0.29423018282E-01  0.17642747044E-01  0.47053624321E-01  0.51100000000E-03 0.  1.
</event>
<event>
 8    1  0.1123191E+005  0.1043930E+01  0.7957747E-01            NaN
         13   -1    0    0    0    0  0.00000000000E+00  0.00000000000E+00  0.74505805969E-08  0.10566000000E+00  0.10566000000E+00 0. -1.
     999900   -1    0    0    0    0 -0.00000000000E+00 -0.00000000000E+00 -0.74505805969E-08  0.93827000000E+00  0.93827000000E+00 0.  1.
     999902    2    1    2    0    0  0.64176335639E-02  0.10353554759E-01 -0.20580431035E-01  0.10200148111E+01  0.10197344158E+01 0.  0.
     999903    2    3    3    0    0 -0.12197661137E+00 -0.89305285413E-03  0.36133355185E-01  0.12882009512E+00  0.20246142474E-01 0.  0.
         14    1    1    2    0    0 -0.64176335639E-02 -0.10353554759E-01  0.20580431035E-01  0.23915188862E-01  0.00000000000E+00 0. -1.
     999901    1    3    3    0    0  0.12839424493E+00  0.11246607613E-01 -0.56713786220E-01  0.89119471602E+00  0.88000000000E+00 0.  1.
        -11    1    4    4    0    0 -0.10614302777E+00  0.60426418739E-02  0.32192616993E-01  0.11108321914E+00  0.51100000000E-03 0.  1.
         11    1    4    4    0    0 -0.15833583600E-01 -0.69356947280E-02  0.39407381923E-02  0.17736875979E-01  0.51100000000E-03 0. -1.
</event>
<event>
 8    1  0.1123191E+005  0.1043930E+01  0.7957747E-01            NaN
         13   -1    0    0    0    0  0.00000000000E+00  0.00000000000E+00  0.74505805969E-08  0.10566000000E+00  0.10566000000E+00 0. -1.
     999900   -1    0    0    0    0 -0.00000000000E+00 -0.00000000000E+00 -0.74505805969E-08  0.93827000000E+00  0.93827000000E+00 0.  1.
     999902    2    1    2    0    0 -0.17246523032E-01  0.12405440860E-01 -0.11443718206E-01  0.10197991856E+01  0.10195136501E+01 0.  0.
     999903    2    3    3    0    0 -0.74830345155E-01  0.81452356194E-01  0.68740466955E-01  0.13159150903E+00  0.18894617354E-01 0.  0.
         14    1    1    2    0    0  0.17246523032E-01 -0.12405440860E-01  0.11443718206E-01  0.24130814449E-01  0.00000000000E+00 0. -1.
     999901    1    3    3    0    0  0.57583822123E-01 -0.69046915334E-01 -0.80184185161E-01  0.88820767652E+00  0.88000000000E+00 0. -1.
        -11    1    4    4    0    0 -0.31098584695E-01  0.41016060831E-01  0.22462115663E-01  0.56162683138E-01  0.51100000000E-03 0.  1.
         11    1    4    4    0    0 -0.43731760460E-01  0.40436295363E-01  0.46278351292E-01  0.75428825888E-01  0.51100000000E-03 0. -1.
</event>
<event>
 8    1  0.1123191E+005  0.1043930E+01  0.7957747E-01            NaN
         13   -1    0    0    0    0  0.00000000000E+00  0.00000000000E+00  0.74505805969E-08  0.10566000000E+00  0.10566000000E+00 0. -1.
     999900   -1    0    0    0    0 -0.00000000000E+00 -0.00000000000E+00 -0.74505805969E-08  0.93827000000E+00  0.93827000000E+00 0. -1.
     999902    2    1    2    0    0  0.15293691928E-01 -0.42735443308E-03  0.19075262711E-01  0.10194770801E+01  0.10191837771E+01 0.  0.
     999903    2    3    3    0    0  0.79543133688E-01  0.98445282924E-01 -0.24774877974E-01  0.13053016153E+00  0.20143104104E-01 0.  0.
         14    1    1    2    0    0 -0.15293691928E-01  0.42735443308E-03 -0.19075262711E-01  0.24452919910E-01  0.00000000000E+00 0.  1.
     999901    1    3    3    0    0 -0.64249441760E-01 -0.98872637357E-01  0.43850140685E-01  0.88894691856E+00  0.88000000000E+00 0. -1.
        -11    1    4    4    0    0  0.13575729795E-01  0.27886771912E-01 -0.91853092073E-03  0.31033486869E-01  0.51100000000E-03 0.  1.
         11    1    4    4    0    0  0.65967403893E-01  0.70558511011E-01 -0.23856347053E-01  0.99496674659E-01  0.51100000000E-03 0. -1.
</event>
<event>
 8    1  0.1123191E+005  0.1043930E+01  0.7957747E-01            NaN
         13   -1    0    0    0    0  0.00000000000E+00  0.00000000000E+00  0.74505805969E-08  0.10566000000E+00  0.10566000000E+00 0. -1.
     999900   -1    0    0    0    0 -0.00000000000E+00 -0.00000000000E+00 -0.74505805969E-08  0.93827000000E+00  0.93827000000E+00 0.  1.
     999902    2    1    2    0    0  0.19960364165E-01  0.10230560613E-01  0.70259271955E-02  0.10204258693E+01  0.10201551404E+01 0.  0.
     999903    2    3    3    0    0 -0.30294929834E-01  0.12253342631E+00 -0.29464129993E-01  0.13111768170E+00  0.19786059777E-01 0.  0.
         14    1    1    2    0    0 -0.19960364165E-01 -0.10230560613E-01 -0.70259271955E-02  0.23504130723E-01  0.00000000000E+00 0.  1.
     999901    1    3    3    0    0  0.50255293999E-01 -0.11230286570E+00  0.36490057189E-01  0.88930818758E+00  0.88000000000E+00 0. -1.
        -11    1    4    4    0    0 -0.18605833323E-01  0.72032955819E-01 -0.27250108218E-01  0.79232274211E-01  0.51100000000E-03 0. -1.
         11    1    4    4    0    0 -0.11689096510E-01  0.50500470490E-01 -0.22140217753E-02  0.51885407489E-01  0.51100000000E-03 0.  1.
</event>
<event>
 8    1  0.1123191E+005  0.1043930E+01  0.7957747E-01            NaN
         13   -1    0    0    0    0  0.00000000000E+00  0.00000000000E+00  0.74505805969E-08  0.10566000000E+00  0.10566000000E+00 0.  1.
     999900   -1    0    0    0    0 -0.00000000000E+00 -0.00000000000E+00 -0.74505805969E-08  0.93827000000E+00  0.93827000000E+00 0. -1.
     999902    2    1    2    0    0  0.24606578720E-02 -0.12905129951E-01 -0.19695981293E-01  0.10202545086E+01  0.10199797710E+01 0.  0.
     999903    2    3    3    0    0  0.54565347457E-01 -0.10837411598E-01  0.11421378772E+00  0.12859818441E+00  0.19946856786E-01 0.  0.
         14    1    1    2    0    0 -0.24606578720E-02  0.12905129951E-01  0.19695981293E-01  0.23675491448E-01  0.00000000000E+00 0.  1.
     999901    1    3    3    0    0 -0.52104689585E-01 -0.20677183536E-02 -0.13390976902E+00  0.89165632414E+00  0.88000000000E+00 0. -1.
        -11    1    4    4    0    0  0.42803709677E-01 -0.85137462231E-02  0.10419125274E+00  0.11296335558E+00  0.51100000000E-03 0. -1.
         11    1    4    4    0    0  0.11761637780E-01 -0.23236653746E-02  0.10022534985E-01  0.15634828831E-01  0.51100000000E-03 0.  1.
</event>
<event>
 8    1  0.1123191E+005  0.1043930E+01  0.7957747E-01            NaN
         13   -1    0    0    0    0  0.00000000000E+00  0.00000000000E+00  0.74505805969E-08  0.10566000000E+00  0.10566000000E+00 0.  1.
     999900   -1    0    0    0    0 -0.00000000000E+00 -0.00000000000E+00 -0.74505805969E-08  0.93827000000E+00  0.93827000000E+00 0. -1.
     999902    2    1    2    0    0  0.10002344442E-01  0.11267456935E-01  0.17951898205E-01  0.10204934233E+01  0.10202242664E+01 0.  0.
     999903    2    3    3    0    0 -0.48991164080E-01  0.68793799896E-01  0.10058898037E+00  0.13278941768E+00  0.19549051474E-01 0.  0.
         14    1    1    2    0    0 -0.10002344442E-01 -0.11267456935E-01 -0.17951898205E-01  0.23436576740E-01  0.00000000000E+00 0. -1.
     999901    1    3    3    0    0  0.58993508522E-01 -0.57526342961E-01 -0.82637082161E-01  0.88770400558E+00  0.88000000000E+00 0. -1.
        -11    1    4    4    0    0 -0.78115182304E-02  0.19038258020E-01  0.14561779057E-01  0.25214710305E-01  0.51100000000E-03 0.  1.
         11    1    4    4    0    0 -0.41179645850E-01  0.49755541876E-01  0.86027201309E-01  0.10757470737E+00  0.51100000000E-03 0. -1.
</event>
<event>
 8    1  0.1123191E+005  0.1043930E+01  0.7957747E-01            NaN
         13   -1    0    0    0    0  0.00000000000E+00  0.00000000000E+00  0.74505805969E-08  0.10566000000E+00  0.10566000000E+00 0. -1.
     999900   -1    0    0    0    0 -0.00000000000E+00 -0.00000000000E+00 -0.74505805969E-08  0.93827000000E+00  0.93827000000E+00 0. -1.
     999902    2    1    2    0    0 -0.39724415099E-02 -0.23080203666E-01 -0.31374391893E-02  0.10203012121E+01  0.10200275701E+01 0.  0.
     999903    2    3    3    0    0 -0.92972003435E-01  0.86487453622E-01  0.10429194557E-01  0.12894828139E+00  0.19875062688E-01 0.  0.
         14    1    1    2    0    0  0.39724415099E-02  0.23080203666E-01  0.31374391893E-02  0.23628787897E-01  0.00000000000E+00 0. -1.
     999901    1    3    3    0    0  0.88999561925E-01 -0.10956765729E+00 -0.13566633746E-01  0.89135293072E+00  0.88000000000E+00 0.  1.
        -11    1    4    4    0    0 -0.44502374330E-01  0.44717383761E-01  0.14832284599E-01  0.64810211532E-01  0.51100000000E-03 0.  1.
         11    1    4    4    0    0 -0.48469629105E-01  0.41770069861E-01 -0.44030900425E-02  0.64138069855E-01  0.51100000000E-03 0. -1.
</event>
<event>
 8    1  0.1123191E+005  0.1043930E+01  0.7957747E-01            NaN
         13   -1    0    0    0    0  0.00000000000E+00  0.00000000000E+00  0.74505805969E-08  0.10566000000E+00  0.10566000000E+00 0. -1.
     999900   -1    0    0    0    0 -0.00000000000E+00 -0.00000000000E+00 -0.74505805969E-08  0.93827000000E+00  0.93827000000E+00 0.  1.
     999902    2    1    2    0    0 -0.23719188068E-01 -0.14334675718E-01  0.57938017132E-02  0.10156165589E+01  0.10152218199E+01 0.  0.
     999903    2    3    3    0    0 -0.11431809364E+00 -0.16703805360E-02  0.56920754726E-01  0.12939846416E+00  0.20798401443E-01 0.  0.
         14    1    1    2    0    0  0.23719188068E-01  0.14334675718E-01 -0.57938017132E-02  0.28313441134E-01  0.00000000000E+00 0. -1.
     999901    1    3    3    0    0  0.90598905575E-01 -0.12664295182E-01 -0.51126953013E-01  0.88621809471E+00  0.88000000000E+00 0.  1.
        -11    1    4    4    0    0 -0.47361744395E-01  0.18874138640E-02  0.12689599283E-01  0.49071215740E-01  0.51100000000E-03 0.  1.
         11    1    4    4    0    0 -0.66956349248E-01 -0.35577944000E-02  0.44231155443E-01  0.80327248418E-01  0.51100000000E-03 0. -1.
</event>
<event>
 8    1  0.1123191E+005  0.1043930E+01  0.7957747E-01            NaN
         13   -1    0    0    0    0  0.00000000000E+00  0.00000000000E+00  0.74505805969E-08  0.10566000000E+00  0.10566000000E+00 0. -1.
     999900   -1    0    0    0    0 -0.00000000000E+00 -0.00000000000E+00 -0.74505805969E-08  0.93827000000E+00  0.93827000000E+00 0.  1.
     999902    2    1    2    0    0 -0.22319212013E-01  0.25398659702E-02  0.30481601698E-02  0.10212608707E+01  0.10210092441E+01 0.  0.
     999903    2    3    3    0    0 -0.93599048505E-01  0.78023220949E-02 -0.92397575970E-01  0.13321898141E+00  0.19706010555E-01 0.  0.
         14    1    1    2    0    0  0.22319212013E-01 -0.25398659702E-02 -0.30481601698E-02  0.22669129328E-01  0.00000000000E+00 0.  1.
     999901    1    3    3    0    0  0.71279836492E-01 -0.52624561247E-02  0.95445736140E-01  0.88804188926E+00  0.88000000000E+00 0. -1.
        -11    1    4    4    0    0 -0.43140624960E-01  0.10367868942E-01 -0.33368137695E-01  0.55518465059E-01  0.51100000000E-03 0. -1.
         11    1    4    4    0    0 -0.50458423546E-01 -0.25655468468E-02 -0.59029438275E-01  0.77700516352E-01  0.51100000000E-03 0.  1.
</event>
<event>
 8    1  0.1123191E+005  0.1043930E+01  0.7957747E-01            NaN
         13   -1    0    0    0    0  0.00000000000E+00  0.00000000000E+00  0.74505805969E-08  0.10566000000E+00  0.10566000000E+00 0. -1.
     999900   -1    0    0    0    0 -0.00000000000E+00 -0.00000000000E+00 -0.74505805969E-08  0.93827000000E+00  0.93827000000E+00 0. -1.
     999902    2    1    2    0    0  0.18218494519E-01 -0.85892691977E-02  0.11146593343E-01  0.10209096692E+01  0.10206500953E+01 0.  0.
     999903    2    3    3    0    0 -0.12405500399E+00  0.20730537250E-01  0.19858584242E-01  0.12895827016E+00  0.20407667340E-01 0.  0.
         14    1    1    2    0    0 -0.18218494519E-01  0.85892691977E-02 -0.11146593343E-01  0.23020330819E-01  0.00000000000E+00 0.  1.
     999901    1    3    3    0    0  0.14227349850E+00 -0.29319806448E-01 -0.87119908989E-02  0.89195139902E+00  0.88000000000E+00 0. -1.
        -11    1    4    4    0    0 -0.42945409514E-02 -0.29458146735E-02 -0.22598221251E-03  0.52376612180E-02  0.51100000000E-03 0. -1.
         11    1    4    4    0    0 -0.11976046303E+00  0.23676351924E-01  0.20084566454E-01  0.12372060894E+00  0.51100000000E-03 0.  1.
</event>
<event>
 8    1  0.1123191E+005  0.1043930E+01  0.7957747E-01            NaN
         13   -1    0    0    0    0  0.00000000000E+00  0.00000000000E+00  0.74505805969E-08  0.10566000000E+00  0.10566000000E+00 0.  1.
     999900   -1    0    0    0    0 -0.00000000000E+00 -0.00000000000E+00 -0.74505805969E-08  0.93827000000E+00  0.93827000000E+00 0.  1.
     999902    2    1    2    0    0  0.30773546999E-02  0.14787261639E-01 -0.17339509904E-01  0.10209345260E+01  0.10206755188E+01 0.  0.
     999903    2    3    3    0    0  0.12675248345E+00  0.21269748971E-01  0.19862801186E-01  0.13148437451E+00  0.19365319191E-01 0.  0.
         14    1    1    2    0    0 -0.30773546999E-02 -0.14787261639E-01  0.17339509904E-01  0.22995473956E-01  0.00000000000E+00 0.  1.
     999901    1    3    3    0    0 -0.12367512875E+00 -0.64824873321E-02 -0.37202311090E-01  0.88945015153E+00  0.88000000000E+00 0. -1.
        -11    1    4    4    0    0  0.51999911828E-01  0.18413261223E-01  0.85981249617E-02  0.55832140321E-01  0.51100000000E-03 0.  1.
         11    1    4    4    0    0  0.74752571622E-01  0.28564877481E-02  0.11264676224E-01  0.75652234189E-01  0.51100000000E-03 0. -1.
</event>
<event>
 8    1  0.1123191E+005  0.1043930E+01  0.7957747E-01            NaN
         13   -1    0    0    0    0  0.00000000000E+00  0.00000000000E+00  0.74505805969E-08  0.10566000000E+00  0.10566000000E+00 0.  1.
     999900   -1    0    0    0    0 -0.00000000000E+00 -0.00000000000E+00 -0.74505805969E-08  0.93827000000E+00  0.93827000000E+00 0.  1.
     999902    2    1    2    0    0  0.21556491081E-01 -0.26288696191E-03  0.94695416442E-02  0.10203837978E+01  0.10201120876E+01 0.  0.
     999903    2    3    3    0    0  0.55425293536E-01 -0.12208806550E-02  0.11913519598E+00  0.13292981634E+00  0.20091974474E-01 0.  0.
         14    1    1    2    0    0 -0.21556491081E-01  0.26288696191E-03 -0.94695416442E-02  0.23546202162E-01  0.00000000000E+00 0. -1.
     999901    1    3    3    0    0 -0.33868802454E-01  0.95799369309E-03 -0.10966565434E+00  0.88745398150E+00  0.88000000000E+00 0.  1.
        -11    1    4    4    0    0  0.92371267641E-02  0.20524341665E-02  0.41197334032E-01  0.42273140991E-01  0.51100000000E-03 0. -1.
         11    1    4    4    0    0  0.46188166772E-01 -0.32733148215E-02  0.77937861949E-01  0.90656675351E-01  0.51100000000E-03 0.  1.
</event>
<event>
 8    1  0.1123191E+005  0.1043930E+01  0.7957747E-01            NaN
         13   -1    0    0    0    0  0.00000000000E+00  0.00000000000E+00  0.74505805969E-08  0.10566000000E+00  0.10566000000E+00 0. -1.
     999900   -1    0    0    0    0 -0.00000000000E+00 -0.00000000000E+00 -0.74505805969E-08  0.93827000000E+00  0.93827000000E+00 0.  1.
     999902    2    1    2    0    0 -0.81148497290E-02 -0.39490261589E-02  0.22711701797E-01  0.10194909535E+01  0.10191979873E+01 0.  0.
     999903    2    3    3    0    0 -0.12447017857E+00 -0.35958198836E-01  0.77030908431E-02  0.13112818524E+00  0.18693473132E-01 0.  0.
         14    1    1    2    0    0  0.81148497290E-02  0.39490261589E-02 -0.22711701797E-01  0.24439046468E-01  0.00000000000E+00 0.  1.
     999901    1    3    3    0    0  0.11635532885E+00  0.32009172677E-01  0.15008610954E-01  0.88836276829E+00  0.88000000000E+00 0. -1.
        -11    1    4    4    0    0 -0.48350565327E-01 -0.62386120485E-02  0.80260792020E-02  0.49410287554E-01  0.51100000000E-03 0.  1.
         11    1    4    4    0    0 -0.76119613247E-01 -0.29719586787E-01 -0.32298835893E-03  0.81717897686E-01  0.51100000000E-03 0. -1.
</event>
<event>
 8    1  0.1123191E+005  0.1043930E+01  0.7957747E-01            NaN
         13   -1    0    0    0    0  0.00000000000E+00  0.00000000000E+00  0.74505805969E-08  0.10566000000E+00  0.10566000000E+00 0. -1.
     999900   -1    0    0    0    0 -0.00000000000E+00 -0.00000000000E+00 -0.74505805969E-08  0.93827000000E+00  0.93827000000E+00 0. -1.
     999902    2    1    2    0    0  0.73537011979E-02  0.11302640081E-02 -0.18678007796E-01  0.10238247173E+01  0.10236272902E+01 0.  0.
     999903    2    3    3    0    0  0.11569025956E-01  0.21420880118E-01  0.12766478488E+00  0.13149871686E+00  0.20022956086E-01 0.  0.
         14    1    1    2    0    0 -0.73537011979E-02 -0.11302640081E-02  0.18678007796E-01  0.20105282720E-01  0.00000000000E+00 0. -1.
     999901    1    3    3    0    0 -0.42153247581E-02 -0.20290616110E-01 -0.14634279267E+00  0.89232600042E+00  0.88000000000E+00 0. -1.
        -11    1    4    4    0    0  0.13478823461E-01  0.13069959926E-01  0.50881633073E-01  0.54237480026E-01  0.51100000000E-03 0. -1.
         11    1    4    4    0    0 -0.19097975049E-02  0.83509201920E-02  0.76783151805E-01  0.77261236831E-01  0.51100000000E-03 0.  1.
</event>
<event>
 8    1  0.1123191E+005  0.1043930E+01  0.7957747E-01            NaN
         13   -1    0    0    0    0  0.00000000000E+00  0.00000000000E+00  0.74505805969E-08  0.10566000000E+00  0.10566000000E+00 0. -1.
     999900   -1    0    0    0    0 -0.00000000000E+00 -0.00000000000E+00 -0.74505805969E-08  0.93827000000E+00  0.93827000000E+00 0. -1.
     999902    2    1    2    0    0  0.20960369485E-01 -0.10706652546E-01  0.87105159379E-02  0.10188333352E+01  0.10185241884E+01 0.  0.
     999903    2    3    3    0    0  0.51129851604E-01  0.24616203574E-02  0.11933161549E+00  0.13129706620E+00  0.19456717029E-01 0.  0.
         14    1    1    2    0    0 -0.20960369485E-01  0.10706652546E-01 -0.87105159379E-02  0.25096664831E-01  0.00000000000E+00 0. -1.
     999901    1    3    3    0    0 -0.30169482119E-01 -0.13168272904E-01 -0.11062109956E+00  0.88753626897E+00  0.88000000000E+00 0. -1.
        -11    1    4    4    0    0  0.45353008377E-01 -0.44176972546E-02  0.10348056847E+00  0.11307033470E+00  0.51100000000E-03 0.  1.
         11    1    4    4    0    0  0.57768432268E-02  0.68793176119E-02  0.15851047027E-01  0.18226731504E-01  0.51100000000E-03 0. -1.
</event>
<event>
 8    1  0.1123191E+005  0.1043930E+01  0.7957747E-01            NaN
         13   -1    0    0    0    0  0.00000000000E+00  0.00000000000E+00  0.74505805969E-08  0.10566000000E+00  0.10566000000E+00 0. -1.
     999900   -1    0    0    0    0 -0.00000000000E+00 -0.00000000000E+00 -0.74505805969E-08  0.93827000000E+00  0.93827000000E+00 0. -1.
     999902    2    1    2    0    0 -0.13985629640E-02  0.24580550848E-01  0.32622725519E-02  0.10190945036E+01  0.10187918362E+01 0.  0.
     999903    2    3    3    0    0 -0.94436212660E-01  0.69030324746E-01  0.57021174982E-01  0.13144490707E+00  0.18519319698E-01 0.  0.
         14    1    1    2    0    0  0.13985629640E-02 -0.24580550848E-01 -0.32622725519E-02  0.24835496383E-01  0.00000000000E+00 0. -1.
     999901    1    3    3    0    0  0.93037649696E-01 -0.44449773897E-01 -0.53758902430E-01  0.88764959655E+00  0.88000000000E+00 0. -1.
        -11    1    4    4    0    0 -0.43462720940E-01  0.39827184850E-01  0.35851826356E-01  0.68998748820E-01  0.51100000000E-03 0.  1.
         11    1    4    4    0    0 -0.50973491721E-01  0.29203139895E-01  0.21169348626E-01  0.62446158250E-01  0.51100000000E-03 0. -1.
</event>
<event>
 8    1  0.1123191E+005  0.1043930E+01  0.7957747E-01            NaN
         13   -1    0    0    0    0  0.00000000000E+00  0.00000000000E+00  0.74505805969E-08  0.10566000000E+00  0.10566000000E+00 0. -1.
     999900   -1    0    0    0    0 -0.00000000000E+00 -0.00000000000E+00 -0.74505805969E-08  0.93827000000E+00  0.93827000000E+00 0. -1.
     999902    2    1    2    0    0 -0.21048119661E-01  0.10048148109E-01 -0.32197940631E-02  0.10203852406E+01  0.10201135640E+01 0.  0.
     999903    2    3    3    0    0  0.11870246964E+00 -0.36612032653E-01 -0.23116569214E-01  0.12791491541E+00  0.19928185536E-01 0.  0.
         14    1    1    2    0    0  0.21048119661E-01 -0.10048148109E-01  0.32197940631E-02  0.23544759406E-01  0.00000000000E+00 0. -1.
     999901    1    3    3    0    0 -0.13975058930E+00  0.46660180762E-01  0.19896775151E-01  0.89247032519E+00  0.88000000000E+00 0. -1.
        -11    1    4    4    0    0  0.89834563944E-01 -0.31744965010E-01 -0.99077647440E-02  0.95793614639E-01  0.51100000000E-03 0.  1.
         11    1    4    4    0    0  0.28867905692E-01 -0.48670676430E-02 -0.13208804470E-01  0.32121300768E-01  0.51100000000E-03 0. -1.
</event>
<event>
 8    1  0.1123191E+005  0.1043930E+01  0.7957747E-01            NaN
         13   -1    0    0    0    0  0.00000000000E+00  0.00000000000E+00  0.74505805969E-08  0.10566000000E+00  0.10566000000E+00 0. -1.
     999900   -1    0    0    0    0 -0.00000000000E+00 -0.00000000000E+00 -0.74505805969E-08  0.93827000000E+00  0.93827000000E+00 0. -1.
     999902    2    1    2    0    0 -0.74670916074E-02 -0.17923988042E-01 -0.12164446423E-01  0.10210171093E+01  0.10207599801E+01 0.  0.
     999903    2    3    3    0    0 -0.94045418874E-01  0.75190731372E-01  0.44801134751E-01  0.13005625988E+00  0.20231217553E-01 0.  0.
         14    1    1    2    0    0  0.74670916074E-02  0.17923988042E-01  0.12164446423E-01  0.22912890721E-01  0.00000000000E+00 0.  1.
     999901    1    3    3    0    0  0.86578327267E-01 -0.93114719413E-01 -0.56965581174E-01  0.89096084940E+00  0.88000000000E+00 0. -1.
        -11    1    4    4    0    0 -0.18916131107E-01  0.14263498633E-01  0.17771611100E-01  0.29620241245E-01  0.51100000000E-03 0.  1.
         11    1    4    4    0    0 -0.75129287767E-01  0.60927232738E-01  0.27029523651E-01  0.10043601864E+00  0.51100000000E-03 0. -1.
</event>
<event>
 8    1  0.1123191E+005  0.1043930E+01  0.7957747E-01            NaN
         13   -1    0    0    0    0  0.00000000000E+00  0.00000000000E+00  0.74505805969E-08  0.10566000000E+00  0.10566000000E+00 0. -1.
     999900   -1    0    0    0    0 -0.00000000000E+00 -0.00000000000E+00 -0.74505805969E-08  0.93827000000E+00  0.93827000000E+00 0.  1.
     999902    2    1    2    0    0  0.10055629815E-01 -0.12971663812E-02 -0.22599513082E-01  0.10191603346E+01  0.10188592893E+01 0.  0.
     999903    2    3    3    0    0  0.10263128956E+00  0.28836557348E-01 -0.75312033770E-01  0.13222352519E+00  0.21128879417E-01 0.  0.
         14    1    1    2    0    0 -0.10055629815E-01  0.12971663812E-02  0.22599513082E-01  0.24769665382E-01  0.00000000000E+00 0. -1.
     999901    1    3    3    0    0 -0.92575659749E-01 -0.30133723729E-01  0.52712520688E-01  0.88693680943E+00  0.88000000000E+00 0.  1.
        -11    1    4    4    0    0  0.21547159072E-01  0.13136472391E-01 -0.10944277405E-01  0.27511548482E-01  0.51100000000E-03 0. -1.
         11    1    4    4    0    0  0.81084130492E-01  0.15700084957E-01 -0.64367756365E-01  0.10471197671E+00  0.51100000000E-03 0.  1.
</event>
<event>
 8    1  0.1123191E+005  0.1043930E+01  0.7957747E-01            NaN
         13   -1    0    0    0    0  0.00000000000E+00  0.00000000000E+00  0.74505805969E-08  0.10566000000E+00  0.10566000000E+00 0.  1.
     999900   -1    0    0    0    0 -0.00000000000E+00 -0.00000000000E+00 -0.74505805969E-08  0.93827000000E+00  0.93827000000E+00 0. -1.
     999902    2    1    2    0    0 -0.19271541785E-01 -0.43639399399E-02 -0.12846529205E-01  0.10203615973E+01  0.10200893684E+01 0.  0.
     999903    2    3    3    0    0 -0.15166495503E-01 -0.50833302234E-01 -0.11983053218E+00  0.13265566064E+00  0.20594189848E-01 0.  0.
         14    1    1    2    0    0  0.19271541785E-01  0.43639399399E-02  0.12846529205E-01  0.23568402729E-01  0.00000000000E+00 0.  1.
     999901    1    3    3    0    0 -0.41050462818E-02  0.46469362294E-01  0.10698400298E+00  0.88770593663E+00  0.88000000000E+00 0.  1.
        -11    1    4    4    0    0  0.47362897831E-02 -0.95123660375E-02 -0.29241751446E-01  0.31116855516E-01  0.51100000000E-03 0.  1.
         11    1    4    4    0    0 -0.19902785286E-01 -0.41320936197E-01 -0.90588780734E-01  0.10153880513E+00  0.51100000000E-03 0. -1.
</event>
<event>
 8    1  0.1123191E+005  0.1043930E+01  0.7957747E-01            NaN
         13   -1    0    0    0    0  0.00000000000E+00  0.00000000000E+00  0.74505805969E-08  0.10566000000E+00  0.10566000000E+00 0. -1.
     999900   -1    0    0    0    0 -0.00000000000E+00 -0.00000000000E+00 -0.74505805969E-08  0.93827000000E+00  0.93827000000E+00 0.  1.
     999902    2    1    2    0    0 -0.10679759088E-01 -0.17762725776E-01 -0.11548003989E-01  0.10202038946E+01  0.10199279673E+01 0.  0.
     999903    2    3    3    0    0 -0.98546169238E-01 -0.84958191688E-01 -0.20315848551E-01  0.13323568110E+00  0.20242806345E-01 0.  0.
         14    1    1    2    0    0  0.10679759088E-01  0.17762725776E-01  0.11548003989E-01  0.23726105397E-01  0.00000000000E+00 0.  1.
     999901    1    3    3    0    0  0.87866410150E-01  0.67195465912E-01  0.87678445617E-02  0.88696821351E+00  0.88000000000E+00 0. -1.
        -11    1    4    4    0    0 -0.13156318650E-01 -0.20709895429E-01 -0.46394126208E-03  0.24545159433E-01  0.51100000000E-03 0. -1.
         11    1    4    4    0    0 -0.85389850588E-01 -0.64248296259E-01 -0.19851907289E-01  0.10869052166E+00  0.51100000000E-03 0.  1.
</event>
<event>
 8    1  0.1123191E+005  0.1043930E+01  0.7957747E-01            NaN
         13   -1    0    0    0    0  0.00000000000E+00  0.00000000000E+00  0.74505805969E-08  0.10566000000E+00  0.10566000000E+00 0. -1.
     999900   -1    0    0    0    0 -0.00000000000E+00 -0.00000000000E+00 -0.74505805969E-08  0.93827000000E+00  0.93827000000E+00 0. -1.
     999902    2    1    2    0    0  0.93907832305E-03 -0.43001749433E-02 -0.22535568575E-01  0.10209686145E+01  0.10207103833E+01 0.  0.
     999903    2    3    3    0    0 -0.62373335430E-01  0.64844361572E-01  0.90021150552E-01  0.12885962807E+00  0.20143783147E-01 0.  0.
         14    1    1    2    0    0 -0.93907832305E-03  0.43001749433E-02  0.22535568575E-01  0.22961385490E-01  0.00000000000E+00 0. -1.
     999901    1    3    3    0    0  0.63312413753E-01 -0.69144536515E-01 -0.11255671913E+00  0.89210898644E+00  0.88000000000E+00 0. -1.
        -11    1    4    4    0    0 -0.41547938513E-01  0.30423273814E-01  0.44042090841E-01  0.67762627391E-01  0.51100000000E-03 0.  1.
         11    1    4    4    0    0 -0.20825396917E-01  0.34421087757E-01  0.45979059711E-01  0.61097000680E-01  0.51100000000E-03 0. -1.
</event>
<event>
 8    1  0.1123191E+005  0.1043930E+01  0.7957747E-01            NaN
         13   -1    0    0    0    0  0.00000000000E+00  0.00000000000E+00  0.74505805969E-08  0.10566000000E+00  0.10566000000E+00 0.  1.
     999900   -1    0    0    0    0 -0.00000000000E+00 -0.00000000000E+00 -0.74505805969E-08  0.93827000000E+00  0.93827000000E+00 0. -1.
     999902    2    1    2    0    0  0.20699037174E-01  0.11539860600E-01 -0.63328792057E-02  0.10193999392E+01  0.10191047602E+01 0.  0.
     999903    2    3    3    0    0  0.77327252257E-01  0.62804160646E-01 -0.85165638198E-01  0.13258012264E+00  0.20010908339E-01 0.  0.
         14    1    1    2    0    0 -0.20699037174E-01 -0.11539860600E-01  0.63328792057E-02  0.24530060776E-01  0.00000000000E+00 0.  1.
     999901    1    3    3    0    0 -0.56628215082E-01 -0.51264300046E-01  0.78832758992E-01  0.88681981659E+00  0.88000000000E+00 0.  1.
        -11    1    4    4    0    0  0.20781525075E-01  0.28669461220E-01 -0.26399377812E-01  0.44170103701E-01  0.51100000000E-03 0. -1.
         11    1    4    4    0    0  0.56545727182E-01  0.34134699427E-01 -0.58766260386E-01  0.88410018936E-01  0.51100000000E-03 0.  1.
</event>
<event>
 8    1  0.1123191E+005  0.1043930E+01  0.7957747E-01            NaN
         13   -1    0    0    0    0  0.00000000000E+00  0.00000000000E+00  0.74505805969E-08  0.10566000000E+00  0.10566000000E+00 0.  1.
     999900   -1    0    0    0    0 -0.00000000000E+00 -0.00000000000E+00 -0.74505805969E-08  0.93827000000E+00  0.93827000000E+00 0. -1.
     999902    2    1    2    0    0  0.63915475119E-03  0.91455701704E-02 -0.23358218853E-01  0.10188370456E+01  0.10185279913E+01 0.  0.
     999903    2    3    3    0    0 -0.12331967907E+00  0.12766659863E-02 -0.37451506703E-01  0.13000279058E+00  0.16992265358E-01 0.  0.
         14    1    1    2    0    0 -0.63915475119E-03 -0.91455701704E-02  0.23358218853E-01  0.25092954400E-01  0.00000000000E+00 0.  1.
     999901    1    3    3    0    0  0.12395883382E+00  0.78689041841E-02  0.14093287850E-01  0.88883425502E+00  0.88000000000E+00 0.  1.
        -11    1    4    4    0    0 -0.55216026784E-01  0.83577158541E-02 -0.20221472440E-01  0.59395539368E-01  0.51100000000E-03 0. -1.
         11    1    4    4    0    0 -0.68103652287E-01 -0.70810498677E-02 -0.17230034263E-01  0.70607251212E-01  0.51100000000E-03 0.  1.
</event>
<event>
 8    1  0.1123191E+005  0.1043930E+01  0.7957747E-01            NaN
         13   -1    0    0    0    0  0.00000000000E+00  0.00000000000E+00  0.74505805969E-08  0.10566000000E+00  0.10566000000E+00 0.  1.
     999900   -1    0    0    0    0 -0.00000000000E+00 -0.00000000000E+00 -0.74505805969E-08  0.93827000000E+00  0.93827000000E+00 0.  1.
     999902    2    1    2    0    0 -0.44377043910E-03 -0.13295412722E-01  0.19381971949E-01  0.10204220063E+01  0.10201511874E+01 0.  0.
     999903    2    3    3    0    0  0.43325350421E-01 -0.11596211778E+00  0.43684638806E-01  0.13304000969E+00  0.21610130999E-01 0.  0.
         14    1    1    2    0    0  0.44377043910E-03  0.13295412722E-01 -0.19381971949E-01  0.23507993710E-01  0.00000000000E+00 0. -1.
     999901    1    3    3    0    0 -0.43769120860E-01  0.10266670506E+00 -0.24302666857E-01  0.88738199660E+00  0.88000000000E+00 0.  1.
        -11    1    4    4    0    0  0.25700528986E-01 -0.93702528312E-01  0.36028320144E-01  0.10362905951E+00  0.51100000000E-03 0. -1.
         11    1    4    4    0    0  0.17624821435E-01 -0.22259589470E-01  0.76563186616E-02  0.29410950179E-01  0.51100000000E-03 0.  1.
</event>
<event>
 8    1  0.1123191E+005  0.1043930E+01  0.7957747E-01            NaN
         13   -1    0    0    0    0  0.00000000000E+00  0.00000000000E+00  0.74505805969E-08  0.10566000000E+00  0.10566000000E+00 0.  1.
     999900   -1    0    0    0    0 -0.00000000000E+00 -0.00000000000E+00 -0.74505805969E-08  0.93827000000E+00  0.93827000000E+00 0.  1.
     999902    2    1    2    0    0 -0.48222419850E-02  0.15475920355E-01  0.17673800059E-01  0.10199483125E+01  0.10196663370E+01 0.  0.
     999903    2    3    3    0    0 -0.15073604432E-01 -0.57235948709E-01  0.11568457235E+00  0.13146746415E+00  0.19940072096E-01 0.  0.
         14    1    1    2    0    0  0.48222419850E-02 -0.15475920355E-01 -0.17673800059E-01  0.23981687537E-01  0.00000000000E+00 0. -1.
     999901    1    3    3    0    0  0.10251362447E-01  0.72711869064E-01 -0.98010772290E-01  0.88848084831E+00  0.88000000000E+00 0.  1.
        -11    1    4    4    0    0 -0.18814520680E-01 -0.33529912609E-01  0.71302414551E-01  0.81009485060E-01  0.51100000000E-03 0. -1.
         11    1    4    4    0    0  0.37409162478E-02 -0.23706036100E-01  0.44382157798E-01  0.50457979089E-01  0.51100000000E-03 0.  1.
</event>
<event>
 8    1  0.1123191E+005  0.1043930E+01  0.7957747E-01            NaN
         13   -1    0    0    0    0  0.00000000000E+00  0.00000000000E+00  0.74505805969E-08  0.10566000000E+00  0.10566000000E+00 0. -1.
     999900   -1    0    0    0    0 -0.00000000000E+00 -0.00000000000E+00 -0.74505805969E-08  0.93827000000E+00  0.93827000000E+00 0. -1.
     999902    2    1    2    0    0 -0.19464755579E-01 -0.12397331870E-01  0.60238664929E-02  0.10200792659E+01  0.10198003978E+01 0.  0.
     999903    2    3    3    0    0 -0.58464478730E-01 -0.30105998969E-02  0.11688530929E+00  0.13221703078E+00  0.19799209982E-01 0.  0.
         14    1    1    2    0    0  0.19464755579E-01  0.12397331870E-01 -0.60238664929E-02  0.23850734051E-01  0.00000000000E+00 0.  1.
     999901    1    3    3    0    0  0.38999723151E-01 -0.93867319734E-02 -0.11086144279E+00  0.88786223517E+00  0.88000000000E+00 0. -1.
        -11    1    4    4    0    0 -0.32592943958E-01  0.27172247513E-02  0.82896482871E-01  0.89116616294E-01  0.51100000000E-03 0.  1.
         11    1    4    4    0    0 -0.25871534772E-01 -0.57278246482E-02  0.33988826415E-01  0.43100414485E-01  0.51100000000E-03 0. -1.
</event>
<event>
 8    1  0.1123191E+005  0.1043930E+01  0.7957747E-01            NaN
         13   -1    0    0    0    0  0.00000000000E+00  0.00000000000E+00  0.74505805969E-08  0.10566000000E+00  0.10566000000E+00 0.  1.
     999900   -1    0    0    0    0 -0.00000000000E+00 -0.00000000000E+00 -0.74505805969E-08  0.93827000000E+00  0.93827000000E+00 0. -1.
     999902    2    1    2    0    0 -0.19042427196E-01 -0.50342428303E-02  0.11376671208E-01  0.10211838732E+01  0.10209305151E+01 0.  0.
     999903    2    3    3    0    0 -0.95908619361E-01  0.23991410046E-01 -0.85065135466E-01  0.13211024182E+00  0.21047272954E-01 0.  0.
         14    1    1    2    0    0  0.19042427196E-01  0.50342428303E-02 -0.11376671208E-01  0.22746126751E-01  0.00000000000E+00 0.  1.
     999901    1    3    3    0    0  0.76866192165E-01 -0.29025652877E-01  0.96441806674E-01  0.88907363143E+00  0.88000000000E+00 0.  1.
        -11    1    4    4    0    0 -0.33485108641E-01  0.15532412075E-01 -0.22013263820E-01  0.42980847253E-01  0.51100000000E-03 0.  1.
         11    1    4    4    0    0 -0.62423510721E-01  0.84589979712E-02 -0.63051871646E-01  0.89129394570E-01  0.51100000000E-03 0. -1.
</event>
<event>
 8    1  0.1123191E+005  0.1043930E+01  0.7957747E-01            NaN
         13   -1    0    0    0    0  0.00000000000E+00  0.00000000000E+00  0.74505805969E-08  0.10566000000E+00  0.10566000000E+00 0. -1.
     999900   -1    0    0    0    0 -0.00000000000E+00 -0.00000000000E+00 -0.74505805969E-08  0.93827000000E+00  0.93827000000E+00 0.  1.
     999902    2    1    2    0    0 -0.18284773649E-01  0.16083490363E-01 -0.12019751522E-02  0.10195485244E+01  0.10192569535E+01 0.  0.
     999903    2    3    3    0    0  0.29033281781E-02  0.44362230431E-01  0.12095110411E+00  0.13040849177E+00  0.20019199186E-01 0.  0.
         14    1    1    2    0    0  0.18284773649E-01 -0.16083490363E-01  0.12019751522E-02  0.24381475630E-01  0.00000000000E+00 0.  1.
     999901    1    3    3    0    0 -0.21188101827E-01 -0.28278740068E-01 -0.12215307926E+00  0.88914003260E+00  0.88000000000E+00 0.  1.
        -11    1    4    4    0    0 -0.50065697282E-02  0.38668612399E-01  0.96205592535E-01  0.10380801742E+00  0.51100000000E-03 0. -1.
         11    1    4    4    0    0  0.79098979063E-02  0.56936180324E-02  0.24745511577E-01  0.26600474346E-01  0.51100000000E-03 0.  1.
</event>
<event>
 8    1  0.1123191E+005  0.1043930E+01  0.7957747E-01            NaN
         13   -1    0    0    0    0  0.00000000000E+00  0.00000000000E+00  0.74505805969E-08  0.10566000000E+00  0.10566000000E+00 0.  1.
     999900   -1    0    0    0    0 -0.00000000000E+00 -0.00000000000E+00 -0.74505805969E-08  0.93827000000E+00  0.93827000000E+00 0. -1.
     999902    2    1    2    0    0  0.15428643439E-01  0.91843304666E-02 -0.16197601875E-01  0.10197482451E+01  0.10194614883E+01 0.  0.
     999903    2    3    3    0    0  0.60144794059E-02  0.99892115273E-01  0.80313569955E-01  0.12978704649E+00  0.19488439170E-01 0.  0.
         14    1    1    2    0    0 -0.15428643439E-01 -0.91843304666E-02  0.16197601875E-01  0.24181754920E-01  0.00000000000E+00 0.  1.
     999901    1    3    3    0    0  0.94141640336E-02 -0.90707784806E-01 -0.96511171830E-01  0.88996119859E+00  0.88000000000E+00 0.  1.
        -11    1    4    4    0    0  0.10475157605E-01  0.43834883251E-01  0.43026737821E-01  0.62312014933E-01  0.51100000000E-03 0. -1.
         11    1    4    4    0    0 -0.44606781986E-02  0.56057232022E-01  0.37286832134E-01  0.67475031557E-01  0.51100000000E-03 0.  1.
</event>
<event>
 8    1  0.1123191E+005  0.1043930E+01  0.7957747E-01            NaN
         13   -1    0    0    0    0  0.00000000000E+00  0.00000000000E+00  0.74505805969E-08  0.10566000000E+00  0.10566000000E+00 0. -1.
     999900   -1    0    0    0    0 -0.00000000000E+00 -0.00000000000E+00 -0.74505805969E-08  0.93827000000E+00  0.93827000000E+00 0. -1.
     999902    2    1    2    0    0 -0.16712360027E-01  0.39067793115E-02  0.15568985973E-01  0.10207576193E+01  0.10204945655E+01 0.  0.
     999903    2    3    3    0    0 -0.20656020312E-01 -0.12631028502E+00 -0.14946456317E-01  0.13064345332E+00  0.21525706979E-01 0.  0.
         14    1    1    2    0    0  0.16712360027E-01 -0.39067793115E-02 -0.15568985973E-01  0.23172380682E-01  0.00000000000E+00 0. -1.
     999901    1    3    3    0    0  0.39436602849E-02  0.13021706433E+00  0.30515442289E-01  0.89011416600E+00  0.88000000000E+00 0.  1.
        -11    1    4    4    0    0 -0.17696138866E-01 -0.46350276633E-01 -0.26412074035E-02  0.49686402287E-01  0.51100000000E-03 0. -1.
         11    1    4    4    0    0 -0.29598814462E-02 -0.79960008387E-01 -0.12305248913E-01  0.80957051028E-01  0.51100000000E-03 0.  1.
</event>
<event>
 7    1  0.1123191E+005  0.1043930E+01  0.7957747E-01            NaN
         13   -1    0    0    0    0  0.00000000000E+00  0.00000000000E+00  0.74505805969E-08  0.10566000000E+00  0.10566000000E+00 0. -1.
     999900   -1    0    0    0    0 -0.00000000000E+00 -0.00000000000E+00 -0.74505805969E-08  0.93827000000E+00  0.93827000000E+00 0. -1.
     999903    2    1    2    0    0  0.31615409511E-02  0.55834973307E-01 -0.86721372266E-01  0.10582626716E+00  0.23474727433E-01 0.  0.
         14    1    1    2    0    0 -0.44206692668E-01 -0.21954353595E-01 -0.12537749518E-01  0.50925636779E-01  0.00000000000E+00 0.  1.
     999901    1    1    2    0    0  0.41045151717E-01 -0.33880619712E-01  0.99259121785E-01  0.88717809606E+00  0.88000000000E+00 0.  1.
        -11    1    3    3    0    0 -0.75585542649E-02  0.14401682774E-01 -0.14105108628E-01  0.21534981303E-01  0.51100000000E-03 0. -1.
         11    1    3    3    0    0  0.10720095216E-01  0.41433290532E-01 -0.72616263638E-01  0.84291285857E-01  0.51100000000E-03 0.  1.
</event>
<event>
 8    1  0.1123191E+005  0.1043930E+01  0.7957747E-01            NaN
         13   -1    0    0    0    0  0.00000000000E+00  0.00000000000E+00  0.74505805969E-08  0.10566000000E+00  0.10566000000E+00 0. -1.
     999900   -1    0    0    0    0 -0.00000000000E+00 -0.00000000000E+00 -0.74505805969E-08  0.93827000000E+00  0.93827000000E+00 0.  1.
     999902    2    1    2    0    0 -0.14903967814E-01 -0.24204256882E-02  0.17781118703E-01  0.10206028720E+01  0.10203362522E+01 0.  0.
     999903    2    3    3    0    0  0.34308392283E-01  0.12329185329E+00 -0.10536196120E-01  0.12985750786E+00  0.19339442849E-01 0.  0.
         14    1    1    2    0    0  0.14903967814E-01  0.24204256882E-02 -0.17781118703E-01  0.23327127972E-01  0.00000000000E+00 0.  1.
     999901    1    3    3    0    0 -0.49212360096E-01 -0.12571227898E+00  0.28317314822E-01  0.89074536417E+00  0.88000000000E+00 0. -1.
        -11    1    4    4    0    0  0.13004285535E-01  0.69556594099E-01  0.16391230368E-02  0.70782618419E-01  0.51100000000E-03 0.  1.
         11    1    4    4    0    0  0.21304106748E-01  0.53735259191E-01 -0.12175319157E-01  0.59074889439E-01  0.51100000000E-03 0. -1.
</event>
<event>
 8    1  0.1123191E+005  0.1043930E+01  0.7957747E-01            NaN
         13   -1    0    0    0    0  0.00000000000E+00  0.00000000000E+00  0.74505805969E-08  0.10566000000E+00  0.10566000000E+00 0.  1.
     999900   -1    0    0    0    0 -0.00000000000E+00 -0.00000000000E+00 -0.74505805969E-08  0.93827000000E+00  0.93827000000E+00 0.  1.
     999902    2    1    2    0    0  0.16597913618E-01 -0.43042170892E-03 -0.16530299086E-01  0.10205008133E+01  0.10202318282E+01 0.  0.
     999903    2    3    3    0    0 -0.28485725096E-01 -0.10137911574E+00 -0.75550792531E-01  0.13162141098E+00  0.22958918395E-01 0.  0.
         14    1    1    2    0    0 -0.16597913618E-01  0.43042170892E-03  0.16530299086E-01  0.23429186653E-01  0.00000000000E+00 0.  1.
     999901    1    3    3    0    0  0.45083638715E-01  0.10094869403E+00  0.59020493445E-01  0.88887940237E+00  0.88000000000E+00 0. -1.
        -11    1    4    4    0    0 -0.19556244006E-01 -0.63002357774E-01 -0.33482945353E-01  0.73980487395E-01  0.51100000000E-03 0. -1.
         11    1    4    4    0    0 -0.89294810903E-02 -0.38376757966E-01 -0.42067847179E-01  0.57640923585E-01  0.51100000000E-03 0.  1.
</event>
<event>
 8    1  0.1123191E+005  0.1043930E+01  0.7957747E-01            NaN
         13   -1    0    0    0    0  0.00000000000E+00  0.00000000000E+00  0.74505805969E-08  0.10566000000E+00  0.10566000000E+00 0. -1.
     999900   -1    0    0    0    0 -0.00000000000E+00 -0.00000000000E+00 -0.74505805969E-08  0.93827000000E+00  0.93827000000E+00 0. -1.
     999902    2    1    2    0    0  0.19782867088E-01 -0.10355061243E-03 -0.13491096807E-01  0.10199845986E+01  0.10197034859E+01 0.  0.
     999903    2    3    3    0    0  0.78214928906E-01  0.27816897652E-01 -0.10208409522E+00  0.13316862188E+00  0.20527163906E-01 0.  0.
         14    1    1    2    0    0 -0.19782867088E-01  0.10355061243E-03  0.13491096807E-01  0.23945401354E-01  0.00000000000E+00 0. -1.
     999901    1    3    3    0    0 -0.58432061818E-01 -0.27920448264E-01  0.88592998412E-01  0.88681597677E+00  0.88000000000E+00 0.  1.
        -11    1    4    4    0    0  0.44858755833E-01  0.61132724788E-02 -0.61021933204E-01  0.75984324227E-01  0.51100000000E-03 0. -1.
         11    1    4    4    0    0  0.33356173074E-01  0.21703625173E-01 -0.41062162014E-01  0.57184297653E-01  0.51100000000E-03 0.  1.
</event>
<event>
 8    1  0.1123191E+005  0.1043930E+01  0.7957747E-01            NaN
         13   -1    0    0    0    0  0.00000000000E+00  0.00000000000E+00  0.74505805969E-08  0.10566000000E+00  0.10566000000E+00 0.  1.
     999900   -1    0    0    0    0 -0.00000000000E+00 -0.00000000000E+00 -0.74505805969E-08  0.93827000000E+00  0.93827000000E+00 0. -1.
     999902    2    1    2    0    0  0.20196519730E-01  0.14908407690E-01 -0.40604438350E-02  0.10185007406E+01  0.10181832406E+01 0.  0.
     999903    2    3    3    0    0  0.85059589939E-01 -0.18151052165E-01 -0.95485266869E-01  0.13077406869E+00  0.20489663701E-01 0.  0.
         14    1    1    2    0    0 -0.20196519730E-01 -0.14908407690E-01  0.40604438350E-02  0.25429259391E-01  0.00000000000E+00 0.  1.
     999901    1    3    3    0    0 -0.64863070209E-01  0.33059459855E-01  0.91424823034E-01  0.88772667192E+00  0.88000000000E+00 0.  1.
        -11    1    4    4    0    0  0.34798519797E-01 -0.15153273093E-02 -0.50206983570E-01  0.61108391544E-01  0.51100000000E-03 0.  1.
         11    1    4    4    0    0  0.50261070142E-01 -0.16635724856E-01 -0.45278283298E-01  0.69665677150E-01  0.51100000000E-03 0. -1.
</event>
<event>
 8    1  0.1123191E+005  0.1043930E+01  0.7957747E-01            NaN
         13   -1    0    0    0    0  0.00000000000E+00  0.00000000000E+00  0.74505805969E-08  0.10566000000E+00  0.10566000000E+00 0.  1.
     999900   -1    0    0    0    0 -0.00000000000E+00 -0.00000000000E+00 -0.74505805969E-08  0.93827000000E+00  0.93827000000E+00 0. -1.
     999902    2    1    2    0    0 -0.17303955842E-01  0.59475313230E-02 -0.15025943881E-01  0.10202534503E+01  0.10199786879E+01 0.  0.
     999903    2    3    3    0    0  0.88442318640E-01 -0.86638724311E-01  0.26480899391E-01  0.12813389141E+00  0.19716587396E-01 0.  0.
         14    1    1    2    0    0  0.17303955842E-01 -0.59475313230E-02  0.15025943881E-01  0.23676549710E-01  0.00000000000E+00 0. -1.
     999901    1    3    3    0    0 -0.10574627448E+00  0.92586255634E-01 -0.41506843271E-01  0.89211955888E+00  0.88000000000E+00 0. -1.
        -11    1    4    4    0    0  0.10816536346E-01 -0.15866072476E-01  0.10460592056E-01  0.21872695798E-01  0.51100000000E-03 0.  1.
         11    1    4    4    0    0  0.77625782294E-01 -0.70772651836E-01  0.16020307334E-01  0.10626119561E+00  0.51100000000E-03 0. -1.
</event>
<event>
 8    1  0.1123191E+005  0.1043930E+01  0.7957747E-01            NaN
         13   -1    0    0    0    0  0.00000000000E+00  0.00000000000E+00  0.74505805969E-08  0.10566000000E+00  0.10566000000E+00 0. -1.
     999900   -1    0    0    0    0 -0.00000000000E+00 -0.00000000000E+00 -0.74505805969E-08  0.93827000000E+00  0.93827000000E+00 0. -1.
     999902    2    1    2    0    0 -0.86068625728E-02 -0.20227024276E-01  0.81749846776E-02  0.10204770478E+01  0.10202075103E+01 0.  0.
     999903    2    3    3    0    0  0.10434772698E-01  0.10861942751E+00  0.65793718965E-01  0.12902659453E+00  0.20297392115E-01 0.  0.
         14    1    1    2    0    0  0.86068625728E-02  0.20227024276E-01 -0.81749846776E-02  0.23452952242E-01  0.00000000000E+00 0. -1.
     999901    1    3    3    0    0 -0.19041635271E-01 -0.12884645179E+00 -0.57618734288E-01  0.89145045322E+00  0.88000000000E+00 0. -1.
        -11    1    4    4    0    0  0.13876022117E-02  0.55017237802E-01  0.22208711293E-01  0.59349051159E-01  0.51100000000E-03 0. -1.
         11    1    4    4    0    0  0.90471704865E-02  0.53602189713E-01  0.43585007672E-01  0.69677543374E-01  0.51100000000E-03 0.  1.
</event>
<event>
 8    1  0.1123191E+005  0.1043930E+01  0.7957747E-01            NaN
         13   -1    0    0    0    0  0.00000000000E+00  0.00000000000E+00  0.74505805969E-08  0.10566000000E+00  0.10566000000E+00 0. -1.
     999900   -1    0    0    0    0 -0.00000000000E+00 -0.00000000000E+00 -0.74505805969E-08  0.93827000000E+00  0.93827000000E+00 0.  1.
     999902    2    1    2    0    0  0.40649687533E-02  0.19420870878E-01  0.12437983779E-01  0.10205121086E+01  0.10202433858E+01 0.  0.
     999903    2    3    3    0    0  0.51727645122E-01  0.12106488005E+00 -0.37888811919E-02  0.13323168706E+00  0.20096575969E-01 0.  0.
         14    1    1    2    0    0 -0.40649687533E-02 -0.19420870878E-01 -0.12437983779E-01  0.23417891390E-01  0.00000000000E+00 0.  1.
     999901    1    3    3    0    0 -0.47662676369E-01 -0.10164400917E+00  0.16226864971E-01  0.88728042155E+00  0.88000000000E+00 0.  1.
        -11    1    4    4    0    0  0.23230508985E-01  0.79129104037E-01 -0.27805903323E-02  0.82517055552E-01  0.51100000000E-03 0. -1.
         11    1    4    4    0    0  0.28497136137E-01  0.41935776010E-01 -0.10082908597E-02  0.50714631509E-01  0.51100000000E-03 0.  1.
</event>
<event>
 8    1  0.1123191E+005  0.1043930E+01  0.7957747E-01            NaN
         13   -1    0    0    0    0  0.00000000000E+00  0.00000000000E+00  0.74505805969E-08  0.10566000000E+00  0.10566000000E+00 0. -1.
     999900   -1    0    0    0    0 -0.00000000000E+00 -0.00000000000E+00 -0.74505805969E-08  0.93827000000E+00  0.93827000000E+00 0.  1.
     999902    2    1    2    0    0  0.69290563686E-02  0.18387718934E-01 -0.15566419925E-01  0.10188614249E+01  0.10185529783E+01 0.  0.
     999903    2    3    3    0    0  0.98509243634E-01  0.83125955576E-01  0.14449607911E-01  0.13123597914E+00  0.20002386855E-01 0.  0.
         14    1    1    2    0    0 -0.69290563686E-02 -0.18387718934E-01  0.15566419925E-01  0.25068575129E-01  0.00000000000E+00 0. -1.
     999901    1    3    3    0    0 -0.91580187266E-01 -0.64738236642E-01 -0.30016027835E-01  0.88762544573E+00  0.88000000000E+00 0.  1.
        -11    1    4    4    0    0  0.45303994460E-01  0.27430515548E-01  0.55486824254E-03  0.52966537522E-01  0.51100000000E-03 0. -1.
         11    1    4    4    0    0  0.53205249174E-01  0.55695440028E-01  0.13894739668E-01  0.78269441617E-01  0.51100000000E-03 0.  1.
</event>
<event>
 8    1  0.1123191E+005  0.1043930E+01  0.7957747E-01            NaN
         13   -1    0    0    0    0  0.00000000000E+00  0.00000000000E+00  0.74505805969E-08  0.10566000000E+00  0.10566000000E+00 0. -1.
     999900   -1    0    0    0    0 -0.00000000000E+00 -0.00000000000E+00 -0.74505805969E-08  0.93827000000E+00  0.93827000000E+00 0.  1.
     999902    2    1    2    0    0  0.21869438433E-01  0.59532683463E-02 -0.78735359309E-02  0.10199361193E+01  0.10196538536E+01 0.  0.
     999903    2    3    3    0    0 -0.61477233282E-01 -0.25805227558E-01  0.10743869286E+00  0.12794274500E+00  0.19517000089E-01 0.  0.
         14    1    1    2    0    0 -0.21869438433E-01 -0.59532683463E-02  0.78735359309E-02  0.23993880666E-01  0.00000000000E+00 0.  1.
     999901    1    3    3    0    0  0.83346671715E-01  0.31758495904E-01 -0.11531222879E+00  0.89199337433E+00  0.88000000000E+00 0.  1.
        -11    1    4    4    0    0 -0.48345198055E-01 -0.17526732156E-01  0.65874374355E-01  0.83571160293E-01  0.51100000000E-03 0.  1.
         11    1    4    4    0    0 -0.13132035228E-01 -0.82784954024E-02  0.41564318508E-01  0.44371584706E-01  0.51100000000E-03 0. -1.
</event>
<event>
 8    1  0.1123191E+005  0.1043930E+01  0.7957747E-01            NaN
         13   -1    0    0    0    0  0.00000000000E+00  0.00000000000E+00  0.74505805969E-08  0.10566000000E+00  0.10566000000E+00 0.  1.
     999900   -1    0    0    0    0 -0.00000000000E+00 -0.00000000000E+00 -0.74505805969E-08  0.93827000000E+00  0.93827000000E+00 0.  1.
     999902    2    1    2    0    0  0.51847253641E-02  0.18910281695E-01  0.14168426673E-01  0.10197385874E+01  0.10194515987E+01 0.  0.
     999903    2    3    3    0    0 -0.97884089048E-02  0.11279534860E+00 -0.63247771281E-01  0.13123880220E+00  0.20118126553E-01 0.  0.
         14    1    1    2    0    0 -0.51847253641E-02 -0.18910281695E-01 -0.14168426673E-01  0.24191412635E-01  0.00000000000E+00 0. -1.
     999901    1    3    3    0    0  0.14973134269E-01 -0.93885066903E-01  0.77416197954E-01  0.88849978517E+00  0.88000000000E+00 0. -1.
        -11    1    4    4    0    0 -0.87859749168E-02  0.99298511954E-01 -0.62530215009E-01  0.11767615197E+00  0.51100000000E-03 0. -1.
         11    1    4    4    0    0 -0.10024339880E-02  0.13496836644E-01 -0.71755627233E-03  0.13562650231E-01  0.51100000000E-03 0.  1.
</event>
<event>
 8    1  0.1123191E+005  0.1043930E+01  0.7957747E-01            NaN
         13   -1    0    0    0    0  0.00000000000E+00  0.00000000000E+00  0.74505805969E-08  0.10566000000E+00  0.10566000000E+00 0.  1.
     999900   -1    0    0    0    0 -0.00000000000E+00 -0.00000000000E+00 -0.74505805969E-08  0.93827000000E+00  0.93827000000E+00 0.  1.
     999902    2    1    2    0    0 -0.85205794298E-02  0.18207124854E-01  0.10049649815E-01  0.10214556784E+01  0.10212084057E+01 0.  0.
     999903    2    3    3    0    0  0.63987295082E-01 -0.93084073001E-01  0.60863307414E-01  0.13003818342E+00  0.21132164571E-01 0.  0.
         14    1    1    2    0    0  0.85205794298E-02 -0.18207124854E-01 -0.10049649815E-01  0.22474321584E-01  0.00000000000E+00 0. -1.
     999901    1    3    3    0    0 -0.72507874512E-01  0.11129119785E+00 -0.50813657599E-01  0.89141749500E+00  0.88000000000E+00 0.  1.
        -11    1    4    4    0    0  0.51367225350E-01 -0.66179670929E-01  0.53552148696E-01  0.99430550815E-01  0.51100000000E-03 0.  1.
         11    1    4    4    0    0  0.12620069733E-01 -0.26904402071E-01  0.73111587179E-02  0.30607632605E-01  0.51100000000E-03 0. -1.
</event>
<event>
 8    1  0.1123191E+005  0.1043930E+01  0.7957747E-01            NaN
         13   -1    0    0    0    0  0.00000000000E+00  0.00000000000E+00  0.74505805969E-08  0.10566000000E+00  0.10566000000E+00 0. -1.
     999900   -1    0    0    0    0 -0.00000000000E+00 -0.00000000000E+00 -0.74505805969E-08  0.93827000000E+00  0.93827000000E+00 0. -1.
     999902    2    1    2    0    0 -0.52766960786E-02  0.15901686527E-01 -0.17083322337E-01  0.10200020444E+01  0.10197213460E+01 0.  0.
     999903    2    3    3    0    0  0.10318892286E+00 -0.67631760630E-01 -0.32880177156E-01  0.12927640322E+00  0.20230509946E-01 0.  0.
         14    1    1    2    0    0  0.52766960786E-02 -0.15901686527E-01  0.17083322337E-01  0.23927955574E-01  0.00000000000E+00 0.  1.
     999901    1    3    3    0    0 -0.10846561893E+00  0.83533447157E-01  0.15796854819E-01  0.89072564121E+00  0.88000000000E+00 0. -1.
        -11    1    4    4    0    0  0.85984141472E-01 -0.54136641443E-01 -0.18993949510E-01  0.10336865952E+00  0.51100000000E-03 0. -1.
         11    1    4    4    0    0  0.17204781384E-01 -0.13495119187E-01 -0.13886227646E-01  0.25907743699E-01  0.51100000000E-03 0.  1.
</event>
<event>
 8    1  0.1123191E+005  0.1043930E+01  0.7957747E-01            NaN
         13   -1    0    0    0    0  0.00000000000E+00  0.00000000000E+00  0.74505805969E-08  0.10566000000E+00  0.10566000000E+00 0. -1.
     999900   -1    0    0    0    0 -0.00000000000E+00 -0.00000000000E+00 -0.74505805969E-08  0.93827000000E+00  0.93827000000E+00 0.  1.
     999902    2    1    2    0    0  0.10057000514E-01 -0.21053297149E-01 -0.29480592928E-02  0.10204124399E+01  0.10201413980E+01 0.  0.
     999903    2    3    3    0    0  0.10492558639E+00 -0.71778147892E-01  0.34240794608E-01  0.13308157154E+00  0.19411117238E-01 0.  0.
         14    1    1    2    0    0 -0.10057000514E-01  0.21053297149E-01  0.29480592928E-02  0.23517560115E-01  0.00000000000E+00 0. -1.
     999901    1    3    3    0    0 -0.94868585880E-01  0.50724850744E-01 -0.37188853900E-01  0.88733086835E+00  0.88000000000E+00 0.  1.
        -11    1    4    4    0    0  0.42097005791E-01 -0.25040884386E-01  0.22478151273E-01  0.53895567471E-01  0.51100000000E-03 0.  1.
         11    1    4    4    0    0  0.62828580603E-01 -0.46737263507E-01  0.11762643334E-01  0.79186004066E-01  0.51100000000E-03 0. -1.
</event>
<event>
 8    1  0.1123191E+005  0.1043930E+01  0.7957747E-01            NaN
         13   -1    0    0    0    0  0.00000000000E+00  0.00000000000E+00  0.74505805969E-08  0.10566000000E+00  0.10566000000E+00 0.  1.
     999900   -1    0    0    0    0 -0.00000000000E+00 -0.00000000000E+00 -0.74505805969E-08  0.93827000000E+00  0.93827000000E+00 0.  1.
     999902    2    1    2    0    0  0.18749306973E-01  0.13557467098E-01 -0.54160783102E-02  0.10201671018E+01  0.10198903080E+01 0.  0.
     999903    2    3    3    0    0 -0.12125856384E+00 -0.34737933527E-01  0.84667660161E-02  0.12768327396E+00  0.17915607484E-01 0.  0.
         14    1    1    2    0    0 -0.18749306973E-01 -0.13557467098E-01  0.54160783102E-02  0.23762898189E-01  0.00000000000E+00 0. -1.
     999901    1    3    3    0    0  0.14000787081E+00  0.48295400625E-01 -0.13882844326E-01  0.89248382785E+00  0.88000000000E+00 0. -1.
        -11    1    4    4    0    0 -0.72342416825E-01 -0.27932059607E-01  0.10469083062E-01  0.78252719104E-01  0.51100000000E-03 0.  1.
         11    1    4    4    0    0 -0.48916147015E-01 -0.68058739195E-02 -0.20023170461E-02  0.49430554854E-01  0.51100000000E-03 0. -1.
</event>
<event>
 8    1  0.1123191E+005  0.1043930E+01  0.7957747E-01            NaN
         13   -1    0    0    0    0  0.00000000000E+00  0.00000000000E+00  0.74505805969E-08  0.10566000000E+00  0.10566000000E+00 0. -1.
     999900   -1    0    0    0    0 -0.00000000000E+00 -0.00000000000E+00 -0.74505805969E-08  0.93827000000E+00  0.93827000000E+00 0. -1.
     999902    2    1    2    0    0 -0.36452857487E-02 -0.19823274713E-01 -0.12156612533E-01  0.10203920826E+01  0.10201205657E+01 0.  0.
     999903    2    3    3    0    0 -0.42786216440E-01 -0.99583733884E-01 -0.75644458569E-01  0.13364270992E+00  0.19766371223E-01 0.  0.
         14    1    1    2    0    0  0.36452857487E-02  0.19823274713E-01  0.12156612533E-01  0.23537917428E-01  0.00000000000E+00 0. -1.
     999901    1    3    3    0    0  0.39140930691E-01  0.79760459171E-01  0.63487846037E-01  0.88674937265E+00  0.88000000000E+00 0.  1.
        -11    1    4    4    0    0 -0.94996879611E-02 -0.30719670427E-01 -0.12667808590E-01  0.34564095793E-01  0.51100000000E-03 0.  1.
         11    1    4    4    0    0 -0.33286528479E-01 -0.68864063457E-01 -0.62976649980E-01  0.99078614129E-01  0.51100000000E-03 0. -1.
</event>
<event>
 8    1  0.1123191E+005  0.1043930E+01  0.7957747E-01            NaN
         13   -1    0    0    0    0  0.00000000000E+00  0.00000000000E+00  0.74505805969E-08  0.10566000000E+00  0.10566000000E+00 0. -1.
     999900   -1    0    0    0    0 -0.00000000000E+00 -0.00000000000E+00 -0.74505805969E-08  0.93827000000E+00  0.93827000000E+00 0.  1.
     999902    2    1    2    0    0 -0.15330191658E-01  0.18480377265E-01  0.21522368998E-02  0.10198225065E+01  0.10195375292E+01 0.  0.
     999903    2    3    3    0    0  0.44390429262E-01 -0.11141901295E+00 -0.37893797639E-01  0.12738534397E+00  0.20158851754E-01 0.  0.
         14    1    1    2    0    0  0.15330191658E-01 -0.18480377265E-01 -0.21522368998E-02  0.24107493520E-01  0.00000000000E+00 0.  1.
     999901    1    3    3    0    0 -0.59720620920E-01  0.12989939021E+00  0.40046034538E-01  0.89243716251E+00  0.88000000000E+00 0. -1.
        -11    1    4    4    0    0  0.12201881666E-01 -0.57582937001E-01 -0.16984787165E-01  0.61265199468E-01  0.51100000000E-03 0. -1.
         11    1    4    4    0    0  0.32188547596E-01 -0.53836075944E-01 -0.20909010474E-01  0.66120144505E-01  0.51100000000E-03 0.  1.
</event>
<event>
 8    1  0.1123191E+005  0.1043930E+01  0.7957747E-01            NaN
         13   -1    0    0    0    0  0.00000000000E+00  0.00000000000E+00  0.74505805969E-08  0.10566000000E+00  0.10566000000E+00 0.  1.
     999900   -1    0    0    0    0 -0.00000000000E+00 -0.00000000000E+00 -0.74505805969E-08  0.93827000000E+00  0.93827000000E+00 0. -1.
     999902    2    1    2    0    0 -0.15157048369E-01 -0.15406162692E-01 -0.65584129215E-02  0.10213446343E+01  0.10210948845E+01 0.  0.
     999903    2    3    3    0    0  0.33387275324E-01 -0.12548609403E+00 -0.20807522004E-01  0.13304447120E+00  0.20159573323E-01 0.  0.
         14    1    1    2    0    0  0.15157048369E-01  0.15406162692E-01  0.65584129215E-02  0.22585365709E-01  0.00000000000E+00 0.  1.
     999901    1    3    3    0    0 -0.48544323693E-01  0.11007993133E+00  0.14249109083E-01  0.88830016310E+00  0.88000000000E+00 0.  1.
        -11    1    4    4    0    0  0.80563957736E-02 -0.55448641571E-01 -0.16626665616E-01  0.58447963997E-01  0.51100000000E-03 0.  1.
         11    1    4    4    0    0  0.25330879550E-01 -0.70037452454E-01 -0.41808563880E-02  0.74596507199E-01  0.51100000000E-03 0. -1.
</event>
<event>
 8    1  0.1123191E+005  0.1043930E+01  0.7957747E-01            NaN
         13   -1    0    0    0    0  0.00000000000E+00  0.00000000000E+00  0.74505805969E-08  0.10566000000E+00  0.10566000000E+00 0.  1.
     999900   -1    0    0    0    0 -0.00000000000E+00 -0.00000000000E+00 -0.74505805969E-08  0.93827000000E+00  0.93827000000E+00 0.  1.
     999902    2    1    2    0    0  0.74985815651E-02  0.35821866833E-02 -0.31553556524E-01  0.10113004472E+01  0.10107739148E+01 0.  0.
     999903    2    3    3    0    0 -0.98604301540E-01  0.62667480083E-01  0.25057617923E-01  0.12115791997E+00  0.20033372506E-01 0.  0.
         14    1    1    2    0    0 -0.74985815651E-02 -0.35821866833E-02  0.31553556524E-01  0.32629552804E-01  0.00000000000E+00 0.  1.
     999901    1    3    3    0    0  0.10610288310E+00 -0.59085293400E-01 -0.56611174446E-01  0.89014252722E+00  0.88000000000E+00 0.  1.
        -11    1    4    4    0    0 -0.28077508352E-01  0.26105739060E-01  0.18129440864E-02  0.38384944632E-01  0.51100000000E-03 0. -1.
         11    1    4    4    0    0 -0.70526793187E-01  0.36561741023E-01  0.23244673836E-01  0.82772975340E-01  0.51100000000E-03 0.  1.
</event>
<event>
 8    1  0.1215692E+005  0.1043930E+01  0.7957747E-01            NaN
         13   -1    0    0    0    0  0.00000000000E+00  0.00000000000E+00  0.74505805969E-08  0.10566000000E+00  0.10566000000E+00 0.  1.
     999900   -1    0    0    0    0 -0.00000000000E+00 -0.00000000000E+00 -0.74505805969E-08  0.93827000000E+00  0.93827000000E+00 0. -1.
     999902    2    1    2    0    0 -0.10281897624E-01 -0.69908750079E-02 -0.20661441273E-01  0.10198160018E+01  0.10195308689E+01 0.  0.
     999903    2    3    3    0    0  0.10131639244E-01  0.12719004555E+00  0.16480840749E-02  0.12913146349E+00  0.19805576977E-01 0.  0.
         14    1    1    2    0    0  0.10281897624E-01  0.69908750079E-02  0.20661441273E-01  0.24113998167E-01  0.00000000000E+00 0.  1.
     999901    1    3    3    0    0 -0.20413536867E-01 -0.13418092056E+00 -0.22309525348E-01  0.89068453835E+00  0.88000000000E+00 0. -1.
        -11    1    4    4    0    0  0.11273196295E-01  0.41982808238E-01  0.55495202165E-02  0.43825785081E-01  0.51100000000E-03 0. -1.
         11    1    4    4    0    0 -0.11415570510E-02  0.85207237314E-01 -0.39014361416E-02  0.85305678405E-01  0.51100000000E-03 0.  1.
</event>
<event>
 8    1  0.1123191E+005  0.1043930E+01  0.7957747E-01            NaN
         13   -1    0    0    0    0  0.00000000000E+00  0.00000000000E+00  0.74505805969E-08  0.10566000000E+00  0.10566000000E+00 0. -1.
     999900   -1    0    0    0    0 -0.00000000000E+00 -0.00000000000E+00 -0.74505805969E-08  0.93827000000E+00  0.93827000000E+00 0. -1.
     999902    2    1    2    0    0 -0.75327373603E-02  0.86183181960E-02  0.20600503075E-01  0.10203631108E+01  0.10200909173E+01 0.  0.
     999903    2    3    3    0    0  0.10489045727E-02 -0.53864880798E-01  0.11980400044E+00  0.13254605269E+00  0.17689883495E-01 0.  0.
         14    1    1    2    0    0  0.75327373603E-02 -0.86183181960E-02 -0.20600503075E-01  0.23566889222E-01  0.00000000000E+00 0.  1.
     999901    1    3    3    0    0 -0.85816419330E-02  0.62483198994E-01 -0.99203497369E-01  0.88781705808E+00  0.88000000000E+00 0. -1.
        -11    1    4    4    0    0  0.57422640603E-03 -0.34786613614E-01  0.55838452832E-01  0.65792341183E-01  0.51100000000E-03 0.  1.
         11    1    4    4    0    0  0.47467816666E-03 -0.19078267184E-01  0.63965547612E-01  0.66753711510E-01  0.51100000000E-03 0. -1.
</event>
<event>
 8    1  0.1125310E+005  0.1043930E+01  0.7957747E-01            NaN
         13   -1    0    0    0    0  0.00000000000E+00  0.00000000000E+00  0.74505805969E-08  0.10566000000E+00  0.10566000000E+00 0.  1.
     999900   -1    0    0    0    0 -0.00000000000E+00 -0.00000000000E+00 -0.74505805969E-08  0.93827000000E+00  0.93827000000E+00 0.  1.
     999902    2    1    2    0    0  0.25209855125E-02  0.59672186423E-02  0.23242137928E-01  0.10198020071E+01  0.10195165392E+01 0.  0.
     999903    2    3    3    0    0  0.75817659377E-02  0.11681439434E+00  0.57979671575E-01  0.13215376364E+00  0.19997225495E-01 0.  0.
         14    1    1    2    0    0 -0.25209855125E-02 -0.59672186423E-02 -0.23242137928E-01  0.24127992908E-01  0.00000000000E+00 0. -1.
     999901    1    3    3    0    0 -0.50607804252E-02 -0.11084717570E+00 -0.34737533646E-01  0.88764824345E+00  0.88000000000E+00 0.  1.
        -11    1    4    4    0    0  0.42908305109E-05  0.66634999114E-01  0.42734282990E-01  0.79162511260E-01  0.51100000000E-03 0. -1.
         11    1    4    4    0    0  0.75774751072E-02  0.50179395231E-01  0.15245388585E-01  0.52991252380E-01  0.51100000000E-03 0.  1.
</event>
<event>
 8    1  0.1123191E+005  0.1043930E+01  0.7957747E-01            NaN
         13   -1    0    0    0    0  0.00000000000E+00  0.00000000000E+00  0.74505805969E-08  0.10566000000E+00  0.10566000000E+00 0.  1.
     999900   -1    0    0    0    0 -0.00000000000E+00 -0.00000000000E+00 -0.74505805969E-08  0.93827000000E+00  0.93827000000E+00 0. -1.
     999902    2    1    2    0    0 -0.38948398826E-02  0.16741477880E-01  0.16438296041E-01  0.10201462989E+01  0.10198690145E+01 0.  0.
     999903    2    3    3    0    0 -0.31336448180E-01  0.12652114566E+00  0.17685008700E-01  0.13289990046E+00  0.18975002697E-01 0.  0.
         14    1    1    2    0    0  0.38948398826E-02 -0.16741477880E-01 -0.16438296041E-01  0.23783701059E-01  0.00000000000E+00 0.  1.
     999901    1    3    3    0    0  0.27441608298E-01 -0.10977966778E+00 -0.12467126588E-02  0.88724639848E+00  0.88000000000E+00 0. -1.
        -11    1    4    4    0    0 -0.17502940893E-01  0.35892964161E-01  0.29644379912E-02  0.40046308566E-01  0.51100000000E-03 0. -1.
         11    1    4    4    0    0 -0.13833507288E-01  0.90628181494E-01  0.14720570709E-01  0.92853591895E-01  0.51100000000E-03 0.  1.
</event>
<event>
 8    1  0.1123191E+005  0.1043930E+01  0.7957747E-01            NaN
         13   -1    0    0    0    0  0.00000000000E+00  0.00000000000E+00  0.74505805969E-08  0.10566000000E+00  0.10566000000E+00 0. -1.
     999900   -1    0    0    0    0 -0.00000000000E+00 -0.00000000000E+00 -0.74505805969E-08  0.93827000000E+00  0.93827000000E+00 0. -1.
     999902    2    1    2    0    0  0.43536529833E-03 -0.58678730031E-02 -0.21981458362E-01  0.10211746492E+01  0.10209210833E+01 0.  0.
     999903    2    3    3    0    0 -0.11096283326E+00 -0.47442180215E-01  0.45386925747E-01  0.13062623346E+00  0.20969716520E-01 0.  0.
         14    1    1    2    0    0 -0.43536529833E-03  0.58678730031E-02  0.21981458362E-01  0.22755350760E-01  0.00000000000E+00 0. -1.
     999901    1    3    3    0    0  0.11139819856E+00  0.41574307212E-01 -0.67368384108E-01  0.89054841578E+00  0.88000000000E+00 0. -1.
        -11    1    4    4    0    0 -0.89219005380E-01 -0.45486454769E-01  0.32592346791E-01  0.10531652614E+00  0.51100000000E-03 0. -1.
         11    1    4    4    0    0 -0.21743827884E-01 -0.19557254463E-02  0.12794578956E-01  0.25309707322E-01  0.51100000000E-03 0.  1.
</event>
<event>
 8    1  0.1123191E+005  0.1043930E+01  0.7957747E-01            NaN
         13   -1    0    0    0    0  0.00000000000E+00  0.00000000000E+00  0.74505805969E-08  0.10566000000E+00  0.10566000000E+00 0.  1.
     999900   -1    0    0    0    0 -0.00000000000E+00 -0.00000000000E+00 -0.74505805969E-08  0.93827000000E+00  0.93827000000E+00 0.  1.
     999902    2    1    2    0    0 -0.22709180235E-01 -0.34772299546E-03  0.24746338485E-02  0.10210837401E+01  0.10208281211E+01 0.  0.
     999903    2    3    3    0    0 -0.11555839365E+00  0.47490558169E-01 -0.43789783676E-01  0.13370001595E+00  0.18682977603E-01 0.  0.
         14    1    1    2    0    0  0.22709180235E-01  0.34772299546E-03 -0.24746338485E-02  0.22846259889E-01  0.00000000000E+00 0.  1.
     999901    1    3    3    0    0  0.92849213417E-01 -0.47838281164E-01  0.46264417524E-01  0.88738372416E+00  0.88000000000E+00 0.  1.
        -11    1    4    4    0    0 -0.61025566973E-01  0.32885356873E-01 -0.30282774692E-01  0.75649680006E-01  0.51100000000E-03 0. -1.
         11    1    4    4    0    0 -0.54532826679E-01  0.14605201296E-01 -0.13507008983E-01  0.58050335944E-01  0.51100000000E-03 0.  1.
</event>
<event>
 8    1  0.1123191E+005  0.1043930E+01  0.7957747E-01            NaN
         13   -1    0    0    0    0  0.00000000000E+00  0.00000000000E+00  0.74505805969E-08  0.10566000000E+00  0.10566000000E+00 0.  1.
     999900   -1    0    0    0    0 -0.00000000000E+00 -0.00000000000E+00 -0.74505805969E-08  0.93827000000E+00  0.93827000000E+00 0.  1.
     999902    2    1    2    0    0  0.16189635634E-01  0.16642348682E-01  0.14310623450E-02  0.10206680136E+01  0.10204028979E+01 0.  0.
     999903    2    3    3    0    0  0.10633193707E+00  0.77302458447E-01  0.16358165047E-01  0.13386019800E+00  0.19204481781E-01 0.  0.
         14    1    1    2    0    0 -0.16189635634E-01 -0.16642348682E-01 -0.14310623450E-02  0.23261986396E-01  0.00000000000E+00 0. -1.
     999901    1    3    3    0    0 -0.90142301440E-01 -0.60660109764E-01 -0.14927102702E-01  0.88680781561E+00  0.88000000000E+00 0.  1.
        -11    1    4    4    0    0  0.36470843212E-01  0.19984943500E-01 -0.20361347912E-02  0.41640453134E-01  0.51100000000E-03 0.  1.
         11    1    4    4    0    0  0.69861093862E-01  0.57317514946E-01  0.18394299838E-01  0.92219744864E-01  0.51100000000E-03 0. -1.
</event>
<event>
 8    1  0.1123191E+005  0.1043930E+01  0.7957747E-01            NaN
         13   -1    0    0    0    0  0.00000000000E+00  0.00000000000E+00  0.74505805969E-08  0.10566000000E+00  0.10566000000E+00 0. -1.
     999900   -1    0    0    0    0 -0.00000000000E+00 -0.00000000000E+00 -0.74505805969E-08  0.93827000000E+00  0.93827000000E+00 0. -1.
     999902    2    1    2    0    0  0.33600766933E-02 -0.20341645181E-01  0.40745712621E-02  0.10229139401E+01  0.10226980268E+01 0.  0.
     999903    2    3    3    0    0  0.11337849965E+00  0.64518848918E-02  0.66903969923E-01  0.13343685775E+00  0.20807277875E-01 0.  0.
         14    1    1    2    0    0 -0.33600766933E-02  0.20341645181E-01 -0.40745712621E-02  0.21016059931E-01  0.00000000000E+00 0.  1.
     999901    1    3    3    0    0 -0.11001842295E+00 -0.26793530073E-01 -0.62829398661E-01  0.88947708232E+00  0.88000000000E+00 0. -1.
        -11    1    4    4    0    0  0.82047590283E-01  0.13695584613E-01  0.50793264443E-01  0.97465855267E-01  0.51100000000E-03 0. -1.
         11    1    4    4    0    0  0.31330909364E-01 -0.72436997211E-02  0.16110705480E-01  0.35971002478E-01  0.51100000000E-03 0.  1.
</event>
<event>
 8    1  0.1123191E+005  0.1043930E+01  0.7957747E-01            NaN
         13   -1    0    0    0    0  0.00000000000E+00  0.00000000000E+00  0.74505805969E-08  0.10566000000E+00  0.10566000000E+00 0.  1.
     999900   -1    0    0    0    0 -0.00000000000E+00 -0.00000000000E+00 -0.74505805969E-08  0.93827000000E+00  0.93827000000E+00 0.  1.
     999902    2    1    2    0    0  0.14100291639E-01  0.23093061259E-01  0.85379873707E-02  0.10155573912E+01  0.10151609773E+01 0.  0.
     999903    2    3    3    0    0  0.26641893192E-01  0.44942319317E-01 -0.11364964707E+00  0.12675792007E+00  0.20535955856E-01 0.  0.
         14    1    1    2    0    0 -0.14100291639E-01 -0.23093061259E-01 -0.85379873707E-02  0.28372608814E-01  0.00000000000E+00 0. -1.
     999901    1    3    3    0    0 -0.12541601553E-01 -0.21849258058E-01  0.12218763444E+00  0.88879947112E+00  0.88000000000E+00 0. -1.
        -11    1    4    4    0    0  0.32554243483E-02  0.21037668085E-01 -0.58547099876E-01  0.62299320149E-01  0.51100000000E-03 0. -1.
         11    1    4    4    0    0  0.23386468844E-01  0.23904651232E-01 -0.55102547193E-01  0.64458599920E-01  0.51100000000E-03 0.  1.
</event>
<event>
 8    1  0.1123191E+005  0.1043930E+01  0.7957747E-01            NaN
         13   -1    0    0    0    0  0.00000000000E+00  0.00000000000E+00  0.74505805969E-08  0.10566000000E+00  0.10566000000E+00 0.  1.
     999900   -1    0    0    0    0 -0.00000000000E+00 -0.00000000000E+00 -0.74505805969E-08  0.93827000000E+00  0.93827000000E+00 0.  1.
     999902    2    1    2    0    0 -0.25890927114E-02  0.71964650684E-02  0.21860176208E-01  0.10207705567E+01  0.10205077999E+01 0.  0.
     999903    2    3    3    0    0  0.17120753166E-01 -0.10120945041E+00 -0.75044351218E-01  0.12862101319E+00  0.19371043908E-01 0.  0.
         14    1    1    2    0    0  0.25890927114E-02 -0.71964650684E-02 -0.21860176208E-01  0.23159443309E-01  0.00000000000E+00 0. -1.
     999901    1    3    3    0    0 -0.19709845877E-01  0.10840591548E+00  0.96904527426E-01  0.89214954350E+00  0.88000000000E+00 0. -1.
        -11    1    4    4    0    0  0.15660380252E-01 -0.59511816310E-01 -0.54073247639E-01  0.81921187866E-01  0.51100000000E-03 0.  1.
         11    1    4    4    0    0  0.14603729140E-02 -0.41697634103E-01 -0.20971103579E-01  0.46699825323E-01  0.51100000000E-03 0. -1.
</event>
<event>
 8    1  0.1123191E+005  0.1043930E+01  0.7957747E-01            NaN
         13   -1    0    0    0    0  0.00000000000E+00  0.00000000000E+00  0.74505805969E-08  0.10566000000E+00  0.10566000000E+00 0. -1.
     999900   -1    0    0    0    0 -0.00000000000E+00 -0.00000000000E+00 -0.74505805969E-08  0.93827000000E+00  0.93827000000E+00 0.  1.
     999902    2    1    2    0    0  0.15067335527E-01  0.18322828406E-01  0.17411506963E-02  0.10201438224E+01  0.10198664795E+01 0.  0.
     999903    2    3    3    0    0  0.45956709638E-01  0.82883964187E-01  0.90374313666E-01  0.13280052281E+00  0.22061088100E-01 0.  0.
         14    1    1    2    0    0 -0.15067335527E-01 -0.18322828406E-01 -0.17411506963E-02  0.23786177634E-01  0.00000000000E+00 0. -1.
     999901    1    3    3    0    0 -0.30889374112E-01 -0.64561135781E-01 -0.88633162970E-01  0.88734329955E+00  0.88000000000E+00 0.  1.
        -11    1    4    4    0    0  0.31517411329E-01  0.35400468519E-01  0.49118423481E-01  0.68259951908E-01  0.51100000000E-03 0. -1.
         11    1    4    4    0    0  0.14439298309E-01  0.47483495668E-01  0.41255890186E-01  0.64540570904E-01  0.51100000000E-03 0.  1.
</event>
<event>
 8    1  0.1123191E+005  0.1043930E+01  0.7957747E-01            NaN
         13   -1    0    0    0    0  0.00000000000E+00  0.00000000000E+00  0.74505805969E-08  0.10566000000E+00  0.10566000000E+00 0.  1.
     999900   -1    0    0    0    0 -0.00000000000E+00 -0.00000000000E+00 -0.74505805969E-08  0.93827000000E+00  0.93827000000E+00 0.  1.
     999902    2    1    2    0    0  0.19194136318E-01  0.17525214738E-01  0.64224485778E-03  0.10179307596E+01  0.10175986787E+01 0.  0.
     999903    2    3    3    0    0  0.35712192784E-01  0.12546696817E-01 -0.12198129994E+00  0.12926087405E+00  0.19903660745E-01 0.  0.
         14    1    1    2    0    0 -0.19194136318E-01 -0.17525214738E-01 -0.64224485778E-03  0.25999240356E-01  0.00000000000E+00 0. -1.
     999901    1    3    3    0    0 -0.16518056465E-01  0.49785179203E-02  0.12262354479E+00  0.88866988560E+00  0.88000000000E+00 0. -1.
        -11    1    4    4    0    0  0.48762876154E-02 -0.48611626413E-02 -0.13804717978E-01  0.15435039442E-01  0.51100000000E-03 0.  1.
         11    1    4    4    0    0  0.30835905168E-01  0.17407859459E-01 -0.10817658196E+00  0.11382583460E+00  0.51100000000E-03 0. -1.
</event>
<event>
 8    1  0.1123191E+005  0.1043930E+01  0.7957747E-01            NaN
         13   -1    0    0    0    0  0.00000000000E+00  0.00000000000E+00  0.74505805969E-08  0.10566000000E+00  0.10566000000E+00 0.  1.
     999900   -1    0    0    0    0 -0.00000000000E+00 -0.00000000000E+00 -0.74505805969E-08  0.93827000000E+00  0.93827000000E+00 0.  1.
     999902    2    1    2    0    0 -0.97117276085E-02 -0.18066604274E-01 -0.11349009675E-01  0.10204881600E+01  0.10202188808E+01 0.  0.
     999903    2    3    3    0    0  0.34667854026E-01 -0.74143250879E-01 -0.10264243153E+00  0.13287978550E+00  0.20554485901E-01 0.  0.
         14    1    1    2    0    0  0.97117276085E-02  0.18066604274E-01  0.11349009675E-01  0.23441840024E-01  0.00000000000E+00 0.  1.
     999901    1    3    3    0    0 -0.44379581634E-01  0.56076646605E-01  0.91293421857E-01  0.88760837447E+00  0.88000000000E+00 0.  1.
        -11    1    4    4    0    0  0.24364549791E-01 -0.61316984761E-01 -0.69253772444E-01  0.95654325701E-01  0.51100000000E-03 0.  1.
         11    1    4    4    0    0  0.10303304235E-01 -0.12826266119E-01 -0.33388659088E-01  0.37225459801E-01  0.51100000000E-03 0. -1.
</event>
<event>
 8    1  0.1123191E+005  0.1043930E+01  0.7957747E-01            NaN
         13   -1    0    0    0    0  0.00000000000E+00  0.00000000000E+00  0.74505805969E-08  0.10566000000E+00  0.10566000000E+00 0.  1.
     999900   -1    0    0    0    0 -0.00000000000E+00 -0.00000000000E+00 -0.74505805969E-08  0.93827000000E+00  0.93827000000E+00 0. -1.
     999902    2    1    2    0    0 -0.70296491826E-02  0.13171766760E-01 -0.18514636259E-01  0.10201454848E+01  0.10198681812E+01 0.  0.
     999903    2    3    3    0    0 -0.96581582918E-01 -0.58974455148E-01  0.59169279063E-01  0.12926983867E+00  0.20092264360E-01 0.  0.
         14    1    1    2    0    0  0.70296491826E-02 -0.13171766760E-01  0.18514636259E-01  0.23784515194E-01  0.00000000000E+00 0.  1.
     999901    1    3    3    0    0  0.89551933736E-01  0.72146221908E-01 -0.77683915322E-01  0.89087564613E+00  0.88000000000E+00 0. -1.
        -11    1    4    4    0    0 -0.27789092566E-01 -0.70124965017E-02  0.13040914155E-01  0.31491829668E-01  0.51100000000E-03 0. -1.
         11    1    4    4    0    0 -0.68792490352E-01 -0.51961958646E-01  0.46128364908E-01  0.97778009006E-01  0.51100000000E-03 0.  1.
</event>
<event>
 8    1  0.1123191E+005  0.1043930E+01  0.7957747E-01            NaN
         13   -1    0    0    0    0  0.00000000000E+00  0.00000000000E+00  0.74505805969E-08  0.10566000000E+00  0.10566000000E+00 0. -1.
     999900   -1    0    0    0    0 -0.00000000000E+00 -0.00000000000E+00 -0.74505805969E-08  0.93827000000E+00  0.93827000000E+00 0. -1.
     999902    2    1    2    0    0 -0.14722346782E-01  0.75749701854E-02 -0.19498398794E-01  0.10183504139E+01  0.10180291009E+01 0.  0.
     999903    2    3    3    0    0  0.92029373518E-01  0.10321200149E-01 -0.87857674315E-01  0.12926298172E+00  0.20347352252E-01 0.  0.
         14    1    1    2    0    0  0.14722346782E-01 -0.75749701854E-02  0.19498398794E-01  0.25579586072E-01  0.00000000000E+00 0. -1.
     999901    1    3    3    0    0 -0.10675172030E+00 -0.27462299640E-02  0.68359275521E-01  0.88908743221E+00  0.88000000000E+00 0.  1.
        -11    1    4    4    0    0  0.86112884223E-02 -0.12998746819E-02 -0.19181062367E-02  0.89322010175E-02  0.51100000000E-03 0.  1.
         11    1    4    4    0    0  0.83418085095E-01  0.11621074831E-01 -0.85939568078E-01  0.12033078070E+00  0.51100000000E-03 0. -1.
</event>
<event>
 8    1  0.1123191E+005  0.1043930E+01  0.7957747E-01            NaN
         13   -1    0    0    0    0  0.00000000000E+00  0.00000000000E+00  0.74505805969E-08  0.10566000000E+00  0.10566000000E+00 0. -1.
     999900   -1    0    0    0    0 -0.00000000000E+00 -0.00000000000E+00 -0.74505805969E-08  0.93827000000E+00  0.93827000000E+00 0.  1.
     999902    2    1    2    0    0  0.55703228636E-02 -0.15429666521E-02  0.23313859291E-01  0.10199103148E+01  0.10196274344E+01 0.  0.
     999903    2    3    3    0    0 -0.55433359572E-01 -0.55830094598E-01  0.10439419023E+00  0.13241802659E+00  0.21131256381E-01 0.  0.
         14    1    1    2    0    0 -0.55703228636E-02  0.15429666521E-02 -0.23313859291E-01  0.24019685218E-01  0.00000000000E+00 0.  1.
     999901    1    3    3    0    0  0.61003682435E-01  0.54287127946E-01 -0.81080330940E-01  0.88749228819E+00  0.88000000000E+00 0.  1.
        -11    1    4    4    0    0 -0.40119433551E-01 -0.51318557026E-01  0.88451658651E-01  0.10985044507E+00  0.51100000000E-03 0. -1.
         11    1    4    4    0    0 -0.15313926020E-01 -0.45115375728E-02  0.15942531581E-01  0.22567581520E-01  0.51100000000E-03 0.  1.
</event>
<event>
 8    1  0.1123191E+005  0.1043930E+01  0.7957747E-01            NaN
         13   -1    0    0    0    0  0.00000000000E+00  0.00000000000E+00  0.74505805969E-08  0.10566000000E+00  0.10566000000E+00 0. -1.
     999900   -1    0    0    0    0 -0.00000000000E+00 -0.00000000000E+00 -0.74505805969E-08  0.93827000000E+00  0.93827000000E+00 0. -1.
     999902    2    1    2    0    0  0.20849311187E-01  0.15721160894E-02 -0.10215310740E-01  0.10206594628E+01  0.10203941499E+01 0.  0.
     999903    2    3    3    0    0 -0.59367538685E-01  0.11295970595E+00 -0.13904613960E-01  0.13001051453E+00  0.20615425793E-01 0.  0.
         14    1    1    2    0    0 -0.20849311187E-01 -0.15721160894E-02  0.10215310740E-01  0.23270537155E-01  0.00000000000E+00 0. -1.
     999901    1    3    3    0    0  0.80216849872E-01 -0.11138758986E+00  0.36893032202E-02  0.89064894832E+00  0.88000000000E+00 0.  1.
        -11    1    4    4    0    0 -0.58160760255E-01  0.96643499017E-01 -0.10429882432E-01  0.11327702108E+00  0.51100000000E-03 0. -1.
         11    1    4    4    0    0 -0.12067784302E-02  0.16316206934E-01 -0.34747315284E-02  0.16733493451E-01  0.51100000000E-03 0.  1.
</event>
<event>
 8    1  0.1123191E+005  0.1043930E+01  0.7957747E-01            NaN
         13   -1    0    0    0    0  0.00000000000E+00  0.00000000000E+00  0.74505805969E-08  0.10566000000E+00  0.10566000000E+00 0.  1.
     999900   -1    0    0    0    0 -0.00000000000E+00 -0.00000000000E+00 -0.74505805969E-08  0.93827000000E+00  0.93827000000E+00 0. -1.
     999902    2    1    2    0    0 -0.26151918632E-02  0.10381016901E-01  0.21221786747E-01  0.10201609240E+01  0.10198839845E+01 0.  0.
     999903    2    3    3    0    0 -0.36659552646E-01 -0.69659522998E-01 -0.99349715391E-01  0.12769076000E+00  0.15433479751E-01 0.  0.
         14    1    1    2    0    0  0.26151918632E-02 -0.10381016901E-01 -0.21221786747E-01  0.23769075983E-01  0.00000000000E+00 0. -1.
     999901    1    3    3    0    0  0.34044360782E-01  0.80040539899E-01  0.12057150214E+00  0.89247016401E+00  0.88000000000E+00 0.  1.
        -11    1    4    4    0    0 -0.20093912094E-01 -0.50067923809E-01 -0.59755979612E-01  0.80508387875E-01  0.51100000000E-03 0.  1.
         11    1    4    4    0    0 -0.16565640551E-01 -0.19591599189E-01 -0.39593735779E-01  0.47182372127E-01  0.51100000000E-03 0. -1.
</event>
<event>
 8    1  0.1123191E+005  0.1043930E+01  0.7957747E-01            NaN
         13   -1    0    0    0    0  0.00000000000E+00  0.00000000000E+00  0.74505805969E-08  0.10566000000E+00  0.10566000000E+00 0. -1.
     999900   -1    0    0    0    0 -0.00000000000E+00 -0.00000000000E+00 -0.74505805969E-08  0.93827000000E+00  0.93827000000E+00 0. -1.
     999902    2    1    2    0    0  0.22728522787E-01 -0.51587216450E-02  0.54787354308E-02  0.10199880974E+01  0.10197070678E+01 0.  0.
     999903    2    3    3    0    0 -0.11706682691E+00  0.20298717809E-01  0.42577792764E-01  0.12781818027E+00  0.20197496464E-01 0.  0.
         14    1    1    2    0    0 -0.22728522787E-01  0.51587216450E-02 -0.54787354308E-02  0.23941902577E-01  0.00000000000E+00 0.  1.
     999901    1    3    3    0    0  0.13979534970E+00 -0.25457439454E-01 -0.37099057333E-01  0.89216991715E+00  0.88000000000E+00 0.  1.
        -11    1    4    4    0    0 -0.46399165973E-01  0.12984007180E-01  0.26438316085E-01  0.54961010943E-01  0.51100000000E-03 0. -1.
         11    1    4    4    0    0 -0.70667660936E-01  0.73147106286E-02  0.16139476679E-01  0.72857169326E-01  0.51100000000E-03 0.  1.
</event>
<event>
 8    1  0.1123191E+005  0.1043930E+01  0.7957747E-01            NaN
         13   -1    0    0    0    0  0.00000000000E+00  0.00000000000E+00  0.74505805969E-08  0.10566000000E+00  0.10566000000E+00 0. -1.
     999900   -1    0    0    0    0 -0.00000000000E+00 -0.00000000000E+00 -0.74505805969E-08  0.93827000000E+00  0.93827000000E+00 0.  1.
     999902    2    1    2    0    0 -0.14169741629E-01  0.17035064897E-01 -0.74775839984E-02  0.10205443361E+01  0.10202763609E+01 0.  0.
     999903    2    3    3    0    0  0.98811169843E-01 -0.58393599367E-01  0.53247430740E-01  0.12805248898E+00  0.19715256037E-01 0.  0.
         14    1    1    2    0    0  0.14169741629E-01 -0.17035064897E-01  0.74775839984E-02  0.23385663906E-01  0.00000000000E+00 0. -1.
     999901    1    3    3    0    0 -0.11298091147E+00  0.75428664265E-01 -0.60725014739E-01  0.89249184711E+00  0.88000000000E+00 0. -1.
        -11    1    4    4    0    0  0.19015060498E-01 -0.20969027129E-01  0.12326545511E-01  0.30878430493E-01  0.51100000000E-03 0.  1.
         11    1    4    4    0    0  0.79796109345E-01 -0.37424572239E-01  0.40920885229E-01  0.97174058487E-01  0.51100000000E-03 0. -1.
</event>
<event>
 8    1  0.1123191E+005  0.1043930E+01  0.7957747E-01            NaN
         13   -1    0    0    0    0  0.00000000000E+00  0.00000000000E+00  0.74505805969E-08  0.10566000000E+00  0.10566000000E+00 0.  1.
     999900   -1    0    0    0    0 -0.00000000000E+00 -0.00000000000E+00 -0.74505805969E-08  0.93827000000E+00  0.93827000000E+00 0. -1.
     999902    2    1    2    0    0  0.12328260955E-01 -0.16338372299E-01  0.11408927863E-01  0.10204972865E+01  0.10202282194E+01 0.  0.
     999903    2    3    3    0    0  0.76853857855E-01 -0.57653591075E-01  0.90249344929E-01  0.13365665181E+00  0.22106656938E-01 0.  0.
         14    1    1    2    0    0 -0.12328260955E-01  0.16338372299E-01 -0.11408927863E-01  0.23432713513E-01  0.00000000000E+00 0. -1.
     999901    1    3    3    0    0 -0.64525596899E-01  0.41315218776E-01 -0.78840417066E-01  0.88684063468E+00  0.88000000000E+00 0. -1.
        -11    1    4    4    0    0  0.42774524037E-01 -0.18978902083E-01  0.47582353961E-01  0.66739794429E-01  0.51100000000E-03 0.  1.
         11    1    4    4    0    0  0.34079333818E-01 -0.38674688992E-01  0.42666990968E-01  0.66916857378E-01  0.51100000000E-03 0. -1.
</event>
<event>
 7    1  0.1123191E+005  0.1043930E+01  0.7957747E-01            NaN
         13   -1    0    0    0    0  0.00000000000E+00  0.00000000000E+00  0.74505805969E-08  0.10566000000E+00  0.10566000000E+00 0.  1.
     999900   -1    0    0    0    0 -0.00000000000E+00 -0.00000000000E+00 -0.74505805969E-08  0.93827000000E+00  0.93827000000E+00 0.  1.
     999903    2    1    2    0    0  0.67509065238E-01 -0.10102337849E-02 -0.94861797733E-01  0.11811791679E+00  0.19864217476E-01 0.  0.
         14    1    1    2    0    0 -0.32661632228E-01  0.21486669572E-01 -0.42527776647E-02  0.39326140250E-01  0.00000000000E+00 0.  1.
     999901    1    1    2    0    0 -0.34847433009E-01 -0.20476435787E-01  0.99114575398E-01  0.88648594296E+00  0.88000000000E+00 0. -1.
        -11    1    3    3    0    0  0.41505011926E-01 -0.80581479330E-02 -0.67966085003E-01  0.80045297143E-01  0.51100000000E-03 0. -1.
         11    1    3    3    0    0  0.26004053311E-01  0.70479141481E-02 -0.26895712730E-01  0.38072619646E-01  0.51100000000E-03 0.  1.
</event>
<event>
 8    1  0.1123191E+005  0.1043930E+01  0.7957747E-01            NaN
         13   -1    0    0    0    0  0.00000000000E+00  0.00000000000E+00  0.74505805969E-08  0.10566000000E+00  0.10566000000E+00 0. -1.
     999900   -1    0    0    0    0 -0.00000000000E+00 -0.00000000000E+00 -0.74505805969E-08  0.93827000000E+00  0.93827000000E+00 0. -1.
     999902    2    1    2    0    0  0.87650902547E-02  0.20902094920E-01  0.70653039077E-02  0.10201888354E+01  0.10199125536E+01 0.  0.
     999903    2    3    3    0    0 -0.15531144822E-01 -0.11576600300E+00 -0.48157209704E-01  0.12759822257E+00  0.17866327155E-01 0.  0.
         14    1    1    2    0    0 -0.87650902547E-02 -0.20902094920E-01 -0.70653039077E-02  0.23741164642E-01  0.00000000000E+00 0.  1.
     999901    1    3    3    0    0  0.24296235077E-01  0.13666809792E+00  0.55222513611E-01  0.89259061279E+00  0.88000000000E+00 0. -1.
        -11    1    4    4    0    0 -0.14132194168E-01 -0.41654793132E-01 -0.16223528372E-01  0.46886082121E-01  0.51100000000E-03 0. -1.
         11    1    4    4    0    0 -0.13989506534E-02 -0.74111209870E-01 -0.31933681332E-01  0.80712140449E-01  0.51100000000E-03 0.  1.
</event>
<event>
 8    1  0.1123191E+005  0.1043930E+01  0.7957747E-01            NaN
         13   -1    0    0    0    0  0.00000000000E+00  0.00000000000E+00  0.74505805969E-08  0.10566000000E+00  0.10566000000E+00 0. -1.
     999900   -1    0    0    0    0 -0.00000000000E+00 -0.00000000000E+00 -0.74505805969E-08  0.93827000000E+00  0.93827000000E+00 0. -1.
     999902    2    1    2    0    0 -0.13131930478E-01 -0.10606057513E-01 -0.12544311442E-01  0.10228991702E+01  0.10226829501E+01 0.  0.
     999903    2    3    3    0    0  0.67849733207E-01  0.17069180904E-02 -0.11313644948E+00  0.13338895805E+00  0.19653449134E-01 0.  0.
         14    1    1    2    0    0  0.13131930478E-01  0.10606057513E-01  0.12544311442E-01  0.21030829836E-01  0.00000000000E+00 0. -1.
     999901    1    3    3    0    0 -0.80981663685E-01 -0.12312975603E-01  0.10059213804E+00  0.88951021211E+00  0.88000000000E+00 0.  1.
        -11    1    4    4    0    0  0.44355617992E-01  0.90809933986E-02 -0.63646297157E-01  0.78108882666E-01  0.51100000000E-03 0. -1.
         11    1    4    4    0    0  0.23494115215E-01 -0.73740753082E-02 -0.49490152323E-01  0.55280075383E-01  0.51100000000E-03 0.  1.
</event>
<event>
 8    1  0.1123191E+005  0.1043930E+01  0.7957747E-01            NaN
         13   -1    0    0    0    0  0.00000000000E+00  0.00000000000E+00  0.74505805969E-08  0.10566000000E+00  0.10566000000E+00 0.  1.
     999900   -1    0    0    0    0 -0.00000000000E+00 -0.00000000000E+00 -0.74505805969E-08  0.93827000000E+00  0.93827000000E+00 0. -1.
     999902    2    1    2    0    0  0.20549531999E-01 -0.11730384964E-01  0.38413686489E-03  0.10202649887E+01  0.10199904973E+01 0.  0.
     999903    2    3    3    0    0  0.29626759974E-01 -0.28974459957E-01  0.12324939438E+00  0.13151551578E+00  0.19714295269E-01 0.  0.
         14    1    1    2    0    0 -0.20549531999E-01  0.11730384964E-01 -0.38413686489E-03  0.23665011259E-01  0.00000000000E+00 0. -1.
     999901    1    3    3    0    0 -0.90772279753E-02  0.17244074993E-01 -0.12286525752E+00  0.88874947296E+00  0.88000000000E+00 0. -1.
        -11    1    4    4    0    0  0.10894198189E-01 -0.13371659163E-01  0.80240065976E-01  0.82074442623E-01  0.51100000000E-03 0.  1.
         11    1    4    4    0    0  0.18732561785E-01 -0.15602800794E-01  0.43009328406E-01  0.49441073154E-01  0.51100000000E-03 0. -1.
</event>
<event>
 8    1  0.1123191E+005  0.1043930E+01  0.7957747E-01            NaN
         13   -1    0    0    0    0  0.00000000000E+00  0.00000000000E+00  0.74505805969E-08  0.10566000000E+00  0.10566000000E+00 0. -1.
     999900   -1    0    0    0    0 -0.00000000000E+00 -0.00000000000E+00 -0.74505805969E-08  0.93827000000E+00  0.93827000000E+00 0. -1.
     999902    2    1    2    0    0 -0.28160652975E-02  0.10181317649E-01 -0.21725072747E-01  0.10197728429E+01  0.10194866762E+01 0.  0.
     999903    2    3    3    0    0 -0.44669143643E-02 -0.14100982484E-01  0.12419274867E+00  0.12742517187E+00  0.24383284733E-01 0.  0.
         14    1    1    2    0    0  0.28160652975E-02 -0.10181317649E-01  0.21725072747E-01  0.24157157090E-01  0.00000000000E+00 0. -1.
     999901    1    3    3    0    0  0.16508490668E-02  0.24282300133E-01 -0.14591782141E+00  0.89234767104E+00  0.88000000000E+00 0. -1.
        -11    1    4    4    0    0  0.46661625046E-02 -0.10875377914E-01  0.23999010040E-01  0.26763043945E-01  0.51100000000E-03 0.  1.
         11    1    4    4    0    0 -0.91330768689E-02 -0.32256045703E-02  0.10019373863E+00  0.10066212793E+00  0.51100000000E-03 0. -1.
</event>
<event>
 8    1  0.1123191E+005  0.1043930E+01  0.7957747E-01            NaN
         13   -1    0    0    0    0  0.00000000000E+00  0.00000000000E+00  0.74505805969E-08  0.10566000000E+00  0.10566000000E+00 0.  1.
     999900   -1    0    0    0    0 -0.00000000000E+00 -0.00000000000E+00 -0.74505805969E-08  0.93827000000E+00  0.93827000000E+00 0.  1.
     999902    2    1    2    0    0 -0.95778868431E-02 -0.21624675510E-01  0.12669933381E-02  0.10202452416E+01  0.10199702865E+01 0.  0.
     999903    2    3    3    0    0 -0.31233805729E-01 -0.44824454201E-01 -0.11813365926E+00  0.13161498983E+00  0.19548958643E-01 0.  0.
         14    1    1    2    0    0  0.95778868431E-02  0.21624675510E-01 -0.12669933381E-02  0.23684758377E-01  0.00000000000E+00 0. -1.
     999901    1    3    3    0    0  0.21655918886E-01  0.23199778692E-01  0.11940065260E+00  0.88863025179E+00  0.88000000000E+00 0. -1.
        -11    1    4    4    0    0 -0.55859807606E-02 -0.24777289578E-01 -0.54860993020E-01  0.60457480397E-01  0.51100000000E-03 0.  1.
         11    1    4    4    0    0 -0.25647824968E-01 -0.20047164623E-01 -0.63272666240E-01  0.71157509436E-01  0.51100000000E-03 0. -1.
</event>
<event>
 8    1  0.1123191E+005  0.1043930E+01  0.7957747E-01            NaN
         13   -1    0    0    0    0  0.00000000000E+00  0.00000000000E+00  0.74505805969E-08  0.10566000000E+00  0.10566000000E+00 0. -1.
     999900   -1    0    0    0    0 -0.00000000000E+00 -0.00000000000E+00 -0.74505805969E-08  0.93827000000E+00  0.93827000000E+00 0. -1.
     999902    2    1    2    0    0 -0.99076880134E-02  0.11459379271E-01 -0.20700446254E-01  0.10182787207E+01  0.10179555810E+01 0.  0.
     999903    2    3    3    0    0 -0.77245492596E-01  0.17710501611E-01  0.98117016454E-01  0.12772212737E+00  0.20136159255E-01 0.  0.
         14    1    1    2    0    0  0.99076880134E-02 -0.11459379271E-01  0.20700446254E-01  0.25651279308E-01  0.00000000000E+00 0. -1.
     999901    1    3    3    0    0  0.67337804582E-01 -0.62511223399E-02 -0.11881746271E+00  0.89055659332E+00  0.88000000000E+00 0. -1.
        -11    1    4    4    0    0 -0.35830946341E-01 -0.14519127421E-02  0.48345589593E-01  0.60195696859E-01  0.51100000000E-03 0.  1.
         11    1    4    4    0    0 -0.41414546255E-01  0.19162414353E-01  0.49771426861E-01  0.67526430515E-01  0.51100000000E-03 0. -1.
</event>
<event>
 8    1  0.1123191E+005  0.1043930E+01  0.7957747E-01            NaN
         13   -1    0    0    0    0  0.00000000000E+00  0.00000000000E+00  0.74505805969E-08  0.10566000000E+00  0.10566000000E+00 0. -1.
     999900   -1    0    0    0    0 -0.00000000000E+00 -0.00000000000E+00 -0.74505805969E-08  0.93827000000E+00  0.93827000000E+00 0.  1.
     999902    2    1    2    0    0  0.10449160129E-01 -0.40117749512E-02 -0.20758591539E-01  0.10203461409E+01  0.10200735507E+01 0.  0.
     999903    2    3    3    0    0  0.93434791994E-01  0.44688797195E-01  0.75647582053E-01  0.12986733090E+00  0.20391616268E-01 0.  0.
         14    1    1    2    0    0 -0.10449160129E-01  0.40117749512E-02  0.20758591539E-01  0.23583859063E-01  0.00000000000E+00 0. -1.
     999901    1    3    3    0    0 -0.82985631865E-01 -0.48700572146E-01 -0.96406173592E-01  0.89047881004E+00  0.88000000000E+00 0.  1.
        -11    1    4    4    0    0  0.51133255978E-01  0.15126643118E-01  0.45483672342E-01  0.70088877646E-01  0.51100000000E-03 0. -1.
         11    1    4    4    0    0  0.42301536016E-01  0.29562154077E-01  0.30163909711E-01  0.59778453250E-01  0.51100000000E-03 0.  1.
</event>
<event>
 8    1  0.1123191E+005  0.1043930E+01  0.7957747E-01            NaN
         13   -1    0    0    0    0  0.00000000000E+00  0.00000000000E+00  0.74505805969E-08  0.10566000000E+00  0.10566000000E+00 0.  1.
     999900   -1    0    0    0    0 -0.00000000000E+00 -0.00000000000E+00 -0.74505805969E-08  0.93827000000E+00  0.93827000000E+00 0.  1.
     999902    2    1    2    0    0 -0.57335809964E-02 -0.51274839068E-02  0.22422873696E-01  0.10202245089E+01  0.10199490665E+01 0.  0.
     999903    2    3    3    0    0 -0.41867803655E-01 -0.41769283916E-01  0.11819368624E+00  0.13353383451E+00  0.19077511151E-01 0.  0.
         14    1    1    2    0    0  0.57335809964E-02  0.51274839068E-02 -0.22422873696E-01  0.23705491074E-01  0.00000000000E+00 0. -1.
     999901    1    3    3    0    0  0.36134222658E-01  0.36641800009E-01 -0.95770812542E-01  0.88669067441E+00  0.88000000000E+00 0.  1.
        -11    1    4    4    0    0 -0.37410144825E-01 -0.27745655365E-01  0.79597625582E-01  0.92224635791E-01  0.51100000000E-03 0.  1.
         11    1    4    4    0    0 -0.44576588297E-02 -0.14023628551E-01  0.38596060656E-01  0.41309198723E-01  0.51100000000E-03 0. -1.
</event>
<event>
 8    1  0.1123191E+005  0.1043930E+01  0.7957747E-01            NaN
         13   -1    0    0    0    0  0.00000000000E+00  0.00000000000E+00  0.74505805969E-08  0.10566000000E+00  0.10566000000E+00 0.  1.
     999900   -1    0    0    0    0 -0.00000000000E+00 -0.00000000000E+00 -0.74505805969E-08  0.93827000000E+00  0.93827000000E+00 0. -1.
     999902    2    1    2    0    0  0.13387804629E-01  0.18334603942E-01  0.72489676295E-02  0.10200985387E+01  0.10198201264E+01 0.  0.
     999903    2    3    3    0    0 -0.64505967722E-01  0.11278949236E+00  0.29139042819E-02  0.13161220879E+00  0.20755558458E-01 0.  0.
         14    1    1    2    0    0 -0.13387804629E-01 -0.18334603942E-01 -0.72489676295E-02  0.23831461268E-01  0.00000000000E+00 0. -1.
     999901    1    3    3    0    0  0.77893772351E-01 -0.94454888414E-01  0.43350633475E-02  0.88848632994E+00  0.88000000000E+00 0. -1.
        -11    1    4    4    0    0 -0.36792665064E-01  0.79125382733E-01 -0.45039519858E-02  0.87378905347E-01  0.51100000000E-03 0. -1.
         11    1    4    4    0    0 -0.27713302659E-01  0.33664109624E-01  0.74178562678E-02  0.44233303445E-01  0.51100000000E-03 0.  1.
</event>
<event>
 8    1  0.1123191E+005  0.1043930E+01  0.7957747E-01            NaN
         13   -1    0    0    0    0  0.00000000000E+00  0.00000000000E+00  0.74505805969E-08  0.10566000000E+00  0.10566000000E+00 0. -1.
     999900   -1    0    0    0    0 -0.00000000000E+00 -0.00000000000E+00 -0.74505805969E-08  0.93827000000E+00  0.93827000000E+00 0. -1.
     999902    2    1    2    0    0  0.21530791692E-01 -0.15590159825E-01  0.72891672196E-02  0.10163662551E+01  0.10159924234E+01 0.  0.
     999903    2    3    3    0    0  0.62159831802E-01 -0.74120090765E-01 -0.82694061658E-01  0.12891290241E+00  0.20557140610E-01 0.  0.
         14    1    1    2    0    0 -0.21530791692E-01  0.15590159825E-01 -0.72891672196E-02  0.27563744901E-01  0.00000000000E+00 0. -1.
     999901    1    3    3    0    0 -0.40629040110E-01  0.58529930940E-01  0.89983228877E-01  0.88745335269E+00  0.88000000000E+00 0.  1.
        -11    1    4    4    0    0  0.51903944692E-01 -0.58241181284E-01 -0.75830161868E-01  0.10879581445E+00  0.51100000000E-03 0. -1.
         11    1    4    4    0    0  0.10255887110E-01 -0.15878909481E-01 -0.68638997892E-02  0.20117087961E-01  0.51100000000E-03 0.  1.
</event>
<event>
 8    1  0.1123191E+005  0.1043930E+01  0.7957747E-01            NaN
         13   -1    0    0    0    0  0.00000000000E+00  0.00000000000E+00  0.74505805969E-08  0.10566000000E+00  0.10566000000E+00 0. -1.
     999900   -1    0    0    0    0 -0.00000000000E+00 -0.00000000000E+00 -0.74505805969E-08  0.93827000000E+00  0.93827000000E+00 0.  1.
     999902    2    1    2    0    0  0.12262099721E-01  0.13157882462E-01 -0.15532321532E-01  0.10201656996E+01  0.10198888727E+01 0.  0.
     999903    2    3    3    0    0 -0.11217017907E+00 -0.35972118286E-02  0.58674323431E-01  0.12816191524E+00  0.19690385522E-01 0.  0.
         14    1    1    2    0    0 -0.12262099721E-01 -0.13157882462E-01  0.15532321532E-01  0.23764300382E-01  0.00000000000E+00 0. -1.
     999901    1    3    3    0    0  0.12443227879E+00  0.16755094290E-01 -0.74206644963E-01  0.89200378438E+00  0.88000000000E+00 0.  1.
        -11    1    4    4    0    0 -0.21633982445E-01 -0.79017593188E-02  0.84580059597E-02  0.24541108015E-01  0.51100000000E-03 0. -1.
         11    1    4    4    0    0 -0.90536196625E-01  0.43045474902E-02  0.50216317471E-01  0.10362080722E+00  0.51100000000E-03 0.  1.
</event>
<event>
 8    1  0.1123191E+005  0.1043930E+01  0.7957747E-01            NaN
         13   -1    0    0    0    0  0.00000000000E+00  0.00000000000E+00  0.74505805969E-08  0.10566000000E+00  0.10566000000E+00 0.  1.
     999900   -1    0    0    0    0 -0.00000000000E+00 -0.00000000000E+00 -0.74505805969E-08  0.93827000000E+00  0.93827000000E+00 0. -1.
     999902    2    1    2    0    0  0.19076593583E-03 -0.21232999377E-01  0.49521733521E-02  0.10221263151E+01  0.10218937339E+01 0.  0.
     999903    2    3    3    0    0  0.11890905968E+00  0.33495203467E-01 -0.39763530558E-01  0.13134648617E+00  0.20235314154E-01 0.  0.
         14    1    1    2    0    0 -0.19076593583E-03  0.21232999377E-01 -0.49521733521E-02  0.21803684897E-01  0.00000000000E+00 0. -1.
     999901    1    3    3    0    0 -0.11871829374E+00 -0.54728202843E-01  0.44715703911E-01  0.89077982893E+00  0.88000000000E+00 0.  1.
        -11    1    4    4    0    0  0.28033832124E-01  0.16081695113E-01 -0.14522239827E-01  0.35435479845E-01  0.51100000000E-03 0.  1.
         11    1    4    4    0    0  0.90875227552E-01  0.17413508354E-01 -0.25241290731E-01  0.95911006326E-01  0.51100000000E-03 0. -1.
</event>
<event>
 8    1  0.1123191E+005  0.1043930E+01  0.7957747E-01            NaN
         13   -1    0    0    0    0  0.00000000000E+00  0.00000000000E+00  0.74505805969E-08  0.10566000000E+00  0.10566000000E+00 0. -1.
     999900   -1    0    0    0    0 -0.00000000000E+00 -0.00000000000E+00 -0.74505805969E-08  0.93827000000E+00  0.93827000000E+00 0. -1.
     999902    2    1    2    0    0  0.14324088274E-01 -0.14822765043E-01  0.12209776765E-01  0.10199722765E+01  0.10196908709E+01 0.  0.
     999903    2    3    3    0    0  0.75338254593E-01  0.67388468795E-01 -0.78305991854E-01  0.12942496170E+00  0.20048292193E-01 0.  0.
         14    1    1    2    0    0 -0.14324088274E-01  0.14822765043E-01 -0.12209776765E-01  0.23957723536E-01  0.00000000000E+00 0.  1.
     999901    1    3    3    0    0 -0.61014166319E-01 -0.82211233838E-01  0.90515768618E-01  0.89054731476E+00  0.88000000000E+00 0.  1.
        -11    1    4    4    0    0  0.42086503633E-01  0.24439410525E-01 -0.34823700713E-01  0.59845716865E-01  0.51100000000E-03 0.  1.
         11    1    4    4    0    0  0.33251750960E-01  0.42949058270E-01 -0.43482291141E-01  0.69579244837E-01  0.51100000000E-03 0. -1.
</event>
<event>
 8    1  0.1123191E+005  0.1043930E+01  0.7957747E-01            NaN
         13   -1    0    0    0    0  0.00000000000E+00  0.00000000000E+00  0.74505805969E-08  0.10566000000E+00  0.10566000000E+00 0.  1.
     999900   -1    0    0    0    0 -0.00000000000E+00 -0.00000000000E+00 -0.74505805969E-08  0.93827000000E+00  0.93827000000E+00 0.  1.
     999902    2    1    2    0    0 -0.19828945257E-01  0.12651212774E-01 -0.61812415374E-02  0.10196102960E+01  0.10193202185E+01 0.  0.
     999903    2    3    3    0    0  0.45726354321E-01 -0.86608776630E-01 -0.80779931075E-01  0.12847898848E+00  0.19735084178E-01 0.  0.
         14    1    1    2    0    0  0.19828945257E-01 -0.12651212774E-01  0.61812415374E-02  0.24319703978E-01  0.00000000000E+00 0.  1.
     999901    1    3    3    0    0 -0.65555299578E-01  0.99259989404E-01  0.74598689538E-01  0.89113130754E+00  0.88000000000E+00 0. -1.
        -11    1    4    4    0    0  0.20497981539E-01 -0.30028917877E-01 -0.19161625742E-01  0.41101486325E-01  0.51100000000E-03 0.  1.
         11    1    4    4    0    0  0.25228372782E-01 -0.56579858753E-01 -0.61618305334E-01  0.87377502156E-01  0.51100000000E-03 0. -1.
</event>
<event>
 8    1  0.1123191E+005  0.1043930E+01  0.7957747E-01            NaN
         13   -1    0    0    0    0  0.00000000000E+00  0.00000000000E+00  0.74505805969E-08  0.10566000000E+00  0.10566000000E+00 0. -1.
     999900   -1    0    0    0    0 -0.00000000000E+00 -0.00000000000E+00 -0.74505805969E-08  0.93827000000E+00  0.93827000000E+00 0.  1.
     999902    2    1    2    0    0  0.19000743166E-01 -0.83150405118E-03 -0.14316053009E-01  0.10201251893E+01  0.10198474066E+01 0.  0.
     999903    2    3    3    0    0 -0.12097865499E+00 -0.28496492716E-01 -0.26429039415E-01  0.12855000571E+00  0.19460852606E-01 0.  0.
         14    1    1    2    0    0 -0.19000743166E-01  0.83150405118E-03  0.14316053009E-01  0.23804810724E-01  0.00000000000E+00 0. -1.
     999901    1    3    3    0    0  0.13997939816E+00  0.27664988665E-01  0.12112986405E-01  0.89157518356E+00  0.88000000000E+00 0.  1.
        -11    1    4    4    0    0 -0.75066144883E-01 -0.86925441034E-02 -0.12089506149E-01  0.76530410364E-01  0.51100000000E-03 0. -1.
         11    1    4    4    0    0 -0.45912510107E-01 -0.19803948613E-01 -0.14339533266E-01  0.52019595348E-01  0.51100000000E-03 0.  1.
</event>
<event>
 8    1  0.1123191E+005  0.1043930E+01  0.7957747E-01            NaN
         13   -1    0    0    0    0  0.00000000000E+00  0.00000000000E+00  0.74505805969E-08  0.10566000000E+00  0.10566000000E+00 0. -1.
     999900   -1    0    0    0    0 -0.00000000000E+00 -0.00000000000E+00 -0.74505805969E-08  0.93827000000E+00  0.93827000000E+00 0.  1.
     999902    2    1    2    0    0  0.73049594384E-02  0.21180085306E-01 -0.14824828249E-02  0.10214765771E+01  0.10212297691E+01 0.  0.
     999903    2    3    3    0    0 -0.55093565087E-01  0.48671399757E-01  0.10787708095E+00  0.13208978696E+00  0.20150462954E-01 0.  0.
         14    1    1    2    0    0 -0.73049594384E-02 -0.21180085306E-01  0.14824828249E-02  0.22453422930E-01  0.00000000000E+00 0.  1.
     999901    1    3    3    0    0  0.62398524526E-01 -0.27491314451E-01 -0.10935956377E+00  0.88938679011E+00  0.88000000000E+00 0.  1.
        -11    1    4    4    0    0 -0.33738347649E-01  0.41200328465E-01  0.81223729832E-01  0.97125169634E-01  0.51100000000E-03 0.  1.
         11    1    4    4    0    0 -0.21355217439E-01  0.74710712922E-02  0.26653351115E-01  0.34964617326E-01  0.51100000000E-03 0. -1.
</event>
<event>
 7    1  0.1123191E+005  0.1043930E+01  0.7957747E-01            NaN
         13   -1    0    0    0    0  0.00000000000E+00  0.00000000000E+00  0.74505805969E-08  0.10566000000E+00  0.10566000000E+00 0.  1.
     999900   -1    0    0    0    0 -0.00000000000E+00 -0.00000000000E+00 -0.74505805969E-08  0.93827000000E+00  0.93827000000E+00 0. -1.
     999903    2    1    2    0    0 -0.74325561081E-01  0.60994585793E-01 -0.77934021063E-02  0.98580602088E-01  0.20316728713E-01 0.  0.
         14    1    1    2    0    0 -0.15764499115E-01  0.26275019620E-01 -0.45504207783E-01  0.54859174387E-01  0.00000000000E+00 0. -1.
     999901    1    1    2    0    0  0.90090060196E-01 -0.87269605413E-01  0.53297609889E-01  0.89049022353E+00  0.88000000000E+00 0.  1.
        -11    1    3    3    0    0 -0.60816644014E-01  0.52533404712E-01  0.99334159510E-03  0.80372076297E-01  0.51100000000E-03 0. -1.
         11    1    3    3    0    0 -0.13508917067E-01  0.84611810808E-02 -0.87867437014E-02  0.18208525791E-01  0.51100000000E-03 0.  1.
</event>
<event>
 8    1  0.1123191E+005  0.1043930E+01  0.7957747E-01            NaN
         13   -1    0    0    0    0  0.00000000000E+00  0.00000000000E+00  0.74505805969E-08  0.10566000000E+00  0.10566000000E+00 0.  1.
     999900   -1    0    0    0    0 -0.00000000000E+00 -0.00000000000E+00 -0.74505805969E-08  0.93827000000E+00  0.93827000000E+00 0. -1.
     999902    2    1    2    0    0  0.19757575654E-01  0.16424530519E-01 -0.26668847688E-02  0.10180990249E+01  0.10177712834E+01 0.  0.
     999903    2    3    3    0    0  0.10430234079E+00  0.42821835227E-01  0.64095066027E-01  0.13113691014E+00  0.19391334298E-01 0.  0.
         14    1    1    2    0    0 -0.19757575654E-01 -0.16424530519E-01  0.26668847688E-02  0.25830975066E-01  0.00000000000E+00 0.  1.
     999901    1    3    3    0    0 -0.84544765133E-01 -0.26397304708E-01 -0.66761950796E-01  0.88696211479E+00  0.88000000000E+00 0. -1.
        -11    1    4    4    0    0  0.54243659159E-01  0.29389716746E-01  0.42866802904E-01  0.75126253211E-01  0.51100000000E-03 0. -1.
         11    1    4    4    0    0  0.50058681628E-01  0.13432118482E-01  0.21228263123E-01  0.56010656928E-01  0.51100000000E-03 0.  1.
</event>
<event>
 8    1  0.1123191E+005  0.1043930E+01  0.7957747E-01            NaN
         13   -1    0    0    0    0  0.00000000000E+00  0.00000000000E+00  0.74505805969E-08  0.10566000000E+00  0.10566000000E+00 0.  1.
     999900   -1    0    0    0    0 -0.00000000000E+00 -0.00000000000E+00 -0.74505805969E-08  0.93827000000E+00  0.93827000000E+00 0.  1.
     999902    2    1    2    0    0 -0.17637851910E-01 -0.74579107479E-02  0.10278204605E-01  0.10221962534E+01  0.10219651778E+01 0.  0.
     999903    2    3    3    0    0 -0.77283978056E-01 -0.12988820982E-01  0.10784363841E+00  0.13478019243E+00  0.19847599175E-01 0.  0.
         14    1    1    2    0    0  0.17637851910E-01  0.74579107479E-02 -0.10278204605E-01  0.21733746631E-01  0.00000000000E+00 0. -1.
     999901    1    3    3    0    0  0.59646126146E-01  0.55309102339E-02 -0.97565433803E-01  0.88741606093E+00  0.88000000000E+00 0.  1.
        -11    1    4    4    0    0 -0.21173932529E-01 -0.77260618183E-02  0.18585461121E-01  0.29218280853E-01  0.51100000000E-03 0. -1.
         11    1    4    4    0    0 -0.56110045527E-01 -0.52627591635E-02  0.89258177287E-01  0.10556191158E+00  0.51100000000E-03 0.  1.
</event>
<event>
 8    1  0.1123191E+005  0.1043930E+01  0.7957747E-01            NaN
         13   -1    0    0    0    0  0.00000000000E+00  0.00000000000E+00  0.74505805969E-08  0.10566000000E+00  0.10566000000E+00 0. -1.
     999900   -1    0    0    0    0 -0.00000000000E+00 -0.00000000000E+00 -0.74505805969E-08  0.93827000000E+00  0.93827000000E+00 0. -1.
     999902    2    1    2    0    0  0.48647479553E-02 -0.20004291879E-01  0.29113888257E-02  0.10231378464E+01  0.10229265561E+01 0.  0.
     999903    2    3    3    0    0 -0.11111542845E+00 -0.60968216191E-01  0.38416926472E-01  0.13387405673E+00  0.19561211680E-01 0.  0.
         14    1    1    2    0    0 -0.48647479553E-02  0.20004291879E-01 -0.29113888257E-02  0.20792153596E-01  0.00000000000E+00 0.  1.
     999901    1    3    3    0    0  0.11598017640E+00  0.40963924312E-01 -0.35505537646E-01  0.88926378967E+00  0.88000000000E+00 0. -1.
        -11    1    4    4    0    0 -0.59506347762E-01 -0.31751282517E-01  0.30555908267E-01  0.74047781983E-01  0.51100000000E-03 0.  1.
         11    1    4    4    0    0 -0.51609080686E-01 -0.29216933674E-01  0.78610182044E-02  0.59826274752E-01  0.51100000000E-03 0. -1.
</event>
<event>
 8    1  0.1123191E+005  0.1043930E+01  0.7957747E-01            NaN
         13   -1    0    0    0    0  0.00000000000E+00  0.00000000000E+00  0.74505805969E-08  0.10566000000E+00  0.10566000000E+00 0. -1.
     999900   -1    0    0    0    0 -0.00000000000E+00 -0.00000000000E+00 -0.74505805969E-08  0.93827000000E+00  0.93827000000E+00 0.  1.
     999902    2    1    2    0    0 -0.87117613491E-02 -0.13284694740E-01  0.17847497783E-01  0.10200362544E+01  0.10197563676E+01 0.  0.
     999903    2    3    3    0    0  0.61134958868E-01 -0.97136981279E-01 -0.56923474988E-01  0.13014835776E+00  0.22918042979E-01 0.  0.
         14    1    1    2    0    0  0.87117613491E-02  0.13284694740E-01 -0.17847497783E-01  0.23893745568E-01  0.00000000000E+00 0. -1.
     999901    1    3    3    0    0 -0.69846720217E-01  0.83852286538E-01  0.74770972772E-01  0.88988789668E+00  0.88000000000E+00 0. -1.
        -11    1    4    4    0    0  0.43657571350E-01 -0.78134032823E-01 -0.34418360241E-01  0.95894709260E-01  0.51100000000E-03 0.  1.
         11    1    4    4    0    0  0.17477387517E-01 -0.19002948455E-01 -0.22505114747E-01  0.34253648495E-01  0.51100000000E-03 0. -1.
</event>
<event>
 8    1  0.1123191E+005  0.1043930E+01  0.7957747E-01            NaN
         13   -1    0    0    0    0  0.00000000000E+00  0.00000000000E+00  0.74505805969E-08  0.10566000000E+00  0.10566000000E+00 0.  1.
     999900   -1    0    0    0    0 -0.00000000000E+00 -0.00000000000E+00 -0.74505805969E-08  0.93827000000E+00  0.93827000000E+00 0.  1.
     999902    2    1    2    0    0 -0.18082936057E-01  0.15049465581E-01  0.69470634320E-02  0.10193995968E+01  0.10191044094E+01 0.  0.
     999903    2    3    3    0    0  0.26771903346E-01 -0.11945018336E+00 -0.28573060436E-01  0.12734366168E+00  0.20369272815E-01 0.  0.
         14    1    1    2    0    0  0.18082936057E-01 -0.15049465581E-01 -0.69470634320E-02  0.24530403197E-01  0.00000000000E+00 0.  1.
     999901    1    3    3    0    0 -0.44854839403E-01  0.13449964894E+00  0.35520123868E-01  0.89205593512E+00  0.88000000000E+00 0.  1.
        -11    1    4    4    0    0  0.15525345529E-01 -0.10282272078E+00 -0.22967428037E-01  0.10649559678E+00  0.51100000000E-03 0.  1.
         11    1    4    4    0    0  0.11246557817E-01 -0.16627462581E-01 -0.56056323990E-02  0.20848064903E-01  0.51100000000E-03 0. -1.
</event>
<event>
 8    1  0.1123191E+005  0.1043930E+01  0.7957747E-01            NaN
         13   -1    0    0    0    0  0.00000000000E+00  0.00000000000E+00  0.74505805969E-08  0.10566000000E+00  0.10566000000E+00 0.  1.
     999900   -1    0    0    0    0 -0.00000000000E+00 -0.00000000000E+00 -0.74505805969E-08  0.93827000000E+00  0.93827000000E+00 0. -1.
     999902    2    1    2    0    0 -0.20997822954E-01 -0.53983903407E-02  0.78430310891E-02  0.10208743212E+01  0.10206139404E+01 0.  0.
     999903    2    3    3    0    0  0.10165953652E+00  0.61543038696E-01  0.46977619750E-01  0.12899008054E+00  0.17587982919E-01 0.  0.
         14    1    1    2    0    0  0.20997822954E-01  0.53983903407E-02 -0.78430310891E-02  0.23055678775E-01  0.00000000000E+00 0. -1.
     999901    1    3    3    0    0 -0.12265735947E+00 -0.66941429036E-01 -0.39134588661E-01  0.89188424069E+00  0.88000000000E+00 0.  1.
        -11    1    4    4    0    0  0.47308042240E-01  0.18692595018E-01  0.21708739754E-01  0.55308177260E-01  0.51100000000E-03 0. -1.
         11    1    4    4    0    0  0.54351494278E-01  0.42850443678E-01  0.25268879996E-01  0.73681903280E-01  0.51100000000E-03 0.  1.
</event>
<event>
 8    1  0.1123191E+005  0.1043930E+01  0.7957747E-01            NaN
         13   -1    0    0    0    0  0.00000000000E+00  0.00000000000E+00  0.74505805969E-08  0.10566000000E+00  0.10566000000E+00 0. -1.
     999900   -1    0    0    0    0 -0.00000000000E+00 -0.00000000000E+00 -0.74505805969E-08  0.93827000000E+00  0.93827000000E+00 0. -1.
     999902    2    1    2    0    0  0.15376573752E-01 -0.16272052726E-01  0.76397172570E-02  0.10202744721E+01  0.10200002032E+01 0.  0.
     999903    2    3    3    0    0  0.11006406605E+00 -0.52588191653E-01  0.50420881247E-01  0.13341776940E+00  0.19453004582E-01 0.  0.
         14    1    1    2    0    0 -0.15376573752E-01  0.16272052726E-01 -0.76397172570E-02  0.23655527895E-01  0.00000000000E+00 0.  1.
     999901    1    3    3    0    0 -0.94687492303E-01  0.36316138927E-01 -0.42781163990E-01  0.88685670271E+00  0.88000000000E+00 0. -1.
        -11    1    4    4    0    0  0.54420138590E-01 -0.35432675938E-01  0.21550643230E-01  0.68423076173E-01  0.51100000000E-03 0.  1.
         11    1    4    4    0    0  0.55643927465E-01 -0.17155515715E-01  0.28870238017E-01  0.64994693224E-01  0.51100000000E-03 0. -1.
</event>
<event>
 8    1  0.1184494E+005  0.1043930E+01  0.7957747E-01            NaN
         13   -1    0    0    0    0  0.00000000000E+00  0.00000000000E+00  0.74505805969E-08  0.10566000000E+00  0.10566000000E+00 0.  1.
     999900   -1    0    0    0    0 -0.00000000000E+00 -0.00000000000E+00 -0.74505805969E-08  0.93827000000E+00  0.93827000000E+00 0. -1.
     999902    2    1    2    0    0 -0.15938786482E-01 -0.11554798429E-01 -0.24061630781E-01  0.10128410895E+01  0.10123638438E+01 0.  0.
     999903    2    3    3    0    0 -0.46940801378E-01 -0.10556004183E+00  0.42435050394E-01  0.12479834315E+00  0.20676839332E-01 0.  0.
         14    1    1    2    0    0  0.15938786482E-01  0.11554798429E-01  0.24061630781E-01  0.31088910517E-01  0.00000000000E+00 0.  1.
     999901    1    3    3    0    0  0.31002014896E-01  0.94005243401E-01 -0.66496681175E-01  0.88804274634E+00  0.88000000000E+00 0. -1.
        -11    1    4    4    0    0 -0.39216685472E-01 -0.64766043074E-01  0.24641951086E-01  0.79624591862E-01  0.51100000000E-03 0. -1.
         11    1    4    4    0    0 -0.77241159065E-02 -0.40793998757E-01  0.17793099308E-01  0.45173751284E-01  0.51100000000E-03 0.  1.
</event>
<event>
 8    1  0.1123191E+005  0.1043930E+01  0.7957747E-01            NaN
         13   -1    0    0    0    0  0.00000000000E+00  0.00000000000E+00  0.74505805969E-08  0.10566000000E+00  0.10566000000E+00 0. -1.
     999900   -1    0    0    0    0 -0.00000000000E+00 -0.00000000000E+00 -0.74505805969E-08  0.93827000000E+00  0.93827000000E+00 0. -1.
     999902    2    1    2    0    0 -0.72302937459E-02 -0.12846403876E-01  0.17047709596E-01  0.10213926611E+01  0.10211439843E+01 0.  0.
     999903    2    3    3    0    0  0.41274710438E-01 -0.71797324933E-01  0.10319571205E+00  0.13389650631E+00  0.20505165860E-01 0.  0.
         14    1    1    2    0    0  0.72302937459E-02  0.12846403876E-01 -0.17047709596E-01  0.22537338856E-01  0.00000000000E+00 0.  1.
     999901    1    3    3    0    0 -0.48505004184E-01  0.58950921057E-01 -0.86148002451E-01  0.88749615484E+00  0.88000000000E+00 0. -1.
        -11    1    4    4    0    0  0.16037032936E-01 -0.44939366609E-01  0.66836468738E-01  0.82122516833E-01  0.51100000000E-03 0.  1.
         11    1    4    4    0    0  0.25237677502E-01 -0.26857958325E-01  0.36359243309E-01  0.51773989474E-01  0.51100000000E-03 0. -1.
</event>
<event>
 8    1  0.1123191E+005  0.1043930E+01  0.7957747E-01            NaN
         13   -1    0    0    0    0  0.00000000000E+00  0.00000000000E+00  0.74505805969E-08  0.10566000000E+00  0.10566000000E+00 0. -1.
     999900   -1    0    0    0    0 -0.00000000000E+00 -0.00000000000E+00 -0.74505805969E-08  0.93827000000E+00  0.93827000000E+00 0.  1.
     999902    2    1    2    0    0 -0.13410351121E-01  0.18585081912E-01  0.68465214355E-02  0.10200110192E+01  0.10197305338E+01 0.  0.
     999903    2    3    3    0    0 -0.39034065228E-02 -0.89192959939E-01  0.91613029551E-01  0.12934169268E+00  0.19123430567E-01 0.  0.
         14    1    1    2    0    0  0.13410351121E-01 -0.18585081912E-01 -0.68465214355E-02  0.23918980803E-01  0.00000000000E+00 0.  1.
     999901    1    3    3    0    0 -0.95069445986E-02  0.10777804185E+00 -0.84766508115E-01  0.89066932652E+00  0.88000000000E+00 0.  1.
        -11    1    4    4    0    0 -0.35418218547E-02 -0.81629559131E-01  0.74301123052E-01  0.11043933825E+00  0.51100000000E-03 0.  1.
         11    1    4    4    0    0 -0.36158466813E-03 -0.75634008079E-02  0.17311906499E-01  0.18902354427E-01  0.51100000000E-03 0. -1.
</event>
<event>
 8    1  0.1123191E+005  0.1043930E+01  0.7957747E-01            NaN
         13   -1    0    0    0    0  0.00000000000E+00  0.00000000000E+00  0.74505805969E-08  0.10566000000E+00  0.10566000000E+00 0. -1.
     999900   -1    0    0    0    0 -0.00000000000E+00 -0.00000000000E+00 -0.74505805969E-08  0.93827000000E+00  0.93827000000E+00 0. -1.
     999902    2    1    2    0    0  0.13127336974E-01  0.10137245495E-01 -0.17205585705E-01  0.10200318222E+01  0.10197518303E+01 0.  0.
     999903    2    3    3    0    0  0.69112622014E-01 -0.10635192548E+00  0.19403913563E-01  0.12983839686E+00  0.19854744081E-01 0.  0.
         14    1    1    2    0    0 -0.13127336974E-01 -0.10137245495E-01  0.17205585705E-01  0.23898177790E-01  0.00000000000E+00 0. -1.
     999901    1    3    3    0    0 -0.55985285040E-01  0.11648917098E+00 -0.36609499268E-01  0.89019342535E+00  0.88000000000E+00 0. -1.
        -11    1    4    4    0    0  0.41630298232E-01 -0.76914424749E-01  0.19296055064E-01  0.89562879182E-01  0.51100000000E-03 0. -1.
         11    1    4    4    0    0  0.27482323782E-01 -0.29437500734E-01  0.10785849983E-03  0.40275517680E-01  0.51100000000E-03 0.  1.
</event>
<event>
 8    1  0.1123191E+005  0.1043930E+01  0.7957747E-01            NaN
         13   -1    0    0    0    0  0.00000000000E+00  0.00000000000E+00  0.74505805969E-08  0.10566000000E+00  0.10566000000E+00 0.  1.
     999900   -1    0    0    0    0 -0.00000000000E+00 -0.00000000000E+00 -0.74505805969E-08  0.93827000000E+00  0.93827000000E+00 0.  1.
     999902    2    1    2    0    0  0.81557151197E-02 -0.13360588548E-01 -0.17440916050E-01  0.10204948433E+01  0.10202257195E+01 0.  0.
     999903    2    3    3    0    0 -0.59429564820E-01 -0.90427578484E-01  0.69628195774E-01  0.13027682440E+00  0.20370203797E-01 0.  0.
         14    1    1    2    0    0 -0.81557151197E-02  0.13360588548E-01  0.17440916050E-01  0.23435156669E-01  0.00000000000E+00 0.  1.
     999901    1    3    3    0    0  0.67585279940E-01  0.77066989935E-01 -0.87069111824E-01  0.89021801893E+00  0.88000000000E+00 0.  1.
        -11    1    4    4    0    0 -0.19895036844E-01 -0.24428218663E-01  0.30944524992E-01  0.44163051368E-01  0.51100000000E-03 0. -1.
         11    1    4    4    0    0 -0.39534527976E-01 -0.65999359820E-01  0.38683670782E-01  0.86113773028E-01  0.51100000000E-03 0.  1.
</event>
<event>
 8    1  0.1123191E+005  0.1043930E+01  0.7957747E-01            NaN
         13   -1    0    0    0    0  0.00000000000E+00  0.00000000000E+00  0.74505805969E-08  0.10566000000E+00  0.10566000000E+00 0.  1.
     999900   -1    0    0    0    0 -0.00000000000E+00 -0.00000000000E+00 -0.74505805969E-08  0.93827000000E+00  0.93827000000E+00 0. -1.
     999902    2    1    2    0    0  0.20893198834E-01  0.44154806688E-02  0.88141291337E-03  0.10225571407E+01  0.10223337551E+01 0.  0.
     999903    2    3    3    0    0  0.10426572255E+00 -0.30157034447E-01  0.77195367318E-01  0.13465508743E+00  0.19801015377E-01 0.  0.
         14    1    1    2    0    0 -0.20893198834E-01 -0.44154806688E-02 -0.88141291337E-03  0.21372859326E-01  0.00000000000E+00 0. -1.
     999901    1    3    3    0    0 -0.83372523719E-01  0.34572515116E-01 -0.76313954404E-01  0.88790205324E+00  0.88000000000E+00 0. -1.
        -11    1    4    4    0    0  0.30397853429E-01 -0.18078813662E-01  0.27591202957E-01  0.44859877375E-01  0.51100000000E-03 0. -1.
         11    1    4    4    0    0  0.73867869125E-01 -0.12078220785E-01  0.49604164361E-01  0.89795210058E-01  0.51100000000E-03 0.  1.
</event>
<event>
 8    1  0.1123191E+005  0.1043930E+01  0.7957747E-01            NaN
         13   -1    0    0    0    0  0.00000000000E+00  0.00000000000E+00  0.74505805969E-08  0.10566000000E+00  0.10566000000E+00 0. -1.
     999900   -1    0    0    0    0 -0.00000000000E+00 -0.00000000000E+00 -0.74505805969E-08  0.93827000000E+00  0.93827000000E+00 0.  1.
     999902    2    1    2    0    0 -0.11874379701E-01  0.34733904750E-03 -0.20620269367E-01  0.10201325832E+01  0.10198549751E+01 0.  0.
     999903    2    3    3    0    0 -0.84946931233E-01 -0.18768930270E-01 -0.99192525559E-01  0.13340904737E+00  0.19762664932E-01 0.  0.
         14    1    1    2    0    0  0.11874379701E-01 -0.34733904750E-03  0.20620269367E-01  0.23797416802E-01  0.00000000000E+00 0. -1.
     999901    1    3    3    0    0  0.73072551533E-01  0.19116269318E-01  0.78572256192E-01  0.88672353582E+00  0.88000000000E+00 0. -1.
        -11    1    4    4    0    0 -0.64128870228E-01 -0.11124528204E-01 -0.60798577621E-01  0.89067363755E-01  0.51100000000E-03 0.  1.
         11    1    4    4    0    0 -0.20818061005E-01 -0.76444020658E-02 -0.38393947938E-01  0.44341683620E-01  0.51100000000E-03 0. -1.
</event>
<event>
 8    1  0.1123191E+005  0.1043930E+01  0.7957747E-01            NaN
         13   -1    0    0    0    0  0.00000000000E+00  0.00000000000E+00  0.74505805969E-08  0.10566000000E+00  0.10566000000E+00 0.  1.
     999900   -1    0    0    0    0 -0.00000000000E+00 -0.00000000000E+00 -0.74505805969E-08  0.93827000000E+00  0.93827000000E+00 0. -1.
     999902    2    1    2    0    0 -0.89344898783E-02  0.20359402994E-01 -0.62498856466E-02  0.10208347306E+01  0.10205734445E+01 0.  0.
     999903    2    3    3    0    0 -0.82465078071E-01  0.95472686516E-01 -0.40378773714E-01  0.13392237088E+00  0.19728990944E-01 0.  0.
         14    1    1    2    0    0  0.89344898783E-02 -0.20359402994E-01  0.62498856466E-02  0.23095269435E-01  0.00000000000E+00 0.  1.
     999901    1    3    3    0    0  0.73530588192E-01 -0.75113283522E-01  0.34128888068E-01  0.88691235969E+00  0.88000000000E+00 0. -1.
        -11    1    4    4    0    0 -0.38555716526E-01  0.53621573734E-01 -0.29318009420E-01  0.72260800189E-01  0.51100000000E-03 0.  1.
         11    1    4    4    0    0 -0.43909361545E-01  0.41851112782E-01 -0.11060764294E-01  0.61661570692E-01  0.51100000000E-03 0. -1.
</event>
<event>
 8    1  0.1123191E+005  0.1043930E+01  0.7957747E-01            NaN
         13   -1    0    0    0    0  0.00000000000E+00  0.00000000000E+00  0.74505805969E-08  0.10566000000E+00  0.10566000000E+00 0.  1.
     999900   -1    0    0    0    0 -0.00000000000E+00 -0.00000000000E+00 -0.74505805969E-08  0.93827000000E+00  0.93827000000E+00 0. -1.
     999902    2    1    2    0    0  0.13522690752E-01  0.20892036960E-01 -0.23110411434E-02  0.10189363751E+01  0.10186297930E+01 0.  0.
     999903    2    3    3    0    0  0.11609321841E+00  0.59556504201E-01  0.65945685898E-02  0.13209086205E+00  0.19490893944E-01 0.  0.
         14    1    1    2    0    0 -0.13522690752E-01 -0.20892036960E-01  0.23110411434E-02  0.24993624881E-01  0.00000000000E+00 0.  1.
     999901    1    3    3    0    0 -0.10257052766E+00 -0.38664467241E-01 -0.89056097332E-02  0.88684551307E+00  0.88000000000E+00 0. -1.
        -11    1    4    4    0    0  0.12216133837E-01  0.11732078471E-01  0.51955361474E-02  0.17723721619E-01  0.51100000000E-03 0.  1.
         11    1    4    4    0    0  0.10387708458E+00  0.47824425731E-01  0.13990324424E-02  0.11436714043E+00  0.51100000000E-03 0. -1.
</event>
<event>
 8    1  0.1123191E+005  0.1043930E+01  0.7957747E-01            NaN
         13   -1    0    0    0    0  0.00000000000E+00  0.00000000000E+00  0.74505805969E-08  0.10566000000E+00  0.10566000000E+00 0. -1.
     999900   -1    0    0    0    0 -0.00000000000E+00 -0.00000000000E+00 -0.74505805969E-08  0.93827000000E+00  0.93827000000E+00 0.  1.
     999902    2    1    2    0    0  0.77428704154E-02 -0.56060466189E-02 -0.21050565741E-01  0.10208106116E+01  0.10205487733E+01 0.  0.
     999903    2    3    3    0    0 -0.51770587536E-01 -0.11424427374E+00  0.30828230763E-01  0.13062213405E+00  0.19488824387E-01 0.  0.
         14    1    1    2    0    0 -0.77428704154E-02  0.56060466189E-02  0.21050565741E-01  0.23119388378E-01  0.00000000000E+00 0.  1.
     999901    1    3    3    0    0  0.59513457951E-01  0.10863822712E+00 -0.51878796504E-01  0.89018847757E+00  0.88000000000E+00 0.  1.
        -11    1    4    4    0    0 -0.15682429349E-01 -0.58143006937E-01  0.14362715667E-01  0.61912006657E-01  0.51100000000E-03 0.  1.
         11    1    4    4    0    0 -0.36088158186E-01 -0.56101266805E-01  0.16465515096E-01  0.68710127396E-01  0.51100000000E-03 0. -1.
</event>
<event>
 8    1  0.1123191E+005  0.1043930E+01  0.7957747E-01            NaN
         13   -1    0    0    0    0  0.00000000000E+00  0.00000000000E+00  0.74505805969E-08  0.10566000000E+00  0.10566000000E+00 0. -1.
     999900   -1    0    0    0    0 -0.00000000000E+00 -0.00000000000E+00 -0.74505805969E-08  0.93827000000E+00  0.93827000000E+00 0.  1.
     999902    2    1    2    0    0 -0.21739488583E-01  0.10798982689E-01 -0.18279192693E-02  0.10195873485E+01  0.10192967167E+01 0.  0.
     999903    2    3    3    0    0 -0.13010342266E+00 -0.15251189087E-01  0.16988630623E-02  0.13255082627E+00  0.20182568031E-01 0.  0.
         14    1    1    2    0    0  0.21739488583E-01 -0.10798982689E-01  0.18279192693E-02  0.24342651455E-01  0.00000000000E+00 0. -1.
     999901    1    3    3    0    0  0.10836393408E+00  0.26050171776E-01 -0.35267823317E-02  0.88703652228E+00  0.88000000000E+00 0. -1.
        -11    1    4    4    0    0 -0.10087535379E+00 -0.34769409243E-02  0.33594645826E-02  0.10099244152E+00  0.51100000000E-03 0.  1.
         11    1    4    4    0    0 -0.29228068872E-01 -0.11774248163E-01 -0.16606015203E-02  0.31558384753E-01  0.51100000000E-03 0. -1.
</event>
<event>
 8    1  0.1123191E+005  0.1043930E+01  0.7957747E-01            NaN
         13   -1    0    0    0    0  0.00000000000E+00  0.00000000000E+00  0.74505805969E-08  0.10566000000E+00  0.10566000000E+00 0. -1.
     999900   -1    0    0    0    0 -0.00000000000E+00 -0.00000000000E+00 -0.74505805969E-08  0.93827000000E+00  0.93827000000E+00 0.  1.
     999902    2    1    2    0    0  0.96513369806E-02  0.15343920376E-01 -0.17322062970E-01  0.10188573443E+01  0.10185487961E+01 0.  0.
     999903    2    3    3    0    0 -0.10195184027E+00  0.72108373026E-01  0.24810781149E-01  0.12899631650E+00  0.20752821841E-01 0.  0.
         14    1    1    2    0    0 -0.96513369806E-02 -0.15343920376E-01  0.17322062970E-01  0.25072655694E-01  0.00000000000E+00 0. -1.
     999901    1    3    3    0    0  0.11160317725E+00 -0.56764452650E-01 -0.42132844119E-01  0.88986102781E+00  0.88000000000E+00 0. -1.
        -11    1    4    4    0    0 -0.20567811270E-01  0.13419090764E-01 -0.33224780696E-02  0.24787231368E-01  0.51100000000E-03 0. -1.
         11    1    4    4    0    0 -0.81384028999E-01  0.58689282262E-01  0.28133259219E-01  0.10420908513E+00  0.51100000000E-03 0.  1.
</event>
<event>
 8    1  0.1123191E+005  0.1043930E+01  0.7957747E-01            NaN
         13   -1    0    0    0    0  0.00000000000E+00  0.00000000000E+00  0.74505805969E-08  0.10566000000E+00  0.10566000000E+00 0.  1.
     999900   -1    0    0    0    0 -0.00000000000E+00 -0.00000000000E+00 -0.74505805969E-08  0.93827000000E+00  0.93827000000E+00 0. -1.
     999902    2    1    2    0    0  0.59925992567E-02 -0.92593928140E-02 -0.21161568775E-01  0.10200666475E+01  0.10197874806E+01 0.  0.
     999903    2    3    3    0    0 -0.94517149744E-01 -0.82472634480E-01  0.27727427917E-01  0.12998096485E+00  0.19774072187E-01 0.  0.
         14    1    1    2    0    0 -0.59925992567E-02  0.92593928140E-02  0.21161568775E-01  0.23863352534E-01  0.00000000000E+00 0.  1.
     999901    1    3    3    0    0  0.10050974900E+00  0.73213241666E-01 -0.48888996692E-01  0.89008568262E+00  0.88000000000E+00 0.  1.
        -11    1    4    4    0    0 -0.49749957261E-01 -0.40676496240E-01  0.43080523365E-02  0.64408508986E-01  0.51100000000E-03 0. -1.
         11    1    4    4    0    0 -0.44767192483E-01 -0.41796138240E-01  0.23419375580E-01  0.65572455865E-01  0.51100000000E-03 0.  1.
</event>
<event>
 8    1  0.1123191E+005  0.1043930E+01  0.7957747E-01            NaN
         13   -1    0    0    0    0  0.00000000000E+00  0.00000000000E+00  0.74505805969E-08  0.10566000000E+00  0.10566000000E+00 0.  1.
     999900   -1    0    0    0    0 -0.00000000000E+00 -0.00000000000E+00 -0.74505805969E-08  0.93827000000E+00  0.93827000000E+00 0.  1.
     999902    2    1    2    0    0 -0.17641328830E-01 -0.15371895224E-01 -0.44473720393E-02  0.10201121335E+01  0.10198340425E+01 0.  0.
     999903    2    3    3    0    0 -0.12889285686E+00 -0.19990685639E-01  0.15222896260E-01  0.13287757875E+00  0.20290842857E-01 0.  0.
         14    1    1    2    0    0  0.17641328830E-01  0.15371895224E-01  0.44473720393E-02  0.23817866481E-01  0.00000000000E+00 0. -1.
     999901    1    3    3    0    0  0.11125152803E+00  0.46187904141E-02 -0.19670268299E-01  0.88723455476E+00  0.88000000000E+00 0.  1.
        -11    1    4    4    0    0 -0.22125595300E-01  0.39357448204E-02  0.58607658855E-03  0.22486366123E-01  0.51100000000E-03 0. -1.
         11    1    4    4    0    0 -0.10676726156E+00 -0.23926430459E-01  0.14636819671E-01  0.11039121263E+00  0.51100000000E-03 0.  1.
</event>
<event>
 8    1  0.1123191E+005  0.1043930E+01  0.7957747E-01            NaN
         13   -1    0    0    0    0  0.00000000000E+00  0.00000000000E+00  0.74505805969E-08  0.10566000000E+00  0.10566000000E+00 0. -1.
     999900   -1    0    0    0    0 -0.00000000000E+00 -0.00000000000E+00 -0.74505805969E-08  0.93827000000E+00  0.93827000000E+00 0. -1.
     999902    2    1    2    0    0 -0.21832881160E-01 -0.56588463841E-02  0.46864816973E-02  0.10208939337E+01  0.10206340007E+01 0.  0.
     999903    2    3    3    0    0  0.32904743021E-01  0.42133855765E-01 -0.11645292118E+00  0.12962792128E+00  0.19599265537E-01 0.  0.
         14    1    1    2    0    0  0.21832881160E-01  0.56588463841E-02 -0.46864816973E-02  0.23036066350E-01  0.00000000000E+00 0. -1.
     999901    1    3    3    0    0 -0.54737624181E-01 -0.47792702149E-01  0.12113940287E+00  0.89126601237E+00  0.88000000000E+00 0.  1.
        -11    1    4    4    0    0  0.27273216413E-02  0.59789319815E-02 -0.34342980844E-01  0.34969806480E-01  0.51100000000E-03 0.  1.
         11    1    4    4    0    0  0.30177421379E-01  0.36154923783E-01 -0.82109940333E-01  0.94658114799E-01  0.51100000000E-03 0. -1.
</event>
<event>
 8    1  0.1123191E+005  0.1043930E+01  0.7957747E-01            NaN
         13   -1    0    0    0    0  0.00000000000E+00  0.00000000000E+00  0.74505805969E-08  0.10566000000E+00  0.10566000000E+00 0.  1.
     999900   -1    0    0    0    0 -0.00000000000E+00 -0.00000000000E+00 -0.74505805969E-08  0.93827000000E+00  0.93827000000E+00 0. -1.
     999902    2    1    2    0    0  0.40268444449E-02 -0.50216381676E-02  0.22728719865E-01  0.10203074042E+01  0.10200339073E+01 0.  0.
     999903    2    3    3    0    0  0.36405090119E-03 -0.11325790624E+00 -0.60213039047E-01  0.12979752712E+00  0.19857042027E-01 0.  0.
         14    1    1    2    0    0 -0.40268444449E-02  0.50216381676E-02 -0.22728719865E-01  0.23622595809E-01  0.00000000000E+00 0. -1.
     999901    1    3    3    0    0  0.36627935437E-02  0.10823626807E+00  0.82941758912E-01  0.89050987707E+00  0.88000000000E+00 0.  1.
        -11    1    4    4    0    0  0.99561221112E-02 -0.61003008276E-01 -0.30601758353E-01  0.68972604138E-01  0.51100000000E-03 0.  1.
         11    1    4    4    0    0 -0.95920712100E-02 -0.52254897960E-01 -0.29611280694E-01  0.60824922986E-01  0.51100000000E-03 0. -1.
</event>
<event>
 8    1  0.1123191E+005  0.1043930E+01  0.7957747E-01            NaN
         13   -1    0    0    0    0  0.00000000000E+00  0.00000000000E+00  0.74505805969E-08  0.10566000000E+00  0.10566000000E+00 0. -1.
     999900   -1    0    0    0    0 -0.00000000000E+00 -0.00000000000E+00 -0.74505805969E-08  0.93827000000E+00  0.93827000000E+00 0. -1.
     999902    2    1    2    0    0 -0.19206896888E-01 -0.11831573126E-02  0.22032705719E-01  0.10146768827E+01  0.10142551116E+01 0.  0.
     999903    2    3    3    0    0 -0.70643847936E-01  0.66559980702E-01  0.81990997875E-01  0.12854490075E+00  0.19505986075E-01 0.  0.
         14    1    1    2    0    0  0.19206896888E-01  0.11831573126E-02 -0.22032705719E-01  0.29253117279E-01  0.00000000000E+00 0. -1.
     999901    1    3    3    0    0  0.51436951048E-01 -0.67743138015E-01 -0.59958292157E-01  0.88613198198E+00  0.88000000000E+00 0. -1.
        -11    1    4    4    0    0 -0.28653870619E-01  0.38391582778E-01  0.46523593241E-01  0.66780714123E-01  0.51100000000E-03 0.  1.
         11    1    4    4    0    0 -0.41989977317E-01  0.28168397924E-01  0.35467404634E-01  0.61764186622E-01  0.51100000000E-03 0. -1.
</event>
<event>
 8    1  0.1123191E+005  0.1043930E+01  0.7957747E-01            NaN
         13   -1    0    0    0    0  0.00000000000E+00  0.00000000000E+00  0.74505805969E-08  0.10566000000E+00  0.10566000000E+00 0. -1.
     999900   -1    0    0    0    0 -0.00000000000E+00 -0.00000000000E+00 -0.74505805969E-08  0.93827000000E+00  0.93827000000E+00 0. -1.
     999902    2    1    2    0    0  0.18729776635E-01 -0.14111327123E-01  0.35642821547E-02  0.10202100044E+01  0.10199342208E+01 0.  0.
     999903    2    3    3    0    0  0.61214716925E-01 -0.10088395626E+00  0.58384120545E-01  0.13322653552E+00  0.20390930237E-01 0.  0.
         14    1    1    2    0    0 -0.18729776635E-01  0.14111327123E-01 -0.35642821547E-02  0.23719995641E-01  0.00000000000E+00 0. -1.
     999901    1    3    3    0    0 -0.42484940291E-01  0.86772629133E-01 -0.54819838390E-01  0.88698346884E+00  0.88000000000E+00 0. -1.
        -11    1    4    4    0    0  0.30357493131E-01 -0.33669140796E-01  0.27867667966E-01  0.53217069348E-01  0.51100000000E-03 0.  1.
         11    1    4    4    0    0  0.30857223794E-01 -0.67214815460E-01  0.30516452579E-01  0.80009466168E-01  0.51100000000E-03 0. -1.
</event>
<event>
 8    1  0.1123191E+005  0.1043930E+01  0.7957747E-01            NaN
         13   -1    0    0    0    0  0.00000000000E+00  0.00000000000E+00  0.74505805969E-08  0.10566000000E+00  0.10566000000E+00 0.  1.
     999900   -1    0    0    0    0 -0.00000000000E+00 -0.00000000000E+00 -0.74505805969E-08  0.93827000000E+00  0.93827000000E+00 0.  1.
     999902    2    1    2    0    0  0.13729904348E-01 -0.78455535611E-02  0.17597694473E-01  0.10202711362E+01  0.10199967890E+01 0.  0.
     999903    2    3    3    0    0  0.27137644000E-01 -0.12715703312E+00 -0.73815579111E-02  0.13176736039E+00  0.20069555848E-01 0.  0.
         14    1    1    2    0    0 -0.13729904348E-01  0.78455535611E-02 -0.17597694473E-01  0.23658863769E-01  0.00000000000E+00 0. -1.
     999901    1    3    3    0    0 -0.13407739652E-01  0.11931147956E+00  0.24979252384E-01  0.88850377584E+00  0.88000000000E+00 0. -1.
        -11    1    4    4    0    0  0.69954730313E-02 -0.12100073429E-01 -0.52533802514E-02  0.14940132027E-01  0.51100000000E-03 0. -1.
         11    1    4    4    0    0  0.20142170968E-01 -0.11505695969E+00 -0.21281776597E-02  0.11682722836E+00  0.51100000000E-03 0.  1.
</event>
<event>
 8    1  0.1123191E+005  0.1043930E+01  0.7957747E-01            NaN
         13   -1    0    0    0    0  0.00000000000E+00  0.00000000000E+00  0.74505805969E-08  0.10566000000E+00  0.10566000000E+00 0.  1.
     999900   -1    0    0    0    0 -0.00000000000E+00 -0.00000000000E+00 -0.74505805969E-08  0.93827000000E+00  0.93827000000E+00 0. -1.
     999902    2    1    2    0    0  0.21764940466E-01 -0.10315261133E-01 -0.61712578581E-04  0.10198442977E+01  0.10195598416E+01 0.  0.
     999903    2    3    3    0    0  0.42615352865E-01  0.58508222162E-01  0.10670527064E+00  0.13047901829E+00  0.19986972527E-01 0.  0.
         14    1    1    2    0    0 -0.21764940466E-01  0.10315261133E-01  0.61712578581E-04  0.24085702277E-01  0.00000000000E+00 0. -1.
     999901    1    3    3    0    0 -0.20850412399E-01 -0.68823483296E-01 -0.10676698322E+00  0.88936527943E+00  0.88000000000E+00 0. -1.
        -11    1    4    4    0    0  0.17661598374E-01  0.10757105513E-01  0.36841239684E-01  0.42251454870E-01  0.51100000000E-03 0. -1.
         11    1    4    4    0    0  0.24953754491E-01  0.47751116649E-01  0.69864030960E-01  0.88227563423E-01  0.51100000000E-03 0.  1.
</event>
<event>
 8    1  0.1123191E+005  0.1043930E+01  0.7957747E-01            NaN
         13   -1    0    0    0    0  0.00000000000E+00  0.00000000000E+00  0.74505805969E-08  0.10566000000E+00  0.10566000000E+00 0.  1.
     999900   -1    0    0    0    0 -0.00000000000E+00 -0.00000000000E+00 -0.74505805969E-08  0.93827000000E+00  0.93827000000E+00 0.  1.
     999902    2    1    2    0    0 -0.23675574911E-01 -0.25776528359E-02 -0.37692404964E-03  0.10201115363E+01  0.10198334311E+01 0.  0.
     999903    2    3    3    0    0  0.68223973350E-02 -0.12878630774E+00 -0.46196610526E-02  0.13057415557E+00  0.19894991048E-01 0.  0.
         14    1    1    2    0    0  0.23675574911E-01  0.25776528359E-02  0.37692404964E-03  0.23818463705E-01  0.00000000000E+00 0.  1.
     999901    1    3    3    0    0 -0.30497972246E-01  0.12620865490E+00  0.42427370030E-02  0.88953738072E+00  0.88000000000E+00 0. -1.
        -11    1    4    4    0    0  0.39195291749E-02 -0.12467008193E+00 -0.71037508038E-02  0.12493484876E+00  0.51100000000E-03 0.  1.
         11    1    4    4    0    0  0.29028681600E-02 -0.41162258070E-02  0.24840897512E-02  0.56393068139E-02  0.51100000000E-03 0. -1.
</event>
<event>
 8    1  0.1123191E+005  0.1043930E+01  0.7957747E-01            NaN
         13   -1    0    0    0    0  0.00000000000E+00  0.00000000000E+00  0.74505805969E-08  0.10566000000E+00  0.10566000000E+00 0.  1.
     999900   -1    0    0    0    0 -0.00000000000E+00 -0.00000000000E+00 -0.74505805969E-08  0.93827000000E+00  0.93827000000E+00 0. -1.
     999902    2    1    2    0    0  0.44056740490E-02  0.18139648441E-01 -0.14608387759E-01  0.10202263758E+01  0.10199509772E+01 0.  0.
     999903    2    3    3    0    0  0.69307596413E-01  0.10129909841E+00  0.43744790423E-01  0.13200745733E+00  0.21149748050E-01 0.  0.
         14    1    1    2    0    0 -0.44056740490E-02 -0.18139648441E-01  0.14608387759E-01  0.23703624245E-01  0.00000000000E+00 0.  1.
     999901    1    3    3    0    0 -0.64901922364E-01 -0.83159449968E-01 -0.58353178182E-01  0.88821891843E+00  0.88000000000E+00 0.  1.
        -11    1    4    4    0    0  0.65708976756E-01  0.83303221769E-01  0.35502664204E-01  0.11188295969E+00  0.51100000000E-03 0.  1.
         11    1    4    4    0    0  0.35986196571E-02  0.17995876640E-01  0.82421262184E-02  0.20124497635E-01  0.51100000000E-03 0. -1.
</event>
<event>
 8    1  0.1123191E+005  0.1043930E+01  0.7957747E-01            NaN
         13   -1    0    0    0    0  0.00000000000E+00  0.00000000000E+00  0.74505805969E-08  0.10566000000E+00  0.10566000000E+00 0.  1.
     999900   -1    0    0    0    0 -0.00000000000E+00 -0.00000000000E+00 -0.74505805969E-08  0.93827000000E+00  0.93827000000E+00 0.  1.
     999902    2    1    2    0    0 -0.98399707787E-02  0.22049616126E-01  0.19984424766E-03  0.10197835606E+01  0.10194976508E+01 0.  0.
     999903    2    3    3    0    0 -0.28604349641E-01  0.11631916060E+00  0.54074561300E-01  0.13291190472E+00  0.19828270088E-01 0.  0.
         14    1    1    2    0    0  0.98399707787E-02 -0.22049616126E-01 -0.19984424766E-03  0.24146439364E-01  0.00000000000E+00 0.  1.
     999901    1    3    3    0    0  0.18764378862E-01 -0.94269544477E-01 -0.53874717053E-01  0.88687165592E+00  0.88000000000E+00 0.  1.
        -11    1    4    4    0    0 -0.22594183528E-01  0.10825151699E+00  0.45127106948E-01  0.11943870797E+00  0.51100000000E-03 0. -1.
         11    1    4    4    0    0 -0.60101661128E-02  0.80676436129E-02  0.89474543525E-02  0.13473196746E-01  0.51100000000E-03 0.  1.
</event>
<event>
 8    1  0.1123191E+005  0.1043930E+01  0.7957747E-01            NaN
         13   -1    0    0    0    0  0.00000000000E+00  0.00000000000E+00  0.74505805969E-08  0.10566000000E+00  0.10566000000E+00 0. -1.
     999900   -1    0    0    0    0 -0.00000000000E+00 -0.00000000000E+00 -0.74505805969E-08  0.93827000000E+00  0.93827000000E+00 0.  1.
     999902    2    1    2    0    0 -0.86778116498E-02  0.85640326677E-02 -0.18280346388E-01  0.10219568770E+01  0.10217206273E+01 0.  0.
     999903    2    3    3    0    0  0.11541045567E+00  0.26582103394E-01 -0.55136826812E-01  0.13230472637E+00  0.20935363622E-01 0.  0.
         14    1    1    2    0    0  0.86778116498E-02 -0.85640326677E-02  0.18280346388E-01  0.21973123006E-01  0.00000000000E+00 0. -1.
     999901    1    3    3    0    0 -0.12408826732E+00 -0.18018070726E-01  0.36856480424E-01  0.88965215062E+00  0.88000000000E+00 0. -1.
        -11    1    4    4    0    0  0.10345574395E+00  0.16800768276E-01 -0.48251590487E-01  0.11538558782E+00  0.51100000000E-03 0. -1.
         11    1    4    4    0    0  0.11954711717E-01  0.97813351184E-02 -0.68852363248E-02  0.16919138548E-01  0.51100000000E-03 0.  1.
</event>
<event>
 8    1  0.1123191E+005  0.1043930E+01  0.7957747E-01            NaN
         13   -1    0    0    0    0  0.00000000000E+00  0.00000000000E+00  0.74505805969E-08  0.10566000000E+00  0.10566000000E+00 0. -1.
     999900   -1    0    0    0    0 -0.00000000000E+00 -0.00000000000E+00 -0.74505805969E-08  0.93827000000E+00  0.93827000000E+00 0.  1.
     999902    2    1    2    0    0  0.20987844039E-01 -0.76399349399E-02 -0.86178187530E-02  0.10199899707E+01  0.10197089856E+01 0.  0.
     999903    2    3    3    0    0  0.13113806966E+00  0.61558425807E-02  0.36148717210E-02  0.13293132866E+00  0.20556826822E-01 0.  0.
         14    1    1    2    0    0 -0.20987844039E-01  0.76399349399E-02  0.86178187530E-02  0.23940029310E-01  0.00000000000E+00 0. -1.
     999901    1    3    3    0    0 -0.11015022562E+00 -0.13795777521E-01 -0.12232690474E-01  0.88705864203E+00  0.88000000000E+00 0.  1.
        -11    1    4    4    0    0  0.55616958860E-01  0.72563720681E-02  0.10580893378E-01  0.57079921812E-01  0.51100000000E-03 0. -1.
         11    1    4    4    0    0  0.75521110804E-01 -0.11005294874E-02 -0.69660216572E-02  0.75851406849E-01  0.51100000000E-03 0.  1.
</event>
<event>
 8    1  0.1123191E+005  0.1043930E+01  0.7957747E-01            NaN
         13   -1    0    0    0    0  0.00000000000E+00  0.00000000000E+00  0.74505805969E-08  0.10566000000E+00  0.10566000000E+00 0.  1.
     999900   -1    0    0    0    0 -0.00000000000E+00 -0.00000000000E+00 -0.74505805969E-08  0.93827000000E+00  0.93827000000E+00 0.  1.
     999902    2    1    2    0    0 -0.17607704036E-01 -0.10076641515E-01  0.21285444040E-01  0.10145252372E+01  0.10140990173E+01 0.  0.
     999903    2    3    3    0    0 -0.13468156485E-02 -0.73154198708E-01  0.10348340085E+00  0.12829744551E+00  0.19951680943E-01 0.  0.
         14    1    1    2    0    0  0.17607704036E-01  0.10076641515E-01 -0.21285444040E-01  0.29404762771E-01  0.00000000000E+00 0. -1.
     999901    1    3    3    0    0 -0.16260888388E-01  0.63077557193E-01 -0.82197956806E-01  0.88622779172E+00  0.88000000000E+00 0.  1.
        -11    1    4    4    0    0 -0.10411983082E-01 -0.42840025877E-01  0.56919595148E-01  0.71998462773E-01  0.51100000000E-03 0. -1.
         11    1    4    4    0    0  0.90651674335E-02 -0.30314172831E-01  0.46563805698E-01  0.56298982736E-01  0.51100000000E-03 0.  1.
</event>
<event>
 8    1  0.1123191E+005  0.1043930E+01  0.7957747E-01            NaN
         13   -1    0    0    0    0  0.00000000000E+00  0.00000000000E+00  0.74505805969E-08  0.10566000000E+00  0.10566000000E+00 0.  1.
     999900   -1    0    0    0    0 -0.00000000000E+00 -0.00000000000E+00 -0.74505805969E-08  0.93827000000E+00  0.93827000000E+00 0.  1.
     999902    2    1    2    0    0  0.14505574960E-01  0.10918466755E-01 -0.16426322138E-01  0.10194463589E+01  0.10191523095E+01 0.  0.
     999903    2    3    3    0    0 -0.52090817260E-01  0.88130634397E-01 -0.79671607592E-01  0.13130404802E+00  0.20315659200E-01 0.  0.
         14    1    1    2    0    0 -0.14505574960E-01 -0.10918466755E-01  0.16426322138E-01  0.24483641073E-01  0.00000000000E+00 0.  1.
     999901    1    3    3    0    0  0.66596392220E-01 -0.77212167642E-01  0.63245285454E-01  0.88814231091E+00  0.88000000000E+00 0.  1.
        -11    1    4    4    0    0 -0.18296995314E-01  0.17129163666E-01 -0.25878239975E-01  0.36029608805E-01  0.51100000000E-03 0.  1.
         11    1    4    4    0    0 -0.33793821946E-01  0.71001470730E-01 -0.53793367616E-01  0.95274439217E-01  0.51100000000E-03 0. -1.
</event>
<event>
 8    1  0.1123191E+005  0.1043930E+01  0.7957747E-01            NaN
         13   -1    0    0    0    0  0.00000000000E+00  0.00000000000E+00  0.74505805969E-08  0.10566000000E+00  0.10566000000E+00 0. -1.
     999900   -1    0    0    0    0 -0.00000000000E+00 -0.00000000000E+00 -0.74505805969E-08  0.93827000000E+00  0.93827000000E+00 0. -1.
     999902    2    1    2    0    0  0.32816813174E-02 -0.22867649818E-01 -0.41554399669E-02  0.10204573239E+01  0.10201873276E+01 0.  0.
     999903    2    3    3    0    0  0.22853805499E-01 -0.12837487117E+00  0.14823621543E-01  0.13373580813E+00  0.25751167874E-01 0.  0.
         14    1    1    2    0    0 -0.32816813174E-02  0.22867649818E-01  0.41554399669E-02  0.23472676068E-01  0.00000000000E+00 0. -1.
     999901    1    3    3    0    0 -0.19572124182E-01  0.10550722136E+00 -0.18979061510E-01  0.88672151580E+00  0.88000000000E+00 0. -1.
        -11    1    4    4    0    0  0.44544817650E-02 -0.49043454777E-01  0.17467997608E-01  0.52254137881E-01  0.51100000000E-03 0. -1.
         11    1    4    4    0    0  0.18399323734E-01 -0.79331416398E-01 -0.26443760654E-02  0.81481670253E-01  0.51100000000E-03 0.  1.
</event>
<event>
 8    1  0.1123191E+005  0.1043930E+01  0.7957747E-01            NaN
         13   -1    0    0    0    0  0.00000000000E+00  0.00000000000E+00  0.74505805969E-08  0.10566000000E+00  0.10566000000E+00 0.  1.
     999900   -1    0    0    0    0 -0.00000000000E+00 -0.00000000000E+00 -0.74505805969E-08  0.93827000000E+00  0.93827000000E+00 0. -1.
     999902    2    1    2    0    0 -0.72536820523E-02 -0.10056411759E-01 -0.15571673791E-01  0.10240246152E+01  0.10238311326E+01 0.  0.
     999903    2    3    3    0    0 -0.12897553872E+00  0.13600191659E-01  0.28313645606E-01  0.13424836996E+00  0.20032660994E-01 0.  0.
         14    1    1    2    0    0  0.72536820523E-02  0.10056411759E-01  0.15571673791E-01  0.19905384835E-01  0.00000000000E+00 0.  1.
     999901    1    3    3    0    0  0.12172185667E+00 -0.23656603418E-01 -0.43885319397E-01  0.88977624521E+00  0.88000000000E+00 0. -1.
        -11    1    4    4    0    0 -0.94304795979E-01  0.15899770290E-01  0.13962521900E-01  0.96650971949E-01  0.51100000000E-03 0.  1.
         11    1    4    4    0    0 -0.34670742745E-01 -0.22995786314E-02  0.14351123706E-01  0.37597398009E-01  0.51100000000E-03 0. -1.
</event>
<event>
 8    1  0.1123191E+005  0.1043930E+01  0.7957747E-01            NaN
         13   -1    0    0    0    0  0.00000000000E+00  0.00000000000E+00  0.74505805969E-08  0.10566000000E+00  0.10566000000E+00 0.  1.
     999900   -1    0    0    0    0 -0.00000000000E+00 -0.00000000000E+00 -0.74505805969E-08  0.93827000000E+00  0.93827000000E+00 0.  1.
     999902    2    1    2    0    0 -0.46020481290E-02  0.91886422844E-02  0.20712009434E-01  0.10208086391E+01  0.10205467556E+01 0.  0.
     999903    2    3    3    0    0  0.24047965279E-01 -0.72216971650E-01 -0.97938816183E-01  0.12866194958E+00  0.34180256369E-01 0.  0.
         14    1    1    2    0    0  0.46020481290E-02 -0.91886422844E-02 -0.20712009434E-01  0.23121360877E-01  0.00000000000E+00 0. -1.
     999901    1    3    3    0    0 -0.28650013408E-01  0.81405613934E-01  0.11865082562E+00  0.89214668955E+00  0.88000000000E+00 0. -1.
        -11    1    4    4    0    0 -0.14325060304E-02 -0.26406286905E-01 -0.14615402054E-01  0.30219450025E-01  0.51100000000E-03 0.  1.
         11    1    4    4    0    0  0.25480471309E-01 -0.45810684744E-01 -0.83323414129E-01  0.98442499552E-01  0.51100000000E-03 0. -1.
</event>
<event>
 8    1  0.1123191E+005  0.1043930E+01  0.7957747E-01            NaN
         13   -1    0    0    0    0  0.00000000000E+00  0.00000000000E+00  0.74505805969E-08  0.10566000000E+00  0.10566000000E+00 0. -1.
     999900   -1    0    0    0    0 -0.00000000000E+00 -0.00000000000E+00 -0.74505805969E-08  0.93827000000E+00  0.93827000000E+00 0. -1.
     999902    2    1    2    0    0 -0.13703926762E-01  0.29645918478E-02  0.18553794838E-01  0.10206742541E+01  0.10204092823E+01 0.  0.
     999903    2    3    3    0    0  0.99308853924E-01 -0.52979505535E-01 -0.58353704425E-01  0.12836466991E+00  0.20081264564E-01 0.  0.
         14    1    1    2    0    0  0.13703926762E-01 -0.29645918478E-02 -0.18553794838E-01  0.23255745880E-01  0.00000000000E+00 0.  1.
     999901    1    3    3    0    0 -0.11301278069E+00  0.55944097383E-01  0.76907499263E-01  0.89230958421E+00  0.88000000000E+00 0. -1.
        -11    1    4    4    0    0  0.94250251448E-01 -0.45019947336E-01 -0.56450219448E-01  0.11872992021E+00  0.51100000000E-03 0.  1.
         11    1    4    4    0    0  0.50586024764E-02 -0.79595581991E-02 -0.19034849764E-02  0.96347497006E-02  0.51100000000E-03 0. -1.
</event>
<event>
 8    1  0.1123191E+005  0.1043930E+01  0.7957747E-01            NaN
         13   -1    0    0    0    0  0.00000000000E+00  0.00000000000E+00  0.74505805969E-08  0.10566000000E+00  0.10566000000E+00 0. -1.
     999900   -1    0    0    0    0 -0.00000000000E+00 -0.00000000000E+00 -0.74505805969E-08  0.93827000000E+00  0.93827000000E+00 0.  1.
     999902    2    1    2    0    0 -0.10788262739E-01  0.18683795513E-01  0.10276735757E-01  0.10200326753E+01  0.10197527037E+01 0.  0.
     999903    2    3    3    0    0  0.94511570010E-01 -0.52720525447E-01  0.67031571432E-01  0.12907378561E+00  0.21328851215E-01 0.  0.
         14    1    1    2    0    0  0.10788262739E-01 -0.18683795513E-01 -0.10276735757E-01  0.23897324652E-01  0.00000000000E+00 0.  1.
     999901    1    3    3    0    0 -0.10529983275E+00  0.71404320960E-01 -0.56754835675E-01  0.89095888974E+00  0.88000000000E+00 0.  1.
        -11    1    4    4    0    0  0.45436640851E-01 -0.31070347345E-01  0.22931154189E-01  0.59631818432E-01  0.51100000000E-03 0. -1.
         11    1    4    4    0    0  0.49074929159E-01 -0.21650178102E-01  0.44100417243E-01  0.69441967179E-01  0.51100000000E-03 0.  1.
</event>
<event>
 8    1  0.1123191E+005  0.1043930E+01  0.7957747E-01            NaN
         13   -1    0    0    0    0  0.00000000000E+00  0.00000000000E+00  0.74505805969E-08  0.10566000000E+00  0.10566000000E+00 0.  1.
     999900   -1    0    0    0    0 -0.00000000000E+00 -0.00000000000E+00 -0.74505805969E-08  0.93827000000E+00  0.93827000000E+00 0. -1.
     999902    2    1    2    0    0  0.23807470209E-02 -0.22427857255E-01 -0.68357677673E-02  0.10203629794E+01  0.10200907829E+01 0.  0.
     999903    2    3    3    0    0  0.12757746150E+00 -0.24609865412E-01 -0.31905127005E-02  0.13149163533E+00  0.19955366020E-01 0.  0.
         14    1    1    2    0    0 -0.23807470209E-02  0.22427857255E-01  0.68357677673E-02  0.23567020567E-01  0.00000000000E+00 0. -1.
     999901    1    3    3    0    0 -0.12519671448E+00  0.21820081572E-02 -0.36452550668E-02  0.88887134410E+00  0.88000000000E+00 0. -1.
        -11    1    4    4    0    0  0.77444178806E-01 -0.51584568608E-02 -0.38125601120E-02  0.77711049689E-01  0.51100000000E-03 0.  1.
         11    1    4    4    0    0  0.50133282694E-01 -0.19451408551E-01  0.62204741154E-03  0.53780585645E-01  0.51100000000E-03 0. -1.
</event>
<event>
 8    1  0.1123191E+005  0.1043930E+01  0.7957747E-01            NaN
         13   -1    0    0    0    0  0.00000000000E+00  0.00000000000E+00  0.74505805969E-08  0.10566000000E+00  0.10566000000E+00 0. -1.
     999900   -1    0    0    0    0 -0.00000000000E+00 -0.00000000000E+00 -0.74505805969E-08  0.93827000000E+00  0.93827000000E+00 0. -1.
     999902    2    1    2    0    0  0.50236774219E-02 -0.23781789680E-01  0.40986610447E-02  0.10192802560E+01  0.10189821541E+01 0.  0.
     999903    2    3    3    0    0  0.25460029643E-01 -0.82067298779E-01  0.98376131874E-01  0.13209195214E+00  0.19676530662E-01 0.  0.
         14    1    1    2    0    0 -0.50236774219E-02  0.23781789680E-01 -0.40986610447E-02  0.24649743966E-01  0.00000000000E+00 0.  1.
     999901    1    3    3    0    0 -0.20436352222E-01  0.58285509098E-01 -0.94277470830E-01  0.88718830390E+00  0.88000000000E+00 0. -1.
        -11    1    4    4    0    0  0.19586603802E-02 -0.38671026519E-01  0.40610579881E-01  0.56113857128E-01  0.51100000000E-03 0.  1.
         11    1    4    4    0    0  0.23501369263E-01 -0.43396272259E-01  0.57765551994E-01  0.75978095010E-01  0.51100000000E-03 0. -1.
</event>
<event>
 8    1  0.1123191E+005  0.1043930E+01  0.7957747E-01            NaN
         13   -1    0    0    0    0  0.00000000000E+00  0.00000000000E+00  0.74505805969E-08  0.10566000000E+00  0.10566000000E+00 0. -1.
     999900   -1    0    0    0    0 -0.00000000000E+00 -0.00000000000E+00 -0.74505805969E-08  0.93827000000E+00  0.93827000000E+00 0.  1.
     999902    2    1    2    0    0 -0.20688269225E-02  0.19858723256E-01 -0.11346775881E-01  0.10209648469E+01  0.10207065300E+01 0.  0.
     999903    2    3    3    0    0  0.79694333509E-02 -0.76780555725E-01 -0.10375809331E+00  0.13080768746E+00  0.19650536030E-01 0.  0.
         14    1    1    2    0    0  0.20688269225E-02 -0.19858723256E-01  0.11346775881E-01  0.22965153104E-01  0.00000000000E+00 0. -1.
     999901    1    3    3    0    0 -0.10038260273E-01  0.96639278981E-01  0.92411317424E-01  0.89015715944E+00  0.88000000000E+00 0.  1.
        -11    1    4    4    0    0 -0.87840647823E-03 -0.21322053483E-01 -0.43378776961E-01  0.48346468065E-01  0.51100000000E-03 0.  1.
         11    1    4    4    0    0  0.88478398292E-02 -0.55458502242E-01 -0.60379316344E-01  0.82461219393E-01  0.51100000000E-03 0. -1.
</event>
<event>
 8    1  0.1123191E+005  0.1043930E+01  0.7957747E-01            NaN
         13   -1    0    0    0    0  0.00000000000E+00  0.00000000000E+00  0.74505805969E-08  0.10566000000E+00  0.10566000000E+00 0. -1.
     999900   -1    0    0    0    0 -0.00000000000E+00 -0.00000000000E+00 -0.74505805969E-08  0.93827000000E+00  0.93827000000E+00 0.  1.
     999902    2    1    2    0    0  0.14717088441E-01 -0.12346001550E-02  0.18391050302E-01  0.10203429769E+01  0.10200703127E+01 0.  0.
     999903    2    3    3    0    0  0.28724029383E-01 -0.94804925287E-01 -0.81187520832E-01  0.12968732399E+00  0.20355459793E-01 0.  0.
         14    1    1    2    0    0 -0.14717088441E-01  0.12346001550E-02 -0.18391050302E-01  0.23587023147E-01  0.00000000000E+00 0.  1.
     999901    1    3    3    0    0 -0.14006940941E-01  0.93570325132E-01  0.99578571134E-01  0.89065565286E+00  0.88000000000E+00 0. -1.
        -11    1    4    4    0    0  0.61272942589E-02 -0.51745398890E-01 -0.36299312356E-01  0.63506151197E-01  0.51100000000E-03 0. -1.
         11    1    4    4    0    0  0.22596735124E-01 -0.43059526396E-01 -0.44888208476E-01  0.66181172798E-01  0.51100000000E-03 0.  1.
</event>
<event>
 8    1  0.1123191E+005  0.1043930E+01  0.7957747E-01            NaN
         13   -1    0    0    0    0  0.00000000000E+00  0.00000000000E+00  0.74505805969E-08  0.10566000000E+00  0.10566000000E+00 0.  1.
     999900   -1    0    0    0    0 -0.00000000000E+00 -0.00000000000E+00 -0.74505805969E-08  0.93827000000E+00  0.93827000000E+00 0. -1.
     999902    2    1    2    0    0  0.16429108975E-01  0.17312002668E-01  0.16215061944E-02  0.10200082455E+01  0.10197276943E+01 0.  0.
     999903    2    3    3    0    0 -0.10697892857E+00  0.30743416573E-01 -0.62110004551E-01  0.12901349122E+00  0.19929361030E-01 0.  0.
         14    1    1    2    0    0 -0.16429108975E-01 -0.17312002668E-01 -0.16215061944E-02  0.23921754543E-01  0.00000000000E+00 0. -1.
     999901    1    3    3    0    0  0.12340803755E+00 -0.13431413905E-01  0.63731510745E-01  0.89099475423E+00  0.88000000000E+00 0.  1.
        -11    1    4    4    0    0 -0.59755071361E-01  0.69188843689E-02 -0.31651724595E-01  0.67975233028E-01  0.51100000000E-03 0.  1.
         11    1    4    4    0    0 -0.47223857211E-01  0.23824532204E-01 -0.30458279956E-01  0.61038258195E-01  0.51100000000E-03 0. -1.
</event>
<event>
 7    1  0.1123191E+005  0.1043930E+01  0.7957747E-01            NaN
         13   -1    0    0    0    0  0.00000000000E+00  0.00000000000E+00  0.74505805969E-08  0.10566000000E+00  0.10566000000E+00 0. -1.
     999900   -1    0    0    0    0 -0.00000000000E+00 -0.00000000000E+00 -0.74505805969E-08  0.93827000000E+00  0.93827000000E+00 0. -1.
     999903    2    1    2    0    0 -0.13247695211E-01 -0.10733864658E+00  0.93627093953E-02  0.11041593976E+00  0.20172579110E-01 0.  0.
         14    1    1    2    0    0  0.16187742878E-01  0.31935645169E-01  0.33790074147E-01  0.49231062986E-01  0.00000000000E+00 0. -1.
     999901    1    1    2    0    0 -0.29400476672E-02  0.75403001412E-01 -0.43152783543E-01  0.88428299725E+00  0.88000000000E+00 0. -1.
        -11    1    3    3    0    0 -0.15543076302E-01 -0.52312331456E-01  0.15604329134E-03  0.54575202371E-01  0.51100000000E-03 0. -1.
         11    1    3    3    0    0  0.22953810913E-02 -0.55026315125E-01  0.92066661039E-02  0.55840737391E-01  0.51100000000E-03 0.  1.
</event>
<event>
 8    1  0.1123191E+005  0.1043930E+01  0.7957747E-01            NaN
         13   -1    0    0    0    0  0.00000000000E+00  0.00000000000E+00  0.74505805969E-08  0.10566000000E+00  0.10566000000E+00 0. -1.
     999900   -1    0    0    0    0 -0.00000000000E+00 -0.00000000000E+00 -0.74505805969E-08  0.93827000000E+00  0.93827000000E+00 0. -1.
     999902    2    1    2    0    0 -0.13346047182E-01  0.31341276740E-02 -0.16047790448E-01  0.10228238087E+01  0.10226060201E+01 0.  0.
     999903    2    3    3    0    0 -0.12559629760E+00 -0.40366192080E-01 -0.18247122099E-01  0.13462493821E+00  0.19673766481E-01 0.  0.
         14    1    1    2    0    0  0.13346047182E-01 -0.31341276740E-02  0.16047790448E-01  0.21106191270E-01  0.00000000000E+00 0. -1.
     999901    1    3    3    0    0  0.11225025042E+00  0.43500319754E-01  0.21993316515E-02  0.88819887052E+00  0.88000000000E+00 0.  1.
        -11    1    4    4    0    0 -0.11009018099E+00 -0.40806775528E-01 -0.12500289345E-01  0.11807438009E+00  0.51100000000E-03 0. -1.
         11    1    4    4    0    0 -0.15506116612E-01  0.44058344819E-03 -0.57468327540E-02  0.16550558113E-01  0.51100000000E-03 0.  1.
</event>
<event>
 8    1  0.1123191E+005  0.1043930E+01  0.7957747E-01            NaN
         13   -1    0    0    0    0  0.00000000000E+00  0.00000000000E+00  0.74505805969E-08  0.10566000000E+00  0.10566000000E+00 0. -1.
     999900   -1    0    0    0    0 -0.00000000000E+00 -0.00000000000E+00 -0.74505805969E-08  0.93827000000E+00  0.93827000000E+00 0.  1.
     999902    2    1    2    0    0 -0.19176945494E-01 -0.60166855562E-02 -0.11023009364E-01  0.10210070316E+01  0.10207496736E+01 0.  0.
     999903    2    3    3    0    0  0.11881287128E+00  0.19415873815E-01  0.41073602346E-01  0.12836933269E+00  0.17267606357E-01 0.  0.
         14    1    1    2    0    0  0.19176945494E-01  0.60166855562E-02  0.11023009364E-01  0.22922968373E-01  0.00000000000E+00 0. -1.
     999901    1    3    3    0    0 -0.13798981677E+00 -0.25432559371E-01 -0.52096611710E-01  0.89263769894E+00  0.88000000000E+00 0.  1.
        -11    1    4    4    0    0  0.87150967183E-01  0.21729003675E-01  0.31957306679E-01  0.95336096275E-01  0.51100000000E-03 0. -1.
         11    1    4    4    0    0  0.31661904093E-01 -0.23131298604E-02  0.91162956667E-02  0.33033236418E-01  0.51100000000E-03 0.  1.
</event>
<event>
 8    1  0.1123191E+005  0.1043930E+01  0.7957747E-01            NaN
         13   -1    0    0    0    0  0.00000000000E+00  0.00000000000E+00  0.74505805969E-08  0.10566000000E+00  0.10566000000E+00 0. -1.
     999900   -1    0    0    0    0 -0.00000000000E+00 -0.00000000000E+00 -0.74505805969E-08  0.93827000000E+00  0.93827000000E+00 0.  1.
     999902    2    1    2    0    0  0.17648024040E-01  0.15665540718E-01  0.62678050979E-02  0.10195138721E+01  0.10192214618E+01 0.  0.
     999903    2    3    3    0    0  0.59193840967E-01  0.10052345486E+00  0.58188417645E-01  0.13293467630E+00  0.26016541477E-01 0.  0.
         14    1    1    2    0    0 -0.17648024040E-01 -0.15665540718E-01 -0.62678050979E-02  0.24416127851E-01  0.00000000000E+00 0.  1.
     999901    1    3    3    0    0 -0.41545816927E-01 -0.84857914144E-01 -0.51920612547E-01  0.88657919584E+00  0.88000000000E+00 0.  1.
        -11    1    4    4    0    0  0.21797571119E-01  0.62429055944E-01  0.33102163153E-01  0.73949546713E-01  0.51100000000E-03 0. -1.
         11    1    4    4    0    0  0.37396269848E-01  0.38094398918E-01  0.25086254492E-01  0.58985129591E-01  0.51100000000E-03 0.  1.
</event>
<event>
 8    1  0.1123191E+005  0.1043930E+01  0.7957747E-01            NaN
         13   -1    0    0    0    0  0.00000000000E+00  0.00000000000E+00  0.74505805969E-08  0.10566000000E+00  0.10566000000E+00 0.  1.
     999900   -1    0    0    0    0 -0.00000000000E+00 -0.00000000000E+00 -0.74505805969E-08  0.93827000000E+00  0.93827000000E+00 0.  1.
     999902    2    1    2    0    0  0.95802490287E-02  0.15494013361E-01 -0.65372513379E-02  0.10245758977E+01  0.10243930832E+01 0.  0.
     999903    2    3    3    0    0  0.13401542455E+00  0.74580635125E-02 -0.76016538251E-02  0.13578468353E+00  0.19077169953E-01 0.  0.
         14    1    1    2    0    0 -0.95802490287E-02 -0.15494013361E-01  0.65372513379E-02  0.19354102318E-01  0.00000000000E+00 0.  1.
     999901    1    3    3    0    0 -0.12443517552E+00  0.80359498485E-02  0.10644024872E-02  0.88879121415E+00  0.88000000000E+00 0.  1.
        -11    1    4    4    0    0  0.19279565906E-01 -0.26924248649E-03 -0.77519103464E-02  0.20787673946E-01  0.51100000000E-03 0.  1.
         11    1    4    4    0    0  0.11473585864E+00  0.77273059990E-02  0.15025652125E-03  0.11499700959E+00  0.51100000000E-03 0. -1.
</event>
<event>
 8    1  0.1123191E+005  0.1043930E+01  0.7957747E-01            NaN
         13   -1    0    0    0    0  0.00000000000E+00  0.00000000000E+00  0.74505805969E-08  0.10566000000E+00  0.10566000000E+00 0.  1.
     999900   -1    0    0    0    0 -0.00000000000E+00 -0.00000000000E+00 -0.74505805969E-08  0.93827000000E+00  0.93827000000E+00 0. -1.
     999902    2    1    2    0    0  0.56862451288E-02 -0.10837190501E-02  0.22861381008E-01  0.10203471551E+01  0.10200745886E+01 0.  0.
     999903    2    3    3    0    0  0.56666921884E-01 -0.11166538824E+00  0.36145211682E-01  0.13186316815E+00  0.20027975951E-01 0.  0.
         14    1    1    2    0    0 -0.56862451288E-02  0.10837190501E-02 -0.22861381008E-01  0.23582844872E-01  0.00000000000E+00 0. -1.
     999901    1    3    3    0    0 -0.50980676755E-01  0.11058166919E+00 -0.13283830673E-01  0.88848398698E+00  0.88000000000E+00 0.  1.
        -11    1    4    4    0    0  0.12840894483E-01 -0.44858649066E-01  0.17327933590E-01  0.49776554428E-01  0.51100000000E-03 0.  1.
         11    1    4    4    0    0  0.43826027400E-01 -0.66806739171E-01  0.18817278091E-01  0.82086613720E-01  0.51100000000E-03 0. -1.
</event>
<event>
 8    1  0.1123191E+005  0.1043930E+01  0.7957747E-01            NaN
         13   -1    0    0    0    0  0.00000000000E+00  0.00000000000E+00  0.74505805969E-08  0.10566000000E+00  0.10566000000E+00 0. -1.
     999900   -1    0    0    0    0 -0.00000000000E+00 -0.00000000000E+00 -0.74505805969E-08  0.93827000000E+00  0.93827000000E+00 0. -1.
     999902    2    1    2    0    0 -0.42651227132E-02 -0.17175565267E-01  0.27418608558E-01  0.10112961003E+01  0.10107694253E+01 0.  0.
     999903    2    3    3    0    0  0.55089655878E-02 -0.77466265021E-01  0.97674464209E-01  0.12638571697E+00  0.20041895565E-01 0.  0.
         14    1    1    2    0    0  0.42651227132E-02  0.17175565267E-01 -0.27418608558E-01  0.32633899694E-01  0.00000000000E+00 0.  1.
     999901    1    3    3    0    0 -0.97740883010E-02  0.60290699754E-01 -0.70255855652E-01  0.88491038333E+00  0.88000000000E+00 0. -1.
        -11    1    4    4    0    0 -0.12939318007E-02 -0.55609006278E-01  0.80103357058E-01  0.97523560085E-01  0.51100000000E-03 0.  1.
         11    1    4    4    0    0  0.68028973885E-02 -0.21857258743E-01  0.17571107151E-01  0.28862156887E-01  0.51100000000E-03 0. -1.
</event>
<event>
 8    1  0.1123191E+005  0.1043930E+01  0.7957747E-01            NaN
         13   -1    0    0    0    0  0.00000000000E+00  0.00000000000E+00  0.74505805969E-08  0.10566000000E+00  0.10566000000E+00 0.  1.
     999900   -1    0    0    0    0 -0.00000000000E+00 -0.00000000000E+00 -0.74505805969E-08  0.93827000000E+00  0.93827000000E+00 0. -1.
     999902    2    1    2    0    0  0.87930752291E-02  0.19081629423E-01  0.82433296586E-02  0.10213605685E+01  0.10211111750E+01 0.  0.
     999903    2    3    3    0    0  0.29983157455E-01 -0.16097095632E-01 -0.12437687657E+00  0.13047635529E+00  0.19908933830E-01 0.  0.
         14    1    1    2    0    0 -0.87930752291E-02 -0.19081629423E-01 -0.82433296586E-02  0.22569431479E-01  0.00000000000E+00 0. -1.
     999901    1    3    3    0    0 -0.21190082226E-01  0.35178725055E-01  0.13262020623E+00  0.89088421323E+00  0.88000000000E+00 0.  1.
        -11    1    4    4    0    0  0.14766565709E-01 -0.18846410285E-01 -0.74311047587E-01  0.78074525666E-01  0.51100000000E-03 0.  1.
         11    1    4    4    0    0  0.15216591746E-01  0.27493146525E-02 -0.50065828982E-01  0.52401829626E-01  0.51100000000E-03 0. -1.
</event>
<event>
 8    1  0.1123191E+005  0.1043930E+01  0.7957747E-01            NaN
         13   -1    0    0    0    0  0.00000000000E+00  0.00000000000E+00  0.74505805969E-08  0.10566000000E+00  0.10566000000E+00 0. -1.
     999900   -1    0    0    0    0 -0.00000000000E+00 -0.00000000000E+00 -0.74505805969E-08  0.93827000000E+00  0.93827000000E+00 0. -1.
     999902    2    1    2    0    0 -0.25474482674E-01 -0.10608359999E-01  0.41443266280E-02  0.10160254840E+01  0.10156422215E+01 0.  0.
     999903    2    3    3    0    0  0.76458978378E-02  0.98975579708E-01 -0.73677368104E-01  0.12520461783E+00  0.19829690464E-01 0.  0.
         14    1    1    2    0    0  0.25474482674E-01  0.10608359999E-01 -0.41443266280E-02  0.27904515989E-01  0.00000000000E+00 0.  1.
     999901    1    3    3    0    0 -0.33120380511E-01 -0.10958393971E+00  0.77821694732E-01  0.89082086618E+00  0.88000000000E+00 0.  1.
        -11    1    4    4    0    0  0.69039158007E-02  0.10184921628E-01 -0.11048984552E-01  0.16545025312E-01  0.51100000000E-03 0.  1.
         11    1    4    4    0    0  0.74198203707E-03  0.88790658080E-01 -0.62628383551E-01  0.10865959252E+00  0.51100000000E-03 0. -1.
</event>
<event>
 8    1  0.1123191E+005  0.1043930E+01  0.7957747E-01            NaN
         13   -1    0    0    0    0  0.00000000000E+00  0.00000000000E+00  0.74505805969E-08  0.10566000000E+00  0.10566000000E+00 0. -1.
     999900   -1    0    0    0    0 -0.00000000000E+00 -0.00000000000E+00 -0.74505805969E-08  0.93827000000E+00  0.93827000000E+00 0.  1.
     999902    2    1    2    0    0  0.82929577322E-02 -0.12069887370E-01  0.16491124838E-01  0.10218752380E+01  0.10216372103E+01 0.  0.
     999903    2    3    3    0    0  0.12539236297E+00 -0.13788200228E-01  0.39980816760E-01  0.13380599016E+00  0.19804497927E-01 0.  0.
         14    1    1    2    0    0 -0.82929577322E-02  0.12069887370E-01 -0.16491124838E-01  0.22054762014E-01  0.00000000000E+00 0.  1.
     999901    1    3    3    0    0 -0.11709940524E+00  0.17183128585E-02 -0.23489691922E-01  0.88806924782E+00  0.88000000000E+00 0. -1.
        -11    1    4    4    0    0  0.11268160096E+00 -0.16939964118E-01  0.39798203042E-01  0.12069906241E+00  0.51100000000E-03 0.  1.
         11    1    4    4    0    0  0.12710762005E-01  0.31517638898E-02  0.18261371842E-03  0.13106927753E-01  0.51100000000E-03 0. -1.
</event>
<event>
 8    1  0.1123191E+005  0.1043930E+01  0.7957747E-01            NaN
         13   -1    0    0    0    0  0.00000000000E+00  0.00000000000E+00  0.74505805969E-08  0.10566000000E+00  0.10566000000E+00 0.  1.
     999900   -1    0    0    0    0 -0.00000000000E+00 -0.00000000000E+00 -0.74505805969E-08  0.93827000000E+00  0.93827000000E+00 0.  1.
     999902    2    1    2    0    0  0.12514596822E-01 -0.13709075114E-01  0.16103816781E-01  0.10193558919E+01  0.10190596389E+01 0.  0.
     999903    2    3    3    0    0  0.12490269563E+00 -0.17862972185E-01 -0.26703932765E-01  0.13116624828E+00  0.23910573222E-01 0.  0.
         14    1    1    2    0    0 -0.12514596822E-01  0.13709075114E-01 -0.16103816781E-01  0.24574108102E-01  0.00000000000E+00 0. -1.
     999901    1    3    3    0    0 -0.11238809881E+00  0.41538970713E-02  0.42807749546E-01  0.88818964362E+00  0.88000000000E+00 0. -1.
        -11    1    4    4    0    0  0.76406711734E-01  0.44881494313E-03 -0.12602881097E-01  0.77442112353E-01  0.51100000000E-03 0. -1.
         11    1    4    4    0    0  0.48495983894E-01 -0.18311787128E-01 -0.14101051668E-01  0.53724135924E-01  0.51100000000E-03 0.  1.
</event>
<event>
 8    1  0.1123191E+005  0.1043930E+01  0.7957747E-01            NaN
         13   -1    0    0    0    0  0.00000000000E+00  0.00000000000E+00  0.74505805969E-08  0.10566000000E+00  0.10566000000E+00 0.  1.
     999900   -1    0    0    0    0 -0.00000000000E+00 -0.00000000000E+00 -0.74505805969E-08  0.93827000000E+00  0.93827000000E+00 0. -1.
     999902    2    1    2    0    0  0.92564507027E-02 -0.97380476715E-03  0.21119290098E-01  0.10208506891E+01  0.10205897682E+01 0.  0.
     999903    2    3    3    0    0 -0.15606637235E-01 -0.79142935203E-01  0.10407730737E+00  0.13315106724E+00  0.19747138535E-01 0.  0.
         14    1    1    2    0    0 -0.92564507027E-02  0.97380476715E-03 -0.21119290098E-01  0.23079310856E-01  0.00000000000E+00 0. -1.
     999901    1    3    3    0    0  0.24863087938E-01  0.78169130436E-01 -0.82958017271E-01  0.88769962190E+00  0.88000000000E+00 0. -1.
        -11    1    4    4    0    0 -0.75360017631E-02 -0.43946432150E-01  0.41575288883E-01  0.60965941213E-01  0.51100000000E-03 0.  1.
         11    1    4    4    0    0 -0.80706354720E-02 -0.35196503053E-01  0.62502018486E-01  0.72185126030E-01  0.51100000000E-03 0. -1.
</event>
<event>
 8    1  0.1123191E+005  0.1043930E+01  0.7957747E-01            NaN
         13   -1    0    0    0    0  0.00000000000E+00  0.00000000000E+00  0.74505805969E-08  0.10566000000E+00  0.10566000000E+00 0. -1.
     999900   -1    0    0    0    0 -0.00000000000E+00 -0.00000000000E+00 -0.74505805969E-08  0.93827000000E+00  0.93827000000E+00 0. -1.
     999902    2    1    2    0    0 -0.61363267309E-02  0.14383106172E-01 -0.18052422373E-01  0.10200465705E+01  0.10197669282E+01 0.  0.
     999903    2    3    3    0    0  0.12643916424E+00 -0.16435428246E-01  0.61572392084E-02  0.12925358080E+00  0.20287705646E-01 0.  0.
         14    1    1    2    0    0  0.61363267309E-02 -0.14383106172E-01  0.18052422373E-01  0.23883429453E-01  0.00000000000E+00 0. -1.
     999901    1    3    3    0    0 -0.13257549097E+00  0.30818534418E-01 -0.24209661581E-01  0.89079298975E+00  0.88000000000E+00 0. -1.
        -11    1    4    4    0    0  0.81044584922E-01 -0.68473899402E-02  0.12952141739E-01  0.82359763178E-01  0.51100000000E-03 0.  1.
         11    1    4    4    0    0  0.45394579315E-01 -0.95880383056E-02 -0.67949025306E-02  0.46893817622E-01  0.51100000000E-03 0. -1.
</event>
<event>
 8    1  0.1123191E+005  0.1043930E+01  0.7957747E-01            NaN
         13   -1    0    0    0    0  0.00000000000E+00  0.00000000000E+00  0.74505805969E-08  0.10566000000E+00  0.10566000000E+00 0.  1.
     999900   -1    0    0    0    0 -0.00000000000E+00 -0.00000000000E+00 -0.74505805969E-08  0.93827000000E+00  0.93827000000E+00 0. -1.
     999902    2    1    2    0    0 -0.10567158247E-01  0.18967072694E-01  0.19680601325E-02  0.10221289005E+01  0.10218963750E+01 0.  0.
     999903    2    3    3    0    0 -0.74377970160E-01  0.48104645680E-01  0.99121543987E-01  0.13400750263E+00  0.16934901768E-01 0.  0.
         14    1    1    2    0    0  0.10567158247E-01 -0.18967072694E-01 -0.19680601325E-02  0.21801099529E-01  0.00000000000E+00 0.  1.
     999901    1    3    3    0    0  0.63810811913E-01 -0.29137572985E-01 -0.97153483854E-01  0.88812139784E+00  0.88000000000E+00 0. -1.
        -11    1    4    4    0    0 -0.62025193645E-02  0.40814505199E-02  0.16968229249E-01  0.18528664540E-01  0.51100000000E-03 0.  1.
         11    1    4    4    0    0 -0.68175450795E-01  0.44023195160E-01  0.82153314738E-01  0.11547883809E+00  0.51100000000E-03 0. -1.
</event>
<event>
 8    1  0.1123191E+005  0.1043930E+01  0.7957747E-01            NaN
         13   -1    0    0    0    0  0.00000000000E+00  0.00000000000E+00  0.74505805969E-08  0.10566000000E+00  0.10566000000E+00 0. -1.
     999900   -1    0    0    0    0 -0.00000000000E+00 -0.00000000000E+00 -0.74505805969E-08  0.93827000000E+00  0.93827000000E+00 0.  1.
     999902    2    1    2    0    0 -0.60188742627E-02 -0.13989999586E-01 -0.18386218763E-01  0.10200553277E+01  0.10197758929E+01 0.  0.
     999903    2    3    3    0    0  0.72604041376E-01 -0.55590530905E-01 -0.93539285139E-01  0.13238413271E+00  0.20354527245E-01 0.  0.
         14    1    1    2    0    0  0.60188742627E-02  0.13989999586E-01  0.18386218763E-01  0.23874672275E-01  0.00000000000E+00 0.  1.
     999901    1    3    3    0    0 -0.78622915639E-01  0.41600531318E-01  0.75153066375E-01  0.88767119501E+00  0.88000000000E+00 0. -1.
        -11    1    4    4    0    0  0.30345435243E-01 -0.23887864401E-01 -0.54023209306E-01  0.66409666243E-01  0.51100000000E-03 0.  1.
         11    1    4    4    0    0  0.42258606134E-01 -0.31702666504E-01 -0.39516075832E-01  0.65974466470E-01  0.51100000000E-03 0. -1.
</event>
<event>
 8    1  0.1123191E+005  0.1043930E+01  0.7957747E-01            NaN
         13   -1    0    0    0    0  0.00000000000E+00  0.00000000000E+00  0.74505805969E-08  0.10566000000E+00  0.10566000000E+00 0. -1.
     999900   -1    0    0    0    0 -0.00000000000E+00 -0.00000000000E+00 -0.74505805969E-08  0.93827000000E+00  0.93827000000E+00 0. -1.
     999902    2    1    2    0    0 -0.15064074521E-01  0.15595849073E-01 -0.11843872587E-01  0.10192230340E+01  0.10189235295E+01 0.  0.
     999903    2    3    3    0    0  0.73241487915E-01 -0.76241520074E-01  0.66534911949E-01  0.12660037658E+00  0.20583389111E-01 0.  0.
         14    1    1    2    0    0  0.15064074521E-01 -0.15595849073E-01  0.11843872587E-01  0.24706965968E-01  0.00000000000E+00 0. -1.
     999901    1    3    3    0    0 -0.88305562436E-01  0.91837369147E-01 -0.78378784536E-01  0.89262265745E+00  0.88000000000E+00 0.  1.
        -11    1    4    4    0    0  0.46806173185E-01 -0.35031202510E-01  0.40721466388E-01  0.71249575040E-01  0.51100000000E-03 0.  1.
         11    1    4    4    0    0  0.26435314730E-01 -0.41210317564E-01  0.25813445561E-01  0.55350801542E-01  0.51100000000E-03 0. -1.
</event>
<event>
 8    1  0.1123191E+005  0.1043930E+01  0.7957747E-01            NaN
         13   -1    0    0    0    0  0.00000000000E+00  0.00000000000E+00  0.74505805969E-08  0.10566000000E+00  0.10566000000E+00 0. -1.
     999900   -1    0    0    0    0 -0.00000000000E+00 -0.00000000000E+00 -0.74505805969E-08  0.93827000000E+00  0.93827000000E+00 0. -1.
     999902    2    1    2    0    0  0.18763922910E-01  0.62436413351E-02 -0.12131910613E-01  0.10207297604E+01  0.10204660664E+01 0.  0.
     999903    2    3    3    0    0  0.84191739694E-01 -0.32954955119E-01 -0.95892107758E-01  0.13346818695E+00  0.21075637572E-01 0.  0.
         14    1    1    2    0    0 -0.18763922910E-01 -0.62436413351E-02  0.12131910613E-01  0.23200239551E-01  0.00000000000E+00 0. -1.
     999901    1    3    3    0    0 -0.65427816784E-01  0.39198596454E-01  0.83760197146E-01  0.88726157349E+00  0.88000000000E+00 0.  1.
        -11    1    4    4    0    0  0.53025791595E-01 -0.10152145598E-01 -0.51298061397E-01  0.74475182837E-01  0.51100000000E-03 0. -1.
         11    1    4    4    0    0  0.31165948099E-01 -0.22802809521E-01 -0.44594046362E-01  0.58993004118E-01  0.51100000000E-03 0.  1.
</event>
<event>
 8    1  0.1123191E+005  0.1043930E+01  0.7957747E-01            NaN
         13   -1    0    0    0    0  0.00000000000E+00  0.00000000000E+00  0.74505805969E-08  0.10566000000E+00  0.10566000000E+00 0.  1.
     999900   -1    0    0    0    0 -0.00000000000E+00 -0.00000000000E+00 -0.74505805969E-08  0.93827000000E+00  0.93827000000E+00 0.  1.
     999902    2    1    2    0    0 -0.19208221433E-01 -0.11672424360E-01  0.14092744317E-01  0.10174006445E+01  0.10170547009E+01 0.  0.
     999903    2    3    3    0    0 -0.78766525970E-01  0.69098453656E-01 -0.70615611890E-01  0.12765538208E+00  0.18181584672E-01 0.  0.
         14    1    1    2    0    0  0.19208221433E-01  0.11672424360E-01 -0.14092744317E-01  0.26529355504E-01  0.00000000000E+00 0. -1.
     999901    1    3    3    0    0  0.59558304536E-01 -0.80770878017E-01  0.84708356207E-01  0.88974526241E+00  0.88000000000E+00 0. -1.
        -11    1    4    4    0    0 -0.30100109199E-01  0.21652161739E-01 -0.15679828609E-01  0.40261033618E-01  0.51100000000E-03 0. -1.
         11    1    4    4    0    0 -0.48666416771E-01  0.47446291917E-01 -0.54935783281E-01  0.87394348465E-01  0.51100000000E-03 0.  1.
</event>
<event>
 8    1  0.1123191E+005  0.1043930E+01  0.7957747E-01            NaN
         13   -1    0    0    0    0  0.00000000000E+00  0.00000000000E+00  0.74505805969E-08  0.10566000000E+00  0.10566000000E+00 0. -1.
     999900   -1    0    0    0    0 -0.00000000000E+00 -0.00000000000E+00 -0.74505805969E-08  0.93827000000E+00  0.93827000000E+00 0. -1.
     999902    2    1    2    0    0  0.14057530523E-01 -0.16563753060E-01  0.77302414505E-02  0.10208707565E+01  0.10206102942E+01 0.  0.
     999903    2    3    3    0    0  0.10786676730E+00 -0.65762299216E-01 -0.37850819892E-01  0.13334706494E+00  0.19718916692E-01 0.  0.
         14    1    1    2    0    0 -0.14057530523E-01  0.16563753060E-01 -0.77302414505E-02  0.23059243542E-01  0.00000000000E+00 0. -1.
     999901    1    3    3    0    0 -0.93809236781E-01  0.49198546156E-01  0.45581061342E-01  0.88752369152E+00  0.88000000000E+00 0. -1.
        -11    1    4    4    0    0  0.68141389749E-01 -0.48448530972E-01 -0.32396527278E-01  0.89667749224E-01  0.51100000000E-03 0. -1.
         11    1    4    4    0    0  0.39725377555E-01 -0.17313768244E-01 -0.54542926143E-02  0.43679315719E-01  0.51100000000E-03 0.  1.
</event>
<event>
 8    1  0.1123191E+005  0.1043930E+01  0.7957747E-01            NaN
         13   -1    0    0    0    0  0.00000000000E+00  0.00000000000E+00  0.74505805969E-08  0.10566000000E+00  0.10566000000E+00 0.  1.
     999900   -1    0    0    0    0 -0.00000000000E+00 -0.00000000000E+00 -0.74505805969E-08  0.93827000000E+00  0.93827000000E+00 0. -1.
     999902    2    1    2    0    0 -0.10010208559E-02 -0.23250674741E-02 -0.22587749904E-01  0.10212008463E+01  0.10209478704E+01 0.  0.
     999903    2    3    3    0    0 -0.10878752840E+00 -0.26286492516E-01 -0.69069299404E-01  0.13308339038E+00  0.20369453824E-01 0.  0.
         14    1    1    2    0    0  0.10010208559E-02  0.23250674741E-02  0.22587749904E-01  0.22729153685E-01  0.00000000000E+00 0.  1.
     999901    1    3    3    0    0  0.10778650755E+00  0.23961425042E-01  0.46481549499E-01  0.88811745594E+00  0.88000000000E+00 0.  1.
        -11    1    4    4    0    0 -0.89836402876E-01 -0.26836127632E-01 -0.50302340646E-01  0.10640180273E+00  0.51100000000E-03 0.  1.
         11    1    4    4    0    0 -0.18951125526E-01  0.54963511566E-03 -0.18766958757E-01  0.26681587649E-01  0.51100000000E-03 0. -1.
</event>
<event>
 8    1  0.1123191E+005  0.1043930E+01  0.7957747E-01            NaN
         13   -1    0    0    0    0  0.00000000000E+00  0.00000000000E+00  0.74505805969E-08  0.10566000000E+00  0.10566000000E+00 0. -1.
     999900   -1    0    0    0    0 -0.00000000000E+00 -0.00000000000E+00 -0.74505805969E-08  0.93827000000E+00  0.93827000000E+00 0. -1.
     999902    2    1    2    0    0  0.22404169507E-01 -0.25391101307E-02 -0.85970890239E-02  0.10197990276E+01  0.10195134883E+01 0.  0.
     999903    2    3    3    0    0 -0.10763515243E+00  0.30347531286E-01  0.56655407896E-01  0.12724670708E+00  0.21808038070E-01 0.  0.
         14    1    1    2    0    0 -0.22404169507E-01  0.25391101307E-02  0.85970890239E-02  0.24130972447E-01  0.00000000000E+00 0. -1.
     999901    1    3    3    0    0  0.13003932194E+00 -0.32886641417E-01 -0.65252496920E-01  0.89255232048E+00  0.88000000000E+00 0. -1.
        -11    1    4    4    0    0 -0.15258290451E-01  0.12657502711E-01  0.11308241885E-01  0.22829044174E-01  0.51100000000E-03 0. -1.
         11    1    4    4    0    0 -0.92376861978E-01  0.17690028575E-01  0.45347166010E-01  0.10441766290E+00  0.51100000000E-03 0.  1.
</event>
<event>
 8    1  0.1123191E+005  0.1043930E+01  0.7957747E-01            NaN
         13   -1    0    0    0    0  0.00000000000E+00  0.00000000000E+00  0.74505805969E-08  0.10566000000E+00  0.10566000000E+00 0.  1.
     999900   -1    0    0    0    0 -0.00000000000E+00 -0.00000000000E+00 -0.74505805969E-08  0.93827000000E+00  0.93827000000E+00 0. -1.
     999902    2    1    2    0    0  0.27738041979E-02  0.53176862484E-03 -0.24845101928E-01  0.10189248834E+01  0.10186180158E+01 0.  0.
     999903    2    3    3    0    0  0.16710005936E-01  0.54111202208E-01  0.11148573194E+00  0.12670794244E+00  0.20459417166E-01 0.  0.
         14    1    1    2    0    0 -0.27738041979E-02 -0.53176862484E-03  0.24845101928E-01  0.25005116624E-01  0.00000000000E+00 0.  1.
     999901    1    3    3    0    0 -0.13936201738E-01 -0.53579433583E-01 -0.13633083386E+00  0.89221694093E+00  0.88000000000E+00 0. -1.
        -11    1    4    4    0    0  0.17563461273E-01  0.25190442631E-01  0.48724306154E-01  0.57596464327E-01  0.51100000000E-03 0. -1.
         11    1    4    4    0    0 -0.85345533727E-03  0.28920759577E-01  0.62761425781E-01  0.69111478118E-01  0.51100000000E-03 0.  1.
</event>
<event>
 8    1  0.1123191E+005  0.1043930E+01  0.7957747E-01            NaN
         13   -1    0    0    0    0  0.00000000000E+00  0.00000000000E+00  0.74505805969E-08  0.10566000000E+00  0.10566000000E+00 0.  1.
     999900   -1    0    0    0    0 -0.00000000000E+00 -0.00000000000E+00 -0.74505805969E-08  0.93827000000E+00  0.93827000000E+00 0. -1.
     999902    2    1    2    0    0  0.14740405469E-01  0.95591588816E-02  0.14250881518E-01  0.10213082252E+01  0.10210576605E+01 0.  0.
     999903    2    3    3    0    0 -0.65370537438E-01 -0.59711138436E-01 -0.90816720712E-01  0.12875271525E+00  0.22155308753E-01 0.  0.
         14    1    1    2    0    0 -0.14740405469E-01 -0.95591588816E-02 -0.14250881518E-01  0.22621774819E-01  0.00000000000E+00 0.  1.
     999901    1    3    3    0    0  0.80110942907E-01  0.69270297318E-01  0.10506760223E+00  0.89255550993E+00  0.88000000000E+00 0.  1.
        -11    1    4    4    0    0 -0.41055782304E-01 -0.31008822566E-01 -0.65991928343E-01  0.83679866545E-01  0.51100000000E-03 0.  1.
         11    1    4    4    0    0 -0.24314755134E-01 -0.28702315870E-01 -0.24824792369E-01  0.45072848708E-01  0.51100000000E-03 0. -1.
</event>
<event>
 8    1  0.1123191E+005  0.1043930E+01  0.7957747E-01            NaN
         13   -1    0    0    0    0  0.00000000000E+00  0.00000000000E+00  0.74505805969E-08  0.10566000000E+00  0.10566000000E+00 0. -1.
     999900   -1    0    0    0    0 -0.00000000000E+00 -0.00000000000E+00 -0.74505805969E-08  0.93827000000E+00  0.93827000000E+00 0.  1.
     999902    2    1    2    0    0 -0.81634155890E-02  0.10098064289E-01 -0.19111153123E-01  0.10208248398E+01  0.10205633273E+01 0.  0.
     999903    2    3    3    0    0 -0.10116801866E-02 -0.28331071967E-01 -0.12876656517E+00  0.13315809191E+00  0.18616551723E-01 0.  0.
         14    1    1    2    0    0  0.81634155890E-02 -0.10098064289E-01  0.19111153123E-01  0.23105160250E-01  0.00000000000E+00 0. -1.
     999901    1    3    3    0    0 -0.71517354024E-02  0.38429136256E-01  0.10965541205E+00  0.88766674784E+00  0.88000000000E+00 0. -1.
        -11    1    4    4    0    0 -0.59645366410E-02 -0.98280201461E-02 -0.78936688484E-01  0.79771094936E-01  0.51100000000E-03 0. -1.
         11    1    4    4    0    0  0.49528564544E-02 -0.18503051821E-01 -0.49829876690E-01  0.53386996972E-01  0.51100000000E-03 0.  1.
</event>
<event>
 8    1  0.1123191E+005  0.1043930E+01  0.7957747E-01            NaN
         13   -1    0    0    0    0  0.00000000000E+00  0.00000000000E+00  0.74505805969E-08  0.10566000000E+00  0.10566000000E+00 0.  1.
     999900   -1    0    0    0    0 -0.00000000000E+00 -0.00000000000E+00 -0.74505805969E-08  0.93827000000E+00  0.93827000000E+00 0.  1.
     999902    2    1    2    0    0 -0.86772095521E-02 -0.17261705925E-01  0.62731233128E-02  0.10236171338E+01  0.10234155676E+01 0.  0.
     999903    2    3    3    0    0 -0.43512780777E-01  0.66953359447E-02 -0.12394176134E+00  0.13303116206E+00  0.19938411686E-01 0.  0.
         14    1    1    2    0    0  0.86772095521E-02  0.17261705925E-01 -0.62731233128E-02  0.20312866197E-01  0.00000000000E+00 0. -1.
     999901    1    3    3    0    0  0.34835571225E-01 -0.23957041869E-01  0.13021488465E+00  0.89058597174E+00  0.88000000000E+00 0. -1.
        -11    1    4    4    0    0 -0.21714910686E-02 -0.13971323969E-02 -0.29520440753E-01  0.29637558868E-01  0.51100000000E-03 0. -1.
         11    1    4    4    0    0 -0.41341289709E-01  0.80924683416E-02 -0.94421320588E-01  0.10339360319E+00  0.51100000000E-03 0.  1.
</event>
<event>
 8    1  0.1123191E+005  0.1043930E+01  0.7957747E-01            NaN
         13   -1    0    0    0    0  0.00000000000E+00  0.00000000000E+00  0.74505805969E-08  0.10566000000E+00  0.10566000000E+00 0.  1.
     999900   -1    0    0    0    0 -0.00000000000E+00 -0.00000000000E+00 -0.74505805969E-08  0.93827000000E+00  0.93827000000E+00 0.  1.
     999902    2    1    2    0    0  0.15540098216E-01  0.17002269122E-01  0.40785433184E-02  0.10205375584E+01  0.10202694261E+01 0.  0.
     999903    2    3    3    0    0 -0.12165180793E+00 -0.29237987528E-01 -0.20871531992E-01  0.12835916442E+00  0.19657872579E-01 0.  0.
         14    1    1    2    0    0 -0.15540098216E-01 -0.17002269122E-01 -0.40785433184E-02  0.23392441588E-01  0.00000000000E+00 0. -1.
     999901    1    3    3    0    0  0.13719190615E+00  0.46240256650E-01  0.24950075311E-01  0.89217839399E+00  0.88000000000E+00 0.  1.
        -11    1    4    4    0    0 -0.10156808117E+00 -0.19860803060E-01 -0.10953485290E-01  0.10407096892E+00  0.51100000000E-03 0. -1.
         11    1    4    4    0    0 -0.20083726765E-01 -0.93771844673E-02 -0.99180467020E-02  0.24288195501E-01  0.51100000000E-03 0.  1.
</event>
<event>
 8    1  0.1123191E+005  0.1043930E+01  0.7957747E-01            NaN
         13   -1    0    0    0    0  0.00000000000E+00  0.00000000000E+00  0.74505805969E-08  0.10566000000E+00  0.10566000000E+00 0.  1.
     999900   -1    0    0    0    0 -0.00000000000E+00 -0.00000000000E+00 -0.74505805969E-08  0.93827000000E+00  0.93827000000E+00 0.  1.
     999902    2    1    2    0    0 -0.11288537217E-02 -0.53657465433E-02 -0.22807229303E-01  0.10204729061E+01  0.10202032723E+01 0.  0.
     999903    2    3    3    0    0  0.11973307420E-01 -0.98799042069E-01 -0.85955249483E-01  0.13317976411E+00  0.21069737767E-01 0.  0.
         14    1    1    2    0    0  0.11288537217E-02  0.53657465433E-02  0.22807229303E-01  0.23457093920E-01  0.00000000000E+00 0.  1.
     999901    1    3    3    0    0 -0.13102161142E-01  0.93433295526E-01  0.63148020180E-01  0.88729314197E+00  0.88000000000E+00 0. -1.
        -11    1    4    4    0    0  0.79586512810E-03 -0.71008324130E-01 -0.67600928075E-01  0.98045714310E-01  0.51100000000E-03 0. -1.
         11    1    4    4    0    0  0.11177442292E-01 -0.27790717939E-01 -0.18354321408E-01  0.35134049797E-01  0.51100000000E-03 0.  1.
</event>
<event>
 8    1  0.1123191E+005  0.1043930E+01  0.7957747E-01            NaN
         13   -1    0    0    0    0  0.00000000000E+00  0.00000000000E+00  0.74505805969E-08  0.10566000000E+00  0.10566000000E+00 0.  1.
     999900   -1    0    0    0    0 -0.00000000000E+00 -0.00000000000E+00 -0.74505805969E-08  0.93827000000E+00  0.93827000000E+00 0. -1.
     999902    2    1    2    0    0 -0.21365717484E-01 -0.41619360811E-02  0.97676038134E-02  0.10200716329E+01  0.10197925841E+01 0.  0.
     999903    2    3    3    0    0  0.34912457139E-01  0.21588204754E-01  0.12311418809E+00  0.13064611560E+00  0.15045729081E-01 0.  0.
         14    1    1    2    0    0  0.21365717484E-01  0.41619360811E-02 -0.97676038134E-02  0.23858367082E-01  0.00000000000E+00 0. -1.
     999901    1    3    3    0    0 -0.56278174623E-01 -0.25750140835E-01 -0.11334658428E+00  0.88942551732E+00  0.88000000000E+00 0. -1.
        -11    1    4    4    0    0  0.29816661560E-01  0.11162811541E-01  0.96187965504E-01  0.10132140690E+00  0.51100000000E-03 0.  1.
         11    1    4    4    0    0  0.50957955793E-02  0.10425393213E-01  0.26926222587E-01  0.29324708695E-01  0.51100000000E-03 0. -1.
</event>
<event>
 8    1  0.1123191E+005  0.1043930E+01  0.7957747E-01            NaN
         13   -1    0    0    0    0  0.00000000000E+00  0.00000000000E+00  0.74505805969E-08  0.10566000000E+00  0.10566000000E+00 0.  1.
     999900   -1    0    0    0    0 -0.00000000000E+00 -0.00000000000E+00 -0.74505805969E-08  0.93827000000E+00  0.93827000000E+00 0. -1.
     999902    2    1    2    0    0 -0.11430704307E-01 -0.19356190857E-01 -0.48648181757E-02  0.10209302265E+01  0.10206711213E+01 0.  0.
     999903    2    3    3    0    0 -0.38222861751E-01 -0.45798435158E-01 -0.11721530999E+00  0.13298898689E+00  0.19701723630E-01 0.  0.
         14    1    1    2    0    0  0.11430704307E-01  0.19356190857E-01  0.48648181757E-02  0.22999773506E-01  0.00000000000E+00 0.  1.
     999901    1    3    3    0    0  0.26792157444E-01  0.26442244301E-01  0.11235049181E+00  0.88794123961E+00  0.88000000000E+00 0.  1.
        -11    1    4    4    0    0 -0.37609655457E-01 -0.47192730231E-01 -0.10874731915E+00  0.12436993413E+00  0.51100000000E-03 0. -1.
         11    1    4    4    0    0 -0.61320629382E-03  0.13942950738E-02 -0.84679908347E-02  0.86190527605E-02  0.51100000000E-03 0.  1.
</event>
<event>
 8    1  0.1123191E+005  0.1043930E+01  0.7957747E-01            NaN
         13   -1    0    0    0    0  0.00000000000E+00  0.00000000000E+00  0.74505805969E-08  0.10566000000E+00  0.10566000000E+00 0. -1.
     999900   -1    0    0    0    0 -0.00000000000E+00 -0.00000000000E+00 -0.74505805969E-08  0.93827000000E+00  0.93827000000E+00 0. -1.
     999902    2    1    2    0    0 -0.12184232417E-01 -0.23148326208E-02  0.19211851015E-01  0.10210627923E+01  0.10208066989E+01 0.  0.
     999903    2    3    3    0    0  0.33518387189E-01 -0.11427183346E+00  0.54452829383E-01  0.13209427426E+00  0.17385409467E-01 0.  0.
         14    1    1    2    0    0  0.12184232417E-01  0.23148326208E-02 -0.19211851015E-01  0.22867207724E-01  0.00000000000E+00 0.  1.
     999901    1    3    3    0    0 -0.45702619606E-01  0.11195700083E+00 -0.35240978368E-01  0.88896851802E+00  0.88000000000E+00 0.  1.
        -11    1    4    4    0    0  0.27192423554E-01 -0.97021136286E-01  0.52476825975E-01  0.11360724964E+00  0.51100000000E-03 0.  1.
         11    1    4    4    0    0  0.63259636348E-02 -0.17250697169E-01  0.19760034082E-02  0.18487024617E-01  0.51100000000E-03 0. -1.
</event>
<event>
 8    1  0.1123191E+005  0.1043930E+01  0.7957747E-01            NaN
         13   -1    0    0    0    0  0.00000000000E+00  0.00000000000E+00  0.74505805969E-08  0.10566000000E+00  0.10566000000E+00 0.  1.
     999900   -1    0    0    0    0 -0.00000000000E+00 -0.00000000000E+00 -0.74505805969E-08  0.93827000000E+00  0.93827000000E+00 0. -1.
     999902    2    1    2    0    0  0.16317594936E-01 -0.72101137806E-02  0.15637950086E-01  0.10202066965E+01  0.10199308352E+01 0.  0.
     999903    2    3    3    0    0 -0.36235811194E-01 -0.85340756979E-01 -0.87552777457E-01  0.12918785039E+00  0.20686542324E-01 0.  0.
         14    1    1    2    0    0 -0.16317594936E-01  0.72101137806E-02 -0.15637950086E-01  0.23723303483E-01  0.00000000000E+00 0. -1.
     999901    1    3    3    0    0  0.52553406131E-01  0.78130643198E-01  0.10319072754E+00  0.89101884613E+00  0.88000000000E+00 0.  1.
        -11    1    4    4    0    0 -0.96246366922E-02 -0.16399131525E-01 -0.29990011030E-01  0.35513758303E-01  0.51100000000E-03 0.  1.
         11    1    4    4    0    0 -0.26611174502E-01 -0.68941625454E-01 -0.57562766427E-01  0.93674092087E-01  0.51100000000E-03 0. -1.
</event>
<event>
 8    1  0.1123191E+005  0.1043930E+01  0.7957747E-01            NaN
         13   -1    0    0    0    0  0.00000000000E+00  0.00000000000E+00  0.74505805969E-08  0.10566000000E+00  0.10566000000E+00 0.  1.
     999900   -1    0    0    0    0 -0.00000000000E+00 -0.00000000000E+00 -0.74505805969E-08  0.93827000000E+00  0.93827000000E+00 0. -1.
     999902    2    1    2    0    0 -0.68185819147E-02  0.22228841263E-01  0.62405601794E-03  0.10206705097E+01  0.10204054515E+01 0.  0.
     999903    2    3    3    0    0 -0.51183259153E-01 -0.94532200794E-01 -0.67813495860E-01  0.12921940950E+00  0.23300698863E-01 0.  0.
         14    1    1    2    0    0  0.68185819147E-02 -0.22228841263E-01 -0.62405601794E-03  0.23259490302E-01  0.00000000000E+00 0.  1.
     999901    1    3    3    0    0  0.44364677238E-01  0.11676104206E+00  0.68437551878E-01  0.89145110019E+00  0.88000000000E+00 0.  1.
        -11    1    4    4    0    0 -0.23655017927E-01 -0.39306241232E-01 -0.42440206597E-01  0.62497781800E-01  0.51100000000E-03 0. -1.
         11    1    4    4    0    0 -0.27528241226E-01 -0.55225959562E-01 -0.25373289263E-01  0.66721627705E-01  0.51100000000E-03 0.  1.
</event>
<event>
 8    1  0.1123191E+005  0.1043930E+01  0.7957747E-01            NaN
         13   -1    0    0    0    0  0.00000000000E+00  0.00000000000E+00  0.74505805969E-08  0.10566000000E+00  0.10566000000E+00 0. -1.
     999900   -1    0    0    0    0 -0.00000000000E+00 -0.00000000000E+00 -0.74505805969E-08  0.93827000000E+00  0.93827000000E+00 0.  1.
     999902    2    1    2    0    0 -0.38257684124E-02  0.22730567071E-01  0.36750097953E-02  0.10205886016E+01  0.10203216516E+01 0.  0.
     999903    2    3    3    0    0 -0.86938954168E-01  0.66738307336E-01 -0.72060381205E-01  0.13234295295E+00  0.17594750332E-01 0.  0.
         14    1    1    2    0    0  0.38257684124E-02 -0.22730567071E-01 -0.36750097953E-02  0.23341398422E-01  0.00000000000E+00 0.  1.
     999901    1    3    3    0    0  0.83113185755E-01 -0.44007740265E-01  0.75735391001E-01  0.88824564862E+00  0.88000000000E+00 0. -1.
        -11    1    4    4    0    0 -0.66816094033E-01  0.55151138815E-01 -0.48640394664E-01  0.99358883088E-01  0.51100000000E-03 0.  1.
         11    1    4    4    0    0 -0.20122860135E-01  0.11587168521E-01 -0.23419986541E-01  0.32984069866E-01  0.51100000000E-03 0. -1.
</event>
<event>
 8    1  0.1123191E+005  0.1043930E+01  0.7957747E-01            NaN
         13   -1    0    0    0    0  0.00000000000E+00  0.00000000000E+00  0.74505805969E-08  0.10566000000E+00  0.10566000000E+00 0.  1.
     999900   -1    0    0    0    0 -0.00000000000E+00 -0.00000000000E+00 -0.74505805969E-08  0.93827000000E+00  0.93827000000E+00 0.  1.
     999902    2    1    2    0    0 -0.18729944946E-01 -0.83327031217E-02 -0.11873601021E-01  0.10202397661E+01  0.10199646823E+01 0.  0.
     999903    2    3    3    0    0  0.94367636193E-01 -0.61277689957E-01 -0.61911530933E-01  0.13001618247E+00  0.20272246928E-01 0.  0.
         14    1    1    2    0    0  0.18729944946E-01  0.83327031217E-02  0.11873601021E-01  0.23690233857E-01  0.00000000000E+00 0. -1.
     999901    1    3    3    0    0 -0.11309758114E+00  0.52944986835E-01  0.50037929912E-01  0.89022358367E+00  0.88000000000E+00 0. -1.
        -11    1    4    4    0    0  0.16521188732E-01 -0.17713500509E-01 -0.20171038949E-01  0.31525382007E-01  0.51100000000E-03 0. -1.
         11    1    4    4    0    0  0.77846447461E-01 -0.43564189447E-01 -0.41740491984E-01  0.98490800467E-01  0.51100000000E-03 0.  1.
</event>
<event>
 8    1  0.1123191E+005  0.1043930E+01  0.7957747E-01            NaN
         13   -1    0    0    0    0  0.00000000000E+00  0.00000000000E+00  0.74505805969E-08  0.10566000000E+00  0.10566000000E+00 0. -1.
     999900   -1    0    0    0    0 -0.00000000000E+00 -0.00000000000E+00 -0.74505805969E-08  0.93827000000E+00  0.93827000000E+00 0. -1.
     999902    2    1    2    0    0  0.20200305617E-01  0.24386041270E-02 -0.12642741146E-01  0.10199750832E+01  0.10196937443E+01 0.  0.
     999903    2    3    3    0    0 -0.59343142066E-02 -0.10144146317E+00  0.76965912086E-01  0.12896229006E+00  0.19543134319E-01 0.  0.
         14    1    1    2    0    0 -0.20200305617E-01 -0.24386041270E-02  0.12642741146E-01  0.23954916840E-01  0.00000000000E+00 0. -1.
     999901    1    3    3    0    0  0.26134619824E-01  0.10388006730E+00 -0.89608653232E-01  0.89101279310E+00  0.88000000000E+00 0. -1.
        -11    1    4    4    0    0 -0.11867591489E-01 -0.82582345843E-01  0.58439615461E-01  0.10186330718E+00  0.51100000000E-03 0.  1.
         11    1    4    4    0    0  0.59332772824E-02 -0.18859117327E-01  0.18526296625E-01  0.27098982883E-01  0.51100000000E-03 0. -1.
</event>
<event>
 8    1  0.1123191E+005  0.1043930E+01  0.7957747E-01            NaN
         13   -1    0    0    0    0  0.00000000000E+00  0.00000000000E+00  0.74505805969E-08  0.10566000000E+00  0.10566000000E+00 0.  1.
     999900   -1    0    0    0    0 -0.00000000000E+00 -0.00000000000E+00 -0.74505805969E-08  0.93827000000E+00  0.93827000000E+00 0. -1.
     999902    2    1    2    0    0 -0.16521428427E-01  0.15507179599E-01 -0.64187184979E-02  0.10203794127E+01  0.10201076000E+01 0.  0.
     999903    2    3    3    0    0 -0.91343663001E-02 -0.47268826150E-01 -0.11975629714E+00  0.13086223897E+00  0.21577217375E-01 0.  0.
         14    1    1    2    0    0  0.16521428427E-01 -0.15507179599E-01  0.64187184979E-02  0.23550587329E-01  0.00000000000E+00 0. -1.
     999901    1    3    3    0    0 -0.73870621273E-02  0.62776005749E-01  0.11333757864E+00  0.88951717371E+00  0.88000000000E+00 0.  1.
        -11    1    4    4    0    0  0.72693617181E-03 -0.14766888115E-01 -0.63031551632E-01  0.64744320546E-01  0.51100000000E-03 0.  1.
         11    1    4    4    0    0 -0.98613024719E-02 -0.32501938035E-01 -0.56724745505E-01  0.66117918419E-01  0.51100000000E-03 0. -1.
</event>
<event>
 8    1  0.1123191E+005  0.1043930E+01  0.7957747E-01            NaN
         13   -1    0    0    0    0  0.00000000000E+00  0.00000000000E+00  0.74505805969E-08  0.10566000000E+00  0.10566000000E+00 0. -1.
     999900   -1    0    0    0    0 -0.00000000000E+00 -0.00000000000E+00 -0.74505805969E-08  0.93827000000E+00  0.93827000000E+00 0.  1.
     999902    2    1    2    0    0 -0.20990180935E-01 -0.11271034697E-01 -0.59884264266E-03  0.10200976159E+01  0.10198191817E+01 0.  0.
     999903    2    3    3    0    0 -0.67398071247E-01 -0.73414864349E-01 -0.85246459686E-01  0.13264014261E+00  0.19854627356E-01 0.  0.
         14    1    1    2    0    0  0.20990180935E-01  0.11271034697E-01  0.59884264266E-03  0.23832384088E-01  0.00000000000E+00 0.  1.
     999901    1    3    3    0    0  0.46407890312E-01  0.62143829652E-01  0.84647617044E-01  0.88745747330E+00  0.88000000000E+00 0. -1.
        -11    1    4    4    0    0 -0.61376323122E-01 -0.55642948625E-01 -0.69189128568E-01  0.10793788679E+00  0.51100000000E-03 0. -1.
         11    1    4    4    0    0 -0.60217481253E-02 -0.17771915724E-01 -0.16057331118E-01  0.24702255820E-01  0.51100000000E-03 0.  1.
</event>
<event>
 8    1  0.1123191E+005  0.1043930E+01  0.7957747E-01            NaN
         13   -1    0    0    0    0  0.00000000000E+00  0.00000000000E+00  0.74505805969E-08  0.10566000000E+00  0.10566000000E+00 0. -1.
     999900   -1    0    0    0    0 -0.00000000000E+00 -0.00000000000E+00 -0.74505805969E-08  0.93827000000E+00  0.93827000000E+00 0. -1.
     999902    2    1    2    0    0  0.78542223194E-02 -0.21460173048E-01 -0.66968736869E-02  0.10201166434E+01  0.10198386589E+01 0.  0.
     999903    2    3    3    0    0 -0.10105951994E+00  0.73817278799E-01  0.20795544619E-01  0.12787461953E+00  0.16045137105E-01 0.  0.
         14    1    1    2    0    0 -0.78542223194E-02  0.21460173048E-01  0.66968736869E-02  0.23813356602E-01  0.00000000000E+00 0.  1.
     999901    1    3    3    0    0  0.10891374226E+00 -0.95277451847E-01 -0.27492418306E-01  0.89224202386E+00  0.88000000000E+00 0. -1.
        -11    1    4    4    0    0 -0.37865967007E-01  0.23371816000E-01  0.14350626371E-01  0.46757617976E-01  0.51100000000E-03 0. -1.
         11    1    4    4    0    0 -0.63193552936E-01  0.50445462799E-01  0.64449182477E-02  0.81117001558E-01  0.51100000000E-03 0.  1.
</event>
<event>
 8    1  0.1123191E+005  0.1043930E+01  0.7957747E-01            NaN
         13   -1    0    0    0    0  0.00000000000E+00  0.00000000000E+00  0.74505805969E-08  0.10566000000E+00  0.10566000000E+00 0. -1.
     999900   -1    0    0    0    0 -0.00000000000E+00 -0.00000000000E+00 -0.74505805969E-08  0.93827000000E+00  0.93827000000E+00 0.  1.
     999902    2    1    2    0    0 -0.28063366087E-02 -0.33549302121E-02  0.23216137692E-01  0.10203054337E+01  0.10200318907E+01 0.  0.
     999903    2    3    3    0    0 -0.29039654521E-01  0.21602103408E-01  0.12699121959E+00  0.13346818366E+00  0.19417357935E-01 0.  0.
         14    1    1    2    0    0  0.28063366087E-02  0.33549302121E-02 -0.23216137692E-01  0.23624566265E-01  0.00000000000E+00 0.  1.
     999901    1    3    3    0    0  0.26233317912E-01 -0.24957033620E-01 -0.10377508190E+00  0.88683725007E+00  0.88000000000E+00 0.  1.
        -11    1    4    4    0    0 -0.22240320477E-01  0.73318004198E-02  0.55353179490E-01  0.60105097562E-01  0.51100000000E-03 0.  1.
         11    1    4    4    0    0 -0.67993340434E-02  0.14270302988E-01  0.71638040104E-01  0.73363086098E-01  0.51100000000E-03 0. -1.
</event>
<event>
 8    1  0.1123191E+005  0.1043930E+01  0.7957747E-01            NaN
         13   -1    0    0    0    0  0.00000000000E+00  0.00000000000E+00  0.74505805969E-08  0.10566000000E+00  0.10566000000E+00 0.  1.
     999900   -1    0    0    0    0 -0.00000000000E+00 -0.00000000000E+00 -0.74505805969E-08  0.93827000000E+00  0.93827000000E+00 0.  1.
     999902    2    1    2    0    0 -0.22367770951E-01  0.23118344498E-02 -0.36339860783E-02  0.10211513343E+01  0.10208972426E+01 0.  0.
     999903    2    3    3    0    0 -0.81078957354E-01 -0.33667207240E-01  0.97488086472E-01  0.13268795948E+00  0.19871824757E-01 0.  0.
         14    1    1    2    0    0  0.22367770951E-01 -0.23118344498E-02  0.36339860783E-02  0.22778665690E-01  0.00000000000E+00 0. -1.
     999901    1    3    3    0    0  0.58711186403E-01  0.35979041690E-01 -0.10112207255E+00  0.88846337483E+00  0.88000000000E+00 0.  1.
        -11    1    4    4    0    0 -0.42129483057E-01 -0.12315754847E-01  0.35648856883E-01  0.56547973245E-01  0.51100000000E-03 0. -1.
         11    1    4    4    0    0 -0.38949474297E-01 -0.21351452394E-01  0.61839229588E-01  0.76139986238E-01  0.51100000000E-03 0.  1.
</event>
<event>
 8    1  0.1123191E+005  0.1043930E+01  0.7957747E-01            NaN
         13   -1    0    0    0    0  0.00000000000E+00  0.00000000000E+00  0.74505805969E-08  0.10566000000E+00  0.10566000000E+00 0. -1.
     999900   -1    0    0    0    0 -0.00000000000E+00 -0.00000000000E+00 -0.74505805969E-08  0.93827000000E+00  0.93827000000E+00 0.  1.
     999902    2    1    2    0    0  0.59733611575E-03  0.22280129217E-01  0.69197263571E-02  0.10205923998E+01  0.10203255378E+01 0.  0.
     999903    2    3    3    0    0 -0.40169687273E-02 -0.12205819378E+00 -0.32507073951E-01  0.12795063750E+00  0.20007925262E-01 0.  0.
         14    1    1    2    0    0 -0.59733611575E-03 -0.22280129217E-01 -0.69197263571E-02  0.23337600160E-01  0.00000000000E+00 0. -1.
     999901    1    3    3    0    0  0.46143048431E-02  0.14433832300E+00  0.39426800308E-01  0.89264176234E+00  0.88000000000E+00 0. -1.
        -11    1    4    4    0    0  0.31115513494E-02 -0.30805593491E-01 -0.45802562083E-03  0.30969941081E-01  0.51100000000E-03 0.  1.
         11    1    4    4    0    0 -0.71285200767E-02 -0.91252600288E-01 -0.32049048330E-01  0.96980696417E-01  0.51100000000E-03 0. -1.
</event>
<event>
 8    1  0.1123191E+005  0.1043930E+01  0.7957747E-01            NaN
         13   -1    0    0    0    0  0.00000000000E+00  0.00000000000E+00  0.74505805969E-08  0.10566000000E+00  0.10566000000E+00 0.  1.
     999900   -1    0    0    0    0 -0.00000000000E+00 -0.00000000000E+00 -0.74505805969E-08  0.93827000000E+00  0.93827000000E+00 0. -1.
     999902    2    1    2    0    0 -0.44841879826E-03 -0.18650352102E-02 -0.23192968058E-01  0.10206578449E+01  0.10203924947E+01 0.  0.
     999903    2    3    3    0    0  0.11169697228E+00  0.55196721744E-01  0.29797418565E-01  0.13012956690E+00  0.22867582278E-01 0.  0.
         14    1    1    2    0    0  0.44841879826E-03  0.18650352102E-02  0.23192968058E-01  0.23272155102E-01  0.00000000000E+00 0.  1.
     999901    1    3    3    0    0 -0.11214539108E+00 -0.57061756954E-01 -0.52990386624E-01  0.89052827800E+00  0.88000000000E+00 0. -1.
        -11    1    4    4    0    0  0.54371929570E-01  0.36774084695E-01  0.81703154303E-02  0.66148735479E-01  0.51100000000E-03 0. -1.
         11    1    4    4    0    0  0.57325042711E-01  0.18422637049E-01  0.21627103135E-01  0.63980831416E-01  0.51100000000E-03 0.  1.
</event>
<event>
 8    1  0.1123191E+005  0.1043930E+01  0.7957747E-01            NaN
         13   -1    0    0    0    0  0.00000000000E+00  0.00000000000E+00  0.74505805969E-08  0.10566000000E+00  0.10566000000E+00 0.  1.
     999900   -1    0    0    0    0 -0.00000000000E+00 -0.00000000000E+00 -0.74505805969E-08  0.93827000000E+00  0.93827000000E+00 0.  1.
     999902    2    1    2    0    0  0.22978437233E-01 -0.27254999199E-02  0.83339277737E-03  0.10207754870E+01  0.10205128434E+01 0.  0.
     999903    2    3    3    0    0  0.54677961419E-01  0.85111911542E-01 -0.82300583795E-01  0.13193830917E+00  0.20015353642E-01 0.  0.
         14    1    1    2    0    0 -0.22978437233E-01  0.27254999199E-02 -0.83339277737E-03  0.23154512973E-01  0.00000000000E+00 0. -1.
     999901    1    3    3    0    0 -0.31699524185E-01 -0.87837411462E-01  0.83133976572E-01  0.88883717786E+00  0.88000000000E+00 0.  1.
        -11    1    4    4    0    0  0.16047168621E-01  0.43343051740E-01 -0.36241625042E-01  0.58735408925E-01  0.51100000000E-03 0.  1.
         11    1    4    4    0    0  0.38630792798E-01  0.41768859802E-01 -0.46058958753E-01  0.73202900242E-01  0.51100000000E-03 0. -1.
</event>
<event>
 8    1  0.1123191E+005  0.1043930E+01  0.7957747E-01            NaN
         13   -1    0    0    0    0  0.00000000000E+00  0.00000000000E+00  0.74505805969E-08  0.10566000000E+00  0.10566000000E+00 0. -1.
     999900   -1    0    0    0    0 -0.00000000000E+00 -0.00000000000E+00 -0.74505805969E-08  0.93827000000E+00  0.93827000000E+00 0. -1.
     999902    2    1    2    0    0 -0.18135639164E-01 -0.81004092303E-02 -0.96952339131E-02  0.10218276110E+01  0.10215885429E+01 0.  0.
     999903    2    3    3    0    0  0.96004403867E-01  0.84385182384E-01  0.30909699929E-02  0.12955802111E+00  0.20928979225E-01 0.  0.
         14    1    1    2    0    0  0.18135639164E-01  0.81004092303E-02  0.96952339131E-02  0.22102388971E-01  0.00000000000E+00 0. -1.
     999901    1    3    3    0    0 -0.11414004303E+00 -0.92485591614E-01 -0.12786203906E-01  0.89226958992E+00  0.88000000000E+00 0. -1.
        -11    1    4    4    0    0  0.22686013754E-01  0.17175910195E-01 -0.77772493883E-02  0.29502776821E-01  0.51100000000E-03 0. -1.
         11    1    4    4    0    0  0.73318390113E-01  0.67209272189E-01  0.10868219381E-01  0.10005524429E+00  0.51100000000E-03 0.  1.
</event>
<event>
 8    1  0.1123191E+005  0.1043930E+01  0.7957747E-01            NaN
         13   -1    0    0    0    0  0.00000000000E+00  0.00000000000E+00  0.74505805969E-08  0.10566000000E+00  0.10566000000E+00 0.  1.
     999900   -1    0    0    0    0 -0.00000000000E+00 -0.00000000000E+00 -0.74505805969E-08  0.93827000000E+00  0.93827000000E+00 0.  1.
     999902    2    1    2    0    0  0.88858269122E-02  0.48811794566E-02 -0.21161108061E-01  0.10204656371E+01  0.10201958342E+01 0.  0.
     999903    2    3    3    0    0 -0.17784543863E-01 -0.10178094500E+00  0.73711193383E-01  0.12856380893E+00  0.20485657722E-01 0.  0.
         14    1    1    2    0    0 -0.88858269122E-02 -0.48811794566E-02  0.21161108061E-01  0.23464362918E-01  0.00000000000E+00 0.  1.
     999901    1    3    3    0    0  0.26670370776E-01  0.10666212446E+00 -0.94872301444E-01  0.89190182815E+00  0.88000000000E+00 0.  1.
        -11    1    4    4    0    0 -0.10581641948E-01 -0.28772413355E-01  0.12865229507E-01  0.33250536354E-01  0.51100000000E-03 0. -1.
         11    1    4    4    0    0 -0.72029019157E-02 -0.73008531645E-01  0.60845963876E-01  0.95313272580E-01  0.51100000000E-03 0.  1.
</event>
<event>
 8    1  0.1123191E+005  0.1043930E+01  0.7957747E-01            NaN
         13   -1    0    0    0    0  0.00000000000E+00  0.00000000000E+00  0.74505805969E-08  0.10566000000E+00  0.10566000000E+00 0.  1.
     999900   -1    0    0    0    0 -0.00000000000E+00 -0.00000000000E+00 -0.74505805969E-08  0.93827000000E+00  0.93827000000E+00 0. -1.
     999902    2    1    2    0    0  0.13066315611E-01  0.23793118955E-02  0.22281831810E-01  0.10179902668E+01  0.10176597239E+01 0.  0.
     999903    2    3    3    0    0 -0.25584807419E-01  0.25397602445E-01  0.12426655410E+00  0.13095890627E+00  0.20209851170E-01 0.  0.
         14    1    1    2    0    0 -0.13066315611E-01 -0.23793118955E-02 -0.22281831810E-01  0.25939733182E-01  0.00000000000E+00 0. -1.
     999901    1    3    3    0    0  0.38651123030E-01 -0.23018290550E-01 -0.10198472229E+00  0.88703136055E+00  0.88000000000E+00 0. -1.
        -11    1    4    4    0    0 -0.26683914703E-01  0.14527761461E-01  0.90488762575E-01  0.95454514982E-01  0.51100000000E-03 0. -1.
         11    1    4    4    0    0  0.10991072845E-02  0.10869840984E-01  0.33777791522E-01  0.35504391291E-01  0.51100000000E-03 0.  1.
</event>
<event>
 8    1  0.1123191E+005  0.1043930E+01  0.7957747E-01            NaN
         13   -1    0    0    0    0  0.00000000000E+00  0.00000000000E+00  0.74505805969E-08  0.10566000000E+00  0.10566000000E+00 0. -1.
     999900   -1    0    0    0    0 -0.00000000000E+00 -0.00000000000E+00 -0.74505805969E-08  0.93827000000E+00  0.93827000000E+00 0. -1.
     999902    2    1    2    0    0 -0.21886607166E-01 -0.63857311469E-02  0.93344845543E-02  0.10192939748E+01  0.10189962087E+01 0.  0.
     999903    2    3    3    0    0 -0.89397856517E-01  0.49408467911E-01  0.79777388207E-01  0.13214519128E+00  0.25782677473E-01 0.  0.
         14    1    1    2    0    0  0.21886607166E-01  0.63857311469E-02 -0.93344845543E-02  0.24636025195E-01  0.00000000000E+00 0.  1.
     999901    1    3    3    0    0  0.67511249351E-01 -0.55794199058E-01 -0.70442903653E-01  0.88714878353E+00  0.88000000000E+00 0. -1.
        -11    1    4    4    0    0 -0.55284465551E-01  0.20579494583E-01  0.33557300220E-01  0.67869295323E-01  0.51100000000E-03 0. -1.
         11    1    4    4    0    0 -0.34113390966E-01  0.28828973328E-01  0.46220087987E-01  0.64275895956E-01  0.51100000000E-03 0.  1.
</event>
<event>
 8    1  0.1123191E+005  0.1043930E+01  0.7957747E-01            NaN
         13   -1    0    0    0    0  0.00000000000E+00  0.00000000000E+00  0.74505805969E-08  0.10566000000E+00  0.10566000000E+00 0.  1.
     999900   -1    0    0    0    0 -0.00000000000E+00 -0.00000000000E+00 -0.74505805969E-08  0.93827000000E+00  0.93827000000E+00 0. -1.
     999902    2    1    2    0    0 -0.49925597196E-02  0.19624559549E-01  0.86849176019E-02  0.10218964623E+01  0.10216588975E+01 0.  0.
     999903    2    3    3    0    0  0.10953322782E+00 -0.67698272539E-01  0.12283543199E-01  0.13018216774E+00  0.14694463596E-01 0.  0.
         14    1    1    2    0    0  0.49925597196E-02 -0.19624559549E-01 -0.86849176019E-02  0.22033537705E-01  0.00000000000E+00 0. -1.
     999901    1    3    3    0    0 -0.11452578754E+00  0.87322832088E-01 -0.35986255966E-02  0.89171429456E+00  0.88000000000E+00 0. -1.
        -11    1    4    4    0    0  0.86607954674E-01 -0.48832659982E-01  0.14150589815E-01  0.10042941206E+00  0.51100000000E-03 0.  1.
         11    1    4    4    0    0  0.22925273150E-01 -0.18865612557E-01 -0.18670466166E-02  0.29752755675E-01  0.51100000000E-03 0. -1.
</event>
<event>
 8    1  0.1123191E+005  0.1043930E+01  0.7957747E-01            NaN
         13   -1    0    0    0    0  0.00000000000E+00  0.00000000000E+00  0.74505805969E-08  0.10566000000E+00  0.10566000000E+00 0. -1.
     999900   -1    0    0    0    0 -0.00000000000E+00 -0.00000000000E+00 -0.74505805969E-08  0.93827000000E+00  0.93827000000E+00 0. -1.
     999902    2    1    2    0    0 -0.14147627620E-01 -0.14755235189E-01  0.13513273879E-01  0.10194252881E+01  0.10191307262E+01 0.  0.
     999903    2    3    3    0    0 -0.94614395672E-01 -0.38200680942E-02 -0.86531601749E-01  0.13004153756E+00  0.21368355146E-01 0.  0.
         14    1    1    2    0    0  0.14147627620E-01  0.14755235189E-01 -0.13513273879E-01  0.24504711867E-01  0.00000000000E+00 0.  1.
     999901    1    3    3    0    0  0.80466768051E-01 -0.10935167095E-01  0.10004487563E+00  0.88938375057E+00  0.88000000000E+00 0.  1.
        -11    1    4    4    0    0 -0.34896070243E-01 -0.95414433661E-02 -0.24196086667E-01  0.43525700349E-01  0.51100000000E-03 0. -1.
         11    1    4    4    0    0 -0.59718325429E-01  0.57213752719E-02 -0.62335515082E-01  0.86515837213E-01  0.51100000000E-03 0.  1.
</event>
<event>
 8    1  0.1123191E+005  0.1043930E+01  0.7957747E-01            NaN
         13   -1    0    0    0    0  0.00000000000E+00  0.00000000000E+00  0.74505805969E-08  0.10566000000E+00  0.10566000000E+00 0.  1.
     999900   -1    0    0    0    0 -0.00000000000E+00 -0.00000000000E+00 -0.74505805969E-08  0.93827000000E+00  0.93827000000E+00 0. -1.
     999902    2    1    2    0    0 -0.64177918298E-02 -0.18940813932E-01  0.11141382392E-01  0.10210373618E+01  0.10207806920E+01 0.  0.
     999903    2    3    3    0    0  0.69077916633E-01  0.54044920681E-01  0.93785348181E-01  0.13094941973E+00  0.25679699686E-01 0.  0.
         14    1    1    2    0    0  0.64177918298E-02  0.18940813932E-01 -0.11141382392E-01  0.22892638248E-01  0.00000000000E+00 0. -1.
     999901    1    3    3    0    0 -0.75495708463E-01 -0.72985734613E-01 -0.82643965789E-01  0.89008794202E+00  0.88000000000E+00 0.  1.
        -11    1    4    4    0    0  0.12896989251E-01  0.24027357993E-02  0.54466223579E-02  0.14213806216E-01  0.51100000000E-03 0. -1.
         11    1    4    4    0    0  0.56180927383E-01  0.51642184882E-01  0.88338725823E-01  0.11673561351E+00  0.51100000000E-03 0.  1.
</event>
<event>
 8    1  0.1123191E+005  0.1043930E+01  0.7957747E-01            NaN
         13   -1    0    0    0    0  0.00000000000E+00  0.00000000000E+00  0.74505805969E-08  0.10566000000E+00  0.10566000000E+00 0. -1.
     999900   -1    0    0    0    0 -0.00000000000E+00 -0.00000000000E+00 -0.74505805969E-08  0.93827000000E+00  0.93827000000E+00 0.  1.
     999902    2    1    2    0    0 -0.26107060109E-04  0.22456218355E-01  0.75133890725E-02  0.10202501892E+01  0.10199753502E+01 0.  0.
     999903    2    3    3    0    0 -0.57365984499E-01  0.27205751438E-01 -0.11195865302E+00  0.13031536661E+00  0.20404550925E-01 0.  0.
         14    1    1    2    0    0  0.26107060109E-04 -0.22456218355E-01 -0.75133890725E-02  0.23679810805E-01  0.00000000000E+00 0.  1.
     999901    1    3    3    0    0  0.57339877439E-01 -0.47495330833E-02  0.11947204210E+00  0.88993482259E+00  0.88000000000E+00 0. -1.
        -11    1    4    4    0    0 -0.22321218435E-01  0.21237391227E-01 -0.58390962290E-01  0.66022944320E-01  0.51100000000E-03 0.  1.
         11    1    4    4    0    0 -0.35044766064E-01  0.59683602108E-02 -0.53567690735E-01  0.64292422289E-01  0.51100000000E-03 0. -1.
</event>
<event>
 8    1  0.1123191E+005  0.1043930E+01  0.7957747E-01            NaN
         13   -1    0    0    0    0  0.00000000000E+00  0.00000000000E+00  0.74505805969E-08  0.10566000000E+00  0.10566000000E+00 0. -1.
     999900   -1    0    0    0    0 -0.00000000000E+00 -0.00000000000E+00 -0.74505805969E-08  0.93827000000E+00  0.93827000000E+00 0. -1.
     999902    2    1    2    0    0 -0.13613674162E-01 -0.13559852753E-01  0.13398889631E-01  0.10205049712E+01  0.10202360826E+01 0.  0.
     999903    2    3    3    0    0  0.58232917425E-01 -0.83289624686E-01  0.82054628440E-01  0.13217069612E+00  0.20196450473E-01 0.  0.
         14    1    1    2    0    0  0.13613674162E-01  0.13559852753E-01 -0.13398889631E-01  0.23425028799E-01  0.00000000000E+00 0.  1.
     999901    1    3    3    0    0 -0.71846591587E-01  0.69729771933E-01 -0.68655738809E-01  0.88833427508E+00  0.88000000000E+00 0. -1.
        -11    1    4    4    0    0  0.24099936093E-01 -0.40710696535E-01  0.50194719190E-01  0.68977813010E-01  0.51100000000E-03 0.  1.
         11    1    4    4    0    0  0.34132981332E-01 -0.42578928151E-01  0.31859909250E-01  0.63192883108E-01  0.51100000000E-03 0. -1.
</event>
<event>
 8    1  0.1123191E+005  0.1043930E+01  0.7957747E-01            NaN
         13   -1    0    0    0    0  0.00000000000E+00  0.00000000000E+00  0.74505805969E-08  0.10566000000E+00  0.10566000000E+00 0.  1.
     999900   -1    0    0    0    0 -0.00000000000E+00 -0.00000000000E+00 -0.74505805969E-08  0.93827000000E+00  0.93827000000E+00 0. -1.
     999902    2    1    2    0    0 -0.94095542848E-02 -0.12732110932E-01  0.17523234879E-01  0.10203141129E+01  0.10200407732E+01 0.  0.
     999903    2    3    3    0    0 -0.94944690801E-01  0.48339909532E-01 -0.70835373935E-01  0.12966643007E+00  0.21082972329E-01 0.  0.
         14    1    1    2    0    0  0.94095542848E-02  0.12732110932E-01 -0.17523234879E-01  0.23615887052E-01  0.00000000000E+00 0.  1.
     999901    1    3    3    0    0  0.85535136516E-01 -0.61072020464E-01  0.88358608813E-01  0.89064768288E+00  0.88000000000E+00 0.  1.
        -11    1    4    4    0    0 -0.41040023898E-01  0.19749969103E-01 -0.42849419027E-01  0.62535419349E-01  0.51100000000E-03 0.  1.
         11    1    4    4    0    0 -0.53904666902E-01  0.28589940429E-01 -0.27985954908E-01  0.67131010723E-01  0.51100000000E-03 0. -1.
</event>
<event>
 8    1  0.1123191E+005  0.1043930E+01  0.7957747E-01            NaN
         13   -1    0    0    0    0  0.00000000000E+00  0.00000000000E+00  0.74505805969E-08  0.10566000000E+00  0.10566000000E+00 0.  1.
     999900   -1    0    0    0    0 -0.00000000000E+00 -0.00000000000E+00 -0.74505805969E-08  0.93827000000E+00  0.93827000000E+00 0. -1.
     999902    2    1    2    0    0  0.12400041320E-01  0.15813479674E-02 -0.19809174310E-01  0.10205063992E+01  0.10202375438E+01 0.  0.
     999903    2    3    3    0    0  0.12220023238E-01 -0.12286018106E+00  0.35508454642E-01  0.13003137621E+00  0.20083709554E-01 0.  0.
         14    1    1    2    0    0 -0.12400041320E-01 -0.15813479674E-02  0.19809174310E-01  0.23423600769E-01  0.00000000000E+00 0.  1.
     999901    1    3    3    0    0  0.18001808202E-03  0.12444152903E+00 -0.55317628952E-01  0.89047502302E+00  0.88000000000E+00 0. -1.
        -11    1    4    4    0    0  0.41801386457E-02 -0.14235457339E-01  0.10753064532E-01  0.18330611626E-01  0.51100000000E-03 0.  1.
         11    1    4    4    0    0  0.80398845919E-02 -0.10862472372E+00  0.24755390110E-01  0.11170076458E+00  0.51100000000E-03 0. -1.
</event>
<event>
 8    1  0.1123191E+005  0.1043930E+01  0.7957747E-01            NaN
         13   -1    0    0    0    0  0.00000000000E+00  0.00000000000E+00  0.74505805969E-08  0.10566000000E+00  0.10566000000E+00 0.  1.
     999900   -1    0    0    0    0 -0.00000000000E+00 -0.00000000000E+00 -0.74505805969E-08  0.93827000000E+00  0.93827000000E+00 0. -1.
     999902    2    1    2    0    0  0.25487721090E-02  0.17927958598E-01  0.16867771291E-01  0.10191826840E+01  0.10188821884E+01 0.  0.
     999903    2    3    3    0    0  0.19883689117E-01 -0.70949533466E-01  0.10547539450E+00  0.13010956060E+00  0.19345322996E-01 0.  0.
         14    1    1    2    0    0 -0.25487721090E-02 -0.17927958598E-01 -0.16867771291E-01  0.24747315957E-01  0.00000000000E+00 0. -1.
     999901    1    3    3    0    0 -0.17334917008E-01  0.88877492064E-01 -0.88607623209E-01  0.88907312345E+00  0.88000000000E+00 0. -1.
        -11    1    4    4    0    0  0.19946995150E-01 -0.68594629938E-01  0.92303477437E-01  0.11671888853E+00  0.51100000000E-03 0.  1.
         11    1    4    4    0    0 -0.63306032277E-04 -0.23549035284E-02  0.13171917063E-01  0.13390672066E-01  0.51100000000E-03 0. -1.
</event>
<event>
 8    1  0.1123191E+005  0.1043930E+01  0.7957747E-01            NaN
         13   -1    0    0    0    0  0.00000000000E+00  0.00000000000E+00  0.74505805969E-08  0.10566000000E+00  0.10566000000E+00 0.  1.
     999900   -1    0    0    0    0 -0.00000000000E+00 -0.00000000000E+00 -0.74505805969E-08  0.93827000000E+00  0.93827000000E+00 0. -1.
     999902    2    1    2    0    0 -0.59919883931E-02 -0.10945314645E-01 -0.19323938175E-01  0.10209274257E+01  0.10206682567E+01 0.  0.
     999903    2    3    3    0    0  0.67623672360E-02 -0.13079167413E+00  0.34994807771E-02  0.13241927610E+00  0.19246471999E-01 0.  0.
         14    1    1    2    0    0  0.59919883931E-02  0.10945314645E-01  0.19323938175E-01  0.23002574295E-01  0.00000000000E+00 0.  1.
     999901    1    3    3    0    0 -0.12754355629E-01  0.11984635948E+00 -0.22823418952E-01  0.88850814961E+00  0.88000000000E+00 0. -1.
        -11    1    4    4    0    0  0.10542112310E-01 -0.12197069546E+00  0.77002425869E-03  0.12242892118E+00  0.51100000000E-03 0.  1.
         11    1    4    4    0    0 -0.37797450737E-02 -0.88209786728E-02  0.27294565184E-02  0.99903549214E-02  0.51100000000E-03 0. -1.
</event>
<event>
 8    1  0.1123191E+005  0.1043930E+01  0.7957747E-01            NaN
         13   -1    0    0    0    0  0.00000000000E+00  0.00000000000E+00  0.74505805969E-08  0.10566000000E+00  0.10566000000E+00 0.  1.
     999900   -1    0    0    0    0 -0.00000000000E+00 -0.00000000000E+00 -0.74505805969E-08  0.93827000000E+00  0.93827000000E+00 0.  1.
     999902    2    1    2    0    0 -0.19155869002E-01 -0.94930689012E-02 -0.95193873293E-02  0.10205273418E+01  0.10202589725E+01 0.  0.
     999903    2    3    3    0    0 -0.20785160336E-01 -0.42423948922E-02 -0.13010012976E+00  0.13228754334E+00  0.11132365257E-01 0.  0.
         14    1    1    2    0    0  0.19155869002E-01  0.94930689012E-02  0.95193873293E-02  0.23402658172E-01  0.00000000000E+00 0.  1.
     999901    1    3    3    0    0  0.16292913340E-02 -0.52506740090E-02  0.12058074243E+00  0.88823979848E+00  0.88000000000E+00 0. -1.
        -11    1    4    4    0    0 -0.20434410422E-01 -0.28015291957E-02 -0.97958020146E-01  0.10010718519E+00  0.51100000000E-03 0. -1.
         11    1    4    4    0    0 -0.35074991377E-03 -0.14408656965E-02 -0.32142109612E-01  0.32180358152E-01  0.51100000000E-03 0.  1.
</event>
<event>
 8    1  0.1123191E+005  0.1043930E+01  0.7957747E-01            NaN
         13   -1    0    0    0    0  0.00000000000E+00  0.00000000000E+00  0.74505805969E-08  0.10566000000E+00  0.10566000000E+00 0. -1.
     999900   -1    0    0    0    0 -0.00000000000E+00 -0.00000000000E+00 -0.74505805969E-08  0.93827000000E+00  0.93827000000E+00 0. -1.
     999902    2    1    2    0    0 -0.92529567467E-02 -0.18894083288E-01 -0.10865688898E-01  0.10202515966E+01  0.10199767907E+01 0.  0.
     999903    2    3    3    0    0  0.94294459103E-01  0.31491789062E-01  0.78615070568E-01  0.12824957320E+00  0.19607292234E-01 0.  0.
         14    1    1    2    0    0  0.92529567467E-02  0.18894083288E-01  0.10865688898E-01  0.23678403389E-01  0.00000000000E+00 0. -1.
     999901    1    3    3    0    0 -0.10354741585E+00 -0.50385872350E-01 -0.89480759466E-01  0.89200202341E+00  0.88000000000E+00 0. -1.
        -11    1    4    4    0    0  0.71595051071E-01  0.31270989116E-01  0.66001602980E-01  0.10227511337E+00  0.51100000000E-03 0.  1.
         11    1    4    4    0    0  0.22699408032E-01  0.22079994675E-03  0.12613467588E-01  0.25974459825E-01  0.51100000000E-03 0. -1.
</event>
<event>
 8    1  0.1123191E+005  0.1043930E+01  0.7957747E-01            NaN
         13   -1    0    0    0    0  0.00000000000E+00  0.00000000000E+00  0.74505805969E-08  0.10566000000E+00  0.10566000000E+00 0. -1.
     999900   -1    0    0    0    0 -0.00000000000E+00 -0.00000000000E+00 -0.74505805969E-08  0.93827000000E+00  0.93827000000E+00 0.  1.
     999902    2    1    2    0    0 -0.71959091789E-02  0.11825309469E-03 -0.22437146490E-01  0.10203668798E+01  0.10200947744E+01 0.  0.
     999903    2    3    3    0    0  0.94259865067E-02  0.11163039603E+00  0.61160471188E-01  0.12924410084E+00  0.20328301097E-01 0.  0.
         14    1    1    2    0    0  0.71959091789E-02 -0.11825309469E-03  0.22437146490E-01  0.23563120238E-01  0.00000000000E+00 0. -1.
     999901    1    3    3    0    0 -0.16621895686E-01 -0.11151214294E+00 -0.83597617679E-01  0.89112277893E+00  0.88000000000E+00 0.  1.
        -11    1    4    4    0    0  0.25447793696E-02  0.30800073008E-01  0.27647699272E-01  0.41470191648E-01  0.51100000000E-03 0. -1.
         11    1    4    4    0    0  0.68812071371E-02  0.80830323023E-01  0.33512771916E-01  0.87773909189E-01  0.51100000000E-03 0.  1.
</event>
<event>
 8    1  0.1123191E+005  0.1043930E+01  0.7957747E-01            NaN
         13   -1    0    0    0    0  0.00000000000E+00  0.00000000000E+00  0.74505805969E-08  0.10566000000E+00  0.10566000000E+00 0.  1.
     999900   -1    0    0    0    0 -0.00000000000E+00 -0.00000000000E+00 -0.74505805969E-08  0.93827000000E+00  0.93827000000E+00 0. -1.
     999902    2    1    2    0    0 -0.16988718007E-01 -0.16595107618E-01  0.63907305800E-02  0.10193361883E+01  0.10190394542E+01 0.  0.
     999903    2    3    3    0    0 -0.53456806965E-01 -0.60995487377E-01  0.10240433371E+00  0.13225111503E+00  0.20630806414E-01 0.  0.
         14    1    1    2    0    0  0.16988718007E-01  0.16595107618E-01 -0.63907305800E-02  0.24593811696E-01  0.00000000000E+00 0.  1.
     999901    1    3    3    0    0  0.36468088958E-01  0.44400379759E-01 -0.96013603131E-01  0.88708507327E+00  0.88000000000E+00 0. -1.
        -11    1    4    4    0    0 -0.40482565764E-01 -0.38278261144E-01  0.56109808635E-01  0.79073605920E-01  0.51100000000E-03 0. -1.
         11    1    4    4    0    0 -0.12974241201E-01 -0.22717226234E-01  0.46294525076E-01  0.53177509113E-01  0.51100000000E-03 0.  1.
</event>
<event>
 8    1  0.1123191E+005  0.1043930E+01  0.7957747E-01            NaN
         13   -1    0    0    0    0  0.00000000000E+00  0.00000000000E+00  0.74505805969E-08  0.10566000000E+00  0.10566000000E+00 0. -1.
     999900   -1    0    0    0    0 -0.00000000000E+00 -0.00000000000E+00 -0.74505805969E-08  0.93827000000E+00  0.93827000000E+00 0.  1.
     999902    2    1    2    0    0  0.74901747797E-02  0.22706992698E-01  0.45424815278E-02  0.10195918741E+01  0.10193013516E+01 0.  0.
     999903    2    3    3    0    0 -0.23962782920E-01 -0.53485118539E-01 -0.11269561086E+00  0.12799819044E+00  0.15759542487E-01 0.  0.
         14    1    1    2    0    0 -0.74901747797E-02 -0.22706992698E-01 -0.45424815278E-02  0.24338125936E-01  0.00000000000E+00 0. -1.
     999901    1    3    3    0    0  0.31452957699E-01  0.76192111237E-01  0.11723809239E+00  0.89159368362E+00  0.88000000000E+00 0. -1.
        -11    1    4    4    0    0 -0.19300490917E-01 -0.51314553604E-01 -0.10747761502E+00  0.12065401449E+00  0.51100000000E-03 0. -1.
         11    1    4    4    0    0 -0.46622920023E-02 -0.21705649353E-02 -0.52179958404E-02  0.73441759540E-02  0.51100000000E-03 0.  1.
</event>
<event>
 8    1  0.1123191E+005  0.1043930E+01  0.7957747E-01            NaN
         13   -1    0    0    0    0  0.00000000000E+00  0.00000000000E+00  0.74505805969E-08  0.10566000000E+00  0.10566000000E+00 0.  1.
     999900   -1    0    0    0    0 -0.00000000000E+00 -0.00000000000E+00 -0.74505805969E-08  0.93827000000E+00  0.93827000000E+00 0.  1.
     999902    2    1    2    0    0 -0.10787724150E-01  0.14257468185E-01  0.16091143020E-01  0.10198764083E+01  0.10195927191E+01 0.  0.
     999903    2    3    3    0    0 -0.12948459989E+00 -0.10678224159E-01  0.46791267684E-02  0.13148405622E+00  0.19643745422E-01 0.  0.
         14    1    1    2    0    0  0.10787724150E-01 -0.14257468185E-01 -0.16091143020E-01  0.24053591729E-01  0.00000000000E+00 0. -1.
     999901    1    3    3    0    0  0.11869687574E+00  0.24935692344E-01  0.11412016251E-01  0.88839235205E+00  0.88000000000E+00 0.  1.
        -11    1    4    4    0    0 -0.85540552744E-01 -0.10230481358E-01 -0.56518254280E-02  0.86336858666E-01  0.51100000000E-03 0.  1.
         11    1    4    4    0    0 -0.43944047144E-01 -0.44774280114E-03  0.10330952196E-01  0.45147197557E-01  0.51100000000E-03 0. -1.
</event>
<event>
 8    1  0.1123191E+005  0.1043930E+01  0.7957747E-01            NaN
         13   -1    0    0    0    0  0.00000000000E+00  0.00000000000E+00  0.74505805969E-08  0.10566000000E+00  0.10566000000E+00 0. -1.
     999900   -1    0    0    0    0 -0.00000000000E+00 -0.00000000000E+00 -0.74505805969E-08  0.93827000000E+00  0.93827000000E+00 0. -1.
     999902    2    1    2    0    0 -0.56033752513E-02  0.25494468748E-01 -0.14054889342E-01  0.10142836568E+01  0.10138503000E+01 0.  0.
     999903    2    3    3    0    0  0.71682538597E-01  0.10321277839E+00  0.98895848291E-03  0.12735662175E+00  0.20675277569E-01 0.  0.
         14    1    1    2    0    0  0.56033752513E-02 -0.25494468748E-01  0.14054889342E-01  0.29646343204E-01  0.00000000000E+00 0. -1.
     999901    1    3    3    0    0 -0.77285913848E-01 -0.77718309644E-01 -0.15043847825E-01  0.88692703504E+00  0.88000000000E+00 0.  1.
        -11    1    4    4    0    0  0.44872304812E-01  0.78441666321E-01  0.56891997502E-02  0.90549692816E-01  0.51100000000E-03 0.  1.
         11    1    4    4    0    0  0.26810233784E-01  0.24771112071E-01 -0.47002412673E-02  0.36806928937E-01  0.51100000000E-03 0. -1.
</event>
<event>
 8    1  0.1123191E+005  0.1043930E+01  0.7957747E-01            NaN
         13   -1    0    0    0    0  0.00000000000E+00  0.00000000000E+00  0.74505805969E-08  0.10566000000E+00  0.10566000000E+00 0.  1.
     999900   -1    0    0    0    0 -0.00000000000E+00 -0.00000000000E+00 -0.74505805969E-08  0.93827000000E+00  0.93827000000E+00 0.  1.
     999902    2    1    2    0    0 -0.74587188224E-04 -0.23871419304E-01  0.25477305521E-02  0.10199228937E+01  0.10196403130E+01 0.  0.
     999903    2    3    3    0    0 -0.63771030156E-01  0.64713734714E-01  0.89435111309E-01  0.12893805470E+00  0.19281365802E-01 0.  0.
         14    1    1    2    0    0  0.74587188224E-04  0.23871419304E-01 -0.25477305521E-02  0.24007106319E-01  0.00000000000E+00 0. -1.
     999901    1    3    3    0    0  0.63696442968E-01 -0.88585154018E-01 -0.86887380757E-01  0.89098483898E+00  0.88000000000E+00 0.  1.
        -11    1    4    4    0    0 -0.45296551650E-01  0.44470504181E-01  0.49486308300E-01  0.80489497226E-01  0.51100000000E-03 0. -1.
         11    1    4    4    0    0 -0.18474478506E-01  0.20243230533E-01  0.39948803009E-01  0.48448557474E-01  0.51100000000E-03 0.  1.
</event>
<event>
 8    1  0.1123191E+005  0.1043930E+01  0.7957747E-01            NaN
         13   -1    0    0    0    0  0.00000000000E+00  0.00000000000E+00  0.74505805969E-08  0.10566000000E+00  0.10566000000E+00 0.  1.
     999900   -1    0    0    0    0 -0.00000000000E+00 -0.00000000000E+00 -0.74505805969E-08  0.93827000000E+00  0.93827000000E+00 0. -1.
     999902    2    1    2    0    0  0.11032474717E-01 -0.20672111833E-01 -0.36387884538E-02  0.10202172927E+01  0.10199416806E+01 0.  0.
     999903    2    3    3    0    0  0.10682347149E+00  0.55369728173E-01 -0.47130527157E-01  0.13069505699E+00  0.19566565149E-01 0.  0.
         14    1    1    2    0    0 -0.11032474717E-01  0.20672111833E-01  0.36387884538E-02  0.23712707299E-01  0.00000000000E+00 0. -1.
     999901    1    3    3    0    0 -0.95790996773E-01 -0.76041840006E-01  0.43491738703E-01  0.88952223571E+00  0.88000000000E+00 0.  1.
        -11    1    4    4    0    0  0.21156970266E-01  0.33459143249E-02 -0.11541904996E-01  0.24336992942E-01  0.51100000000E-03 0. -1.
         11    1    4    4    0    0  0.85666501223E-01  0.52023813848E-01 -0.35588622162E-01  0.10635806405E+00  0.51100000000E-03 0.  1.
</event>
<event>
 8    1  0.1123191E+005  0.1043930E+01  0.7957747E-01            NaN
         13   -1    0    0    0    0  0.00000000000E+00  0.00000000000E+00  0.74505805969E-08  0.10566000000E+00  0.10566000000E+00 0. -1.
     999900   -1    0    0    0    0 -0.00000000000E+00 -0.00000000000E+00 -0.74505805969E-08  0.93827000000E+00  0.93827000000E+00 0. -1.
     999902    2    1    2    0    0  0.33422312086E-02  0.21102367069E-01 -0.11321196652E-01  0.10197504653E+01  0.10194637618E+01 0.  0.
     999903    2    3    3    0    0  0.12409020585E-01  0.85140592773E-01  0.96434291534E-01  0.13082170197E+00  0.20293860947E-01 0.  0.
         14    1    1    2    0    0 -0.33422312086E-02 -0.21102367069E-01  0.11321196652E-01  0.24179534715E-01  0.00000000000E+00 0. -1.
     999901    1    3    3    0    0 -0.90667893767E-02 -0.64038225704E-01 -0.10775548819E+00  0.88892876332E+00  0.88000000000E+00 0. -1.
        -11    1    4    4    0    0 -0.46234587224E-02  0.23412693083E-01  0.32583022308E-01  0.40391150412E-01  0.51100000000E-03 0. -1.
         11    1    4    4    0    0  0.17032479308E-01  0.61727899691E-01  0.63851269226E-01  0.90430551554E-01  0.51100000000E-03 0.  1.
</event>
<event>
 8    1  0.1123191E+005  0.1043930E+01  0.7957747E-01            NaN
         13   -1    0    0    0    0  0.00000000000E+00  0.00000000000E+00  0.74505805969E-08  0.10566000000E+00  0.10566000000E+00 0.  1.
     999900   -1    0    0    0    0 -0.00000000000E+00 -0.00000000000E+00 -0.74505805969E-08  0.93827000000E+00  0.93827000000E+00 0.  1.
     999902    2    1    2    0    0  0.10100907431E-01 -0.29518166797E-02  0.27521705493E-01  0.10144650068E+01  0.10140370132E+01 0.  0.
     999903    2    3    3    0    0 -0.25758532022E-01  0.24845857894E-01 -0.11464764423E+00  0.12190087232E+00  0.20854776906E-01 0.  0.
         14    1    1    2    0    0 -0.10100907431E-01  0.29518166797E-02 -0.27521705493E-01  0.29464993228E-01  0.00000000000E+00 0. -1.
     999901    1    3    3    0    0  0.35859439454E-01 -0.27797674573E-01  0.14216934972E+00  0.89256413445E+00  0.88000000000E+00 0. -1.
        -11    1    4    4    0    0 -0.22550947634E-01  0.95678572885E-02 -0.54433073864E-01  0.59693465166E-01  0.51100000000E-03 0. -1.
         11    1    4    4    0    0 -0.32075843881E-02  0.15278000605E-01 -0.60214570362E-01  0.62207407155E-01  0.51100000000E-03 0.  1.
</event>
<event>
 8    1  0.1123191E+005  0.1043930E+01  0.7957747E-01            NaN
         13   -1    0    0    0    0  0.00000000000E+00  0.00000000000E+00  0.74505805969E-08  0.10566000000E+00  0.10566000000E+00 0.  1.
     999900   -1    0    0    0    0 -0.00000000000E+00 -0.00000000000E+00 -0.74505805969E-08  0.93827000000E+00  0.93827000000E+00 0. -1.
     999902    2    1    2    0    0 -0.13819429450E-01  0.12439346703E-01 -0.15157681964E-01  0.10199410588E+01  0.10196589107E+01 0.  0.
     999903    2    3    3    0    0 -0.69992206906E-01  0.47068536414E-01 -0.10112735062E+00  0.13329268114E+00  0.20635931106E-01 0.  0.
         14    1    1    2    0    0  0.13819429450E-01 -0.12439346703E-01  0.15157681964E-01  0.23988941187E-01  0.00000000000E+00 0.  1.
     999901    1    3    3    0    0  0.56172777455E-01 -0.34629189711E-01  0.85969668660E-01  0.88664837768E+00  0.88000000000E+00 0.  1.
        -11    1    4    4    0    0 -0.37557531480E-01  0.23571140073E-01 -0.37338495174E-01  0.57970605983E-01  0.51100000000E-03 0. -1.
         11    1    4    4    0    0 -0.32434675426E-01  0.23497396341E-01 -0.63788855450E-01  0.75322075154E-01  0.51100000000E-03 0.  1.
</event>
<event>
 8    1  0.1123191E+005  0.1043930E+01  0.7957747E-01            NaN
         13   -1    0    0    0    0  0.00000000000E+00  0.00000000000E+00  0.74505805969E-08  0.10566000000E+00  0.10566000000E+00 0. -1.
     999900   -1    0    0    0    0 -0.00000000000E+00 -0.00000000000E+00 -0.74505805969E-08  0.93827000000E+00  0.93827000000E+00 0.  1.
     999902    2    1    2    0    0  0.59075685997E-02  0.21274567937E-01 -0.12770794571E-01  0.10184231421E+01  0.10181036767E+01 0.  0.
     999903    2    3    3    0    0 -0.79237329192E-01  0.55587805573E-02 -0.10082048904E+00  0.12980095672E+00  0.19340707780E-01 0.  0.
         14    1    1    2    0    0 -0.59075685997E-02 -0.21274567937E-01  0.12770794571E-01  0.25506857933E-01  0.00000000000E+00 0. -1.
     999901    1    3    3    0    0  0.85144897792E-01  0.15715787379E-01  0.88049694465E-01  0.88862218535E+00  0.88000000000E+00 0. -1.
        -11    1    4    4    0    0 -0.66267418144E-01  0.90328337814E-02 -0.73630217772E-01  0.99471769280E-01  0.51100000000E-03 0.  1.
         11    1    4    4    0    0 -0.12969911048E-01 -0.34740532241E-02 -0.27190271264E-01  0.30329187441E-01  0.51100000000E-03 0. -1.
</event>
<event>
 8    1  0.1123191E+005  0.1043930E+01  0.7957747E-01            NaN
         13   -1    0    0    0    0  0.00000000000E+00  0.00000000000E+00  0.74505805969E-08  0.10566000000E+00  0.10566000000E+00 0. -1.
     999900   -1    0    0    0    0 -0.00000000000E+00 -0.00000000000E+00 -0.74505805969E-08  0.93827000000E+00  0.93827000000E+00 0.  1.
     999902    2    1    2    0    0 -0.80691432317E-02  0.21727108735E-01 -0.17899971399E-03  0.10207522010E+01  0.10204890227E+01 0.  0.
     999903    2    3    3    0    0  0.89980175163E-01 -0.19792428566E-01  0.89419205381E-01  0.12981708596E+00  0.19196597770E-01 0.  0.
         14    1    1    2    0    0  0.80691432317E-02 -0.21727108735E-01  0.17899971399E-03  0.23177799019E-01  0.00000000000E+00 0. -1.
     999901    1    3    3    0    0 -0.98049318395E-01  0.41519537301E-01 -0.89598205095E-01  0.89093511502E+00  0.88000000000E+00 0. -1.
        -11    1    4    4    0    0  0.42191988756E-01 -0.12972450594E-02  0.32868923816E-01  0.53502093732E-01  0.51100000000E-03 0.  1.
         11    1    4    4    0    0  0.47788186407E-01 -0.18495183507E-01  0.56550281566E-01  0.76314992231E-01  0.51100000000E-03 0. -1.
</event>
<event>
 8    1  0.1123191E+005  0.1043930E+01  0.7957747E-01            NaN
         13   -1    0    0    0    0  0.00000000000E+00  0.00000000000E+00  0.74505805969E-08  0.10566000000E+00  0.10566000000E+00 0. -1.
     999900   -1    0    0    0    0 -0.00000000000E+00 -0.00000000000E+00 -0.74505805969E-08  0.93827000000E+00  0.93827000000E+00 0. -1.
     999902    2    1    2    0    0 -0.11800862790E-01  0.15389049554E-01  0.14173101462E-01  0.10199100080E+01  0.10196271203E+01 0.  0.
     999903    2    3    3    0    0 -0.81904130641E-01 -0.33609938737E-01 -0.92203195766E-01  0.12938696756E+00  0.20041044538E-01 0.  0.
         14    1    1    2    0    0  0.11800862790E-01 -0.15389049554E-01 -0.14173101462E-01  0.24019991961E-01  0.00000000000E+00 0.  1.
     999901    1    3    3    0    0  0.70103267850E-01  0.48998988290E-01  0.10637629723E+00  0.89052304048E+00  0.88000000000E+00 0.  1.
        -11    1    4    4    0    0 -0.50949807767E-01 -0.23711454348E-01 -0.71123425287E-01  0.90647221272E-01  0.51100000000E-03 0. -1.
         11    1    4    4    0    0 -0.30954322874E-01 -0.98984843891E-02 -0.21079770479E-01  0.38739746285E-01  0.51100000000E-03 0.  1.
</event>
<event>
 8    1  0.1123191E+005  0.1043930E+01  0.7957747E-01            NaN
         13   -1    0    0    0    0  0.00000000000E+00  0.00000000000E+00  0.74505805969E-08  0.10566000000E+00  0.10566000000E+00 0. -1.
     999900   -1    0    0    0    0 -0.00000000000E+00 -0.00000000000E+00 -0.74505805969E-08  0.93827000000E+00  0.93827000000E+00 0.  1.
     999902    2    1    2    0    0  0.24203269413E-01  0.26097001569E-02  0.12984509951E-02  0.10195518385E+01  0.10192603478E+01 0.  0.
     999903    2    3    3    0    0  0.93880204720E-01 -0.90223331890E-01  0.74604006490E-02  0.13190843214E+00  0.19759413874E-01 0.  0.
         14    1    1    2    0    0 -0.24203269413E-01 -0.26097001569E-02 -0.12984509951E-02  0.24378161542E-01  0.00000000000E+00 0. -1.
     999901    1    3    3    0    0 -0.69676935307E-01  0.92833032047E-01 -0.61619496540E-02  0.88764340632E+00  0.88000000000E+00 0.  1.
        -11    1    4    4    0    0  0.27464404675E-01 -0.31192996620E-01  0.10946493215E-01  0.42981198180E-01  0.51100000000E-03 0. -1.
         11    1    4    4    0    0  0.66415800045E-01 -0.59030335270E-01 -0.34860925662E-02  0.88927233962E-01  0.51100000000E-03 0.  1.
</event>
<event>
 8    1  0.1123191E+005  0.1043930E+01  0.7957747E-01            NaN
         13   -1    0    0    0    0  0.00000000000E+00  0.00000000000E+00  0.74505805969E-08  0.10566000000E+00  0.10566000000E+00 0.  1.
     999900   -1    0    0    0    0 -0.00000000000E+00 -0.00000000000E+00 -0.74505805969E-08  0.93827000000E+00  0.93827000000E+00 0. -1.
     999902    2    1    2    0    0 -0.43796266001E-02 -0.15697064709E-02  0.22634704225E-01  0.10208221022E+01  0.10205605270E+01 0.  0.
     999903    2    3    3    0    0 -0.77366504057E-01  0.10419572002E+00  0.63078362600E-02  0.13133911955E+00  0.19179455320E-01 0.  0.
         14    1    1    2    0    0  0.43796266001E-02  0.15697064709E-02 -0.22634704225E-01  0.23107897847E-01  0.00000000000E+00 0. -1.
     999901    1    3    3    0    0  0.72986877457E-01 -0.10576542649E+00  0.16326867965E-01  0.88948298260E+00  0.88000000000E+00 0. -1.
        -11    1    4    4    0    0 -0.32521608422E-01  0.42782447297E-01 -0.68042142202E-02  0.54171498625E-01  0.51100000000E-03 0.  1.
         11    1    4    4    0    0 -0.44844895635E-01  0.61413272719E-01  0.13112050480E-01  0.77167620926E-01  0.51100000000E-03 0. -1.
</event>
<event>
 8    1  0.1123191E+005  0.1043930E+01  0.7957747E-01            NaN
         13   -1    0    0    0    0  0.00000000000E+00  0.00000000000E+00  0.74505805969E-08  0.10566000000E+00  0.10566000000E+00 0. -1.
     999900   -1    0    0    0    0 -0.00000000000E+00 -0.00000000000E+00 -0.74505805969E-08  0.93827000000E+00  0.93827000000E+00 0. -1.
     999902    2    1    2    0    0  0.21632723628E-02  0.22197420441E-01  0.11385492919E-01  0.10188893397E+01  0.10185815882E+01 0.  0.
     999903    2    3    3    0    0  0.12226213592E+00 -0.34838029887E-01 -0.28165637915E-02  0.12878907674E+00  0.20419966948E-01 0.  0.
         14    1    1    2    0    0 -0.21632723628E-02 -0.22197420441E-01 -0.11385492919E-01  0.25040660346E-01  0.00000000000E+00 0.  1.
     999901    1    3    3    0    0 -0.12009886356E+00  0.57035450328E-01  0.14202056711E-01  0.89010026291E+00  0.88000000000E+00 0.  1.
        -11    1    4    4    0    0  0.35109209127E-01 -0.63416914249E-02 -0.92760128991E-02  0.36867046966E-01  0.51100000000E-03 0. -1.
         11    1    4    4    0    0  0.87152926793E-01 -0.28496338463E-01  0.64594491076E-02  0.91922029776E-01  0.51100000000E-03 0.  1.
</event>
<event>
 8    1  0.1123191E+005  0.1043930E+01  0.7957747E-01            NaN
         13   -1    0    0    0    0  0.00000000000E+00  0.00000000000E+00  0.74505805969E-08  0.10566000000E+00  0.10566000000E+00 0.  1.
     999900   -1    0    0    0    0 -0.00000000000E+00 -0.00000000000E+00 -0.74505805969E-08  0.93827000000E+00  0.93827000000E+00 0.  1.
     999902    2    1    2    0    0 -0.66456476830E-02  0.29867707498E-02  0.23049597329E-01  0.10197562669E+01  0.10194697026E+01 0.  0.
     999903    2    3    3    0    0  0.10536242456E+00 -0.16130075312E-01 -0.67545364170E-01  0.12783771175E+00  0.20461781138E-01 0.  0.
         14    1    1    2    0    0  0.66456476830E-02 -0.29867707498E-02 -0.23049597329E-01  0.24173733052E-01  0.00000000000E+00 0. -1.
     999901    1    3    3    0    0 -0.11200807224E+00  0.19116846062E-01  0.90594961498E-01  0.89191855519E+00  0.88000000000E+00 0. -1.
        -11    1    4    4    0    0  0.32530274228E-01  0.41513685568E-02 -0.17561102713E-01  0.37203575792E-01  0.51100000000E-03 0. -1.
         11    1    4    4    0    0  0.72832150330E-01 -0.20281443869E-01 -0.49984261457E-01  0.90634135962E-01  0.51100000000E-03 0.  1.
</event>
<event>
 8    1  0.1123191E+005  0.1043930E+01  0.7957747E-01            NaN
         13   -1    0    0    0    0  0.00000000000E+00  0.00000000000E+00  0.74505805969E-08  0.10566000000E+00  0.10566000000E+00 0. -1.
     999900   -1    0    0    0    0 -0.00000000000E+00 -0.00000000000E+00 -0.74505805969E-08  0.93827000000E+00  0.93827000000E+00 0. -1.
     999902    2    1    2    0    0  0.17866048598E-01 -0.20443332663E-02  0.11424169377E-01  0.10226253846E+01  0.10224034383E+01 0.  0.
     999903    2    3    3    0    0 -0.85365801043E-01  0.89576496219E-01  0.39466915959E-01  0.13142530224E+00  0.20092385401E-01 0.  0.
         14    1    1    2    0    0 -0.17866048598E-01  0.20443332663E-02 -0.11424169377E-01  0.21304615392E-01  0.00000000000E+00 0.  1.
     999901    1    3    3    0    0  0.10323184964E+00 -0.91620829485E-01 -0.28042746582E-01  0.89120008237E+00  0.88000000000E+00 0. -1.
        -11    1    4    4    0    0 -0.26840745357E-02  0.73553667040E-02  0.66619058976E-02  0.10293094124E-01  0.51100000000E-03 0. -1.
         11    1    4    4    0    0 -0.82681726508E-01  0.82221129515E-01  0.32805010061E-01  0.12113220812E+00  0.51100000000E-03 0.  1.
</event>
<event>
 8    1  0.1123191E+005  0.1043930E+01  0.7957747E-01            NaN
         13   -1    0    0    0    0  0.00000000000E+00  0.00000000000E+00  0.74505805969E-08  0.10566000000E+00  0.10566000000E+00 0.  1.
     999900   -1    0    0    0    0 -0.00000000000E+00 -0.00000000000E+00 -0.74505805969E-08  0.93827000000E+00  0.93827000000E+00 0. -1.
     999902    2    1    2    0    0  0.17263936404E-01 -0.11007121409E-01  0.10959913290E-01  0.10207067375E+01  0.10204425138E+01 0.  0.
     999903    2    3    3    0    0 -0.97704622759E-01  0.28291320212E-02  0.82959008503E-01  0.13020514782E+00  0.22737329026E-01 0.  0.
         14    1    1    2    0    0 -0.17263936404E-01  0.11007121409E-01 -0.10959913290E-01  0.23223262501E-01  0.00000000000E+00 0. -1.
     999901    1    3    3    0    0  0.11496855916E+00 -0.13836253430E-01 -0.71999095214E-01  0.89050158968E+00  0.88000000000E+00 0. -1.
        -11    1    4    4    0    0 -0.79677544055E-01  0.10958736299E-01  0.69288672980E-01  0.10615924949E+00  0.51100000000E-03 0. -1.
         11    1    4    4    0    0 -0.18027078704E-01 -0.81296042783E-02  0.13670335524E-01  0.24045898333E-01  0.51100000000E-03 0.  1.
</event>
<event>
 8    1  0.1123191E+005  0.1043930E+01  0.7957747E-01            NaN
         13   -1    0    0    0    0  0.00000000000E+00  0.00000000000E+00  0.74505805969E-08  0.10566000000E+00  0.10566000000E+00 0. -1.
     999900   -1    0    0    0    0 -0.00000000000E+00 -0.00000000000E+00 -0.74505805969E-08  0.93827000000E+00  0.93827000000E+00 0.  1.
     999902    2    1    2    0    0  0.20176040287E-01 -0.94059156221E-02 -0.29711047476E-02  0.10214717874E+01  0.10212248729E+01 0.  0.
     999903    2    3    3    0    0  0.97697099682E-01  0.22476469998E-01 -0.85907041779E-01  0.13360672398E+00  0.20513943459E-01 0.  0.
         14    1    1    2    0    0 -0.20176040287E-01  0.94059156221E-02  0.29711047476E-02  0.22458212613E-01  0.00000000000E+00 0. -1.
     999901    1    3    3    0    0 -0.77521059395E-01 -0.31882385620E-01  0.82935937032E-01  0.88786506340E+00  0.88000000000E+00 0. -1.
        -11    1    4    4    0    0  0.35794999351E-01  0.18346126998E-01 -0.31587612415E-01  0.51145876994E-01  0.51100000000E-03 0. -1.
         11    1    4    4    0    0  0.61902100331E-01  0.41303430001E-02 -0.54319429364E-01  0.82460846989E-01  0.51100000000E-03 0.  1.
</event>
<event>
 8    1  0.1123191E+005  0.1043930E+01  0.7957747E-01            NaN
         13   -1    0    0    0    0  0.00000000000E+00  0.00000000000E+00  0.74505805969E-08  0.10566000000E+00  0.10566000000E+00 0.  1.
     999900   -1    0    0    0    0 -0.00000000000E+00 -0.00000000000E+00 -0.74505805969E-08  0.93827000000E+00  0.93827000000E+00 0.  1.
     999902    2    1    2    0    0 -0.43130075202E-03  0.21891455964E-01 -0.85422292623E-02  0.10204269886E+01  0.10201562858E+01 0.  0.
     999903    2    3    3    0    0  0.81722636522E-01  0.83797383993E-01  0.57562126995E-01  0.13197248821E+00  0.20068589759E-01 0.  0.
         14    1    1    2    0    0  0.43130075202E-03 -0.21891455964E-01  0.85422292623E-02  0.23503011410E-01  0.00000000000E+00 0. -1.
     999901    1    3    3    0    0 -0.82153937274E-01 -0.61905928029E-01 -0.66104356258E-01  0.88845450038E+00  0.88000000000E+00 0.  1.
        -11    1    4    4    0    0  0.67467504154E-02  0.16680134942E-01  0.65821226076E-02  0.19165881192E-01  0.51100000000E-03 0. -1.
         11    1    4    4    0    0  0.74975886107E-01  0.67117249052E-01  0.50980004388E-01  0.11280660701E+00  0.51100000000E-03 0.  1.
</event>
<event>
 8    1  0.1123191E+005  0.1043930E+01  0.7957747E-01            NaN
         13   -1    0    0    0    0  0.00000000000E+00  0.00000000000E+00  0.74505805969E-08  0.10566000000E+00  0.10566000000E+00 0.  1.
     999900   -1    0    0    0    0 -0.00000000000E+00 -0.00000000000E+00 -0.74505805969E-08  0.93827000000E+00  0.93827000000E+00 0. -1.
     999902    2    1    2    0    0 -0.22374268771E-01  0.74037125324E-02 -0.44461223025E-02  0.10199468629E+01  0.10196648529E+01 0.  0.
     999903    2    3    3    0    0 -0.12763674417E+00 -0.20487919081E-01 -0.23880635800E-01  0.13302193249E+00  0.20338546352E-01 0.  0.
         14    1    1    2    0    0  0.22374268771E-01 -0.74037125324E-02  0.44461223025E-02  0.23983137114E-01  0.00000000000E+00 0. -1.
     999901    1    3    3    0    0  0.10526247540E+00  0.27891631613E-01  0.19434513497E-01  0.88692493039E+00  0.88000000000E+00 0.  1.
        -11    1    4    4    0    0 -0.59333716671E-01 -0.64320808438E-02 -0.20847721969E-01  0.63219856298E-01  0.51100000000E-03 0. -1.
         11    1    4    4    0    0 -0.68303027496E-01 -0.14055838237E-01 -0.30329138307E-02  0.69802076194E-01  0.51100000000E-03 0.  1.
</event>
<event>
 8    1  0.1123191E+005  0.1043930E+01  0.7957747E-01            NaN
         13   -1    0    0    0    0  0.00000000000E+00  0.00000000000E+00  0.74505805969E-08  0.10566000000E+00  0.10566000000E+00 0.  1.
     999900   -1    0    0    0    0 -0.00000000000E+00 -0.00000000000E+00 -0.74505805969E-08  0.93827000000E+00  0.93827000000E+00 0. -1.
     999902    2    1    2    0    0  0.16513028734E-01  0.18132809903E-01 -0.45214368296E-02  0.10189916299E+01  0.10186864186E+01 0.  0.
     999903    2    3    3    0    0 -0.10372921674E+00  0.70711330375E-01 -0.22241455974E-01  0.12908337760E+00  0.20198845482E-01 0.  0.
         14    1    1    2    0    0 -0.16513028734E-01 -0.18132809903E-01  0.45214368296E-02  0.24938370114E-01  0.00000000000E+00 0.  1.
     999901    1    3    3    0    0  0.12024224548E+00 -0.52578520472E-01  0.17720019145E-01  0.88990825229E+00  0.88000000000E+00 0.  1.
        -11    1    4    4    0    0 -0.11174503444E-01  0.92102489503E-03 -0.24078780197E-02  0.11479408157E-01  0.51100000000E-03 0. -1.
         11    1    4    4    0    0 -0.92554713298E-01  0.69790305480E-01 -0.19833577955E-01  0.11760396944E+00  0.51100000000E-03 0.  1.
</event>
<event>
 8    1  0.1123191E+005  0.1043930E+01  0.7957747E-01            NaN
         13   -1    0    0    0    0  0.00000000000E+00  0.00000000000E+00  0.74505805969E-08  0.10566000000E+00  0.10566000000E+00 0. -1.
     999900   -1    0    0    0    0 -0.00000000000E+00 -0.00000000000E+00 -0.74505805969E-08  0.93827000000E+00  0.93827000000E+00 0.  1.
     999902    2    1    2    0    0  0.20595756358E-01 -0.58149318687E-02  0.89128340108E-02  0.10207473077E+01  0.10204840170E+01 0.  0.
     999903    2    3    3    0    0 -0.12510448115E+00 -0.13524803245E-01 -0.16177813978E-01  0.12838104771E+00  0.19644852772E-01 0.  0.
         14    1    1    2    0    0 -0.20595756358E-01  0.58149318687E-02 -0.89128340108E-02  0.23182692309E-01  0.00000000000E+00 0.  1.
     999901    1    3    3    0    0  0.14570023751E+00  0.77098713759E-02  0.25090647989E-01  0.89236625998E+00  0.88000000000E+00 0.  1.
        -11    1    4    4    0    0 -0.11034504547E+00 -0.57282340895E-02 -0.11843038790E-01  0.11112767619E+00  0.51100000000E-03 0. -1.
         11    1    4    4    0    0 -0.14759435681E-01 -0.77965691551E-02 -0.43347751881E-02  0.17253371530E-01  0.51100000000E-03 0.  1.
</event>
<event>
 8    1  0.1123191E+005  0.1043930E+01  0.7957747E-01            NaN
         13   -1    0    0    0    0  0.00000000000E+00  0.00000000000E+00  0.74505805969E-08  0.10566000000E+00  0.10566000000E+00 0. -1.
     999900   -1    0    0    0    0 -0.00000000000E+00 -0.00000000000E+00 -0.74505805969E-08  0.93827000000E+00  0.93827000000E+00 0. -1.
     999902    2    1    2    0    0 -0.17362549179E-01 -0.70669773305E-02  0.14303995432E-01  0.10203502509E+01  0.10200777568E+01 0.  0.
     999903    2    3    3    0    0  0.11661579893E+00  0.31946834269E-01 -0.35971920735E-01  0.12793782213E+00  0.21313434063E-01 0.  0.
         14    1    1    2    0    0  0.17362549179E-01  0.70669773305E-02 -0.14303995432E-01  0.23579749106E-01  0.00000000000E+00 0. -1.
     999901    1    3    3    0    0 -0.13397834811E+00 -0.39013811599E-01  0.50275916167E-01  0.89241242876E+00  0.88000000000E+00 0.  1.
        -11    1    4    4    0    0  0.66317367498E-01  0.27503684766E-01 -0.15508483283E-01  0.73452161863E-01  0.51100000000E-03 0. -1.
         11    1    4    4    0    0  0.50298431431E-01  0.44431495028E-02 -0.20463437452E-01  0.54485660272E-01  0.51100000000E-03 0.  1.
</event>
<event>
 8    1  0.1123191E+005  0.1043930E+01  0.7957747E-01            NaN
         13   -1    0    0    0    0  0.00000000000E+00  0.00000000000E+00  0.74505805969E-08  0.10566000000E+00  0.10566000000E+00 0.  1.
     999900   -1    0    0    0    0 -0.00000000000E+00 -0.00000000000E+00 -0.74505805969E-08  0.93827000000E+00  0.93827000000E+00 0. -1.
     999902    2    1    2    0    0  0.13560970650E-01 -0.22337004422E-02  0.25152316181E-01  0.10152676841E+01  0.10148630164E+01 0.  0.
     999903    2    3    3    0    0 -0.96232353351E-01 -0.77112209482E-01  0.43227741642E-02  0.12504566971E+00  0.20267571482E-01 0.  0.
         14    1    1    2    0    0 -0.13560970650E-01  0.22337004422E-02 -0.25152316181E-01  0.28662315886E-01  0.00000000000E+00 0. -1.
     999901    1    3    3    0    0  0.10979332400E+00  0.74878509040E-01  0.20829542017E-01  0.89022201441E+00  0.88000000000E+00 0.  1.
        -11    1    4    4    0    0 -0.78606975105E-02 -0.27183417261E-02 -0.39710947184E-02  0.92309621034E-02  0.51100000000E-03 0. -1.
         11    1    4    4    0    0 -0.88371655840E-01 -0.74393867756E-01  0.82938688826E-02  0.11581470761E+00  0.51100000000E-03 0.  1.
</event>
<event>
 8    1  0.1123191E+005  0.1043930E+01  0.7957747E-01            NaN
         13   -1    0    0    0    0  0.00000000000E+00  0.00000000000E+00  0.74505805969E-08  0.10566000000E+00  0.10566000000E+00 0. -1.
     999900   -1    0    0    0    0 -0.00000000000E+00 -0.00000000000E+00 -0.74505805969E-08  0.93827000000E+00  0.93827000000E+00 0. -1.
     999902    2    1    2    0    0  0.22684124962E-01 -0.78222518375E-02  0.39147650617E-03  0.10199318667E+01  0.10196494997E+01 0.  0.
     999903    2    3    3    0    0  0.11286098439E+00 -0.66333481512E-02 -0.66653262515E-01  0.13278572511E+00  0.20193768442E-01 0.  0.
         14    1    1    2    0    0 -0.22684124962E-01  0.78222518375E-02 -0.39147650617E-03  0.23998133323E-01  0.00000000000E+00 0.  1.
     999901    1    3    3    0    0 -0.90176859427E-01 -0.11889036862E-02  0.67044739021E-01  0.88714614157E+00  0.88000000000E+00 0.  1.
        -11    1    4    4    0    0  0.93523648433E-01 -0.23363145521E-02 -0.62582011911E-01  0.11255621048E+00  0.51100000000E-03 0. -1.
         11    1    4    4    0    0  0.19337335956E-01 -0.42970335991E-02 -0.40712506041E-02  0.20229514629E-01  0.51100000000E-03 0.  1.
</event>
<event>
 8    1  0.1123191E+005  0.1043930E+01  0.7957747E-01            NaN
         13   -1    0    0    0    0  0.00000000000E+00  0.00000000000E+00  0.74505805969E-08  0.10566000000E+00  0.10566000000E+00 0. -1.
     999900   -1    0    0    0    0 -0.00000000000E+00 -0.00000000000E+00 -0.74505805969E-08  0.93827000000E+00  0.93827000000E+00 0.  1.
     999902    2    1    2    0    0 -0.18303820041E-01 -0.58539446019E-02 -0.12147468768E-02  0.10246745045E+01  0.10244935657E+01 0.  0.
     999903    2    3    3    0    0  0.77046917588E-01 -0.45287909710E-01 -0.97076077332E-01  0.13347520278E+00  0.20115732455E-01 0.  0.
         14    1    1    2    0    0  0.18303820041E-01  0.58539446019E-02  0.12147468768E-02  0.19255495462E-01  0.00000000000E+00 0. -1.
     999901    1    3    3    0    0 -0.95350737630E-01  0.39433965109E-01  0.95861330455E-01  0.89119930175E+00  0.88000000000E+00 0. -1.
        -11    1    4    4    0    0  0.44356217888E-01 -0.15135826563E-01 -0.54836183088E-01  0.72137614375E-01  0.51100000000E-03 0. -1.
         11    1    4    4    0    0  0.32690699700E-01 -0.30152083148E-01 -0.42239894244E-01  0.61337588408E-01  0.51100000000E-03 0.  1.
</event>
<event>
 8    1  0.1123191E+005  0.1043930E+01  0.7957747E-01            NaN
         13   -1    0    0    0    0  0.00000000000E+00  0.00000000000E+00  0.74505805969E-08  0.10566000000E+00  0.10566000000E+00 0.  1.
     999900   -1    0    0    0    0 -0.00000000000E+00 -0.00000000000E+00 -0.74505805969E-08  0.93827000000E+00  0.93827000000E+00 0.  1.
     999902    2    1    2    0    0 -0.53571080514E-02  0.19947044481E-02 -0.27291554162E-01  0.10160461986E+01  0.10156635128E+01 0.  0.
     999903    2    3    3    0    0  0.59836481302E-01  0.41886899653E-01 -0.10455414618E+00  0.12936074170E+00  0.21626723108E-01 0.  0.
         14    1    1    2    0    0  0.53571080514E-02 -0.19947044481E-02  0.27291554162E-01  0.27883801410E-01  0.00000000000E+00 0.  1.
     999901    1    3    3    0    0 -0.65193589354E-01 -0.39892195205E-01  0.77262592021E-01  0.88668545689E+00  0.88000000000E+00 0. -1.
        -11    1    4    4    0    0  0.51318867639E-01  0.29711121705E-01 -0.69991249260E-01  0.91735560296E-01  0.51100000000E-03 0.  1.
         11    1    4    4    0    0  0.85176136631E-02  0.12175777948E-01 -0.34562896923E-01  0.37625181406E-01  0.51100000000E-03 0. -1.
</event>
<event>
 8    1  0.1123191E+005  0.1043930E+01  0.7957747E-01            NaN
         13   -1    0    0    0    0  0.00000000000E+00  0.00000000000E+00  0.74505805969E-08  0.10566000000E+00  0.10566000000E+00 0.  1.
     999900   -1    0    0    0    0 -0.00000000000E+00 -0.00000000000E+00 -0.74505805969E-08  0.93827000000E+00  0.93827000000E+00 0.  1.
     999902    2    1    2    0    0  0.22170446409E-01  0.62226918001E-02  0.45703611054E-02  0.10204536547E+01  0.10201835730E+01 0.  0.
     999903    2    3    3    0    0 -0.11040096044E+00  0.49495363729E-01  0.39579718370E-01  0.12878479402E+00  0.19514250349E-01 0.  0.
         14    1    1    2    0    0 -0.22170446409E-01 -0.62226918001E-02 -0.45703611054E-02  0.23476345283E-01  0.00000000000E+00 0. -1.
     999901    1    3    3    0    0  0.13257140685E+00 -0.43272671929E-01 -0.35009357265E-01  0.89166886070E+00  0.88000000000E+00 0.  1.
        -11    1    4    4    0    0 -0.32284342507E-01  0.20088049420E-01  0.46864031914E-02  0.38314905670E-01  0.51100000000E-03 0.  1.
         11    1    4    4    0    0 -0.78116617932E-01  0.29407314308E-01  0.34893315179E-01  0.90469888345E-01  0.51100000000E-03 0. -1.
</event>
<event>
 8    1  0.1123191E+005  0.1043930E+01  0.7957747E-01            NaN
         13   -1    0    0    0    0  0.00000000000E+00  0.00000000000E+00  0.74505805969E-08  0.10566000000E+00  0.10566000000E+00 0.  1.
     999900   -1    0    0    0    0 -0.00000000000E+00 -0.00000000000E+00 -0.74505805969E-08  0.93827000000E+00  0.93827000000E+00 0.  1.
     999902    2    1    2    0    0 -0.11239036579E-01  0.20074640354E-01  0.45288638719E-02  0.10204818074E+01  0.10202123806E+01 0.  0.
     999903    2    3    3    0    0 -0.62812212645E-01  0.76329521699E-01 -0.85721224856E-01  0.13258007709E+00  0.21395759141E-01 0.  0.
         14    1    1    2    0    0  0.11239036579E-01 -0.20074640354E-01 -0.45288638719E-02  0.23448192608E-01  0.00000000000E+00 0. -1.
     999901    1    3    3    0    0  0.51573176065E-01 -0.56254881345E-01  0.90250088728E-01  0.88790173031E+00  0.88000000000E+00 0. -1.
        -11    1    4    4    0    0 -0.11598594124E-01  0.22602917609E-01 -0.12508998223E-01  0.28322348554E-01  0.51100000000E-03 0. -1.
         11    1    4    4    0    0 -0.51213618521E-01  0.53726604090E-01 -0.73212226633E-01  0.10425772853E+00  0.51100000000E-03 0.  1.
</event>
<event>
 8    1  0.1123191E+005  0.1043930E+01  0.7957747E-01            NaN
         13   -1    0    0    0    0  0.00000000000E+00  0.00000000000E+00  0.74505805969E-08  0.10566000000E+00  0.10566000000E+00 0.  1.
     999900   -1    0    0    0    0 -0.00000000000E+00 -0.00000000000E+00 -0.74505805969E-08  0.93827000000E+00  0.93827000000E+00 0. -1.
     999902    2    1    2    0    0  0.21294617626E-01  0.50597241729E-02  0.97294752807E-02  0.10199774586E+01  0.10196961763E+01 0.  0.
     999903    2    3    3    0    0 -0.76728117315E-01 -0.59280080168E-01  0.83090689862E-01  0.12917448671E+00  0.19510340427E-01 0.  0.
         14    1    1    2    0    0 -0.21294617626E-01 -0.50597241729E-02 -0.97294752807E-02  0.23952541364E-01  0.00000000000E+00 0. -1.
     999901    1    3    3    0    0  0.98022734941E-01  0.64339804341E-01 -0.73361214582E-01  0.89080297193E+00  0.88000000000E+00 0. -1.
        -11    1    4    4    0    0 -0.78823161359E-02 -0.15268826825E-01  0.14501774826E-01  0.22490677499E-01  0.51100000000E-03 0. -1.
         11    1    4    4    0    0 -0.68845801179E-01 -0.44011253343E-01  0.68588915036E-01  0.10668380921E+00  0.51100000000E-03 0.  1.
</event>
<event>
 8    1  0.1123191E+005  0.1043930E+01  0.7957747E-01            NaN
         13   -1    0    0    0    0  0.00000000000E+00  0.00000000000E+00  0.74505805969E-08  0.10566000000E+00  0.10566000000E+00 0. -1.
     999900   -1    0    0    0    0 -0.00000000000E+00 -0.00000000000E+00 -0.74505805969E-08  0.93827000000E+00  0.93827000000E+00 0.  1.
     999902    2    1    2    0    0  0.38883833241E-02  0.17099516296E-01  0.15885653642E-01  0.10202684917E+01  0.10199940824E+01 0.  0.
     999903    2    3    3    0    0  0.13879407008E-01  0.12593728358E+00  0.36258570652E-01  0.13327326293E+00  0.19855511410E-01 0.  0.
         14    1    1    2    0    0 -0.38883833241E-02 -0.17099516296E-01 -0.15885653642E-01  0.23661508280E-01  0.00000000000E+00 0. -1.
     999901    1    3    3    0    0 -0.99910236844E-02 -0.10883776728E+00 -0.20372917009E-01  0.88699522879E+00  0.88000000000E+00 0.  1.
        -11    1    4    4    0    0  0.17401297619E-01  0.90943774516E-01  0.31351355828E-01  0.97758600212E-01  0.51100000000E-03 0.  1.
         11    1    4    4    0    0 -0.35218906105E-02  0.34993509063E-01  0.49072148238E-02  0.35514662723E-01  0.51100000000E-03 0. -1.
</event>
<event>
 8    1  0.1123191E+005  0.1043930E+01  0.7957747E-01            NaN
         13   -1    0    0    0    0  0.00000000000E+00  0.00000000000E+00  0.74505805969E-08  0.10566000000E+00  0.10566000000E+00 0. -1.
     999900   -1    0    0    0    0 -0.00000000000E+00 -0.00000000000E+00 -0.74505805969E-08  0.93827000000E+00  0.93827000000E+00 0.  1.
     999902    2    1    2    0    0  0.21503001493E-01  0.82519520599E-02 -0.66829329322E-02  0.10199480197E+01  0.10196660373E+01 0.  0.
     999903    2    3    3    0    0 -0.96790226431E-01  0.60808629752E-01  0.55740935082E-01  0.12829100525E+00  0.16896532157E-01 0.  0.
         14    1    1    2    0    0 -0.21503001493E-01 -0.82519520599E-02  0.66829329322E-02  0.23981980289E-01  0.00000000000E+00 0.  1.
     999901    1    3    3    0    0  0.11829322792E+00 -0.52556677693E-01 -0.62423868014E-01  0.89165701446E+00  0.88000000000E+00 0. -1.
        -11    1    4    4    0    0 -0.27828634081E-01  0.23996345277E-01  0.24157101733E-01  0.43978223550E-01  0.51100000000E-03 0. -1.
         11    1    4    4    0    0 -0.68961592350E-01  0.36812284475E-01  0.31583833349E-01  0.84312781698E-01  0.51100000000E-03 0.  1.
</event>
<event>
 8    1  0.1123191E+005  0.1043930E+01  0.7957747E-01            NaN
         13   -1    0    0    0    0  0.00000000000E+00  0.00000000000E+00  0.74505805969E-08  0.10566000000E+00  0.10566000000E+00 0. -1.
     999900   -1    0    0    0    0 -0.00000000000E+00 -0.00000000000E+00 -0.74505805969E-08  0.93827000000E+00  0.93827000000E+00 0. -1.
     999902    2    1    2    0    0 -0.90295562515E-02  0.80599256820E-02 -0.19206129036E-01  0.10212282230E+01  0.10209758629E+01 0.  0.
     999903    2    3    3    0    0  0.16658425568E-01 -0.11191263263E+00  0.59201193090E-01  0.12926354019E+00  0.20058441478E-01 0.  0.
         14    1    1    2    0    0  0.90295562515E-02 -0.80599256820E-02  0.19206129036E-01  0.22701777037E-01  0.00000000000E+00 0. -1.
     999901    1    3    3    0    0 -0.25687981820E-01  0.11997255831E+00 -0.78407322126E-01  0.89196468278E+00  0.88000000000E+00 0. -1.
        -11    1    4    4    0    0  0.17316084747E-01 -0.76769458386E-01  0.32620972670E-01  0.85192637656E-01  0.51100000000E-03 0. -1.
         11    1    4    4    0    0 -0.65765917893E-03 -0.35143174240E-01  0.26580220421E-01  0.44070902531E-01  0.51100000000E-03 0.  1.
</event>
<event>
 8    1  0.1123191E+005  0.1043930E+01  0.7957747E-01            NaN
         13   -1    0    0    0    0  0.00000000000E+00  0.00000000000E+00  0.74505805969E-08  0.10566000000E+00  0.10566000000E+00 0.  1.
     999900   -1    0    0    0    0 -0.00000000000E+00 -0.00000000000E+00 -0.74505805969E-08  0.93827000000E+00  0.93827000000E+00 0. -1.
     999902    2    1    2    0    0 -0.22160001701E-01  0.69316409089E-02  0.58438343084E-02  0.10199870737E+01  0.10197060198E+01 0.  0.
     999903    2    3    3    0    0  0.15424711407E-01  0.72956238507E-01  0.10584387184E+00  0.13107095523E+00  0.20399402894E-01 0.  0.
         14    1    1    2    0    0  0.22160001701E-01 -0.69316409089E-02 -0.58438343084E-02  0.23942926314E-01  0.00000000000E+00 0.  1.
     999901    1    3    3    0    0 -0.37584713108E-01 -0.66024597598E-01 -0.10000003754E+00  0.88891611846E+00  0.88000000000E+00 0. -1.
        -11    1    4    4    0    0  0.20128904575E-01  0.50786917286E-01  0.75627697133E-01  0.93296803061E-01  0.51100000000E-03 0. -1.
         11    1    4    4    0    0 -0.47041931682E-02  0.22169321221E-01  0.30216174710E-01  0.37774152166E-01  0.51100000000E-03 0.  1.
</event>
<event>
 8    1  0.1123191E+005  0.1043930E+01  0.7957747E-01            NaN
         13   -1    0    0    0    0  0.00000000000E+00  0.00000000000E+00  0.74505805969E-08  0.10566000000E+00  0.10566000000E+00 0.  1.
     999900   -1    0    0    0    0 -0.00000000000E+00 -0.00000000000E+00 -0.74505805969E-08  0.93827000000E+00  0.93827000000E+00 0.  1.
     999902    2    1    2    0    0  0.14926254919E-01  0.10060419793E-01  0.14637355734E-01  0.10207296268E+01  0.10204659297E+01 0.  0.
     999903    2    3    3    0    0  0.10451578683E+00 -0.25596813594E-01  0.76180985288E-01  0.13332591889E+00  0.19837125949E-01 0.  0.
         14    1    1    2    0    0 -0.14926254919E-01 -0.10060419793E-01 -0.14637355734E-01  0.23200373170E-01  0.00000000000E+00 0. -1.
     999901    1    3    3    0    0 -0.89589531913E-01  0.35657233387E-01 -0.61543629554E-01  0.88740370794E+00  0.88000000000E+00 0. -1.
        -11    1    4    4    0    0  0.49632265755E-01 -0.88136425077E-02  0.47072450718E-01  0.68971869888E-01  0.51100000000E-03 0. -1.
         11    1    4    4    0    0  0.54883521078E-01 -0.16783171086E-01  0.29108534569E-01  0.64354049005E-01  0.51100000000E-03 0.  1.
</event>
<event>
 8    1  0.1123191E+005  0.1043930E+01  0.7957747E-01            NaN
         13   -1    0    0    0    0  0.00000000000E+00  0.00000000000E+00  0.74505805969E-08  0.10566000000E+00  0.10566000000E+00 0. -1.
     999900   -1    0    0    0    0 -0.00000000000E+00 -0.00000000000E+00 -0.74505805969E-08  0.93827000000E+00  0.93827000000E+00 0. -1.
     999902    2    1    2    0    0  0.15843103709E-02  0.18302818070E-01  0.15093178209E-01  0.10201538099E+01  0.10198767026E+01 0.  0.
     999903    2    3    3    0    0  0.10196309709E-01 -0.86997654690E-01  0.94651313374E-01  0.13027075409E+00  0.18413082148E-01 0.  0.
         14    1    1    2    0    0 -0.15843103709E-02 -0.18302818070E-01 -0.15093178209E-01  0.23776190130E-01  0.00000000000E+00 0.  1.
     999901    1    3    3    0    0 -0.86119993378E-02  0.10530047276E+00 -0.79558135165E-01  0.88988305578E+00  0.88000000000E+00 0. -1.
        -11    1    4    4    0    0  0.35729219999E-02 -0.45231342254E-01  0.35787383089E-01  0.57789601168E-01  0.51100000000E-03 0. -1.
         11    1    4    4    0    0  0.66233877088E-02 -0.41766312436E-01  0.58863930284E-01  0.72481152921E-01  0.51100000000E-03 0.  1.
</event>
<event>
 8    1  0.1123191E+005  0.1043930E+01  0.7957747E-01            NaN
         13   -1    0    0    0    0  0.00000000000E+00  0.00000000000E+00  0.74505805969E-08  0.10566000000E+00  0.10566000000E+00 0. -1.
     999900   -1    0    0    0    0 -0.00000000000E+00 -0.00000000000E+00 -0.74505805969E-08  0.93827000000E+00  0.93827000000E+00 0.  1.
     999902    2    1    2    0    0  0.13229069415E-01 -0.11290253693E-01 -0.15189581770E-01  0.10208388437E+01  0.10205776518E+01 0.  0.
     999903    2    3    3    0    0 -0.39707746587E-01  0.64178566706E-01  0.10231887717E+00  0.12825490518E+00  0.16869336487E-01 0.  0.
         14    1    1    2    0    0 -0.13229069415E-01  0.11290253693E-01  0.15189581770E-01  0.23091156324E-01  0.00000000000E+00 0. -1.
     999901    1    3    3    0    0  0.52936816002E-01 -0.75468820399E-01 -0.11750845894E+00  0.89258393850E+00  0.88000000000E+00 0.  1.
        -11    1    4    4    0    0 -0.42704099368E-02  0.19465226781E-01  0.31988621074E-01  0.37691702720E-01  0.51100000000E-03 0.  1.
         11    1    4    4    0    0 -0.35437336650E-01  0.44713339925E-01  0.70330256096E-01  0.90563202459E-01  0.51100000000E-03 0. -1.
</event>
<event>
 8    1  0.1123191E+005  0.1043930E+01  0.7957747E-01            NaN
         13   -1    0    0    0    0  0.00000000000E+00  0.00000000000E+00  0.74505805969E-08  0.10566000000E+00  0.10566000000E+00 0. -1.
     999900   -1    0    0    0    0 -0.00000000000E+00 -0.00000000000E+00 -0.74505805969E-08  0.93827000000E+00  0.93827000000E+00 0.  1.
     999902    2    1    2    0    0 -0.20674574140E-01 -0.57728449496E-02  0.91704026945E-02  0.10205877627E+01  0.10203207934E+01 0.  0.
     999903    2    3    3    0    0  0.89717619963E-01  0.76230331893E-01 -0.45549549964E-01  0.12822840085E+00  0.22526572104E-01 0.  0.
         14    1    1    2    0    0  0.20674574140E-01  0.57728449496E-02 -0.91704026945E-02  0.23342237260E-01  0.00000000000E+00 0.  1.
     999901    1    3    3    0    0 -0.11039219410E+00 -0.82003176842E-01  0.54719952658E-01  0.89235936189E+00  0.88000000000E+00 0.  1.
        -11    1    4    4    0    0  0.68936386807E-01  0.69628193085E-01 -0.38958420650E-01  0.10544349368E+00  0.51100000000E-03 0. -1.
         11    1    4    4    0    0  0.20781233156E-01  0.66021388078E-02 -0.65911293144E-02  0.22784907175E-01  0.51100000000E-03 0.  1.
</event>
<event>
 8    1  0.1123191E+005  0.1043930E+01  0.7957747E-01            NaN
         13   -1    0    0    0    0  0.00000000000E+00  0.00000000000E+00  0.74505805969E-08  0.10566000000E+00  0.10566000000E+00 0. -1.
     999900   -1    0    0    0    0 -0.00000000000E+00 -0.00000000000E+00 -0.74505805969E-08  0.93827000000E+00  0.93827000000E+00 0. -1.
     999902    2    1    2    0    0 -0.24558272608E-01  0.36350389869E-02 -0.47101503151E-02  0.10186612886E+01  0.10183478350E+01 0.  0.
     999903    2    3    3    0    0  0.10021968275E-01 -0.12389167338E+00 -0.24727914731E-01  0.12857164907E+00  0.21670546789E-01 0.  0.
         14    1    1    2    0    0  0.24558272608E-01 -0.36350389869E-02  0.47101503151E-02  0.25268711441E-01  0.00000000000E+00 0. -1.
     999901    1    3    3    0    0 -0.34580240883E-01  0.12752671236E+00  0.20017764416E-01  0.89008963948E+00  0.88000000000E+00 0.  1.
        -11    1    4    4    0    0  0.14702427493E-01 -0.62406188756E-01 -0.75596190613E-02  0.64560845181E-01  0.51100000000E-03 0. -1.
         11    1    4    4    0    0 -0.46804592188E-02 -0.61485484622E-01 -0.17168295669E-01  0.64010803892E-01  0.51100000000E-03 0.  1.
</event>
<event>
 8    1  0.1123191E+005  0.1043930E+01  0.7957747E-01            NaN
         13   -1    0    0    0    0  0.00000000000E+00  0.00000000000E+00  0.74505805969E-08  0.10566000000E+00  0.10566000000E+00 0. -1.
     999900   -1    0    0    0    0 -0.00000000000E+00 -0.00000000000E+00 -0.74505805969E-08  0.93827000000E+00  0.93827000000E+00 0.  1.
     999902    2    1    2    0    0  0.17364916546E-02 -0.11385482725E-01  0.20514406715E-01  0.10204037274E+01  0.10201324823E+01 0.  0.
     999903    2    3    3    0    0 -0.10773394903E+00  0.67571824158E-01 -0.13625302211E-01  0.12945841289E+00  0.20031889942E-01 0.  0.
         14    1    1    2    0    0 -0.17364916546E-02  0.11385482725E-01 -0.20514406715E-01  0.23526272612E-01  0.00000000000E+00 0.  1.
     999901    1    3    3    0    0  0.10947044069E+00 -0.78957306883E-01  0.34139708926E-01  0.89094531449E+00  0.88000000000E+00 0. -1.
        -11    1    4    4    0    0 -0.49437592659E-01  0.27505741231E-01 -0.15613397901E-01  0.58691402127E-01  0.51100000000E-03 0. -1.
         11    1    4    4    0    0 -0.58296356372E-01  0.40066082927E-01  0.19880956898E-02  0.70767010767E-01  0.51100000000E-03 0.  1.
</event>
<event>
 8    1  0.1123191E+005  0.1043930E+01  0.7957747E-01            NaN
         13   -1    0    0    0    0  0.00000000000E+00  0.00000000000E+00  0.74505805969E-08  0.10566000000E+00  0.10566000000E+00 0.  1.
     999900   -1    0    0    0    0 -0.00000000000E+00 -0.00000000000E+00 -0.74505805969E-08  0.93827000000E+00  0.93827000000E+00 0.  1.
     999902    2    1    2    0    0  0.15611050984E-01 -0.78787165586E-02 -0.15274961764E-01  0.10207113966E+01  0.10204472802E+01 0.  0.
     999903    2    3    3    0    0  0.59928395313E-01  0.78959594789E-01 -0.85674385704E-01  0.13253292454E+00  0.19971117811E-01 0.  0.
         14    1    1    2    0    0 -0.15611050984E-01  0.78787165586E-02  0.15274961764E-01  0.23218603411E-01  0.00000000000E+00 0.  1.
     999901    1    3    3    0    0 -0.44317344329E-01 -0.86838311347E-01  0.70399423940E-01  0.88817847205E+00  0.88000000000E+00 0. -1.
        -11    1    4    4    0    0  0.25081946648E-01  0.48140837385E-01 -0.40943343668E-01  0.67994579075E-01  0.51100000000E-03 0. -1.
         11    1    4    4    0    0  0.34846448664E-01  0.30818757404E-01 -0.44731042036E-01  0.64538345463E-01  0.51100000000E-03 0.  1.
</event>
<event>
 8    1  0.1123191E+005  0.1043930E+01  0.7957747E-01            NaN
         13   -1    0    0    0    0  0.00000000000E+00  0.00000000000E+00  0.74505805969E-08  0.10566000000E+00  0.10566000000E+00 0. -1.
     999900   -1    0    0    0    0 -0.00000000000E+00 -0.00000000000E+00 -0.74505805969E-08  0.93827000000E+00  0.93827000000E+00 0.  1.
     999902    2    1    2    0    0  0.59022202534E-02  0.17465701703E-01  0.12967570357E-01  0.10213901504E+01  0.10211414175E+01 0.  0.
     999903    2    3    3    0    0  0.93402866330E-01 -0.31343350570E-02 -0.89425174236E-01  0.13090432864E+00  0.20128635683E-01 0.  0.
         14    1    1    2    0    0 -0.59022202534E-02 -0.17465701703E-01 -0.12967570357E-01  0.22539849619E-01  0.00000000000E+00 0.  1.
     999901    1    3    3    0    0 -0.87500646076E-01  0.20600036760E-01  0.10239274459E+00  0.89048582174E+00  0.88000000000E+00 0. -1.
        -11    1    4    4    0    0  0.39711597448E-01  0.85281862306E-02 -0.36323652620E-01  0.54492291133E-01  0.51100000000E-03 0. -1.
         11    1    4    4    0    0  0.53691268882E-01 -0.11662521288E-01 -0.53101521616E-01  0.76412037506E-01  0.51100000000E-03 0.  1.
</event>
<event>
 8    1  0.1123191E+005  0.1043930E+01  0.7957747E-01            NaN
         13   -1    0    0    0    0  0.00000000000E+00  0.00000000000E+00  0.74505805969E-08  0.10566000000E+00  0.10566000000E+00 0. -1.
     999900   -1    0    0    0    0 -0.00000000000E+00 -0.00000000000E+00 -0.74505805969E-08  0.93827000000E+00  0.93827000000E+00 0. -1.
     999902    2    1    2    0    0 -0.19318376939E-01  0.11564203935E-01  0.70671178266E-02  0.10203318082E+01  0.10200588827E+01 0.  0.
     999903    2    3    3    0    0 -0.11529839109E+00 -0.56363266470E-01  0.23511161455E-01  0.13235843537E+00  0.22258569218E-01 0.  0.
         14    1    1    2    0    0  0.19318376939E-01 -0.11564203935E-01 -0.70671178266E-02  0.23598191765E-01  0.00000000000E+00 0. -1.
     999901    1    3    3    0    0  0.95980014155E-01  0.67927470405E-01 -0.16444043628E-01  0.88797337287E+00  0.88000000000E+00 0.  1.
        -11    1    4    4    0    0 -0.38679136993E-01 -0.78878617479E-02  0.46703502661E-02  0.39753833703E-01  0.51100000000E-03 0. -1.
         11    1    4    4    0    0 -0.76619254101E-01 -0.48475404722E-01  0.18840811189E-01  0.92604601663E-01  0.51100000000E-03 0.  1.
</event>
<event>
 8    1  0.1123191E+005  0.1043930E+01  0.7957747E-01            NaN
         13   -1    0    0    0    0  0.00000000000E+00  0.00000000000E+00  0.74505805969E-08  0.10566000000E+00  0.10566000000E+00 0.  1.
     999900   -1    0    0    0    0 -0.00000000000E+00 -0.00000000000E+00 -0.74505805969E-08  0.93827000000E+00  0.93827000000E+00 0.  1.
     999902    2    1    2    0    0 -0.20310859968E-01 -0.53549958982E-02  0.98870751924E-02  0.10207144606E+01  0.10204504147E+01 0.  0.
     999903    2    3    3    0    0 -0.45647618280E-01 -0.86723023661E-01 -0.85229387336E-01  0.13149578744E+00  0.20554944905E-01 0.  0.
         14    1    1    2    0    0  0.20310859968E-01  0.53549958982E-02 -0.98870751924E-02  0.23215539398E-01  0.00000000000E+00 0.  1.
     999901    1    3    3    0    0  0.25336758312E-01  0.81368027763E-01  0.95116462528E-01  0.88921867317E+00  0.88000000000E+00 0. -1.
        -11    1    4    4    0    0 -0.86804073914E-02 -0.17046725098E-01 -0.69250261800E-02  0.20350857910E-01  0.51100000000E-03 0.  1.
         11    1    4    4    0    0 -0.36967210889E-01 -0.69676298563E-01 -0.78304361156E-01  0.11114492953E+00  0.51100000000E-03 0. -1.
</event>
<event>
 8    1  0.1123191E+005  0.1043930E+01  0.7957747E-01            NaN
         13   -1    0    0    0    0  0.00000000000E+00  0.00000000000E+00  0.74505805969E-08  0.10566000000E+00  0.10566000000E+00 0.  1.
     999900   -1    0    0    0    0 -0.00000000000E+00 -0.00000000000E+00 -0.74505805969E-08  0.93827000000E+00  0.93827000000E+00 0. -1.
     999902    2    1    2    0    0  0.13304247049E-01 -0.49850397482E-02  0.18481950722E-01  0.10206182838E+01  0.10203520202E+01 0.  0.
     999903    2    3    3    0    0  0.33900595444E-01  0.11906994391E+00  0.39345213789E-01  0.13143375608E+00  0.19997111680E-01 0.  0.
         14    1    1    2    0    0 -0.13304247049E-01  0.49850397482E-02 -0.18481950722E-01  0.23311716225E-01  0.00000000000E+00 0. -1.
     999901    1    3    3    0    0 -0.20596348395E-01 -0.12405498366E+00 -0.20863263067E-01  0.88918452769E+00  0.88000000000E+00 0.  1.
        -11    1    4    4    0    0  0.93843583603E-02  0.60930945388E-01  0.12732952507E-01  0.62952644807E-01  0.51100000000E-03 0. -1.
         11    1    4    4    0    0  0.24516237084E-01  0.58138998526E-01  0.26612261282E-01  0.68481111278E-01  0.51100000000E-03 0.  1.
</event>
<event>
 8    1  0.1123191E+005  0.1043930E+01  0.7957747E-01            NaN
         13   -1    0    0    0    0  0.00000000000E+00  0.00000000000E+00  0.74505805969E-08  0.10566000000E+00  0.10566000000E+00 0.  1.
     999900   -1    0    0    0    0 -0.00000000000E+00 -0.00000000000E+00 -0.74505805969E-08  0.93827000000E+00  0.93827000000E+00 0.  1.
     999902    2    1    2    0    0 -0.64971580706E-03  0.23112079179E-01  0.23507233561E-02  0.10206895991E+01  0.10204249808E+01 0.  0.
     999903    2    3    3    0    0  0.91877420752E-01 -0.29464424361E-01  0.85421570749E-01  0.13039395975E+00  0.19902945589E-01 0.  0.
         14    1    1    2    0    0  0.64971580706E-03 -0.23112079179E-01 -0.23507233561E-02  0.23240400920E-01  0.00000000000E+00 0.  1.
     999901    1    3    3    0    0 -0.92527136559E-01  0.52576503540E-01 -0.83070847393E-01  0.89029563933E+00  0.88000000000E+00 0.  1.
        -11    1    4    4    0    0  0.42040108707E-01 -0.82934377875E-02  0.49200487038E-01  0.65246462710E-01  0.51100000000E-03 0.  1.
         11    1    4    4    0    0  0.49837312045E-01 -0.21170986573E-01  0.36221083711E-01  0.65147497040E-01  0.51100000000E-03 0. -1.
</event>
<event>
 8    1  0.1123191E+005  0.1043930E+01  0.7957747E-01            NaN
         13   -1    0    0    0    0  0.00000000000E+00  0.00000000000E+00  0.74505805969E-08  0.10566000000E+00  0.10566000000E+00 0. -1.
     999900   -1    0    0    0    0 -0.00000000000E+00 -0.00000000000E+00 -0.74505805969E-08  0.93827000000E+00  0.93827000000E+00 0.  1.
     999902    2    1    2    0    0 -0.17506881045E-01 -0.14026682996E-01 -0.64098595126E-02  0.10205992259E+01  0.10203325218E+01 0.  0.
     999903    2    3    3    0    0 -0.87075612359E-01 -0.68589502624E-01  0.70672740194E-01  0.13281623621E+00  0.18942920995E-01 0.  0.
         14    1    1    2    0    0  0.17506881045E-01  0.14026682996E-01  0.64098595126E-02  0.23330774071E-01  0.00000000000E+00 0.  1.
     999901    1    3    3    0    0  0.69568731314E-01  0.54562819628E-01 -0.77082599706E-01  0.88778298972E+00  0.88000000000E+00 0. -1.
        -11    1    4    4    0    0 -0.20448638795E-01 -0.74617512985E-02  0.17371367343E-01  0.27854085614E-01  0.51100000000E-03 0. -1.
         11    1    4    4    0    0 -0.66626973564E-01 -0.61127751325E-01  0.53301372850E-01  0.10496215059E+00  0.51100000000E-03 0.  1.
</event>
<event>
 7    1  0.1123191E+005  0.1043930E+01  0.7957747E-01            NaN
         13   -1    0    0    0    0  0.00000000000E+00  0.00000000000E+00  0.74505805969E-08  0.10566000000E+00  0.10566000000E+00 0.  1.
     999900   -1    0    0    0    0 -0.00000000000E+00 -0.00000000000E+00 -0.74505805969E-08  0.93827000000E+00  0.93827000000E+00 0. -1.
     999903    2    1    2    0    0 -0.12093530158E-01  0.10316942104E+00  0.27329725821E-01  0.10924956583E+00  0.19959228685E-01 0.  0.
         14    1    1    2    0    0 -0.19363036046E-01 -0.24507182890E-01  0.36825458682E-01  0.48287095432E-01  0.00000000000E+00 0.  1.
     999901    1    1    2    0    0  0.31456566204E-01 -0.78662238152E-01 -0.64155184503E-01  0.88639333874E+00  0.88000000000E+00 0. -1.
        -11    1    3    3    0    0 -0.81609459049E-02  0.42344180099E-01  0.17978589654E-02  0.43163920630E-01  0.51100000000E-03 0.  1.
         11    1    3    3    0    0 -0.39325842533E-02  0.60825240943E-01  0.25531866856E-01  0.66085645195E-01  0.51100000000E-03 0. -1.
</event>
<event>
 8    1  0.1123191E+005  0.1043930E+01  0.7957747E-01            NaN
         13   -1    0    0    0    0  0.00000000000E+00  0.00000000000E+00  0.74505805969E-08  0.10566000000E+00  0.10566000000E+00 0. -1.
     999900   -1    0    0    0    0 -0.00000000000E+00 -0.00000000000E+00 -0.74505805969E-08  0.93827000000E+00  0.93827000000E+00 0. -1.
     999902    2    1    2    0    0  0.21466059810E-01  0.82815578088E-02  0.72384158629E-02  0.10198100790E+01  0.10195248044E+01 0.  0.
     999903    2    3    3    0    0 -0.84677950495E-01 -0.54694915164E-01 -0.75397821004E-01  0.12736325444E+00  0.19356604159E-01 0.  0.
         14    1    1    2    0    0 -0.21466059810E-01 -0.82815578088E-02 -0.72384158629E-02  0.24119920973E-01  0.00000000000E+00 0. -1.
     999901    1    3    3    0    0  0.10614401031E+00  0.62976472973E-01  0.82636236867E-01  0.89244682459E+00  0.88000000000E+00 0. -1.
        -11    1    4    4    0    0 -0.41889907807E-01 -0.15654470016E-01 -0.33136924706E-01  0.55660971134E-01  0.51100000000E-03 0. -1.
         11    1    4    4    0    0 -0.42788042688E-01 -0.39040445148E-01 -0.42260896298E-01  0.71702283306E-01  0.51100000000E-03 0.  1.
</event>
<event>
 8    1  0.1123191E+005  0.1043930E+01  0.7957747E-01            NaN
         13   -1    0    0    0    0  0.00000000000E+00  0.00000000000E+00  0.74505805969E-08  0.10566000000E+00  0.10566000000E+00 0.  1.
     999900   -1    0    0    0    0 -0.00000000000E+00 -0.00000000000E+00 -0.74505805969E-08  0.93827000000E+00  0.93827000000E+00 0.  1.
     999902    2    1    2    0    0 -0.27400254922E-01 -0.11238216752E-01  0.23701195587E-02  0.10142199183E+01  0.10137846684E+01 0.  0.
     999903    2    3    3    0    0 -0.54974947137E-01 -0.72067133810E-01  0.87409594512E-01  0.12760149246E+00  0.20634608745E-01 0.  0.
         14    1    1    2    0    0  0.27400254922E-01  0.11238216752E-01 -0.23701195587E-02  0.29710081660E-01  0.00000000000E+00 0.  1.
     999901    1    3    3    0    0  0.27574692216E-01  0.60828917058E-01 -0.85039474954E-01  0.88661842588E+00  0.88000000000E+00 0.  1.
        -11    1    4    4    0    0 -0.27308398926E-01 -0.51471179435E-01  0.58869879071E-01  0.82830880396E-01  0.51100000000E-03 0. -1.
         11    1    4    4    0    0 -0.27666548211E-01 -0.20595954375E-01  0.28539715442E-01  0.44770612069E-01  0.51100000000E-03 0.  1.
</event>
<event>
 8    1  0.1123191E+005  0.1043930E+01  0.7957747E-01            NaN
         13   -1    0    0    0    0  0.00000000000E+00  0.00000000000E+00  0.74505805969E-08  0.10566000000E+00  0.10566000000E+00 0.  1.
     999900   -1    0    0    0    0 -0.00000000000E+00 -0.00000000000E+00 -0.74505805969E-08  0.93827000000E+00  0.93827000000E+00 0. -1.
     999902    2    1    2    0    0 -0.12254613822E-01 -0.15532562615E-01  0.11698030501E-01  0.10209456580E+01  0.10206869043E+01 0.  0.
     999903    2    3    3    0    0  0.95992096977E-01 -0.21478342914E-01  0.84643306477E-01  0.13129757249E+00  0.19969008817E-01 0.  0.
         14    1    1    2    0    0  0.12254613822E-01  0.15532562615E-01 -0.11698030501E-01  0.22984342038E-01  0.00000000000E+00 0. -1.
     999901    1    3    3    0    0 -0.10824671080E+00  0.59457802993E-02 -0.72945275976E-01  0.88964808548E+00  0.88000000000E+00 0.  1.
        -11    1    4    4    0    0  0.16136613683E-01 -0.73656563474E-02  0.71554193816E-02  0.19133853300E-01  0.51100000000E-03 0. -1.
         11    1    4    4    0    0  0.79855483294E-01 -0.14112686567E-01  0.77487887095E-01  0.11216371919E+00  0.51100000000E-03 0.  1.
</event>
<event>
 8    1  0.1123191E+005  0.1043930E+01  0.7957747E-01            NaN
         13   -1    0    0    0    0  0.00000000000E+00  0.00000000000E+00  0.74505805969E-08  0.10566000000E+00  0.10566000000E+00 0.  1.
     999900   -1    0    0    0    0 -0.00000000000E+00 -0.00000000000E+00 -0.74505805969E-08  0.93827000000E+00  0.93827000000E+00 0.  1.
     999902    2    1    2    0    0  0.12285449253E-01 -0.16121548877E-01 -0.11639217528E-01  0.10205567677E+01  0.10202890807E+01 0.  0.
     999903    2    3    3    0    0  0.61945309001E-01 -0.77209553097E-01 -0.87549640548E-01  0.13378721580E+00  0.20869670682E-01 0.  0.
         14    1    1    2    0    0 -0.12285449253E-01  0.16121548877E-01  0.11639217528E-01  0.23373232259E-01  0.00000000000E+00 0.  1.
     999901    1    3    3    0    0 -0.49659859748E-01  0.61088004220E-01  0.75910423020E-01  0.88676955194E+00  0.88000000000E+00 0. -1.
        -11    1    4    4    0    0  0.20499606534E-01 -0.16827680265E-01 -0.14011663291E-01  0.29999875339E-01  0.51100000000E-03 0.  1.
         11    1    4    4    0    0  0.41445702467E-01 -0.60381872832E-01 -0.73537977257E-01  0.10378734046E+00  0.51100000000E-03 0. -1.
</event>
<event>
 8    1  0.1123191E+005  0.1043930E+01  0.7957747E-01            NaN
         13   -1    0    0    0    0  0.00000000000E+00  0.00000000000E+00  0.74505805969E-08  0.10566000000E+00  0.10566000000E+00 0. -1.
     999900   -1    0    0    0    0 -0.00000000000E+00 -0.00000000000E+00 -0.74505805969E-08  0.93827000000E+00  0.93827000000E+00 0. -1.
     999902    2    1    2    0    0  0.19260812826E-01 -0.11501137582E-01  0.80341830548E-02  0.10201013791E+01  0.10198230339E+01 0.  0.
     999903    2    3    3    0    0  0.47592055888E-02 -0.25634658944E-01 -0.12569059853E+00  0.12976864903E+00  0.19026033098E-01 0.  0.
         14    1    1    2    0    0 -0.19260812826E-01  0.11501137582E-01 -0.80341830548E-02  0.23828620895E-01  0.00000000000E+00 0. -1.
     999901    1    3    3    0    0  0.14501607238E-01  0.14133521362E-01  0.13372478158E+00  0.89033273008E+00  0.88000000000E+00 0.  1.
        -11    1    4    4    0    0  0.48665238672E-02 -0.45994804722E-02 -0.68528526871E-01  0.68856796261E-01  0.51100000000E-03 0.  1.
         11    1    4    4    0    0 -0.10731827837E-03 -0.21035178471E-01 -0.57162071655E-01  0.60911852766E-01  0.51100000000E-03 0. -1.
</event>
<event>
 8    1  0.1123191E+005  0.1043930E+01  0.7957747E-01            NaN
         13   -1    0    0    0    0  0.00000000000E+00  0.00000000000E+00  0.74505805969E-08  0.10566000000E+00  0.10566000000E+00 0. -1.
     999900   -1    0    0    0    0 -0.00000000000E+00 -0.00000000000E+00 -0.74505805969E-08  0.93827000000E+00  0.93827000000E+00 0.  1.
     999902    2    1    2    0    0 -0.76673472920E-02 -0.13174693208E-02 -0.30798963877E-01  0.10121636638E+01  0.10116650544E+01 0.  0.
     999903    2    3    3    0    0  0.11421286033E+00  0.16278313138E-01 -0.40992046764E-01  0.12353084001E+00  0.16430447119E-01 0.  0.
         14    1    1    2    0    0  0.76673472920E-02  0.13174693208E-02  0.30798963877E-01  0.31766336204E-01  0.00000000000E+00 0. -1.
     999901    1    3    3    0    0 -0.12188020762E+00 -0.17595782459E-01  0.10193082886E-01  0.88863282379E+00  0.88000000000E+00 0. -1.
        -11    1    4    4    0    0  0.55662253818E-01  0.94968134867E-03 -0.14986595027E-01  0.57654553561E-01  0.51100000000E-03 0.  1.
         11    1    4    4    0    0  0.58550606511E-01  0.15328631789E-01 -0.26005451736E-01  0.65876286449E-01  0.51100000000E-03 0. -1.
</event>
<event>
 8    1  0.1123191E+005  0.1043930E+01  0.7957747E-01            NaN
         13   -1    0    0    0    0  0.00000000000E+00  0.00000000000E+00  0.74505805969E-08  0.10566000000E+00  0.10566000000E+00 0.  1.
     999900   -1    0    0    0    0 -0.00000000000E+00 -0.00000000000E+00 -0.74505805969E-08  0.93827000000E+00  0.93827000000E+00 0. -1.
     999902    2    1    2    0    0 -0.15742929567E-01 -0.48910318003E-02 -0.18060790425E-01  0.10194768985E+01  0.10191835911E+01 0.  0.
     999903    2    3    3    0    0  0.22510024430E-01  0.10894289592E+00  0.59765692461E-01  0.12791735866E+00  0.20387664915E-01 0.  0.
         14    1    1    2    0    0  0.15742929567E-01  0.48910318003E-02  0.18060790425E-01  0.24453101525E-01  0.00000000000E+00 0.  1.
     999901    1    3    3    0    0 -0.38252953996E-01 -0.11383392772E+00 -0.77826482887E-01  0.89155953981E+00  0.88000000000E+00 0. -1.
        -11    1    4    4    0    0  0.21491865883E-01  0.56284584460E-01  0.28325334276E-01  0.66576575684E-01  0.51100000000E-03 0. -1.
         11    1    4    4    0    0  0.10181585463E-02  0.52658311461E-01  0.31440358185E-01  0.61340782980E-01  0.51100000000E-03 0.  1.
</event>
<event>
 8    1  0.1123191E+005  0.1043930E+01  0.7957747E-01            NaN
         13   -1    0    0    0    0  0.00000000000E+00  0.00000000000E+00  0.74505805969E-08  0.10566000000E+00  0.10566000000E+00 0.  1.
     999900   -1    0    0    0    0 -0.00000000000E+00 -0.00000000000E+00 -0.74505805969E-08  0.93827000000E+00  0.93827000000E+00 0.  1.
     999902    2    1    2    0    0 -0.11311181103E-02  0.72912691121E-02  0.21740055253E-01  0.10209719505E+01  0.10207137952E+01 0.  0.
     999903    2    3    3    0    0  0.25270644018E-01 -0.97372652114E-01 -0.77862290745E-01  0.12879920000E+00  0.20165782181E-01 0.  0.
         14    1    1    2    0    0  0.11311181103E-02 -0.72912691121E-02 -0.21740055253E-01  0.22958049479E-01  0.00000000000E+00 0. -1.
     999901    1    3    3    0    0 -0.26401762128E-01  0.10466392123E+00  0.99602345998E-01  0.89217275052E+00  0.88000000000E+00 0. -1.
        -11    1    4    4    0    0  0.58264024063E-02 -0.14274722405E-01 -0.21734154014E-01  0.26652377688E-01  0.51100000000E-03 0. -1.
         11    1    4    4    0    0  0.19444241612E-01 -0.83097929710E-01 -0.56128136730E-01  0.10214682231E+00  0.51100000000E-03 0.  1.
</event>
<event>
 8    1  0.1123191E+005  0.1043930E+01  0.7957747E-01            NaN
         13   -1    0    0    0    0  0.00000000000E+00  0.00000000000E+00  0.74505805969E-08  0.10566000000E+00  0.10566000000E+00 0.  1.
     999900   -1    0    0    0    0 -0.00000000000E+00 -0.00000000000E+00 -0.74505805969E-08  0.93827000000E+00  0.93827000000E+00 0.  1.
     999902    2    1    2    0    0  0.14658470776E-01 -0.16566843601E-01  0.61792402031E-02  0.10209623253E+01  0.10207039510E+01 0.  0.
     999903    2    3    3    0    0 -0.38012876961E-01  0.26897911512E-01 -0.11966429439E+00  0.12939065065E+00  0.15934888291E-01 0.  0.
         14    1    1    2    0    0 -0.14658470776E-01  0.16566843601E-01 -0.61792402031E-02  0.22967674717E-01  0.00000000000E+00 0. -1.
     999901    1    3    3    0    0  0.52671347737E-01 -0.43464755113E-01  0.12584353459E+00  0.89157167463E+00  0.88000000000E+00 0. -1.
        -11    1    4    4    0    0 -0.12050400581E-01  0.18193093702E-01 -0.53676442947E-01  0.57944995134E-01  0.51100000000E-03 0. -1.
         11    1    4    4    0    0 -0.25962476379E-01  0.87048178099E-02 -0.65987851445E-01  0.71445655516E-01  0.51100000000E-03 0.  1.
</event>
<event>
 8    1  0.1123191E+005  0.1043930E+01  0.7957747E-01            NaN
         13   -1    0    0    0    0  0.00000000000E+00  0.00000000000E+00  0.74505805969E-08  0.10566000000E+00  0.10566000000E+00 0.  1.
     999900   -1    0    0    0    0 -0.00000000000E+00 -0.00000000000E+00 -0.74505805969E-08  0.93827000000E+00  0.93827000000E+00 0. -1.
     999902    2    1    2    0    0 -0.57000253899E-02 -0.67910039368E-02 -0.17094867704E-01  0.10246727280E+01  0.10244917554E+01 0.  0.
     999903    2    3    3    0    0  0.32826730011E-01 -0.12861785060E+00  0.13383048167E-01  0.13492276602E+00  0.20122154884E-01 0.  0.
         14    1    1    2    0    0  0.57000253899E-02  0.67910039368E-02  0.17094867704E-01  0.19257272022E-01  0.00000000000E+00 0.  1.
     999901    1    3    3    0    0 -0.38526755401E-01  0.12182684666E+00 -0.30477915870E-01  0.88974996196E+00  0.88000000000E+00 0. -1.
        -11    1    4    4    0    0  0.36956653438E-02 -0.54189641694E-01  0.62918646896E-02  0.54681110920E-01  0.51100000000E-03 0. -1.
         11    1    4    4    0    0  0.29131064667E-01 -0.74428208902E-01  0.70911834771E-02  0.80241655100E-01  0.51100000000E-03 0.  1.
</event>
<event>
 8    1  0.1123191E+005  0.1043930E+01  0.7957747E-01            NaN
         13   -1    0    0    0    0  0.00000000000E+00  0.00000000000E+00  0.74505805969E-08  0.10566000000E+00  0.10566000000E+00 0.  1.
     999900   -1    0    0    0    0 -0.00000000000E+00 -0.00000000000E+00 -0.74505805969E-08  0.93827000000E+00  0.93827000000E+00 0. -1.
     999902    2    1    2    0    0 -0.15131198332E-01  0.46469610338E-02  0.17426730156E-01  0.10203877330E+01  0.10201161147E+01 0.  0.
     999903    2    3    3    0    0  0.11654517661E+00  0.46843963343E-01  0.25823186023E-01  0.12955118507E+00  0.18426543975E-01 0.  0.
         14    1    1    2    0    0  0.15131198332E-01 -0.46469610338E-02 -0.17426730156E-01  0.23542266963E-01  0.00000000000E+00 0. -1.
     999901    1    3    3    0    0 -0.13167637495E+00 -0.42197002310E-01 -0.83964558666E-02  0.89083654797E+00  0.88000000000E+00 0. -1.
        -11    1    4    4    0    0  0.62997318087E-01  0.17617908108E-01  0.19258897439E-01  0.68192514427E-01  0.51100000000E-03 0. -1.
         11    1    4    4    0    0  0.53547858527E-01  0.29226055236E-01  0.65642885836E-02  0.61358670643E-01  0.51100000000E-03 0.  1.
</event>
<event>
 8    1  0.1123191E+005  0.1043930E+01  0.7957747E-01            NaN
         13   -1    0    0    0    0  0.00000000000E+00  0.00000000000E+00  0.74505805969E-08  0.10566000000E+00  0.10566000000E+00 0.  1.
     999900   -1    0    0    0    0 -0.00000000000E+00 -0.00000000000E+00 -0.74505805969E-08  0.93827000000E+00  0.93827000000E+00 0. -1.
     999902    2    1    2    0    0  0.14347640099E-01 -0.16521532061E-01 -0.58172212917E-02  0.10212880950E+01  0.10210370792E+01 0.  0.
     999903    2    3    3    0    0  0.11747311116E+00  0.39601239089E-01 -0.43218921569E-01  0.13270297505E+00  0.19339452495E-01 0.  0.
         14    1    1    2    0    0 -0.14347640099E-01  0.16521532061E-01  0.58172212917E-02  0.22641904991E-01  0.00000000000E+00 0. -1.
     999901    1    3    3    0    0 -0.10312547106E+00 -0.56122771151E-01  0.37401700278E-01  0.88858511996E+00  0.88000000000E+00 0.  1.
        -11    1    4    4    0    0  0.38838295072E-02  0.53523962244E-02 -0.40092110039E-02  0.77503013398E-02  0.51100000000E-03 0.  1.
         11    1    4    4    0    0  0.11358928165E+00  0.34248842865E-01 -0.39209710565E-01  0.12495267371E+00  0.51100000000E-03 0. -1.
</event>
<event>
 7    1  0.1123191E+005  0.1043930E+01  0.7957747E-01            NaN
         13   -1    0    0    0    0  0.00000000000E+00  0.00000000000E+00  0.74505805969E-08  0.10566000000E+00  0.10566000000E+00 0. -1.
     999900   -1    0    0    0    0 -0.00000000000E+00 -0.00000000000E+00 -0.74505805969E-08  0.93827000000E+00  0.93827000000E+00 0.  1.
     999903    2    1    2    0    0 -0.53696671656E-01 -0.40022307998E-02  0.13177313208E+00  0.14378115947E+00  0.20236429585E-01 0.  0.
         14    1    1    2    0    0 -0.28844702411E-02 -0.77120491386E-02  0.10759499849E-02  0.83038267599E-02  0.00000000000E+00 0.  1.
     999901    1    1    2    0    0  0.56581141898E-01  0.11714279938E-01 -0.13284908207E+00  0.89184501377E+00  0.88000000000E+00 0.  1.
        -11    1    3    3    0    0 -0.40840355665E-01 -0.39231938773E-02  0.74215099321E-01  0.84802524664E-01  0.51100000000E-03 0.  1.
         11    1    3    3    0    0 -0.12856315992E-01 -0.79036922540E-04  0.57558032762E-01  0.58978634811E-01  0.51100000000E-03 0. -1.
</event>
<event>
 8    1  0.1123191E+005  0.1043930E+01  0.7957747E-01            NaN
         13   -1    0    0    0    0  0.00000000000E+00  0.00000000000E+00  0.74505805969E-08  0.10566000000E+00  0.10566000000E+00 0. -1.
     999900   -1    0    0    0    0 -0.00000000000E+00 -0.00000000000E+00 -0.74505805969E-08  0.93827000000E+00  0.93827000000E+00 0. -1.
     999902    2    1    2    0    0 -0.51192314188E-02  0.22671771574E-01  0.50242003676E-02  0.10201506319E+01  0.10198734497E+01 0.  0.
     999903    2    3    3    0    0  0.15602555431E-01  0.10541760747E+00  0.77393189196E-01  0.13306916084E+00  0.19010106034E-01 0.  0.
         14    1    1    2    0    0  0.51192314188E-02 -0.22671771574E-01 -0.50242003676E-02  0.23779368073E-01  0.00000000000E+00 0.  1.
     999901    1    3    3    0    0 -0.20721786850E-01 -0.82745835895E-01 -0.72368988828E-01  0.88708147109E+00  0.88000000000E+00 0.  1.
        -11    1    4    4    0    0  0.27032141893E-02  0.36895777841E-01  0.37761655184E-01  0.52865957976E-01  0.51100000000E-03 0. -1.
         11    1    4    4    0    0  0.12899341242E-01  0.68521829628E-01  0.39631534011E-01  0.80203202861E-01  0.51100000000E-03 0.  1.
</event>
<event>
 8    1  0.1123191E+005  0.1043930E+01  0.7957747E-01            NaN
         13   -1    0    0    0    0  0.00000000000E+00  0.00000000000E+00  0.74505805969E-08  0.10566000000E+00  0.10566000000E+00 0.  1.
     999900   -1    0    0    0    0 -0.00000000000E+00 -0.00000000000E+00 -0.74505805969E-08  0.93827000000E+00  0.93827000000E+00 0.  1.
     999902    2    1    2    0    0 -0.34294014207E-03 -0.16362909236E-01  0.17609956417E-01  0.10198889316E+01  0.10196055413E+01 0.  0.
     999903    2    3    3    0    0  0.28622480913E-01  0.11906705749E+00 -0.31725485056E-01  0.12769262060E+00  0.17397941260E-01 0.  0.
         14    1    1    2    0    0  0.34294014207E-03  0.16362909236E-01 -0.17609956417E-01  0.24041068438E-01  0.00000000000E+00 0.  1.
     999901    1    3    3    0    0 -0.28965421055E-01 -0.13542996673E+00  0.49335441473E-01  0.89219631096E+00  0.88000000000E+00 0. -1.
        -11    1    4    4    0    0  0.15174316612E-01  0.91160669221E-01 -0.19928102993E-01  0.94540562234E-01  0.51100000000E-03 0. -1.
         11    1    4    4    0    0  0.13448164301E-01  0.27906388273E-01 -0.11797382063E-01  0.33152058368E-01  0.51100000000E-03 0.  1.
</event>
<event>
 8    1  0.1123191E+005  0.1043930E+01  0.7957747E-01            NaN
         13   -1    0    0    0    0  0.00000000000E+00  0.00000000000E+00  0.74505805969E-08  0.10566000000E+00  0.10566000000E+00 0. -1.
     999900   -1    0    0    0    0 -0.00000000000E+00 -0.00000000000E+00 -0.74505805969E-08  0.93827000000E+00  0.93827000000E+00 0. -1.
     999902    2    1    2    0    0  0.55889496157E-02 -0.65374012800E-02 -0.21819132124E-01  0.10204768872E+01  0.10202073460E+01 0.  0.
     999903    2    3    3    0    0  0.27221103171E-01  0.34467423058E-01  0.11867326738E+00  0.12812748254E+00  0.20107602566E-01 0.  0.
         14    1    1    2    0    0 -0.55889496157E-02  0.65374012800E-02  0.21819132124E-01  0.23453112799E-01  0.00000000000E+00 0. -1.
     999901    1    3    3    0    0 -0.21632153555E-01 -0.41004824338E-01 -0.14049239950E+00  0.89234940466E+00  0.88000000000E+00 0. -1.
        -11    1    4    4    0    0  0.12604001378E-02  0.14378017871E-01  0.25050727984E-01  0.28915672220E-01  0.51100000000E-03 0. -1.
         11    1    4    4    0    0  0.25960703033E-01  0.20089405187E-01  0.93622539394E-01  0.99211810317E-01  0.51100000000E-03 0.  1.
</event>
<event>
 8    1  0.1123191E+005  0.1043930E+01  0.7957747E-01            NaN
         13   -1    0    0    0    0  0.00000000000E+00  0.00000000000E+00  0.74505805969E-08  0.10566000000E+00  0.10566000000E+00 0.  1.
     999900   -1    0    0    0    0 -0.00000000000E+00 -0.00000000000E+00 -0.74505805969E-08  0.93827000000E+00  0.93827000000E+00 0.  1.
     999902    2    1    2    0    0 -0.11016828345E-01  0.40123935717E-02  0.21930091702E-01  0.10190623758E+01  0.10187589151E+01 0.  0.
     999903    2    3    3    0    0  0.22926756435E-02  0.90760276897E-01 -0.87828248040E-01  0.12791186594E+00  0.20123619737E-01 0.  0.
         14    1    1    2    0    0  0.11016828345E-01 -0.40123935717E-02 -0.21930091702E-01  0.24867624153E-01  0.00000000000E+00 0. -1.
     999901    1    3    3    0    0 -0.13309503989E-01 -0.86747883326E-01  0.10975833974E+00  0.89115050990E+00  0.88000000000E+00 0. -1.
        -11    1    4    4    0    0  0.94996301081E-02  0.52603353933E-01 -0.58508037587E-01  0.79251545099E-01  0.51100000000E-03 0.  1.
         11    1    4    4    0    0 -0.72069544646E-02  0.38156922964E-01 -0.29320210453E-01  0.48660320845E-01  0.51100000000E-03 0. -1.
</event>
<event>
 8    1  0.1123191E+005  0.1043930E+01  0.7957747E-01            NaN
         13   -1    0    0    0    0  0.00000000000E+00  0.00000000000E+00  0.74505805969E-08  0.10566000000E+00  0.10566000000E+00 0.  1.
     999900   -1    0    0    0    0 -0.00000000000E+00 -0.00000000000E+00 -0.74505805969E-08  0.93827000000E+00  0.93827000000E+00 0. -1.
     999902    2    1    2    0    0 -0.20415984546E-01  0.25958442973E-02 -0.99073739627E-02  0.10210890961E+01  0.10208335982E+01 0.  0.
     999903    2    3    3    0    0 -0.17352695363E-01  0.12160772373E+00  0.42230323504E-01  0.13154339705E+00  0.20753567807E-01 0.  0.
         14    1    1    2    0    0  0.20415984546E-01 -0.25958442973E-02  0.99073739627E-02  0.22840903910E-01  0.00000000000E+00 0. -1.
     999901    1    3    3    0    0 -0.30632891824E-02 -0.11901187943E+00 -0.52137697466E-01  0.88954569904E+00  0.88000000000E+00 0. -1.
        -11    1    4    4    0    0 -0.13090879042E-01  0.64235948566E-01  0.32579915592E-01  0.73207514800E-01  0.51100000000E-03 0.  1.
         11    1    4    4    0    0 -0.42618163213E-02  0.57371775164E-01  0.96504079116E-02  0.58335882248E-01  0.51100000000E-03 0. -1.
</event>
<event>
 8    1  0.1123191E+005  0.1043930E+01  0.7957747E-01            NaN
         13   -1    0    0    0    0  0.00000000000E+00  0.00000000000E+00  0.74505805969E-08  0.10566000000E+00  0.10566000000E+00 0. -1.
     999900   -1    0    0    0    0 -0.00000000000E+00 -0.00000000000E+00 -0.74505805969E-08  0.93827000000E+00  0.93827000000E+00 0.  1.
     999902    2    1    2    0    0  0.15563534850E-01  0.81866024542E-02 -0.16111118203E-01  0.10200802158E+01  0.10198013701E+01 0.  0.
     999903    2    3    3    0    0 -0.11764212392E+00  0.36340142893E-01 -0.34343362831E-01  0.12942383755E+00  0.20267901952E-01 0.  0.
         14    1    1    2    0    0 -0.15563534850E-01 -0.81866024542E-02  0.16111118203E-01  0.23849784203E-01  0.00000000000E+00 0. -1.
     999901    1    3    3    0    0  0.13320565877E+00 -0.28153540439E-01  0.18232244628E-01  0.89065637825E+00  0.88000000000E+00 0. -1.
        -11    1    4    4    0    0 -0.19205303033E-01  0.14178469506E-01 -0.70105824125E-02  0.24885378214E-01  0.51100000000E-03 0.  1.
         11    1    4    4    0    0 -0.98436820888E-01  0.22161673387E-01 -0.27332780419E-01  0.10453845934E+00  0.51100000000E-03 0. -1.
</event>
<event>
 8    1  0.1123191E+005  0.1043930E+01  0.7957747E-01            NaN
         13   -1    0    0    0    0  0.00000000000E+00  0.00000000000E+00  0.74505805969E-08  0.10566000000E+00  0.10566000000E+00 0. -1.
     999900   -1    0    0    0    0 -0.00000000000E+00 -0.00000000000E+00 -0.74505805969E-08  0.93827000000E+00  0.93827000000E+00 0. -1.
     999902    2    1    2    0    0  0.24842127404E-03 -0.21643539301E-02 -0.24616885008E-01  0.10192169029E+01  0.10189172479E+01 0.  0.
     999903    2    3    3    0    0 -0.96133236912E-01  0.44163245518E-01 -0.75312431072E-01  0.13129477292E+00  0.19348478715E-01 0.  0.
         14    1    1    2    0    0 -0.24842127404E-03  0.21643539301E-02  0.24616885008E-01  0.24713097106E-01  0.00000000000E+00 0. -1.
     999901    1    3    3    0    0  0.96381658186E-01 -0.46327599448E-01  0.50695546064E-01  0.88792212997E+00  0.88000000000E+00 0.  1.
        -11    1    4    4    0    0 -0.79875010190E-01  0.35794864741E-01 -0.52551703335E-01  0.10209423215E+00  0.51100000000E-03 0.  1.
         11    1    4    4    0    0 -0.16258226721E-01  0.83683807765E-02 -0.22760727737E-01  0.29200540767E-01  0.51100000000E-03 0. -1.
</event>
<event>
 8    1  0.1123191E+005  0.1043930E+01  0.7957747E-01            NaN
         13   -1    0    0    0    0  0.00000000000E+00  0.00000000000E+00  0.74505805969E-08  0.10566000000E+00  0.10566000000E+00 0. -1.
     999900   -1    0    0    0    0 -0.00000000000E+00 -0.00000000000E+00 -0.74505805969E-08  0.93827000000E+00  0.93827000000E+00 0. -1.
     999902    2    1    2    0    0 -0.40422574689E-02 -0.53142050382E-02 -0.23279672688E-01  0.10197117469E+01  0.10194241134E+01 0.  0.
     999903    2    3    3    0    0  0.84283452158E-02 -0.12120461878E+00 -0.46488201219E-01  0.13172259176E+00  0.20690377256E-01 0.  0.
         14    1    1    2    0    0  0.40422574689E-02  0.53142050382E-02  0.23279672688E-01  0.24218253056E-01  0.00000000000E+00 0. -1.
     999901    1    3    3    0    0 -0.12470602685E-01  0.11589041374E+00  0.23208528531E-01  0.88798915518E+00  0.88000000000E+00 0.  1.
        -11    1    4    4    0    0  0.93842388562E-02 -0.11412044389E+00 -0.38075623410E-01  0.12067126366E+00  0.51100000000E-03 0.  1.
         11    1    4    4    0    0 -0.95589364038E-03 -0.70841748844E-02 -0.84125778089E-02  0.11051328103E-01  0.51100000000E-03 0. -1.
</event>
<event>
 8    1  0.1123191E+005  0.1043930E+01  0.7957747E-01            NaN
         13   -1    0    0    0    0  0.00000000000E+00  0.00000000000E+00  0.74505805969E-08  0.10566000000E+00  0.10566000000E+00 0.  1.
     999900   -1    0    0    0    0 -0.00000000000E+00 -0.00000000000E+00 -0.74505805969E-08  0.93827000000E+00  0.93827000000E+00 0. -1.
     999902    2    1    2    0    0 -0.18196038818E-01  0.15603929433E-02 -0.15383001002E-01  0.10200518222E+01  0.10197723043E+01 0.  0.
     999903    2    3    3    0    0  0.83155180094E-01  0.60855270897E-01  0.73001989209E-01  0.12786358051E+00  0.20041377708E-01 0.  0.
         14    1    1    2    0    0  0.18196038818E-01 -0.15603929433E-02  0.15383001002E-01  0.23878177792E-01  0.00000000000E+00 0.  1.
     999901    1    3    3    0    0 -0.10135121891E+00 -0.59294877954E-01 -0.88384990211E-01  0.89218824170E+00  0.88000000000E+00 0. -1.
        -11    1    4    4    0    0  0.44607428517E-01  0.20327856819E-01  0.35256423450E-01  0.60384774217E-01  0.51100000000E-03 0.  1.
         11    1    4    4    0    0  0.38547751577E-01  0.40527414078E-01  0.37745565759E-01  0.67478806295E-01  0.51100000000E-03 0. -1.
</event>
<event>
 8    1  0.1123191E+005  0.1043930E+01  0.7957747E-01            NaN
         13   -1    0    0    0    0  0.00000000000E+00  0.00000000000E+00  0.74505805969E-08  0.10566000000E+00  0.10566000000E+00 0.  1.
     999900   -1    0    0    0    0 -0.00000000000E+00 -0.00000000000E+00 -0.74505805969E-08  0.93827000000E+00  0.93827000000E+00 0. -1.
     999902    2    1    2    0    0  0.19461616267E-01 -0.37541512684E-02  0.10898080885E-01  0.10213110627E+01  0.10210605616E+01 0.  0.
     999903    2    3    3    0    0  0.72004415438E-01  0.97300423198E-01  0.51097601587E-01  0.13306066202E+00  0.21027760053E-01 0.  0.
         14    1    1    2    0    0 -0.19461616267E-01  0.37541512684E-02 -0.10898080885E-01  0.22618937342E-01  0.00000000000E+00 0. -1.
     999901    1    3    3    0    0 -0.52542799171E-01 -0.10105457447E+00 -0.40199520701E-01  0.88825040064E+00  0.88000000000E+00 0.  1.
        -11    1    4    4    0    0  0.28854550430E-01  0.48901150839E-01  0.14506568492E-01  0.58605539707E-01  0.51100000000E-03 0.  1.
         11    1    4    4    0    0  0.43149865008E-01  0.48399272359E-01  0.36591033095E-01  0.74455122316E-01  0.51100000000E-03 0. -1.
</event>
<event>
 8    1  0.1366240E+005  0.1043930E+01  0.7957747E-01            NaN
         13   -1    0    0    0    0  0.00000000000E+00  0.00000000000E+00  0.74505805969E-08  0.10566000000E+00  0.10566000000E+00 0. -1.
     999900   -1    0    0    0    0 -0.00000000000E+00 -0.00000000000E+00 -0.74505805969E-08  0.93827000000E+00  0.93827000000E+00 0.  1.
     999902    2    1    2    0    0 -0.17639151887E-01 -0.15951162436E-01 -0.39605783557E-02  0.10198205528E+01  0.10195355288E+01 0.  0.
     999903    2    3    3    0    0 -0.12981992020E+00 -0.18722209557E-01  0.50700125487E-03  0.13268349309E+00  0.20022973700E-01 0.  0.
         14    1    1    2    0    0  0.17639151887E-01  0.15951162436E-01  0.39605783557E-02  0.24109447178E-01  0.00000000000E+00 0. -1.
     999901    1    3    3    0    0  0.11218076832E+00  0.27710471210E-02 -0.44675796105E-02  0.88713705973E+00  0.88000000000E+00 0. -1.
        -11    1    4    4    0    0 -0.70013601752E-01 -0.47155353189E-04 -0.57450571545E-03  0.70017839382E-01  0.51100000000E-03 0. -1.
         11    1    4    4    0    0 -0.59806318452E-01 -0.18675054204E-01  0.10815069703E-02  0.62665653708E-01  0.51100000000E-03 0.  1.
</event>
<event>
 8    1  0.1123191E+005  0.1043930E+01  0.7957747E-01            NaN
         13   -1    0    0    0    0  0.00000000000E+00  0.00000000000E+00  0.74505805969E-08  0.10566000000E+00  0.10566000000E+00 0. -1.
     999900   -1    0    0    0    0 -0.00000000000E+00 -0.00000000000E+00 -0.74505805969E-08  0.93827000000E+00  0.93827000000E+00 0.  1.
     999902    2    1    2    0    0 -0.20007829111E-01 -0.50412288069E-02 -0.10581691452E-01  0.10207416536E+01  0.10204782330E+01 0.  0.
     999903    2    3    3    0    0 -0.13799719968E-01 -0.73084401788E-01  0.10528575632E+00  0.13052051286E+00  0.20463424420E-01 0.  0.
         14    1    1    2    0    0  0.20007829111E-01  0.50412288069E-02  0.10581691452E-01  0.23188346375E-01  0.00000000000E+00 0. -1.
     999901    1    3    3    0    0 -0.62081091432E-02  0.68043172981E-01 -0.11586744777E+00  0.89022114076E+00  0.88000000000E+00 0. -1.
        -11    1    4    4    0    0  0.50053812961E-02 -0.25100407248E-01  0.34957992178E-01  0.43329050579E-01  0.51100000000E-03 0. -1.
         11    1    4    4    0    0 -0.18805101264E-01 -0.47983994540E-01  0.70327764137E-01  0.87191462284E-01  0.51100000000E-03 0.  1.
</event>
<event>
 8    1  0.1123191E+005  0.1043930E+01  0.7957747E-01            NaN
         13   -1    0    0    0    0  0.00000000000E+00  0.00000000000E+00  0.74505805969E-08  0.10566000000E+00  0.10566000000E+00 0.  1.
     999900   -1    0    0    0    0 -0.00000000000E+00 -0.00000000000E+00 -0.74505805969E-08  0.93827000000E+00  0.93827000000E+00 0. -1.
     999902    2    1    2    0    0 -0.82118407130E-02  0.13094178736E-01  0.80149229925E-02  0.10265193471E+01  0.10263716866E+01 0.  0.
     999903    2    3    3    0    0 -0.43906952290E-01  0.81018809229E-01 -0.99223939339E-01  0.13669460590E+00  0.18658971981E-01 0.  0.
         14    1    1    2    0    0  0.82118407130E-02 -0.13094178736E-01 -0.80149229925E-02  0.17410652924E-01  0.00000000000E+00 0. -1.
     999901    1    3    3    0    0  0.35695111577E-01 -0.67924630492E-01  0.10723886233E+00  0.88982474118E+00  0.88000000000E+00 0.  1.
        -11    1    4    4    0    0 -0.14984463099E-01  0.12103550013E-01 -0.21240936120E-01  0.28678712410E-01  0.51100000000E-03 0.  1.
         11    1    4    4    0    0 -0.28922489191E-01  0.68915259216E-01 -0.77983003219E-01  0.10801589349E+00  0.51100000000E-03 0. -1.
</event>
<event>
 8    1  0.1123191E+005  0.1043930E+01  0.7957747E-01            NaN
         13   -1    0    0    0    0  0.00000000000E+00  0.00000000000E+00  0.74505805969E-08  0.10566000000E+00  0.10566000000E+00 0. -1.
     999900   -1    0    0    0    0 -0.00000000000E+00 -0.00000000000E+00 -0.74505805969E-08  0.93827000000E+00  0.93827000000E+00 0.  1.
     999902    2    1    2    0    0 -0.23863933602E-02  0.64621719534E-02 -0.26837564405E-01  0.10162224306E+01  0.10158446333E+01 0.  0.
     999903    2    3    3    0    0  0.10082017745E+00 -0.67650187109E-01 -0.31680399063E-01  0.12708369503E+00  0.20133600246E-01 0.  0.
         14    1    1    2    0    0  0.23863933602E-02 -0.64621719534E-02  0.26837564405E-01  0.27707569414E-01  0.00000000000E+00 0. -1.
     999901    1    3    3    0    0 -0.10320657081E+00  0.74112359063E-01  0.48428346575E-02  0.88913873556E+00  0.88000000000E+00 0. -1.
        -11    1    4    4    0    0  0.35912709830E-01 -0.35732992196E-01 -0.10862523224E-01  0.51815296877E-01  0.51100000000E-03 0.  1.
         11    1    4    4    0    0  0.64907467624E-01 -0.31917194913E-01 -0.20817875839E-01  0.75268398149E-01  0.51100000000E-03 0. -1.
</event>
<event>
 8    1  0.1123191E+005  0.1043930E+01  0.7957747E-01            NaN
         13   -1    0    0    0    0  0.00000000000E+00  0.00000000000E+00  0.74505805969E-08  0.10566000000E+00  0.10566000000E+00 0.  1.
     999900   -1    0    0    0    0 -0.00000000000E+00 -0.00000000000E+00 -0.74505805969E-08  0.93827000000E+00  0.93827000000E+00 0. -1.
     999902    2    1    2    0    0  0.37385286138E-02 -0.85691078400E-02 -0.21518156028E-01  0.10204686010E+01  0.10201988671E+01 0.  0.
     999903    2    3    3    0    0 -0.69080710764E-01  0.10556584511E+00 -0.25262396812E-01  0.13010718647E+00  0.19323535468E-01 0.  0.
         14    1    1    2    0    0 -0.37385286138E-02  0.85691078400E-02  0.21518156028E-01  0.23461399025E-01  0.00000000000E+00 0.  1.
     999901    1    3    3    0    0  0.72819239378E-01 -0.11413495295E+00  0.37442407846E-02  0.89036141451E+00  0.88000000000E+00 0.  1.
        -11    1    4    4    0    0 -0.27491391708E-01  0.27262513568E-01 -0.39806969777E-02  0.38924649433E-01  0.51100000000E-03 0. -1.
         11    1    4    4    0    0 -0.41589319056E-01  0.78303331546E-01 -0.21281699835E-01  0.91182537032E-01  0.51100000000E-03 0.  1.
</event>
<event>
 8    1  0.1123191E+005  0.1043930E+01  0.7957747E-01            NaN
         13   -1    0    0    0    0  0.00000000000E+00  0.00000000000E+00  0.74505805969E-08  0.10566000000E+00  0.10566000000E+00 0.  1.
     999900   -1    0    0    0    0 -0.00000000000E+00 -0.00000000000E+00 -0.74505805969E-08  0.93827000000E+00  0.93827000000E+00 0.  1.
     999902    2    1    2    0    0  0.13304027385E-02 -0.24890161426E-02  0.24027074602E-01  0.10197377391E+01  0.10194507301E+01 0.  0.
     999903    2    3    3    0    0  0.87349632040E-01 -0.55401263715E-01  0.79856182840E-01  0.13220413238E+00  0.20041567860E-01 0.  0.
         14    1    1    2    0    0 -0.13304027385E-02  0.24890161426E-02 -0.24027074602E-01  0.24192260886E-01  0.00000000000E+00 0. -1.
     999901    1    3    3    0    0 -0.86019229302E-01  0.52912247572E-01 -0.55829108238E-01  0.88753360673E+00  0.88000000000E+00 0.  1.
        -11    1    4    4    0    0  0.43352867546E-01 -0.19578876924E-01  0.45767301632E-01  0.66012957560E-01  0.51100000000E-03 0.  1.
         11    1    4    4    0    0  0.43996764494E-01 -0.35822386791E-01  0.34088881208E-01  0.66191174822E-01  0.51100000000E-03 0. -1.
</event>
<event>
 8    1  0.1123191E+005  0.1043930E+01  0.7957747E-01            NaN
         13   -1    0    0    0    0  0.00000000000E+00  0.00000000000E+00  0.74505805969E-08  0.10566000000E+00  0.10566000000E+00 0.  1.
     999900   -1    0    0    0    0 -0.00000000000E+00 -0.00000000000E+00 -0.74505805969E-08  0.93827000000E+00  0.93827000000E+00 0. -1.
     999902    2    1    2    0    0  0.14025395376E-01 -0.19092901534E-01 -0.41745718146E-02  0.10198742802E+01  0.10195905403E+01 0.  0.
     999903    2    3    3    0    0 -0.10278586019E+00  0.36914468085E-01  0.63936487855E-01  0.12778638582E+00  0.17716515251E-01 0.  0.
         14    1    1    2    0    0 -0.14025395376E-01  0.19092901534E-01  0.41745718146E-02  0.24055719783E-01  0.00000000000E+00 0.  1.
     999901    1    3    3    0    0  0.11681125557E+00 -0.56007369619E-01 -0.68111059670E-01  0.89208789440E+00  0.88000000000E+00 0.  1.
        -11    1    4    4    0    0 -0.52853394492E-01  0.20086665996E-01  0.43203241795E-01  0.71159937344E-01  0.51100000000E-03 0. -1.
         11    1    4    4    0    0 -0.49932465699E-01  0.16827802090E-01  0.20733246060E-01  0.56626448477E-01  0.51100000000E-03 0.  1.
</event>
<event>
 8    1  0.1123191E+005  0.1043930E+01  0.7957747E-01            NaN
         13   -1    0    0    0    0  0.00000000000E+00  0.00000000000E+00  0.74505805969E-08  0.10566000000E+00  0.10566000000E+00 0. -1.
     999900   -1    0    0    0    0 -0.00000000000E+00 -0.00000000000E+00 -0.74505805969E-08  0.93827000000E+00  0.93827000000E+00 0. -1.
     999902    2    1    2    0    0  0.59567432981E-02  0.12550728421E-01  0.18886493831E-01  0.10204842493E+01  0.10202148793E+01 0.  0.
     999903    2    3    3    0    0  0.94357635299E-01  0.71018628667E-02  0.91286181639E-01  0.13308010092E+00  0.20575385963E-01 0.  0.
         14    1    1    2    0    0 -0.59567432981E-02 -0.12550728421E-01 -0.18886493831E-01  0.23445750657E-01  0.00000000000E+00 0.  1.
     999901    1    3    3    0    0 -0.88400892001E-01  0.54488655542E-02 -0.72399687808E-01  0.88740414842E+00  0.88000000000E+00 0.  1.
        -11    1    4    4    0    0  0.48866959787E-01  0.11230712558E-01  0.57307621567E-01  0.76148100923E-01  0.51100000000E-03 0.  1.
         11    1    4    4    0    0  0.45490675512E-01 -0.41288496912E-02  0.33978560072E-01  0.56931999998E-01  0.51100000000E-03 0. -1.
</event>
<event>
 8    1  0.1123191E+005  0.1043930E+01  0.7957747E-01            NaN
         13   -1    0    0    0    0  0.00000000000E+00  0.00000000000E+00  0.74505805969E-08  0.10566000000E+00  0.10566000000E+00 0.  1.
     999900   -1    0    0    0    0 -0.00000000000E+00 -0.00000000000E+00 -0.74505805969E-08  0.93827000000E+00  0.93827000000E+00 0. -1.
     999902    2    1    2    0    0  0.72979562147E-03 -0.11602752950E-01 -0.18874169500E-01  0.10217626648E+01  0.10215221742E+01 0.  0.
     999903    2    3    3    0    0 -0.60133839676E-01  0.10164571230E+00 -0.54364585675E-01  0.13171257255E+00  0.21089430745E-01 0.  0.
         14    1    1    2    0    0 -0.72979562147E-03  0.11602752950E-01  0.18874169500E-01  0.22167335248E-01  0.00000000000E+00 0. -1.
     999901    1    3    3    0    0  0.60863635297E-01 -0.11324846525E+00  0.35490416174E-01  0.89005009220E+00  0.88000000000E+00 0. -1.
        -11    1    4    4    0    0 -0.11033132296E-01  0.34476868472E-01 -0.22448330177E-01  0.42597806477E-01  0.51100000000E-03 0.  1.
         11    1    4    4    0    0 -0.49100707380E-01  0.67168843831E-01 -0.31916255498E-01  0.89114766076E-01  0.51100000000E-03 0. -1.
</event>
<event>
 8    1  0.1123191E+005  0.1043930E+01  0.7957747E-01            NaN
         13   -1    0    0    0    0  0.00000000000E+00  0.00000000000E+00  0.74505805969E-08  0.10566000000E+00  0.10566000000E+00 0.  1.
     999900   -1    0    0    0    0 -0.00000000000E+00 -0.00000000000E+00 -0.74505805969E-08  0.93827000000E+00  0.93827000000E+00 0. -1.
     999902    2    1    2    0    0  0.28814338637E-02  0.22894542544E-01 -0.21510190723E-02  0.10207548059E+01  0.10204916874E+01 0.  0.
     999903    2    3    3    0    0  0.62347550037E-01  0.11221699103E+00 -0.31772575856E-01  0.13374175333E+00  0.19937149618E-01 0.  0.
         14    1    1    2    0    0 -0.28814338637E-02 -0.22894542544E-01  0.21510190723E-02  0.23175194119E-01  0.00000000000E+00 0.  1.
     999901    1    3    3    0    0 -0.59466116174E-01 -0.89322448486E-01  0.29621556784E-01  0.88701305255E+00  0.88000000000E+00 0.  1.
        -11    1    4    4    0    0  0.21879892388E-01  0.28762475784E-01 -0.14887588919E-02  0.36173017958E-01  0.51100000000E-03 0.  1.
         11    1    4    4    0    0  0.40467657649E-01  0.83454515246E-01 -0.30283816965E-01  0.97568735369E-01  0.51100000000E-03 0. -1.
</event>
<event>
 8    1  0.1123191E+005  0.1043930E+01  0.7957747E-01            NaN
         13   -1    0    0    0    0  0.00000000000E+00  0.00000000000E+00  0.74505805969E-08  0.10566000000E+00  0.10566000000E+00 0.  1.
     999900   -1    0    0    0    0 -0.00000000000E+00 -0.00000000000E+00 -0.74505805969E-08  0.93827000000E+00  0.93827000000E+00 0.  1.
     999902    2    1    2    0    0 -0.15093224818E-01  0.18521123827E-01  0.22162255183E-02  0.10199352273E+01  0.10196529403E+01 0.  0.
     999903    2    3    3    0    0 -0.15395730822E-02  0.10610448382E+00 -0.75980201433E-01  0.13203364059E+00  0.19983980228E-01 0.  0.
         14    1    1    2    0    0  0.15093224818E-01 -0.18521123827E-01 -0.22162255183E-02  0.23994772738E-01  0.00000000000E+00 0.  1.
     999901    1    3    3    0    0 -0.13553651735E-01 -0.87583359995E-01  0.78196426951E-01  0.88790158667E+00  0.88000000000E+00 0. -1.
        -11    1    4    4    0    0 -0.63818759936E-02  0.99396819850E-01 -0.68655284066E-01  0.12097216741E+00  0.51100000000E-03 0.  1.
         11    1    4    4    0    0  0.48423029114E-02  0.67076639716E-02 -0.73249173671E-02  0.11061473178E-01  0.51100000000E-03 0. -1.
</event>
<event>
 8    1  0.1123191E+005  0.1043930E+01  0.7957747E-01            NaN
         13   -1    0    0    0    0  0.00000000000E+00  0.00000000000E+00  0.74505805969E-08  0.10566000000E+00  0.10566000000E+00 0.  1.
     999900   -1    0    0    0    0 -0.00000000000E+00 -0.00000000000E+00 -0.74505805969E-08  0.93827000000E+00  0.93827000000E+00 0.  1.
     999902    2    1    2    0    0  0.11958013154E-01  0.10607028644E-01  0.29033425503E-01  0.10107872341E+01  0.10102437279E+01 0.  0.
     999903    2    3    3    0    0 -0.17305990178E-01  0.39698576845E-01 -0.10929088386E+00  0.11902700027E+00  0.18640150193E-01 0.  0.
         14    1    1    2    0    0 -0.11958013154E-01 -0.10607028644E-01 -0.29033425503E-01  0.33142765902E-01  0.00000000000E+00 0. -1.
     999901    1    3    3    0    0  0.29264003333E-01 -0.29091548201E-01  0.13832430937E+00  0.89176023382E+00  0.88000000000E+00 0. -1.
        -11    1    4    4    0    0 -0.15869019858E-01  0.13893252522E-01 -0.43712521895E-01  0.48537551940E-01  0.51100000000E-03 0.  1.
         11    1    4    4    0    0 -0.14369703206E-02  0.25805324323E-01 -0.65578361967E-01  0.70489448334E-01  0.51100000000E-03 0. -1.
</event>
<event>
 8    1  0.1123191E+005  0.1043930E+01  0.7957747E-01            NaN
         13   -1    0    0    0    0  0.00000000000E+00  0.00000000000E+00  0.74505805969E-08  0.10566000000E+00  0.10566000000E+00 0.  1.
     999900   -1    0    0    0    0 -0.00000000000E+00 -0.00000000000E+00 -0.74505805969E-08  0.93827000000E+00  0.93827000000E+00 0.  1.
     999902    2    1    2    0    0  0.10674734815E-01 -0.18840080537E-01 -0.10542399942E-01  0.10198459639E+01  0.10195615476E+01 0.  0.
     999903    2    3    3    0    0 -0.55470611314E-01 -0.22440707260E-02 -0.11663725854E+00  0.13085397667E+00  0.20892308562E-01 0.  0.
         14    1    1    2    0    0 -0.10674734815E-01  0.18840080537E-01  0.10542399942E-01  0.24084036093E-01  0.00000000000E+00 0. -1.
     999901    1    3    3    0    0  0.66145346129E-01 -0.16596009811E-01  0.10609485860E+00  0.88899198724E+00  0.88000000000E+00 0.  1.
        -11    1    4    4    0    0 -0.39552773429E-01 -0.33273423480E-02 -0.59480689599E-01  0.71510185633E-01  0.51100000000E-03 0.  1.
         11    1    4    4    0    0 -0.15917837885E-01  0.10832716220E-02 -0.57156568940E-01  0.59343791035E-01  0.51100000000E-03 0. -1.
</event>
<event>
 8    1  0.1123191E+005  0.1043930E+01  0.7957747E-01            NaN
         13   -1    0    0    0    0  0.00000000000E+00  0.00000000000E+00  0.74505805969E-08  0.10566000000E+00  0.10566000000E+00 0. -1.
     999900   -1    0    0    0    0 -0.00000000000E+00 -0.00000000000E+00 -0.74505805969E-08  0.93827000000E+00  0.93827000000E+00 0.  1.
     999902    2    1    2    0    0 -0.16499214176E-01 -0.67539045173E-02  0.16906695713E-01  0.10193601881E+01  0.10190640400E+01 0.  0.
     999903    2    3    3    0    0 -0.12400105132E+00 -0.35696542390E-01 -0.16640110971E-01  0.13171177266E+00  0.20508386041E-01 0.  0.
         14    1    1    2    0    0  0.16499214176E-01  0.67539045173E-02 -0.16906695713E-01  0.24569811855E-01  0.00000000000E+00 0. -1.
     999901    1    3    3    0    0  0.10750183714E+00  0.28942637873E-01  0.33546806684E-01  0.88764841549E+00  0.88000000000E+00 0.  1.
        -11    1    4    4    0    0 -0.55736310021E-01 -0.26337421570E-01 -0.10473034625E-01  0.62531125090E-01  0.51100000000E-03 0.  1.
         11    1    4    4    0    0 -0.68264741294E-01 -0.93591208199E-02 -0.61670763458E-02  0.69180647569E-01  0.51100000000E-03 0. -1.
</event>
<event>
 8    1  0.1123191E+005  0.1043930E+01  0.7957747E-01            NaN
         13   -1    0    0    0    0  0.00000000000E+00  0.00000000000E+00  0.74505805969E-08  0.10566000000E+00  0.10566000000E+00 0. -1.
     999900   -1    0    0    0    0 -0.00000000000E+00 -0.00000000000E+00 -0.74505805969E-08  0.93827000000E+00  0.93827000000E+00 0. -1.
     999902    2    1    2    0    0  0.17115351039E-01  0.16833717315E-01  0.92291724768E-02  0.10182106123E+01  0.10178857323E+01 0.  0.
     999903    2    3    3    0    0  0.46216571338E-01  0.99686110362E-01 -0.67040247525E-01  0.13055728779E+00  0.21852197645E-01 0.  0.
         14    1    1    2    0    0 -0.17115351039E-01 -0.16833717315E-01 -0.92291724768E-02  0.25719387715E-01  0.00000000000E+00 0.  1.
     999901    1    3    3    0    0 -0.29101220298E-01 -0.82852393048E-01  0.76269420002E-01  0.88765332449E+00  0.88000000000E+00 0.  1.
        -11    1    4    4    0    0  0.19839429730E-01  0.59239840870E-01 -0.47419003458E-01  0.78433313893E-01  0.51100000000E-03 0. -1.
         11    1    4    4    0    0  0.26377141608E-01  0.40446269493E-01 -0.19621244067E-01  0.52123973899E-01  0.51100000000E-03 0.  1.
</event>
<event>
 8    1  0.1123191E+005  0.1043930E+01  0.7957747E-01            NaN
         13   -1    0    0    0    0  0.00000000000E+00  0.00000000000E+00  0.74505805969E-08  0.10566000000E+00  0.10566000000E+00 0.  1.
     999900   -1    0    0    0    0 -0.00000000000E+00 -0.00000000000E+00 -0.74505805969E-08  0.93827000000E+00  0.93827000000E+00 0.  1.
     999902    2    1    2    0    0 -0.20825409296E-02 -0.18504455386E-01  0.13180849691E-01  0.10211158236E+01  0.10208609301E+01 0.  0.
     999903    2    3    3    0    0 -0.11871065185E-01  0.77247829289E-01 -0.10017933616E+00  0.12863901889E+00  0.20098469327E-01 0.  0.
         14    1    1    2    0    0  0.20825409296E-02  0.18504455386E-01 -0.13180849691E-01  0.22814176392E-01  0.00000000000E+00 0. -1.
     999901    1    3    3    0    0  0.97885242556E-02 -0.95752284675E-01  0.11336018585E+00  0.89247680472E+00  0.88000000000E+00 0. -1.
        -11    1    4    4    0    0 -0.13626736102E-01  0.54031635825E-01 -0.57836296681E-01  0.80314406812E-01  0.51100000000E-03 0. -1.
         11    1    4    4    0    0  0.17556709168E-02  0.23216193463E-01 -0.42343039476E-01  0.48324612077E-01  0.51100000000E-03 0.  1.
</event>
<event>
 8    1  0.1123191E+005  0.1043930E+01  0.7957747E-01            NaN
         13   -1    0    0    0    0  0.00000000000E+00  0.00000000000E+00  0.74505805969E-08  0.10566000000E+00  0.10566000000E+00 0.  1.
     999900   -1    0    0    0    0 -0.00000000000E+00 -0.00000000000E+00 -0.74505805969E-08  0.93827000000E+00  0.93827000000E+00 0. -1.
     999902    2    1    2    0    0 -0.27425153313E-02 -0.35265259594E-02  0.22459385481E-01  0.10210306163E+01  0.10207737936E+01 0.  0.
     999903    2    3    3    0    0  0.19607458344E-01 -0.49257374007E-01 -0.11490481688E+00  0.12892089446E+00  0.24632067934E-01 0.  0.
         14    1    1    2    0    0  0.27425153313E-02  0.35265259594E-02 -0.22459385481E-01  0.22899383657E-01  0.00000000000E+00 0.  1.
     999901    1    3    3    0    0 -0.22349973675E-01  0.45730848048E-01  0.13736420236E+00  0.89210972188E+00  0.88000000000E+00 0.  1.
        -11    1    4    4    0    0  0.82639340360E-02 -0.68328614002E-02 -0.81279995640E-02  0.13464995305E-01  0.51100000000E-03 0.  1.
         11    1    4    4    0    0  0.11343524308E-01 -0.42424512607E-01 -0.10677681731E+00  0.11545589916E+00  0.51100000000E-03 0. -1.
</event>
<event>
 8    1  0.1123191E+005  0.1043930E+01  0.7957747E-01            NaN
         13   -1    0    0    0    0  0.00000000000E+00  0.00000000000E+00  0.74505805969E-08  0.10566000000E+00  0.10566000000E+00 0.  1.
     999900   -1    0    0    0    0 -0.00000000000E+00 -0.00000000000E+00 -0.74505805969E-08  0.93827000000E+00  0.93827000000E+00 0. -1.
     999902    2    1    2    0    0  0.13529936715E-01  0.43567438151E-02 -0.18859149094E-01  0.10203141598E+01  0.10200408211E+01 0.  0.
     999903    2    3    3    0    0 -0.86369774559E-01 -0.86267360390E-02  0.91277375676E-01  0.12774563181E+00  0.21289166332E-01 0.  0.
         14    1    1    2    0    0 -0.13529936715E-01 -0.43567438151E-02  0.18859149094E-01  0.23615840208E-01  0.00000000000E+00 0.  1.
     999901    1    3    3    0    0  0.99899711274E-01  0.12983479854E-01 -0.11013652477E+00  0.89256852799E+00  0.88000000000E+00 0. -1.
        -11    1    4    4    0    0 -0.53358706812E-01 -0.82448010127E-02  0.41892031325E-01  0.68339825475E-01  0.51100000000E-03 0. -1.
         11    1    4    4    0    0 -0.33011067747E-01 -0.38193502623E-03  0.49385344351E-01  0.59405806331E-01  0.51100000000E-03 0.  1.
</event>
<event>
 8    1  0.1123191E+005  0.1043930E+01  0.7957747E-01            NaN
         13   -1    0    0    0    0  0.00000000000E+00  0.00000000000E+00  0.74505805969E-08  0.10566000000E+00  0.10566000000E+00 0. -1.
     999900   -1    0    0    0    0 -0.00000000000E+00 -0.00000000000E+00 -0.74505805969E-08  0.93827000000E+00  0.93827000000E+00 0. -1.
     999902    2    1    2    0    0 -0.82157854399E-02 -0.10181516564E-02  0.23505694863E-01  0.10190090559E+01  0.10187042763E+01 0.  0.
     999903    2    3    3    0    0  0.67112846747E-01  0.10650391593E+00  0.21878834336E-01  0.12926861931E+00  0.19608014706E-01 0.  0.
         14    1    1    2    0    0  0.82157854399E-02  0.10181516564E-02 -0.23505694863E-01  0.24920944087E-01  0.00000000000E+00 0.  1.
     999901    1    3    3    0    0 -0.75328632187E-01 -0.10752206758E+00  0.16268605269E-02  0.88974043660E+00  0.88000000000E+00 0. -1.
        -11    1    4    4    0    0  0.59987548063E-01  0.86577672691E-01  0.12340035764E-01  0.10605063383E+00  0.51100000000E-03 0.  1.
         11    1    4    4    0    0  0.71252986840E-02  0.19926243237E-01  0.95387985727E-02  0.23217985488E-01  0.51100000000E-03 0. -1.
</event>
<event>
 8    1  0.1123191E+005  0.1043930E+01  0.7957747E-01            NaN
         13   -1    0    0    0    0  0.00000000000E+00  0.00000000000E+00  0.74505805969E-08  0.10566000000E+00  0.10566000000E+00 0. -1.
     999900   -1    0    0    0    0 -0.00000000000E+00 -0.00000000000E+00 -0.74505805969E-08  0.93827000000E+00  0.93827000000E+00 0.  1.
     999902    2    1    2    0    0 -0.22114740818E-01  0.61217518150E-02  0.50941660947E-02  0.10204249338E+01  0.10201541832E+01 0.  0.
     999903    2    3    3    0    0 -0.60927862392E-01  0.10998880343E+00 -0.36879487892E-01  0.13247414104E+00  0.19482302776E-01 0.  0.
         14    1    1    2    0    0  0.22114740818E-01 -0.61217518150E-02 -0.50941660947E-02  0.23505066155E-01  0.00000000000E+00 0.  1.
     999901    1    3    3    0    0  0.38813121574E-01 -0.10386705161E+00  0.41973653987E-01  0.88795079281E+00  0.88000000000E+00 0. -1.
        -11    1    4    4    0    0 -0.36337953393E-01  0.58569188624E-01 -0.10711653517E-01  0.69755267578E-01  0.51100000000E-03 0. -1.
         11    1    4    4    0    0 -0.24589908999E-01  0.51419614805E-01 -0.26167834376E-01  0.62718873461E-01  0.51100000000E-03 0.  1.
</event>
<event>
 8    1  0.1123191E+005  0.1043930E+01  0.7957747E-01            NaN
         13   -1    0    0    0    0  0.00000000000E+00  0.00000000000E+00  0.74505805969E-08  0.10566000000E+00  0.10566000000E+00 0. -1.
     999900   -1    0    0    0    0 -0.00000000000E+00 -0.00000000000E+00 -0.74505805969E-08  0.93827000000E+00  0.93827000000E+00 0. -1.
     999902    2    1    2    0    0  0.11726530494E-01  0.14318833292E-01  0.14444537719E-01  0.10204526668E+01  0.10201825621E+01 0.  0.
     999903    2    3    3    0    0  0.99448953714E-01 -0.65192363367E-01  0.52890474449E-01  0.13169210063E+00  0.20131280244E-01 0.  0.
         14    1    1    2    0    0 -0.11726530494E-01 -0.14318833292E-01 -0.14444537719E-01  0.23477333201E-01  0.00000000000E+00 0.  1.
     999901    1    3    3    0    0 -0.87722423220E-01  0.79511196660E-01 -0.38445936730E-01  0.88876056617E+00  0.88000000000E+00 0.  1.
        -11    1    4    4    0    0  0.51645323870E-01 -0.30962453764E-01  0.16099156844E-01  0.62332631846E-01  0.51100000000E-03 0.  1.
         11    1    4    4    0    0  0.47803629844E-01 -0.34229909603E-01  0.36791317605E-01  0.69359468782E-01  0.51100000000E-03 0. -1.
</event>
<event>
 8    1  0.1123191E+005  0.1043930E+01  0.7957747E-01            NaN
         13   -1    0    0    0    0  0.00000000000E+00  0.00000000000E+00  0.74505805969E-08  0.10566000000E+00  0.10566000000E+00 0. -1.
     999900   -1    0    0    0    0 -0.00000000000E+00 -0.00000000000E+00 -0.74505805969E-08  0.93827000000E+00  0.93827000000E+00 0.  1.
     999902    2    1    2    0    0  0.23635099079E-01 -0.32910646582E-02  0.11626868509E-02  0.10200385610E+01  0.10197587289E+01 0.  0.
     999903    2    3    3    0    0  0.77092387833E-01 -0.10577091325E+00 -0.44337332768E-02  0.13246258062E+00  0.19898616123E-01 0.  0.
         14    1    1    2    0    0 -0.23635099079E-01  0.32910646582E-02 -0.11626868509E-02  0.23891438964E-01  0.00000000000E+00 0.  1.
     999901    1    3    3    0    0 -0.53457288754E-01  0.10247984859E+00  0.55964201278E-02  0.88757598041E+00  0.88000000000E+00 0. -1.
        -11    1    4    4    0    0  0.86444802768E-02 -0.21604997827E-01  0.41276375167E-02  0.23638982271E-01  0.51100000000E-03 0.  1.
         11    1    4    4    0    0  0.68447907556E-01 -0.84165915421E-01 -0.85613707935E-02  0.10882359835E+00  0.51100000000E-03 0. -1.
</event>
<event>
 8    1  0.1123191E+005  0.1043930E+01  0.7957747E-01            NaN
         13   -1    0    0    0    0  0.00000000000E+00  0.00000000000E+00  0.74505805969E-08  0.10566000000E+00  0.10566000000E+00 0.  1.
     999900   -1    0    0    0    0 -0.00000000000E+00 -0.00000000000E+00 -0.74505805969E-08  0.93827000000E+00  0.93827000000E+00 0.  1.
     999902    2    1    2    0    0 -0.28241459884E-03  0.22522500408E-01 -0.12800086218E-01  0.10180227618E+01  0.10176930572E+01 0.  0.
     999903    2    3    3    0    0  0.74703778970E-01 -0.13292783847E-01  0.99728916976E-01  0.12697369451E+00  0.20472164523E-01 0.  0.
         14    1    1    2    0    0  0.28241459884E-03 -0.22522500408E-01  0.12800086218E-01  0.25907238174E-01  0.00000000000E+00 0.  1.
     999901    1    3    3    0    0 -0.74986193569E-01  0.35815284255E-01 -0.11252900319E+00  0.89104906732E+00  0.88000000000E+00 0.  1.
        -11    1    4    4    0    0  0.50453117393E-01 -0.10611258966E-01  0.51242958028E-01  0.72692625073E-01  0.51100000000E-03 0.  1.
         11    1    4    4    0    0  0.24250661577E-01 -0.26815248810E-02  0.48485958948E-01  0.54281069433E-01  0.51100000000E-03 0. -1.
</event>
<event>
 8    1  0.1123191E+005  0.1043930E+01  0.7957747E-01            NaN
         13   -1    0    0    0    0  0.00000000000E+00  0.00000000000E+00  0.74505805969E-08  0.10566000000E+00  0.10566000000E+00 0.  1.
     999900   -1    0    0    0    0 -0.00000000000E+00 -0.00000000000E+00 -0.74505805969E-08  0.93827000000E+00  0.93827000000E+00 0.  1.
     999902    2    1    2    0    0  0.22186606987E-02  0.22998878898E-01 -0.32478301969E-02  0.10205972058E+01  0.10203304549E+01 0.  0.
     999903    2    3    3    0    0  0.43610663308E-01  0.29257331816E-01 -0.11924494827E+00  0.13199842256E+00  0.21126865585E-01 0.  0.
         14    1    1    2    0    0 -0.22186606987E-02 -0.22998878898E-01  0.32478301969E-02  0.23332794236E-01  0.00000000000E+00 0.  1.
     999901    1    3    3    0    0 -0.41392002610E-01 -0.62584529174E-02  0.11599711808E+00  0.88859878321E+00  0.88000000000E+00 0. -1.
        -11    1    4    4    0    0  0.37559630421E-01  0.29180275827E-01 -0.11537974311E+00  0.12479968179E+00  0.51100000000E-03 0.  1.
         11    1    4    4    0    0  0.60510328871E-02  0.77055988618E-04 -0.38652051664E-02  0.71987407652E-02  0.51100000000E-03 0. -1.
</event>
<event>
 8    1  0.1123191E+005  0.1043930E+01  0.7957747E-01            NaN
         13   -1    0    0    0    0  0.00000000000E+00  0.00000000000E+00  0.74505805969E-08  0.10566000000E+00  0.10566000000E+00 0. -1.
     999900   -1    0    0    0    0 -0.00000000000E+00 -0.00000000000E+00 -0.74505805969E-08  0.93827000000E+00  0.93827000000E+00 0. -1.
     999902    2    1    2    0    0 -0.16634193744E-01  0.67038796200E-02  0.28662212892E-01  0.10101193382E+01  0.10095533253E+01 0.  0.
     999903    2    3    3    0    0 -0.78855573982E-01 -0.87016817820E-01 -0.23350017426E-01  0.12143472520E+00  0.20274147040E-01 0.  0.
         14    1    1    2    0    0  0.16634193744E-01 -0.67038796200E-02 -0.28662212892E-01  0.33810661800E-01  0.00000000000E+00 0.  1.
     999901    1    3    3    0    0  0.62221380238E-01  0.93720697440E-01  0.52012230318E-01  0.88868461300E+00  0.88000000000E+00 0.  1.
        -11    1    4    4    0    0 -0.39004430239E-01 -0.57586955470E-01 -0.11567452001E-01  0.70510070808E-01  0.51100000000E-03 0.  1.
         11    1    4    4    0    0 -0.39851143744E-01 -0.29429862350E-01 -0.11782565425E-01  0.50924654389E-01  0.51100000000E-03 0. -1.
</event>
<event>
 7    1  0.1123191E+005  0.1043930E+01  0.7957747E-01            NaN
         13   -1    0    0    0    0  0.00000000000E+00  0.00000000000E+00  0.74505805969E-08  0.10566000000E+00  0.10566000000E+00 0. -1.
     999900   -1    0    0    0    0 -0.00000000000E+00 -0.00000000000E+00 -0.74505805969E-08  0.93827000000E+00  0.93827000000E+00 0.  1.
     999902    2    1    2    0    0  0.68263001236E-02  0.95101832891E-02 -0.21366137500E-01  0.10195670406E+01  0.10192759177E+01 0.  0.
         14    1    1    2    0    0 -0.68263001236E-02 -0.95101832891E-02  0.21366137500E-01  0.24362959411E-01  0.00000000000E+00 0. -1.
     999901    1    3    3    0    0  0.12716068037E+00  0.47663340224E-02  0.91251786268E-02  0.88919954198E+00  0.88000000000E+00 0.  1.
        -11    1    3    3    0    0 -0.72498608097E-01  0.64869256003E-02 -0.37673492869E-01  0.81961463906E-01  0.51100000000E-03 0. -1.
         11    1    3    3    0    0 -0.47835772147E-01 -0.17430763337E-02  0.71821767416E-02  0.48406034703E-01  0.51100000000E-03 0.  1.
</event>
<event>
 8    1  0.1234296E+005  0.1043930E+01  0.7957747E-01            NaN
         13   -1    0    0    0    0  0.00000000000E+00  0.00000000000E+00  0.74505805969E-08  0.10566000000E+00  0.10566000000E+00 0.  1.
     999900   -1    0    0    0    0 -0.00000000000E+00 -0.00000000000E+00 -0.74505805969E-08  0.93827000000E+00  0.93827000000E+00 0. -1.
     999902    2    1    2    0    0 -0.19688505001E-01 -0.13832788495E-01  0.56925375652E-02  0.10192037336E+01  0.10189037552E+01 0.  0.
     999903    2    3    3    0    0  0.29607222515E-01 -0.94434777073E-01  0.83239363923E-01  0.13075550235E+00  0.19331190919E-01 0.  0.
         14    1    1    2    0    0  0.19688505001E-01  0.13832788495E-01 -0.56925375652E-02  0.24726266412E-01  0.00000000000E+00 0. -1.
     999901    1    3    3    0    0 -0.49295727515E-01  0.80601988578E-01 -0.77546826358E-01  0.88844823124E+00  0.88000000000E+00 0.  1.
        -11    1    4    4    0    0  0.23177208080E-01 -0.66357978820E-01  0.69463019695E-01  0.98822753218E-01  0.51100000000E-03 0.  1.
         11    1    4    4    0    0  0.64300144348E-02 -0.28076798253E-01  0.13776344228E-01  0.31932749131E-01  0.51100000000E-03 0. -1.
</event>
<event>
 8    1  0.1123191E+005  0.1043930E+01  0.7957747E-01            NaN
         13   -1    0    0    0    0  0.00000000000E+00  0.00000000000E+00  0.74505805969E-08  0.10566000000E+00  0.10566000000E+00 0.  1.
     999900   -1    0    0    0    0 -0.00000000000E+00 -0.00000000000E+00 -0.74505805969E-08  0.93827000000E+00  0.93827000000E+00 0. -1.
     999902    2    1    2    0    0  0.14531604489E-01  0.40093610093E-02  0.18230397273E-01  0.10202743476E+01  0.10200000757E+01 0.  0.
     999903    2    3    3    0    0  0.98731603144E-01  0.62731130632E-01  0.60717560061E-01  0.13328897852E+00  0.19904911078E-01 0.  0.
         14    1    1    2    0    0 -0.14531604489E-01 -0.40093610093E-02 -0.18230397273E-01  0.23655652378E-01  0.00000000000E+00 0. -1.
     999901    1    3    3    0    0 -0.84199998655E-01 -0.58721769623E-01 -0.42487162789E-01  0.88698536910E+00  0.88000000000E+00 0. -1.
        -11    1    4    4    0    0  0.12642066060E-01  0.11759126374E-01  0.22779370512E-02  0.17422657821E-01  0.51100000000E-03 0. -1.
         11    1    4    4    0    0  0.86089537084E-01  0.50972004258E-01  0.58439623010E-01  0.11586632070E+00  0.51100000000E-03 0.  1.
</event>
<event>
 8    1  0.1123191E+005  0.1043930E+01  0.7957747E-01            NaN
         13   -1    0    0    0    0  0.00000000000E+00  0.00000000000E+00  0.74505805969E-08  0.10566000000E+00  0.10566000000E+00 0. -1.
     999900   -1    0    0    0    0 -0.00000000000E+00 -0.00000000000E+00 -0.74505805969E-08  0.93827000000E+00  0.93827000000E+00 0.  1.
     999902    2    1    2    0    0 -0.74119422290E-02 -0.22834190069E-01 -0.25237325301E-02  0.10197906887E+01  0.10195049497E+01 0.  0.
     999903    2    3    3    0    0  0.69271274239E-01  0.94257173286E-01  0.46307439814E-01  0.12739213064E+00  0.20036262499E-01 0.  0.
         14    1    1    2    0    0  0.74119422290E-02  0.22834190069E-01  0.25237325301E-02  0.24139311291E-01  0.00000000000E+00 0.  1.
     999901    1    3    3    0    0 -0.76683216468E-01 -0.11709136336E+00 -0.48831172344E-01  0.89239855807E+00  0.88000000000E+00 0.  1.
        -11    1    4    4    0    0  0.17075657392E-01  0.11222996027E-01  0.55305510189E-02  0.21175028471E-01  0.51100000000E-03 0. -1.
         11    1    4    4    0    0  0.52195616847E-01  0.83034177260E-01  0.40776888795E-01  0.10621710216E+00  0.51100000000E-03 0.  1.
</event>
<event>
 8    1  0.1123191E+005  0.1043930E+01  0.7957747E-01            NaN
         13   -1    0    0    0    0  0.00000000000E+00  0.00000000000E+00  0.74505805969E-08  0.10566000000E+00  0.10566000000E+00 0. -1.
     999900   -1    0    0    0    0 -0.00000000000E+00 -0.00000000000E+00 -0.74505805969E-08  0.93827000000E+00  0.93827000000E+00 0. -1.
     999902    2    1    2    0    0  0.13640748687E-01  0.10372724114E-01 -0.16347063531E-01  0.10202468854E+01  0.10199719689E+01 0.  0.
     999903    2    3    3    0    0 -0.39347585931E-01  0.41494515030E-01  0.11295444031E+00  0.12867792658E+00  0.23005997190E-01 0.  0.
         14    1    1    2    0    0 -0.13640748687E-01 -0.10372724114E-01  0.16347063531E-01  0.23683114583E-01  0.00000000000E+00 0.  1.
     999901    1    3    3    0    0  0.52988334618E-01 -0.31121790916E-01 -0.12930150384E+00  0.89156895884E+00  0.88000000000E+00 0. -1.
        -11    1    4    4    0    0 -0.17421742588E-01  0.89020651978E-02  0.57340362439E-01  0.60588300564E-01  0.51100000000E-03 0. -1.
         11    1    4    4    0    0 -0.21925843343E-01  0.32592449832E-01  0.55614077867E-01  0.68089626011E-01  0.51100000000E-03 0.  1.
</event>
<event>
 8    1  0.1123191E+005  0.1043930E+01  0.7957747E-01            NaN
         13   -1    0    0    0    0  0.00000000000E+00  0.00000000000E+00  0.74505805969E-08  0.10566000000E+00  0.10566000000E+00 0.  1.
     999900   -1    0    0    0    0 -0.00000000000E+00 -0.00000000000E+00 -0.74505805969E-08  0.93827000000E+00  0.93827000000E+00 0.  1.
     999902    2    1    2    0    0 -0.18602867587E-01 -0.12798496853E-01 -0.50655002330E-02  0.10207885330E+01  0.10205261886E+01 0.  0.
     999903    2    3    3    0    0 -0.44985986767E-01  0.91593581151E-01  0.78525449095E-01  0.13029360218E+00  0.19926201368E-01 0.  0.
         14    1    1    2    0    0  0.18602867587E-01  0.12798496853E-01  0.50655002330E-02  0.23141467040E-01  0.00000000000E+00 0.  1.
     999901    1    3    3    0    0  0.26383119181E-01 -0.10439207800E+00 -0.83590949328E-01  0.89049493078E+00  0.88000000000E+00 0.  1.
        -11    1    4    4    0    0 -0.32806853433E-01  0.44582923886E-01  0.43871909592E-01  0.70632374353E-01  0.51100000000E-03 0.  1.
         11    1    4    4    0    0 -0.12179133334E-01  0.47010657265E-01  0.34653539503E-01  0.59661227832E-01  0.51100000000E-03 0. -1.
</event>
<event>
 8    1  0.1123191E+005  0.1043930E+01  0.7957747E-01            NaN
         13   -1    0    0    0    0  0.00000000000E+00  0.00000000000E+00  0.74505805969E-08  0.10566000000E+00  0.10566000000E+00 0. -1.
     999900   -1    0    0    0    0 -0.00000000000E+00 -0.00000000000E+00 -0.74505805969E-08  0.93827000000E+00  0.93827000000E+00 0.  1.
     999902    2    1    2    0    0  0.30622279638E-02 -0.16809071708E-01 -0.15769732636E-01  0.10206790516E+01  0.10204141904E+01 0.  0.
     999903    2    3    3    0    0  0.16963886088E-01  0.99147246077E-01 -0.81056585336E-01  0.13056585836E+00  0.18955830422E-01 0.  0.
         14    1    1    2    0    0 -0.30622279638E-02  0.16809071708E-01  0.15769732636E-01  0.23250948350E-01  0.00000000000E+00 0. -1.
     999901    1    3    3    0    0 -0.13901658124E-01 -0.11595631779E+00  0.65286852701E-01  0.89011319329E+00  0.88000000000E+00 0. -1.
        -11    1    4    4    0    0  0.39928009897E-04  0.54227737969E-01 -0.46193789146E-01  0.71237465116E-01  0.51100000000E-03 0.  1.
         11    1    4    4    0    0  0.16923958078E-01  0.44919508108E-01 -0.34862796191E-01  0.59328393244E-01  0.51100000000E-03 0. -1.
</event>
<event>
 8    1  0.1123191E+005  0.1043930E+01  0.7957747E-01            NaN
         13   -1    0    0    0    0  0.00000000000E+00  0.00000000000E+00  0.74505805969E-08  0.10566000000E+00  0.10566000000E+00 0.  1.
     999900   -1    0    0    0    0 -0.00000000000E+00 -0.00000000000E+00 -0.74505805969E-08  0.93827000000E+00  0.93827000000E+00 0. -1.
     999902    2    1    2    0    0 -0.15150133376E-01 -0.12021644692E-01  0.14115334293E-01  0.10199865428E+01  0.10197054762E+01 0.  0.
     999903    2    3    3    0    0 -0.65484590393E-01 -0.74953942525E-01 -0.82724347408E-01  0.13101412720E+00  0.20372991752E-01 0.  0.
         14    1    1    2    0    0  0.15150133376E-01  0.12021644692E-01 -0.14115334293E-01  0.23943457240E-01  0.00000000000E+00 0. -1.
     999901    1    3    3    0    0  0.50334457017E-01  0.62932297833E-01  0.96839681701E-01  0.88897241556E+00  0.88000000000E+00 0.  1.
        -11    1    4    4    0    0 -0.36904134513E-01 -0.42670399031E-01 -0.33664930655E-01  0.65698301155E-01  0.51100000000E-03 0. -1.
         11    1    4    4    0    0 -0.28580455880E-01 -0.32283543494E-01 -0.49059416753E-01  0.65315826045E-01  0.51100000000E-03 0.  1.
</event>
<event>
 8    1  0.1123191E+005  0.1043930E+01  0.7957747E-01            NaN
         13   -1    0    0    0    0  0.00000000000E+00  0.00000000000E+00  0.74505805969E-08  0.10566000000E+00  0.10566000000E+00 0. -1.
     999900   -1    0    0    0    0 -0.00000000000E+00 -0.00000000000E+00 -0.74505805969E-08  0.93827000000E+00  0.93827000000E+00 0.  1.
     999902    2    1    2    0    0 -0.12601234309E-01  0.19994045105E-01  0.46058943193E-02  0.10198516444E+01  0.10195673638E+01 0.  0.
     999903    2    3    3    0    0 -0.94349419271E-01 -0.77863751936E-01  0.39379574022E-01  0.12998192192E+00  0.19492880611E-01 0.  0.
         14    1    1    2    0    0  0.12601234309E-01 -0.19994045105E-01 -0.46058943193E-02  0.24078355597E-01  0.00000000000E+00 0.  1.
     999901    1    3    3    0    0  0.81748184962E-01  0.97857797041E-01 -0.34773679703E-01  0.88986972248E+00  0.88000000000E+00 0. -1.
        -11    1    4    4    0    0 -0.32751039537E-01 -0.38574337648E-01  0.19797227985E-01  0.54339685982E-01  0.51100000000E-03 0. -1.
         11    1    4    4    0    0 -0.61598379734E-01 -0.39289414288E-01  0.19582346037E-01  0.75642235941E-01  0.51100000000E-03 0.  1.
</event>
<event>
 8    1  0.1123191E+005  0.1043930E+01  0.7957747E-01            NaN
         13   -1    0    0    0    0  0.00000000000E+00  0.00000000000E+00  0.74505805969E-08  0.10566000000E+00  0.10566000000E+00 0.  1.
     999900   -1    0    0    0    0 -0.00000000000E+00 -0.00000000000E+00 -0.74505805969E-08  0.93827000000E+00  0.93827000000E+00 0.  1.
     999902    2    1    2    0    0 -0.14993398668E-01  0.16927513125E-01 -0.62273441446E-02  0.10204753092E+01  0.10202057313E+01 0.  0.
     999903    2    3    3    0    0  0.93886298881E-01 -0.13357566420E-01 -0.86189600346E-01  0.12965212980E+00  0.19696848888E-01 0.  0.
         14    1    1    2    0    0  0.14993398668E-01 -0.16927513125E-01  0.62273441446E-02  0.23454690774E-01  0.00000000000E+00 0.  1.
     999901    1    3    3    0    0 -0.10887969755E+00  0.30285079545E-01  0.79962256202E-01  0.89082317942E+00  0.88000000000E+00 0.  1.
        -11    1    4    4    0    0  0.62400934434E-01 -0.33449531326E-02 -0.45858136264E-01  0.77513193150E-01  0.51100000000E-03 0.  1.
         11    1    4    4    0    0  0.31485364447E-01 -0.10012613287E-01 -0.40331464082E-01  0.52138936652E-01  0.51100000000E-03 0. -1.
</event>
<event>
 8    1  0.1123191E+005  0.1043930E+01  0.7957747E-01            NaN
         13   -1    0    0    0    0  0.00000000000E+00  0.00000000000E+00  0.74505805969E-08  0.10566000000E+00  0.10566000000E+00 0.  1.
     999900   -1    0    0    0    0 -0.00000000000E+00 -0.00000000000E+00 -0.74505805969E-08  0.93827000000E+00  0.93827000000E+00 0. -1.
     999902    2    1    2    0    0 -0.97216986672E-02 -0.13917475967E-01  0.16920151261E-01  0.10199612895E+01  0.10196796228E+01 0.  0.
     999903    2    3    3    0    0 -0.44712997054E-01  0.11445489130E+00 -0.32195158901E-01  0.12860492460E+00  0.20087909936E-01 0.  0.
         14    1    1    2    0    0  0.97216986672E-02  0.13917475967E-01 -0.16920151261E-01  0.23968710456E-01  0.00000000000E+00 0.  1.
     999901    1    3    3    0    0  0.34991298386E-01 -0.12837236727E+00  0.49115310161E-01  0.89135636495E+00  0.88000000000E+00 0. -1.
        -11    1    4    4    0    0 -0.84284834129E-03  0.19142817687E-01 -0.88583500821E-02  0.21116092193E-01  0.51100000000E-03 0.  1.
         11    1    4    4    0    0 -0.43870148712E-01  0.95312073613E-01 -0.23336808819E-01  0.10748883240E+00  0.51100000000E-03 0. -1.
</event>
<event>
 8    1  0.1123191E+005  0.1043930E+01  0.7957747E-01            NaN
         13   -1    0    0    0    0  0.00000000000E+00  0.00000000000E+00  0.74505805969E-08  0.10566000000E+00  0.10566000000E+00 0.  1.
     999900   -1    0    0    0    0 -0.00000000000E+00 -0.00000000000E+00 -0.74505805969E-08  0.93827000000E+00  0.93827000000E+00 0.  1.
     999902    2    1    2    0    0 -0.13985092832E-01 -0.18274126482E-01 -0.11477090628E-01  0.10182152157E+01  0.10178904536E+01 0.  0.
     999903    2    3    3    0    0  0.22603319270E-01  0.11508848790E-01 -0.12565852206E+00  0.12958529457E+00  0.18945204110E-01 0.  0.
         14    1    1    2    0    0  0.13985092832E-01  0.18274126482E-01  0.11477090628E-01  0.25714784259E-01  0.00000000000E+00 0. -1.
     999901    1    3    3    0    0 -0.36588412102E-01 -0.29782975272E-01  0.11418143144E+00  0.88862992117E+00  0.88000000000E+00 0. -1.
        -11    1    4    4    0    0  0.11454076797E-01  0.15935803844E-01 -0.80199813958E-01  0.82567651047E-01  0.51100000000E-03 0. -1.
         11    1    4    4    0    0  0.11149242473E-01 -0.44269550537E-02 -0.45458708106E-01  0.47017643523E-01  0.51100000000E-03 0.  1.
</event>
<event>
 8    1  0.1123191E+005  0.1043930E+01  0.7957747E-01            NaN
         13   -1    0    0    0    0  0.00000000000E+00  0.00000000000E+00  0.74505805969E-08  0.10566000000E+00  0.10566000000E+00 0. -1.
     999900   -1    0    0    0    0 -0.00000000000E+00 -0.00000000000E+00 -0.74505805969E-08  0.93827000000E+00  0.93827000000E+00 0. -1.
     999902    2    1    2    0    0  0.47399468938E-02  0.65434886486E-02 -0.23160567179E-01  0.10194005032E+01  0.10191053379E+01 0.  0.
     999903    2    3    3    0    0 -0.11116886062E+00  0.54603510986E-01  0.29673435496E-01  0.12893093650E+00  0.20065259270E-01 0.  0.
         14    1    1    2    0    0 -0.47399468938E-02 -0.65434886486E-02  0.23160567179E-01  0.24529496780E-01  0.00000000000E+00 0. -1.
     999901    1    3    3    0    0  0.11590880752E+00 -0.48060022338E-01 -0.52834002674E-01  0.89046956672E+00  0.88000000000E+00 0.  1.
        -11    1    4    4    0    0 -0.46959548134E-01  0.32289221264E-01  0.78154619780E-02  0.57525086160E-01  0.51100000000E-03 0. -1.
         11    1    4    4    0    0 -0.64209312490E-01  0.22314289722E-01  0.21857973518E-01  0.71405850345E-01  0.51100000000E-03 0.  1.
</event>
<event>
 8    1  0.1123191E+005  0.1043930E+01  0.7957747E-01            NaN
         13   -1    0    0    0    0  0.00000000000E+00  0.00000000000E+00  0.74505805969E-08  0.10566000000E+00  0.10566000000E+00 0.  1.
     999900   -1    0    0    0    0 -0.00000000000E+00 -0.00000000000E+00 -0.74505805969E-08  0.93827000000E+00  0.93827000000E+00 0.  1.
     999902    2    1    2    0    0 -0.44715314194E-02 -0.11609291956E-01 -0.21037525713E-01  0.10194893015E+01  0.10191962952E+01 0.  0.
     999903    2    3    3    0    0  0.98798729274E-01  0.38464776860E-01 -0.73356465241E-01  0.13049580857E+00  0.20180611911E-01 0.  0.
         14    1    1    2    0    0  0.44715314194E-02  0.11609291956E-01  0.21037525713E-01  0.24440698457E-01  0.00000000000E+00 0.  1.
     999901    1    3    3    0    0 -0.10327026069E+00 -0.50074068816E-01  0.52318939528E-01  0.88899349297E+00  0.88000000000E+00 0. -1.
        -11    1    4    4    0    0  0.19593637691E-01 -0.10995159093E-03 -0.10195884997E-01  0.22093888729E-01  0.51100000000E-03 0. -1.
         11    1    4    4    0    0  0.79205091583E-01  0.38574728451E-01 -0.63160580245E-01  0.10840191984E+00  0.51100000000E-03 0.  1.
</event>
<event>
 8    1  0.1123191E+005  0.1043930E+01  0.7957747E-01            NaN
         13   -1    0    0    0    0  0.00000000000E+00  0.00000000000E+00  0.74505805969E-08  0.10566000000E+00  0.10566000000E+00 0. -1.
     999900   -1    0    0    0    0 -0.00000000000E+00 -0.00000000000E+00 -0.74505805969E-08  0.93827000000E+00  0.93827000000E+00 0. -1.
     999902    2    1    2    0    0 -0.13318663190E-01 -0.17200137588E-01 -0.71334470652E-02  0.10210363854E+01  0.10207796935E+01 0.  0.
     999903    2    3    3    0    0 -0.17769042304E-01 -0.77786124647E-01  0.10331211374E+00  0.13205455792E+00  0.19964803230E-01 0.  0.
         14    1    1    2    0    0  0.13318663190E-01  0.17200137588E-01  0.71334470652E-02  0.22893614595E-01  0.00000000000E+00 0.  1.
     999901    1    3    3    0    0  0.44503791145E-02  0.60585987059E-01 -0.11044556081E+00  0.88898182749E+00  0.88000000000E+00 0. -1.
        -11    1    4    4    0    0 -0.17958431525E-01 -0.33970836969E-01  0.48739249854E-01  0.62066888310E-01  0.51100000000E-03 0. -1.
         11    1    4    4    0    0  0.18938922111E-03 -0.43815287677E-01  0.54572863891E-01  0.69987669606E-01  0.51100000000E-03 0.  1.
</event>
<event>
 8    1  0.1123191E+005  0.1043930E+01  0.7957747E-01            NaN
         13   -1    0    0    0    0  0.00000000000E+00  0.00000000000E+00  0.74505805969E-08  0.10566000000E+00  0.10566000000E+00 0. -1.
     999900   -1    0    0    0    0 -0.00000000000E+00 -0.00000000000E+00 -0.74505805969E-08  0.93827000000E+00  0.93827000000E+00 0.  1.
     999902    2    1    2    0    0  0.20656654352E-01 -0.16137075074E-01 -0.10110173853E-01  0.10158351931E+01  0.10154466117E+01 0.  0.
     999903    2    3    3    0    0  0.23266192789E-01 -0.10067872240E+00 -0.75743034730E-01  0.12934674292E+00  0.17777843605E-01 0.  0.
         14    1    1    2    0    0 -0.20656654352E-01  0.16137075074E-01  0.10110173853E-01  0.28094806927E-01  0.00000000000E+00 0.  1.
     999901    1    3    3    0    0 -0.26095384374E-02  0.84541647327E-01  0.65632860877E-01  0.88648845015E+00  0.88000000000E+00 0. -1.
        -11    1    4    4    0    0  0.25829135589E-01 -0.86005729012E-01 -0.62512888431E-01  0.10941778653E+00  0.51100000000E-03 0. -1.
         11    1    4    4    0    0 -0.25629427993E-02 -0.14672993388E-01 -0.13230146299E-01  0.19928956392E-01  0.51100000000E-03 0.  1.
</event>
<event>
 8    1  0.1123191E+005  0.1043930E+01  0.7957747E-01            NaN
         13   -1    0    0    0    0  0.00000000000E+00  0.00000000000E+00  0.74505805969E-08  0.10566000000E+00  0.10566000000E+00 0. -1.
     999900   -1    0    0    0    0 -0.00000000000E+00 -0.00000000000E+00 -0.74505805969E-08  0.93827000000E+00  0.93827000000E+00 0. -1.
     999902    2    1    2    0    0  0.45100079678E-02  0.15920949985E-01  0.15299138985E-01  0.10213937964E+01  0.10211451448E+01 0.  0.
     999903    2    3    3    0    0  0.44920673977E-01  0.64740207649E-01  0.10676150455E+00  0.13438663397E+00  0.21274094514E-01 0.  0.
         14    1    1    2    0    0 -0.45100079678E-02 -0.15920949985E-01 -0.15299138985E-01  0.22536203628E-01  0.00000000000E+00 0.  1.
     999901    1    3    3    0    0 -0.40410666009E-01 -0.48819257664E-01 -0.91462365567E-01  0.88700716241E+00  0.88000000000E+00 0. -1.
        -11    1    4    4    0    0  0.31645254614E-01  0.33437780552E-01  0.74087854023E-01  0.87228312735E-01  0.51100000000E-03 0. -1.
         11    1    4    4    0    0  0.13275419363E-01  0.31302427096E-01  0.32673650529E-01  0.47158321231E-01  0.51100000000E-03 0.  1.
</event>
<event>
 8    1  0.1123191E+005  0.1043930E+01  0.7957747E-01            NaN
         13   -1    0    0    0    0  0.00000000000E+00  0.00000000000E+00  0.74505805969E-08  0.10566000000E+00  0.10566000000E+00 0. -1.
     999900   -1    0    0    0    0 -0.00000000000E+00 -0.00000000000E+00 -0.74505805969E-08  0.93827000000E+00  0.93827000000E+00 0.  1.
     999902    2    1    2    0    0  0.15722925875E-01 -0.14726277501E-01  0.10022686029E-01  0.10201702045E+01  0.10198934838E+01 0.  0.
     999903    2    3    3    0    0  0.34113541043E-01 -0.10600471758E+00 -0.67724925607E-01  0.13184894534E+00  0.19918458971E-01 0.  0.
         14    1    1    2    0    0 -0.15722925875E-01  0.14726277501E-01 -0.10022686029E-01  0.23759795502E-01  0.00000000000E+00 0. -1.
     999901    1    3    3    0    0 -0.18390615168E-01  0.91278440081E-01  0.77747611636E-01  0.88832125915E+00  0.88000000000E+00 0. -1.
        -11    1    4    4    0    0  0.32383636316E-01 -0.10024544173E+00 -0.57611387398E-01  0.12007156852E+00  0.51100000000E-03 0.  1.
         11    1    4    4    0    0  0.17299047264E-02 -0.57592758554E-02 -0.10113538209E-01  0.11777376824E-01  0.51100000000E-03 0. -1.
</event>
<event>
 8    1  0.1123191E+005  0.1043930E+01  0.7957747E-01            NaN
         13   -1    0    0    0    0  0.00000000000E+00  0.00000000000E+00  0.74505805969E-08  0.10566000000E+00  0.10566000000E+00 0.  1.
     999900   -1    0    0    0    0 -0.00000000000E+00 -0.00000000000E+00 -0.74505805969E-08  0.93827000000E+00  0.93827000000E+00 0. -1.
     999902    2    1    2    0    0 -0.84336755478E-02 -0.97644605309E-02 -0.19439239674E-01  0.10205985703E+01  0.10203318510E+01 0.  0.
     999903    2    3    3    0    0 -0.11287153431E+00 -0.56016329999E-01 -0.37008339380E-01  0.13304283964E+00  0.21283033417E-01 0.  0.
         14    1    1    2    0    0  0.84336755478E-02  0.97644605309E-02  0.19439239674E-01  0.23331429699E-01  0.00000000000E+00 0.  1.
     999901    1    3    3    0    0  0.10443785876E+00  0.46251869468E-01  0.17569099707E-01  0.88755573066E+00  0.88000000000E+00 0. -1.
        -11    1    4    4    0    0 -0.33280827271E-01 -0.90033225777E-02 -0.17078847345E-01  0.38478843913E-01  0.51100000000E-03 0. -1.
         11    1    4    4    0    0 -0.79590707036E-01 -0.47013007421E-01 -0.19929492035E-01  0.94563995723E-01  0.51100000000E-03 0.  1.
</event>
<event>
 8    1  0.1123191E+005  0.1043930E+01  0.7957747E-01            NaN
         13   -1    0    0    0    0  0.00000000000E+00  0.00000000000E+00  0.74505805969E-08  0.10566000000E+00  0.10566000000E+00 0.  1.
     999900   -1    0    0    0    0 -0.00000000000E+00 -0.00000000000E+00 -0.74505805969E-08  0.93827000000E+00  0.93827000000E+00 0. -1.
     999902    2    1    2    0    0 -0.24102349411E-01 -0.12561098771E-02  0.10278088723E-02  0.10197730662E+01  0.10194869048E+01 0.  0.
     999903    2    3    3    0    0 -0.26097892203E-01  0.59299031148E-01  0.11180035100E+00  0.13076155707E+00  0.20044731224E-01 0.  0.
         14    1    1    2    0    0  0.24102349411E-01  0.12561098771E-02 -0.10278088723E-02  0.24156933792E-01  0.00000000000E+00 0. -1.
     999901    1    3    3    0    0  0.19955427924E-02 -0.60555141026E-01 -0.11077254213E+00  0.88901150914E+00  0.88000000000E+00 0. -1.
        -11    1    4    4    0    0 -0.19788130432E-01  0.44826044132E-01  0.65232289350E-01  0.81587113158E-01  0.51100000000E-03 0. -1.
         11    1    4    4    0    0 -0.63097617711E-02  0.14472987016E-01  0.46568061652E-01  0.49174443909E-01  0.51100000000E-03 0.  1.
</event>
<event>
 8    1  0.1123191E+005  0.1043930E+01  0.7957747E-01            NaN
         13   -1    0    0    0    0  0.00000000000E+00  0.00000000000E+00  0.74505805969E-08  0.10566000000E+00  0.10566000000E+00 0. -1.
     999900   -1    0    0    0    0 -0.00000000000E+00 -0.00000000000E+00 -0.74505805969E-08  0.93827000000E+00  0.93827000000E+00 0. -1.
     999902    2    1    2    0    0 -0.42453150543E-02 -0.58250857858E-02 -0.22098879820E-01  0.10206853272E+01  0.10204206105E+01 0.  0.
     999903    2    3    3    0    0  0.87624140513E-01  0.64681228931E-01  0.65564347591E-01  0.12877951450E+00  0.20587090715E-01 0.  0.
         14    1    1    2    0    0  0.42453150543E-02  0.58250857858E-02  0.22098879820E-01  0.23244672801E-01  0.00000000000E+00 0. -1.
     999901    1    3    3    0    0 -0.91869455567E-01 -0.70506314716E-01 -0.87663227411E-01  0.89190581270E+00  0.88000000000E+00 0. -1.
        -11    1    4    4    0    0  0.17213874103E-01  0.19204450197E-01  0.23938549780E-01  0.35191528179E-01  0.51100000000E-03 0. -1.
         11    1    4    4    0    0  0.70410266409E-01  0.45476778734E-01  0.41625797812E-01  0.93587986324E-01  0.51100000000E-03 0.  1.
</event>
<event>
 8    1  0.1123191E+005  0.1043930E+01  0.7957747E-01            NaN
         13   -1    0    0    0    0  0.00000000000E+00  0.00000000000E+00  0.74505805969E-08  0.10566000000E+00  0.10566000000E+00 0.  1.
     999900   -1    0    0    0    0 -0.00000000000E+00 -0.00000000000E+00 -0.74505805969E-08  0.93827000000E+00  0.93827000000E+00 0. -1.
     999902    2    1    2    0    0 -0.19869502491E-01 -0.10517959472E-01  0.69832010828E-02  0.10203887660E+01  0.10201171717E+01 0.  0.
     999903    2    3    3    0    0  0.55141414411E-01  0.11412330325E+00  0.55469516023E-02  0.12844474038E+00  0.20064364724E-01 0.  0.
         14    1    1    2    0    0  0.19869502491E-01  0.10517959472E-01 -0.69832010828E-02  0.23541233996E-01  0.00000000000E+00 0.  1.
     999901    1    3    3    0    0 -0.75010916902E-01 -0.12464126272E+00  0.14362494805E-02  0.89194402562E+00  0.88000000000E+00 0. -1.
        -11    1    4    4    0    0  0.41117924201E-01  0.79335814901E-01 -0.49378475432E-02  0.89495802560E-01  0.51100000000E-03 0.  1.
         11    1    4    4    0    0  0.14023490211E-01  0.34787488351E-01  0.10484799145E-01  0.38948937823E-01  0.51100000000E-03 0. -1.
</event>
<event>
 8    1  0.1123191E+005  0.1043930E+01  0.7957747E-01            NaN
         13   -1    0    0    0    0  0.00000000000E+00  0.00000000000E+00  0.74505805969E-08  0.10566000000E+00  0.10566000000E+00 0. -1.
     999900   -1    0    0    0    0 -0.00000000000E+00 -0.00000000000E+00 -0.74505805969E-08  0.93827000000E+00  0.93827000000E+00 0.  1.
     999902    2    1    2    0    0  0.17185169011E-01  0.51616448196E-02  0.18064883450E-01  0.10184680161E+01  0.10181496880E+01 0.  0.
     999903    2    3    3    0    0  0.46037458449E-03 -0.16102778768E-01 -0.12409566832E+00  0.12664879845E+00  0.19510813002E-01 0.  0.
         14    1    1    2    0    0 -0.17185169011E-01 -0.51616448196E-02 -0.18064883450E-01  0.25461983922E-01  0.00000000000E+00 0.  1.
     999901    1    3    3    0    0  0.16724794426E-01  0.21264423587E-01  0.14216055177E+00  0.89181921763E+00  0.88000000000E+00 0. -1.
        -11    1    4    4    0    0  0.33587840576E-02  0.30269680120E-02 -0.44572834284E-01  0.44804493556E-01  0.51100000000E-03 0. -1.
         11    1    4    4    0    0 -0.28984094731E-02 -0.19129746780E-01 -0.79522834033E-01  0.81844304890E-01  0.51100000000E-03 0.  1.
</event>
<event>
 8    1  0.1123191E+005  0.1043930E+01  0.7957747E-01            NaN
         13   -1    0    0    0    0  0.00000000000E+00  0.00000000000E+00  0.74505805969E-08  0.10566000000E+00  0.10566000000E+00 0.  1.
     999900   -1    0    0    0    0 -0.00000000000E+00 -0.00000000000E+00 -0.74505805969E-08  0.93827000000E+00  0.93827000000E+00 0. -1.
     999902    2    1    2    0    0 -0.14080916025E-01 -0.15532844177E-01 -0.12098914002E-01  0.10197241089E+01  0.10194367725E+01 0.  0.
     999903    2    3    3    0    0 -0.12638367806E+00 -0.53745941642E-03 -0.35672616283E-01  0.13214735651E+00  0.14739923268E-01 0.  0.
         14    1    1    2    0    0  0.14080916025E-01  0.15532844177E-01  0.12098914002E-01  0.24205891108E-01  0.00000000000E+00 0.  1.
     999901    1    3    3    0    0  0.11230276204E+00 -0.14995384761E-01  0.23573702281E-01  0.88757675238E+00  0.88000000000E+00 0.  1.
        -11    1    4    4    0    0 -0.24035769419E-01  0.11817408230E-03 -0.12937158181E-01  0.27301343547E-01  0.51100000000E-03 0.  1.
         11    1    4    4    0    0 -0.10234790864E+00 -0.65563349872E-03 -0.22735458102E-01  0.10484601297E+00  0.51100000000E-03 0. -1.
</event>
<event>
 8    1  0.1123191E+005  0.1043930E+01  0.7957747E-01            NaN
         13   -1    0    0    0    0  0.00000000000E+00  0.00000000000E+00  0.74505805969E-08  0.10566000000E+00  0.10566000000E+00 0. -1.
     999900   -1    0    0    0    0 -0.00000000000E+00 -0.00000000000E+00 -0.74505805969E-08  0.93827000000E+00  0.93827000000E+00 0.  1.
     999902    2    1    2    0    0 -0.14097503402E-01  0.16682773515E-01  0.61677896746E-02  0.10212342699E+01  0.10209820458E+01 0.  0.
     999903    2    3    3    0    0  0.10978933185E+00 -0.34662376807E-01 -0.54538518682E-01  0.12900698482E+00  0.20326690741E-01 0.  0.
         14    1    1    2    0    0  0.14097503402E-01 -0.16682773515E-01 -0.61677896746E-02  0.22695730079E-01  0.00000000000E+00 0. -1.
     999901    1    3    3    0    0 -0.12388683526E+00  0.51345150322E-01  0.60706308356E-01  0.89222728510E+00  0.88000000000E+00 0.  1.
        -11    1    4    4    0    0  0.98175335773E-01 -0.37238473407E-01 -0.49251258543E-01  0.11597865340E+00  0.51100000000E-03 0.  1.
         11    1    4    4    0    0  0.11613996082E-01  0.25760966002E-02 -0.52872601383E-02  0.13028331414E-01  0.51100000000E-03 0. -1.
</event>
<event>
 8    1  0.1123191E+005  0.1043930E+01  0.7957747E-01            NaN
         13   -1    0    0    0    0  0.00000000000E+00  0.00000000000E+00  0.74505805969E-08  0.10566000000E+00  0.10566000000E+00 0. -1.
     999900   -1    0    0    0    0 -0.00000000000E+00 -0.00000000000E+00 -0.74505805969E-08  0.93827000000E+00  0.93827000000E+00 0. -1.
     999902    2    1    2    0    0  0.67085477449E-02  0.20042680721E-01  0.11238076270E-01  0.10199924140E+01  0.10197114870E+01 0.  0.
     999903    2    3    3    0    0  0.64035277596E-01 -0.84368708442E-01  0.72670806787E-01  0.12984519446E+00  0.18977160613E-01 0.  0.
         14    1    1    2    0    0 -0.67085477449E-02 -0.20042680721E-01 -0.11238076270E-01  0.23937585960E-01  0.00000000000E+00 0.  1.
     999901    1    3    3    0    0 -0.57326729852E-01  0.10441138916E+00 -0.61432730517E-01  0.89014721958E+00  0.88000000000E+00 0. -1.
        -11    1    4    4    0    0  0.57721918313E-01 -0.63599047265E-01  0.57731387374E-01  0.10348832241E+00  0.51100000000E-03 0.  1.
         11    1    4    4    0    0  0.63133592839E-02 -0.20769661177E-01  0.14939419413E-01  0.26356872050E-01  0.51100000000E-03 0. -1.
</event>
<event>
 8    1  0.1123191E+005  0.1043930E+01  0.7957747E-01            NaN
         13   -1    0    0    0    0  0.00000000000E+00  0.00000000000E+00  0.74505805969E-08  0.10566000000E+00  0.10566000000E+00 0.  1.
     999900   -1    0    0    0    0 -0.00000000000E+00 -0.00000000000E+00 -0.74505805969E-08  0.93827000000E+00  0.93827000000E+00 0.  1.
     999902    2    1    2    0    0 -0.18340876331E-01 -0.15516479011E-01 -0.10534741357E-02  0.10198829903E+01  0.10195994583E+01 0.  0.
     999903    2    3    3    0    0 -0.37613008438E-02 -0.83576623779E-02  0.12837084482E+00  0.13026820460E+00  0.20167633122E-01 0.  0.
         14    1    1    2    0    0  0.18340876331E-01  0.15516479011E-01  0.10534741357E-02  0.24047009653E-01  0.00000000000E+00 0. -1.
     999901    1    3    3    0    0 -0.14579575487E-01 -0.71588166331E-02 -0.12942431896E+00  0.88961478574E+00  0.88000000000E+00 0.  1.
        -11    1    4    4    0    0 -0.58456071323E-02 -0.21446141434E-03  0.10885137230E+00  0.10900963026E+00  0.51100000000E-03 0.  1.
         11    1    4    4    0    0  0.20843062885E-02 -0.81432009635E-02  0.19519472522E-01  0.21258574345E-01  0.51100000000E-03 0. -1.
</event>
<event>
 8    1  0.1164454E+005  0.1043930E+01  0.7957747E-01            NaN
         13   -1    0    0    0    0  0.00000000000E+00  0.00000000000E+00  0.74505805969E-08  0.10566000000E+00  0.10566000000E+00 0.  1.
     999900   -1    0    0    0    0 -0.00000000000E+00 -0.00000000000E+00 -0.74505805969E-08  0.93827000000E+00  0.93827000000E+00 0. -1.
     999902    2    1    2    0    0 -0.49159504619E-02  0.25190880696E-01  0.69400092621E-03  0.10182545511E+01  0.10179307944E+01 0.  0.
     999903    2    3    3    0    0  0.30305131836E-02 -0.12278427921E+00  0.19888187878E-01  0.12565821957E+00  0.17586497600E-01 0.  0.
         14    1    1    2    0    0  0.49159504619E-02 -0.25190880696E-01 -0.69400092621E-03  0.25675448905E-01  0.00000000000E+00 0. -1.
     999901    1    3    3    0    0 -0.79464636455E-02  0.14797515991E+00 -0.19194186952E-01  0.89259633152E+00  0.88000000000E+00 0. -1.
        -11    1    4    4    0    0  0.75823678186E-03 -0.47480867392E-01  0.16387098911E-01  0.50237494196E-01  0.51100000000E-03 0. -1.
         11    1    4    4    0    0  0.22722764017E-02 -0.75303411818E-01  0.35010889667E-02  0.75420725377E-01  0.51100000000E-03 0.  1.
</event>
<event>
 8    1  0.1123191E+005  0.1043930E+01  0.7957747E-01            NaN
         13   -1    0    0    0    0  0.00000000000E+00  0.00000000000E+00  0.74505805969E-08  0.10566000000E+00  0.10566000000E+00 0.  1.
     999900   -1    0    0    0    0 -0.00000000000E+00 -0.00000000000E+00 -0.74505805969E-08  0.93827000000E+00  0.93827000000E+00 0. -1.
     999902    2    1    2    0    0 -0.31139719132E-02 -0.22306429243E-01 -0.74560957659E-02  0.10202051824E+01  0.10199292854E+01 0.  0.
     999903    2    3    3    0    0 -0.16722625452E-01 -0.35636380857E-01 -0.12471508666E+00  0.13222288864E+00  0.19479260688E-01 0.  0.
         14    1    1    2    0    0  0.31139719132E-02  0.22306429243E-01  0.74560957659E-02  0.23724817612E-01  0.00000000000E+00 0. -1.
     999901    1    3    3    0    0  0.13608653539E-01  0.13329951614E-01  0.11725899090E+00  0.88798229375E+00  0.88000000000E+00 0.  1.
        -11    1    4    4    0    0 -0.19029250384E-01 -0.29273076393E-01 -0.11620183733E+00  0.12133488159E+00  0.51100000000E-03 0. -1.
         11    1    4    4    0    0  0.23066249319E-02 -0.63633044642E-02 -0.85132493367E-02  0.10888007051E-01  0.51100000000E-03 0.  1.
</event>
<event>
 8    1  0.1123191E+005  0.1043930E+01  0.7957747E-01            NaN
         13   -1    0    0    0    0  0.00000000000E+00  0.00000000000E+00  0.74505805969E-08  0.10566000000E+00  0.10566000000E+00 0. -1.
     999900   -1    0    0    0    0 -0.00000000000E+00 -0.00000000000E+00 -0.74505805969E-08  0.93827000000E+00  0.93827000000E+00 0. -1.
     999902    2    1    2    0    0  0.70794365787E-02  0.13193420557E-01  0.19362557411E-01  0.10194536155E+01  0.10191597425E+01 0.  0.
     999903    2    3    3    0    0  0.71002246738E-01 -0.10288180976E+00 -0.22581436083E-01  0.12854459471E+00  0.19692784274E-01 0.  0.
         14    1    1    2    0    0 -0.70794365787E-02 -0.13193420557E-01 -0.19362557411E-01  0.24476384491E-01  0.00000000000E+00 0.  1.
     999901    1    3    3    0    0 -0.63922810159E-01  0.11607523032E+00  0.41943993494E-01  0.89090902080E+00  0.88000000000E+00 0. -1.
        -11    1    4    4    0    0  0.29878882756E-01 -0.35295851388E-01  0.81116487948E-04  0.46247296795E-01  0.51100000000E-03 0. -1.
         11    1    4    4    0    0  0.41123363982E-01 -0.67585958370E-01 -0.22662552571E-01  0.82297297915E-01  0.51100000000E-03 0.  1.
</event>
<event>
 8    1  0.1123191E+005  0.1043930E+01  0.7957747E-01            NaN
         13   -1    0    0    0    0  0.00000000000E+00  0.00000000000E+00  0.74505805969E-08  0.10566000000E+00  0.10566000000E+00 0. -1.
     999900   -1    0    0    0    0 -0.00000000000E+00 -0.00000000000E+00 -0.74505805969E-08  0.93827000000E+00  0.93827000000E+00 0.  1.
     999902    2    1    2    0    0 -0.10441418589E-01  0.16368134160E-01  0.14513357776E-01  0.10196900208E+01  0.10194018648E+01 0.  0.
     999903    2    3    3    0    0  0.45014825490E-01 -0.11309555665E+00 -0.31509293333E-01  0.12730315028E+00  0.19907713517E-01 0.  0.
         14    1    1    2    0    0  0.10441418589E-01 -0.16368134160E-01 -0.14513357776E-01  0.24239979207E-01  0.00000000000E+00 0.  1.
     999901    1    3    3    0    0 -0.55456244079E-01  0.12946369081E+00  0.46022651109E-01  0.89238687051E+00  0.88000000000E+00 0. -1.
        -11    1    4    4    0    0  0.33455445621E-01 -0.76035788354E-01 -0.30411091042E-01  0.88463571777E-01  0.51100000000E-03 0.  1.
         11    1    4    4    0    0  0.11559379869E-01 -0.37059768296E-01 -0.10982022910E-02  0.38839578504E-01  0.51100000000E-03 0. -1.
</event>
<event>
 8    1  0.1123191E+005  0.1043930E+01  0.7957747E-01            NaN
         13   -1    0    0    0    0  0.00000000000E+00  0.00000000000E+00  0.74505805969E-08  0.10566000000E+00  0.10566000000E+00 0. -1.
     999900   -1    0    0    0    0 -0.00000000000E+00 -0.00000000000E+00 -0.74505805969E-08  0.93827000000E+00  0.93827000000E+00 0.  1.
     999902    2    1    2    0    0  0.13358782259E-01  0.16358732927E-01  0.10393507977E-01  0.10203908791E+01  0.10201193341E+01 0.  0.
     999903    2    3    3    0    0  0.12385374299E+00  0.64443939756E-02 -0.40069225665E-01  0.13199124041E+00  0.20853412994E-01 0.  0.
         14    1    1    2    0    0 -0.13358782259E-01 -0.16358732927E-01 -0.10393507977E-01  0.23539120937E-01  0.00000000000E+00 0.  1.
     999901    1    3    3    0    0 -0.11049496073E+00  0.99143389517E-02  0.50462733642E-01  0.88839963865E+00  0.88000000000E+00 0. -1.
        -11    1    4    4    0    0  0.10230345592E+00 -0.20737482278E-02 -0.35901986082E-01  0.10844128019E+00  0.51100000000E-03 0. -1.
         11    1    4    4    0    0  0.21550287075E-01  0.85181422034E-02 -0.41672395830E-02  0.23549960220E-01  0.51100000000E-03 0.  1.
</event>
<event>
 8    1  0.1123191E+005  0.1043930E+01  0.7957747E-01            NaN
         13   -1    0    0    0    0  0.00000000000E+00  0.00000000000E+00  0.74505805969E-08  0.10566000000E+00  0.10566000000E+00 0.  1.
     999900   -1    0    0    0    0 -0.00000000000E+00 -0.00000000000E+00 -0.74505805969E-08  0.93827000000E+00  0.93827000000E+00 0. -1.
     999902    2    1    2    0    0 -0.53274169298E-02  0.12428501638E-01  0.18470228057E-01  0.10210389898E+01  0.10207823570E+01 0.  0.
     999903    2    3    3    0    0  0.41274360343E-02  0.12949665444E+00 -0.18146407142E-01  0.13248109937E+00  0.20869364114E-01 0.  0.
         14    1    1    2    0    0  0.53274169298E-02 -0.12428501638E-01 -0.18470228057E-01  0.22891010214E-01  0.00000000000E+00 0. -1.
     999901    1    3    3    0    0 -0.94548529641E-02 -0.11706815280E+00  0.36616635200E-01  0.88855789042E+00  0.88000000000E+00 0.  1.
        -11    1    4    4    0    0 -0.43418896723E-03  0.90782903941E-01 -0.21674503850E-01  0.93336859847E-01  0.51100000000E-03 0. -1.
         11    1    4    4    0    0  0.45616250015E-02  0.38713750501E-01  0.35280967083E-02  0.39144239524E-01  0.51100000000E-03 0.  1.
</event>
<event>
 8    1  0.1123191E+005  0.1043930E+01  0.7957747E-01            NaN
         13   -1    0    0    0    0  0.00000000000E+00  0.00000000000E+00  0.74505805969E-08  0.10566000000E+00  0.10566000000E+00 0.  1.
     999900   -1    0    0    0    0 -0.00000000000E+00 -0.00000000000E+00 -0.74505805969E-08  0.93827000000E+00  0.93827000000E+00 0.  1.
     999902    2    1    2    0    0  0.22172385748E-01 -0.61784921512E-02  0.20779548980E-02  0.10208192590E+01  0.10205576187E+01 0.  0.
     999903    2    3    3    0    0 -0.11471766960E+00 -0.54127005669E-01 -0.89377946740E-02  0.12887795263E+00  0.20970599383E-01 0.  0.
         14    1    1    2    0    0 -0.22172385748E-01  0.61784921512E-02 -0.20779548980E-02  0.23110741044E-01  0.00000000000E+00 0. -1.
     999901    1    3    3    0    0  0.13689005535E+00  0.47948513518E-01  0.11015749572E-01  0.89194130633E+00  0.88000000000E+00 0.  1.
        -11    1    4    4    0    0 -0.53531384774E-01 -0.22067785375E-01  0.59651831992E-02  0.58210315570E-01  0.51100000000E-03 0. -1.
         11    1    4    4    0    0 -0.61186284824E-01 -0.32059220294E-01 -0.14902977873E-01  0.70667637055E-01  0.51100000000E-03 0.  1.
</event>
<event>
 8    1  0.1123191E+005  0.1043930E+01  0.7957747E-01            NaN
         13   -1    0    0    0    0  0.00000000000E+00  0.00000000000E+00  0.74505805969E-08  0.10566000000E+00  0.10566000000E+00 0. -1.
     999900   -1    0    0    0    0 -0.00000000000E+00 -0.00000000000E+00 -0.74505805969E-08  0.93827000000E+00  0.93827000000E+00 0. -1.
     999902    2    1    2    0    0 -0.81035851306E-02  0.10162653819E-01  0.19738644752E-01  0.10202960896E+01  0.10200223276E+01 0.  0.
     999903    2    3    3    0    0  0.12328264943E+00 -0.32730741185E-01 -0.26043452947E-02  0.12922853033E+00  0.20574677816E-01 0.  0.
         14    1    1    2    0    0  0.81035851306E-02 -0.10162653819E-01 -0.19738644752E-01  0.23633910410E-01  0.00000000000E+00 0.  1.
     999901    1    3    3    0    0 -0.13138623456E+00  0.42893395005E-01  0.22342990047E-01  0.89106755926E+00  0.88000000000E+00 0.  1.
        -11    1    4    4    0    0  0.14152163678E-01 -0.95320478469E-02  0.37497402938E-02  0.17477566942E-01  0.51100000000E-03 0. -1.
         11    1    4    4    0    0  0.10913048575E+00 -0.23198693338E-01 -0.63540855885E-02  0.11175096339E+00  0.51100000000E-03 0.  1.
</event>
<event>
 8    1  0.1123191E+005  0.1043930E+01  0.7957747E-01            NaN
         13   -1    0    0    0    0  0.00000000000E+00  0.00000000000E+00  0.74505805969E-08  0.10566000000E+00  0.10566000000E+00 0. -1.
     999900   -1    0    0    0    0 -0.00000000000E+00 -0.00000000000E+00 -0.74505805969E-08  0.93827000000E+00  0.93827000000E+00 0.  1.
     999902    2    1    2    0    0  0.55666040662E-02 -0.15165287573E-01  0.17232982846E-01  0.10203090617E+01  0.10200356036E+01 0.  0.
     999903    2    3    3    0    0  0.69683472469E-02  0.31673376585E-01  0.12657473175E+00  0.13230487062E+00  0.20776318786E-01 0.  0.
         14    1    1    2    0    0 -0.55666040662E-02  0.15165287573E-01 -0.17232982846E-01  0.23620938292E-01  0.00000000000E+00 0.  1.
     999901    1    3    3    0    0 -0.14017431807E-02 -0.46838664158E-01 -0.10934174891E+00  0.88800419109E+00  0.88000000000E+00 0.  1.
        -11    1    4    4    0    0  0.55426209858E-02  0.18076168484E-01  0.35649657766E-01  0.40356260163E-01  0.51100000000E-03 0.  1.
         11    1    4    4    0    0  0.14257262611E-02  0.13597208100E-01  0.90925073988E-01  0.91948610453E-01  0.51100000000E-03 0. -1.
</event>
<event>
 8    1  0.1123191E+005  0.1043930E+01  0.7957747E-01            NaN
         13   -1    0    0    0    0  0.00000000000E+00  0.00000000000E+00  0.74505805969E-08  0.10566000000E+00  0.10566000000E+00 0.  1.
     999900   -1    0    0    0    0 -0.00000000000E+00 -0.00000000000E+00 -0.74505805969E-08  0.93827000000E+00  0.93827000000E+00 0.  1.
     999902    2    1    2    0    0 -0.22794137102E-01 -0.41590957046E-02  0.78121458130E-02  0.10194779983E+01  0.10191847177E+01 0.  0.
     999903    2    3    3    0    0  0.10146305668E+00  0.52169895129E-01  0.53088266741E-01  0.12781509536E+00  0.22402783466E-01 0.  0.
         14    1    1    2    0    0  0.22794137102E-01  0.41590957046E-02 -0.78121458130E-02  0.24452001667E-01  0.00000000000E+00 0.  1.
     999901    1    3    3    0    0 -0.12425719378E+00 -0.56328990834E-01 -0.45276120928E-01  0.89166290297E+00  0.88000000000E+00 0. -1.
        -11    1    4    4    0    0  0.11598979118E-01  0.33903611842E-02  0.13609629280E-01  0.18207525798E-01  0.51100000000E-03 0.  1.
         11    1    4    4    0    0  0.89864077564E-01  0.48779533945E-01  0.39478637461E-01  0.10960756956E+00  0.51100000000E-03 0. -1.
</event>
<event>
 8    1  0.1123191E+005  0.1043930E+01  0.7957747E-01            NaN
         13   -1    0    0    0    0  0.00000000000E+00  0.00000000000E+00  0.74505805969E-08  0.10566000000E+00  0.10566000000E+00 0. -1.
     999900   -1    0    0    0    0 -0.00000000000E+00 -0.00000000000E+00 -0.74505805969E-08  0.93827000000E+00  0.93827000000E+00 0. -1.
     999902    2    1    2    0    0  0.12386449733E-01  0.50648850284E-02  0.19685724490E-01  0.10201265350E+01  0.10198487841E+01 0.  0.
     999903    2    3    3    0    0 -0.19981944122E-01  0.65313962684E-01 -0.10828297822E+00  0.12824445022E+00  0.74995884759E-02 0.  0.
         14    1    1    2    0    0 -0.12386449733E-01 -0.50648850284E-02 -0.19685724490E-01  0.23803465000E-01  0.00000000000E+00 0.  1.
     999901    1    3    3    0    0  0.32368393855E-01 -0.60249077656E-01  0.12796870271E+00  0.89188208478E+00  0.88000000000E+00 0.  1.
        -11    1    4    4    0    0 -0.15726103728E-02  0.15288965119E-01 -0.25774803796E-01  0.30013783325E-01  0.51100000000E-03 0. -1.
         11    1    4    4    0    0 -0.18409333750E-01  0.50024997565E-01 -0.82508174425E-01  0.98230666894E-01  0.51100000000E-03 0.  1.
</event>
<event>
 8    1  0.1123191E+005  0.1043930E+01  0.7957747E-01            NaN
         13   -1    0    0    0    0  0.00000000000E+00  0.00000000000E+00  0.74505805969E-08  0.10566000000E+00  0.10566000000E+00 0. -1.
     999900   -1    0    0    0    0 -0.00000000000E+00 -0.00000000000E+00 -0.74505805969E-08  0.93827000000E+00  0.93827000000E+00 0. -1.
     999902    2    1    2    0    0  0.85028158300E-02 -0.20487430922E-01 -0.84308061717E-02  0.10202000359E+01  0.10199240178E+01 0.  0.
     999903    2    3    3    0    0 -0.11900140152E+00  0.38072112829E-01 -0.25801978470E-01  0.12891539943E+00  0.18509964301E-01 0.  0.
         14    1    1    2    0    0 -0.85028158300E-02  0.20487430922E-01  0.84308061717E-02  0.23729964086E-01  0.00000000000E+00 0. -1.
     999901    1    3    3    0    0  0.12750421735E+00 -0.58559543751E-01  0.17371172298E-01  0.89128463648E+00  0.88000000000E+00 0. -1.
        -11    1    4    4    0    0 -0.68798886050E-01  0.30596054036E-01 -0.11417852755E-01  0.76157952486E-01  0.51100000000E-03 0. -1.
         11    1    4    4    0    0 -0.50202515468E-01  0.74760587935E-02 -0.14384125714E-01  0.52757446943E-01  0.51100000000E-03 0.  1.
</event>
<event>
 8    1  0.1123191E+005  0.1043930E+01  0.7957747E-01            NaN
         13   -1    0    0    0    0  0.00000000000E+00  0.00000000000E+00  0.74505805969E-08  0.10566000000E+00  0.10566000000E+00 0. -1.
     999900   -1    0    0    0    0 -0.00000000000E+00 -0.00000000000E+00 -0.74505805969E-08  0.93827000000E+00  0.93827000000E+00 0.  1.
     999902    2    1    2    0    0 -0.14108190918E-01  0.32362333152E-02  0.16961363264E-01  0.10216319709E+01  0.10213886047E+01 0.  0.
     999903    2    3    3    0    0 -0.64011356869E-01 -0.11284098591E+00 -0.11816463191E-01  0.13214199903E+00  0.22166127212E-01 0.  0.
         14    1    1    2    0    0  0.14108190918E-01 -0.32362333152E-02 -0.16961363264E-01  0.22298029079E-01  0.00000000000E+00 0.  1.
     999901    1    3    3    0    0  0.49903165951E-01  0.11607721923E+00  0.28777826455E-01  0.88948997189E+00  0.88000000000E+00 0.  1.
        -11    1    4    4    0    0 -0.13879303265E-01 -0.11385279043E-01 -0.55701668794E-02  0.18802859306E-01  0.51100000000E-03 0.  1.
         11    1    4    4    0    0 -0.50132053604E-01 -0.10145570687E+00 -0.62462963120E-02  0.11333913973E+00  0.51100000000E-03 0. -1.
</event>
<event>
 8    1  0.1123191E+005  0.1043930E+01  0.7957747E-01            NaN
         13   -1    0    0    0    0  0.00000000000E+00  0.00000000000E+00  0.74505805969E-08  0.10566000000E+00  0.10566000000E+00 0.  1.
     999900   -1    0    0    0    0 -0.00000000000E+00 -0.00000000000E+00 -0.74505805969E-08  0.93827000000E+00  0.93827000000E+00 0. -1.
     999902    2    1    2    0    0 -0.12117638763E-01  0.20950050510E-01 -0.21797723849E-02  0.10196299343E+01  0.10193403307E+01 0.  0.
     999903    2    3    3    0    0  0.10795307536E+00 -0.60783739513E-01 -0.21836788442E-01  0.12750674375E+00  0.20798915959E-01 0.  0.
         14    1    1    2    0    0  0.12117638763E-01 -0.20950050510E-01  0.21797723849E-02  0.24300065704E-01  0.00000000000E+00 0.  1.
     999901    1    3    3    0    0 -0.12007071412E+00  0.81733790023E-01  0.19657016057E-01  0.89212319054E+00  0.88000000000E+00 0.  1.
        -11    1    4    4    0    0  0.59185225766E-01 -0.41622334528E-01 -0.20019284799E-01  0.75075579021E-01  0.51100000000E-03 0. -1.
         11    1    4    4    0    0  0.48767849592E-01 -0.19161404985E-01 -0.18175036432E-02  0.52431164733E-01  0.51100000000E-03 0.  1.
</event>
<event>
 8    1  0.1123191E+005  0.1043930E+01  0.7957747E-01            NaN
         13   -1    0    0    0    0  0.00000000000E+00  0.00000000000E+00  0.74505805969E-08  0.10566000000E+00  0.10566000000E+00 0. -1.
     999900   -1    0    0    0    0 -0.00000000000E+00 -0.00000000000E+00 -0.74505805969E-08  0.93827000000E+00  0.93827000000E+00 0.  1.
     999902    2    1    2    0    0  0.88440813740E-02 -0.14242306361E-01 -0.18303121828E-01  0.10191093365E+01  0.10188070350E+01 0.  0.
     999903    2    3    3    0    0  0.12803169121E+00 -0.56470576528E-02 -0.18989400587E-01  0.13103274321E+00  0.19620887984E-01 0.  0.
         14    1    1    2    0    0 -0.88440813740E-02  0.14242306361E-01  0.18303121828E-01  0.24820663458E-01  0.00000000000E+00 0. -1.
     999901    1    3    3    0    0 -0.11918760984E+00 -0.85952487080E-02  0.68627875853E-03  0.88807659333E+00  0.88000000000E+00 0.  1.
        -11    1    4    4    0    0  0.79585732779E-01 -0.12995476780E-01 -0.12386670822E-01  0.81587143679E-01  0.51100000000E-03 0.  1.
         11    1    4    4    0    0  0.48445958431E-01  0.73484191273E-02 -0.66027297647E-02  0.49445599535E-01  0.51100000000E-03 0. -1.
</event>
<event>
 8    1  0.1123191E+005  0.1043930E+01  0.7957747E-01            NaN
         13   -1    0    0    0    0  0.00000000000E+00  0.00000000000E+00  0.74505805969E-08  0.10566000000E+00  0.10566000000E+00 0.  1.
     999900   -1    0    0    0    0 -0.00000000000E+00 -0.00000000000E+00 -0.74505805969E-08  0.93827000000E+00  0.93827000000E+00 0. -1.
     999902    2    1    2    0    0 -0.43254584664E-02 -0.22725488405E-01  0.39021005212E-02  0.10204697399E+01  0.10202000325E+01 0.  0.
     999903    2    3    3    0    0 -0.12364682229E+00 -0.35368727195E-01 -0.21362711069E-01  0.13196777029E+00  0.20485200597E-01 0.  0.
         14    1    1    2    0    0  0.43254584664E-02  0.22725488405E-01 -0.39021005212E-02  0.23460260072E-01  0.00000000000E+00 0. -1.
     999901    1    3    3    0    0  0.11932136383E+00  0.12643238790E-01  0.25264811591E-01  0.88850196964E+00  0.88000000000E+00 0. -1.
        -11    1    4    4    0    0 -0.25893201594E-01 -0.20415959603E-02  0.20768719854E-02  0.26061475804E-01  0.51100000000E-03 0.  1.
         11    1    4    4    0    0 -0.97753620699E-01 -0.33327131235E-01 -0.23439583055E-01  0.10590629448E+00  0.51100000000E-03 0. -1.
</event>
<event>
 8    1  0.1123191E+005  0.1043930E+01  0.7957747E-01            NaN
         13   -1    0    0    0    0  0.00000000000E+00  0.00000000000E+00  0.74505805969E-08  0.10566000000E+00  0.10566000000E+00 0. -1.
     999900   -1    0    0    0    0 -0.00000000000E+00 -0.00000000000E+00 -0.74505805969E-08  0.93827000000E+00  0.93827000000E+00 0.  1.
     999902    2    1    2    0    0  0.13161827130E-01  0.26816388082E-01 -0.15325701344E-02  0.10140184448E+01  0.10135771827E+01 0.  0.
     999903    2    3    3    0    0  0.75812494658E-02  0.73449047114E-01  0.10104713161E+00  0.12681590708E+00  0.20482031559E-01 0.  0.
         14    1    1    2    0    0 -0.13161827130E-01 -0.26816388082E-01  0.15325701344E-02  0.29911555198E-01  0.00000000000E+00 0.  1.
     999901    1    3    3    0    0  0.55805776640E-02 -0.46632659032E-01 -0.10257970174E+00  0.88720253772E+00  0.88000000000E+00 0.  1.
        -11    1    4    4    0    0  0.87343328304E-03  0.20795324462E-01  0.14805312463E-01  0.25547344349E-01  0.51100000000E-03 0.  1.
         11    1    4    4    0    0  0.67078161827E-02  0.52653722652E-01  0.86241819143E-01  0.10126856273E+00  0.51100000000E-03 0. -1.
</event>
<event>
 8    1  0.1123191E+005  0.1043930E+01  0.7957747E-01            NaN
         13   -1    0    0    0    0  0.00000000000E+00  0.00000000000E+00  0.74505805969E-08  0.10566000000E+00  0.10566000000E+00 0. -1.
     999900   -1    0    0    0    0 -0.00000000000E+00 -0.00000000000E+00 -0.74505805969E-08  0.93827000000E+00  0.93827000000E+00 0.  1.
     999902    2    1    2    0    0  0.16271231579E-01 -0.16367266956E-01 -0.45983103694E-02  0.10203973660E+01  0.10201259725E+01 0.  0.
     999903    2    3    3    0    0 -0.97882757594E-01 -0.80907579003E-01  0.20885024689E-01  0.13031535546E+00  0.20465508497E-01 0.  0.
         14    1    1    2    0    0 -0.16271231579E-01  0.16367266956E-01  0.45983103694E-02  0.23532633999E-01  0.00000000000E+00 0. -1.
     999901    1    3    3    0    0  0.11415398917E+00  0.64540312047E-01 -0.25483335058E-01  0.89008201054E+00  0.88000000000E+00 0.  1.
        -11    1    4    4    0    0 -0.45681419102E-01 -0.25807811843E-01  0.12601374318E-01  0.53961939911E-01  0.51100000000E-03 0. -1.
         11    1    4    4    0    0 -0.52201338492E-01 -0.55099767160E-01  0.82836503707E-02  0.76353415548E-01  0.51100000000E-03 0.  1.
</event>
<event>
 8    1  0.1123191E+005  0.1043930E+01  0.7957747E-01            NaN
         13   -1    0    0    0    0  0.00000000000E+00  0.00000000000E+00  0.74505805969E-08  0.10566000000E+00  0.10566000000E+00 0. -1.
     999900   -1    0    0    0    0 -0.00000000000E+00 -0.00000000000E+00 -0.74505805969E-08  0.93827000000E+00  0.93827000000E+00 0. -1.
     999902    2    1    2    0    0 -0.76373729012E-02 -0.30422772916E-02 -0.22758023558E-01  0.10197326334E+01  0.10194455017E+01 0.  0.
     999903    2    3    3    0    0  0.32061368784E-01  0.36259972996E-01 -0.12171009330E+00  0.13242650295E+00  0.19511915860E-01 0.  0.
         14    1    1    2    0    0  0.76373729012E-02  0.30422772916E-02  0.22758023558E-01  0.24197366638E-01  0.00000000000E+00 0. -1.
     999901    1    3    3    0    0 -0.39698741685E-01 -0.39302250287E-01  0.98952069745E-01  0.88730613042E+00  0.88000000000E+00 0. -1.
        -11    1    4    4    0    0  0.31032332508E-01  0.37316871437E-01 -0.10536343201E+00  0.11600546746E+00  0.51100000000E-03 0.  1.
         11    1    4    4    0    0  0.10290362761E-02 -0.10568984411E-02 -0.16346661294E-01  0.16421035486E-01  0.51100000000E-03 0. -1.
</event>
<event>
 8    1  0.1123191E+005  0.1043930E+01  0.7957747E-01            NaN
         13   -1    0    0    0    0  0.00000000000E+00  0.00000000000E+00  0.74505805969E-08  0.10566000000E+00  0.10566000000E+00 0.  1.
     999900   -1    0    0    0    0 -0.00000000000E+00 -0.00000000000E+00 -0.74505805969E-08  0.93827000000E+00  0.93827000000E+00 0.  1.
     999902    2    1    2    0    0  0.21047622224E-01 -0.13391710127E-01  0.98854583984E-02  0.10170960180E+01  0.10167419767E+01 0.  0.
     999903    2    3    3    0    0  0.12087268668E+00 -0.35153457781E-01  0.29490200739E-01  0.13096794427E+00  0.20903552499E-01 0.  0.
         14    1    1    2    0    0 -0.21047622224E-01  0.13391710127E-01 -0.98854583984E-02  0.26833981985E-01  0.00000000000E+00 0.  1.
     999901    1    3    3    0    0 -0.99825064459E-01  0.21761747654E-01 -0.19604742340E-01  0.88612807374E+00  0.88000000000E+00 0.  1.
        -11    1    4    4    0    0  0.38711266170E-01 -0.18661231954E-01  0.30137015134E-02  0.43083027103E-01  0.51100000000E-03 0. -1.
         11    1    4    4    0    0  0.82161420513E-01 -0.16492225826E-01  0.26476499225E-01  0.87884917168E-01  0.51100000000E-03 0.  1.
</event>
<event>
 8    1  0.1123191E+005  0.1043930E+01  0.7957747E-01            NaN
         13   -1    0    0    0    0  0.00000000000E+00  0.00000000000E+00  0.74505805969E-08  0.10566000000E+00  0.10566000000E+00 0.  1.
     999900   -1    0    0    0    0 -0.00000000000E+00 -0.00000000000E+00 -0.74505805969E-08  0.93827000000E+00  0.93827000000E+00 0. -1.
     999902    2    1    2    0    0  0.23013910864E-01  0.40228144931E-03  0.65786679536E-02  0.10199908940E+01  0.10197099308E+01 0.  0.
     999903    2    3    3    0    0 -0.30051916246E-01  0.34767073964E-01  0.12037688786E+00  0.13041405313E+00  0.20133629134E-01 0.  0.
         14    1    1    2    0    0 -0.23013910864E-01 -0.40228144931E-03 -0.65786679536E-02  0.23939105991E-01  0.00000000000E+00 0.  1.
     999901    1    3    3    0    0  0.53065827110E-01 -0.34364792515E-01 -0.11379821990E+00  0.88957684088E+00  0.88000000000E+00 0. -1.
        -11    1    4    4    0    0 -0.16550933414E-01  0.47925696532E-02  0.44343565821E-01  0.47576412974E-01  0.51100000000E-03 0.  1.
         11    1    4    4    0    0 -0.13500982832E-01  0.29974504311E-01  0.76033322035E-01  0.82837640158E-01  0.51100000000E-03 0. -1.
</event>
<event>
 8    1  0.1123191E+005  0.1043930E+01  0.7957747E-01            NaN
         13   -1    0    0    0    0  0.00000000000E+00  0.00000000000E+00  0.74505805969E-08  0.10566000000E+00  0.10566000000E+00 0.  1.
     999900   -1    0    0    0    0 -0.00000000000E+00 -0.00000000000E+00 -0.74505805969E-08  0.93827000000E+00  0.93827000000E+00 0. -1.
     999902    2    1    2    0    0 -0.18363584252E-01 -0.93270238056E-03  0.14963530345E-01  0.10202234945E+01  0.10199480283E+01 0.  0.
     999903    2    3    3    0    0 -0.10391399123E+00  0.77792188889E-01 -0.13904902652E-01  0.13210758597E+00  0.20231799938E-01 0.  0.
         14    1    1    2    0    0  0.18363584252E-01  0.93270238056E-03 -0.14963530345E-01  0.23706505451E-01  0.00000000000E+00 0. -1.
     999901    1    3    3    0    0  0.85550406978E-01 -0.78724891269E-01  0.28868432997E-01  0.88811590857E+00  0.88000000000E+00 0.  1.
        -11    1    4    4    0    0 -0.83594664303E-01  0.69237189099E-01 -0.16897080277E-01  0.10985275917E+00  0.51100000000E-03 0. -1.
         11    1    4    4    0    0 -0.20319326927E-01  0.85549997895E-02  0.29921776252E-02  0.22254826805E-01  0.51100000000E-03 0.  1.
</event>
<event>
 8    1  0.1123191E+005  0.1043930E+01  0.7957747E-01            NaN
         13   -1    0    0    0    0  0.00000000000E+00  0.00000000000E+00  0.74505805969E-08  0.10566000000E+00  0.10566000000E+00 0.  1.
     999900   -1    0    0    0    0 -0.00000000000E+00 -0.00000000000E+00 -0.74505805969E-08  0.93827000000E+00  0.93827000000E+00 0. -1.
     999902    2    1    2    0    0 -0.12080544551E-01 -0.14783440706E-01 -0.13396928430E-01  0.10206068920E+01  0.10203403651E+01 0.  0.
     999903    2    3    3    0    0  0.35435574672E-01 -0.12081946686E+00  0.33900885466E-01  0.13170953930E+00  0.18577114473E-01 0.  0.
         14    1    1    2    0    0  0.12080544551E-01  0.14783440706E-01  0.13396928430E-01  0.23323108007E-01  0.00000000000E+00 0.  1.
     999901    1    3    3    0    0 -0.47516119224E-01  0.10603602615E+00 -0.47297813896E-01  0.88889735269E+00  0.88000000000E+00 0. -1.
        -11    1    4    4    0    0  0.32138615189E-02 -0.41565819297E-01  0.12309739055E-01  0.43472255937E-01  0.51100000000E-03 0. -1.
         11    1    4    4    0    0  0.32221713153E-01 -0.79253647563E-01  0.21591146411E-01  0.88237283361E-01  0.51100000000E-03 0.  1.
</event>
<event>
 8    1  0.1123191E+005  0.1043930E+01  0.7957747E-01            NaN
         13   -1    0    0    0    0  0.00000000000E+00  0.00000000000E+00  0.74505805969E-08  0.10566000000E+00  0.10566000000E+00 0.  1.
     999900   -1    0    0    0    0 -0.00000000000E+00 -0.00000000000E+00 -0.74505805969E-08  0.93827000000E+00  0.93827000000E+00 0.  1.
     999902    2    1    2    0    0 -0.86281688618E-02 -0.23456488667E-01 -0.23045817603E-02  0.10188309312E+01  0.10185217244E+01 0.  0.
     999903    2    3    3    0    0 -0.52237212622E-01  0.68022643646E-01 -0.93202359679E-01  0.12836330887E+00  0.20848328093E-01 0.  0.
         14    1    1    2    0    0  0.86281688618E-02  0.23456488667E-01  0.23045817603E-02  0.25099068819E-01  0.00000000000E+00 0. -1.
     999901    1    3    3    0    0  0.43609043760E-01 -0.91479132313E-01  0.90897777919E-01  0.89046762231E+00  0.88000000000E+00 0. -1.
        -11    1    4    4    0    0 -0.20022998938E-02  0.11569235889E-01 -0.68079112205E-02  0.13581796645E-01  0.51100000000E-03 0. -1.
         11    1    4    4    0    0 -0.50234912728E-01  0.56453407757E-01 -0.86394448459E-01  0.11478151223E+00  0.51100000000E-03 0.  1.
</event>
<event>
 8    1  0.1123191E+005  0.1043930E+01  0.7957747E-01            NaN
         13   -1    0    0    0    0  0.00000000000E+00  0.00000000000E+00  0.74505805969E-08  0.10566000000E+00  0.10566000000E+00 0.  1.
     999900   -1    0    0    0    0 -0.00000000000E+00 -0.00000000000E+00 -0.74505805969E-08  0.93827000000E+00  0.93827000000E+00 0.  1.
     999902    2    1    2    0    0 -0.14673846089E-01  0.12484730313E-01 -0.13894644101E-01  0.10201760238E+01  0.10198994402E+01 0.  0.
     999903    2    3    3    0    0  0.88655157057E-01 -0.90235121215E-01 -0.37551133375E-04  0.12808843293E+00  0.20112962630E-01 0.  0.
         14    1    1    2    0    0  0.14673846089E-01 -0.12484730313E-01  0.13894644101E-01  0.23753976188E-01  0.00000000000E+00 0. -1.
     999901    1    3    3    0    0 -0.10332900315E+00  0.10271985153E+00 -0.13857092968E-01  0.89208759089E+00  0.88000000000E+00 0.  1.
        -11    1    4    4    0    0  0.23996459199E-01 -0.37740145961E-01 -0.21090249825E-02  0.44775638227E-01  0.51100000000E-03 0. -1.
         11    1    4    4    0    0  0.64658697858E-01 -0.52494975254E-01  0.20714738492E-02  0.83312794699E-01  0.51100000000E-03 0.  1.
</event>
<event>
 8    1  0.1123191E+005  0.1043930E+01  0.7957747E-01            NaN
         13   -1    0    0    0    0  0.00000000000E+00  0.00000000000E+00  0.74505805969E-08  0.10566000000E+00  0.10566000000E+00 0. -1.
     999900   -1    0    0    0    0 -0.00000000000E+00 -0.00000000000E+00 -0.74505805969E-08  0.93827000000E+00  0.93827000000E+00 0. -1.
     999902    2    1    2    0    0 -0.12556500327E-01  0.18908480359E-01  0.29247753609E-02  0.10210444010E+01  0.10207878909E+01 0.  0.
     999903    2    3    3    0    0 -0.99320778245E-01  0.58364286907E-01 -0.64190653318E-01  0.13335679754E+00  0.19813846172E-01 0.  0.
         14    1    1    2    0    0  0.12556500327E-01 -0.18908480359E-01 -0.29247753609E-02  0.22885598984E-01  0.00000000000E+00 0. -1.
     999901    1    3    3    0    0  0.86764277918E-01 -0.39455806549E-01  0.67115428679E-01  0.88768760347E+00  0.88000000000E+00 0.  1.
        -11    1    4    4    0    0 -0.46361015170E-01  0.20093230551E-01 -0.36773974733E-01  0.62495343669E-01  0.51100000000E-03 0.  1.
         11    1    4    4    0    0 -0.52959763075E-01  0.38271056356E-01 -0.27416678585E-01  0.70861453874E-01  0.51100000000E-03 0. -1.
</event>
<event>
 8    1  0.1123191E+005  0.1043930E+01  0.7957747E-01            NaN
         13   -1    0    0    0    0  0.00000000000E+00  0.00000000000E+00  0.74505805969E-08  0.10566000000E+00  0.10566000000E+00 0.  1.
     999900   -1    0    0    0    0 -0.00000000000E+00 -0.00000000000E+00 -0.74505805969E-08  0.93827000000E+00  0.93827000000E+00 0.  1.
     999902    2    1    2    0    0 -0.11526805244E-01  0.20096720664E-01 -0.65467886176E-02  0.10198549951E+01  0.10195707946E+01 0.  0.
     999903    2    3    3    0    0  0.73778273851E-01 -0.38065177151E-01  0.95260258184E-01  0.12798928902E+00  0.20360498765E-01 0.  0.
         14    1    1    2    0    0  0.11526805244E-01 -0.20096720664E-01  0.65467886176E-02  0.24075004918E-01  0.00000000000E+00 0.  1.
     999901    1    3    3    0    0 -0.85305079095E-01  0.58161897815E-01 -0.10180704680E+00  0.89186570607E+00  0.88000000000E+00 0.  1.
        -11    1    4    4    0    0  0.52764468615E-01 -0.32878224297E-01  0.80812756400E-01  0.10196092143E+00  0.51100000000E-03 0. -1.
         11    1    4    4    0    0  0.21013805235E-01 -0.51869528541E-02  0.14447501783E-01  0.26028367585E-01  0.51100000000E-03 0.  1.
</event>
<event>
 8    1  0.1123191E+005  0.1043930E+01  0.7957747E-01            NaN
         13   -1    0    0    0    0  0.00000000000E+00  0.00000000000E+00  0.74505805969E-08  0.10566000000E+00  0.10566000000E+00 0. -1.
     999900   -1    0    0    0    0 -0.00000000000E+00 -0.00000000000E+00 -0.74505805969E-08  0.93827000000E+00  0.93827000000E+00 0. -1.
     999902    2    1    2    0    0 -0.90320137396E-02  0.67153281019E-02  0.20681984735E-01  0.10203839303E+01  0.10201122232E+01 0.  0.
     999903    2    3    3    0    0  0.11375377924E+00 -0.10583482815E-01  0.60622146085E-01  0.13079367843E+00  0.19493827756E-01 0.  0.
         14    1    1    2    0    0  0.90320137396E-02 -0.67153281019E-02 -0.20681984735E-01  0.23546069657E-01  0.00000000000E+00 0.  1.
     999901    1    3    3    0    0 -0.12278579298E+00  0.17298810916E-01 -0.39940161350E-01  0.88959025192E+00  0.88000000000E+00 0.  1.
        -11    1    4    4    0    0  0.96523182178E-02 -0.51031709498E-02  0.10370502276E-01  0.15067117812E-01  0.51100000000E-03 0. -1.
         11    1    4    4    0    0  0.10410146102E+00 -0.54803118648E-02  0.50251643809E-01  0.11572656061E+00  0.51100000000E-03 0.  1.
</event>
<event>
 8    1  0.1123191E+005  0.1043930E+01  0.7957747E-01            NaN
         13   -1    0    0    0    0  0.00000000000E+00  0.00000000000E+00  0.74505805969E-08  0.10566000000E+00  0.10566000000E+00 0.  1.
     999900   -1    0    0    0    0 -0.00000000000E+00 -0.00000000000E+00 -0.74505805969E-08  0.93827000000E+00  0.93827000000E+00 0. -1.
     999902    2    1    2    0    0  0.17763235243E-01 -0.14549535499E-01  0.74963037300E-02  0.10197759925E+01  0.10194899013E+01 0.  0.
     999903    2    3    3    0    0  0.10940161040E+00 -0.37838197214E-01 -0.60372232235E-01  0.13211271638E+00  0.20211924139E-01 0.  0.
         14    1    1    2    0    0 -0.17763235243E-01  0.14549535499E-01 -0.74963037300E-02  0.24154007517E-01  0.00000000000E+00 0. -1.
     999901    1    3    3    0    0 -0.91638375160E-01  0.23288661714E-01  0.67868535965E-01  0.88766327610E+00  0.88000000000E+00 0.  1.
        -11    1    4    4    0    0  0.70662413782E-01 -0.29810273046E-01 -0.30500993244E-01  0.82537269221E-01  0.51100000000E-03 0.  1.
         11    1    4    4    0    0  0.38739196620E-01 -0.80279241680E-02 -0.29871238991E-01  0.49575447159E-01  0.51100000000E-03 0. -1.
</event>
<event>
 8    1  0.1123191E+005  0.1043930E+01  0.7957747E-01            NaN
         13   -1    0    0    0    0  0.00000000000E+00  0.00000000000E+00  0.74505805969E-08  0.10566000000E+00  0.10566000000E+00 0.  1.
     999900   -1    0    0    0    0 -0.00000000000E+00 -0.00000000000E+00 -0.74505805969E-08  0.93827000000E+00  0.93827000000E+00 0. -1.
     999902    2    1    2    0    0  0.18478794714E-01 -0.85334413496E-02 -0.14200345839E-01  0.10191119562E+01  0.10188097192E+01 0.  0.
     999903    2    3    3    0    0 -0.11669718130E+00  0.45879317965E-01 -0.53171639325E-02  0.12708493656E+00  0.19979112305E-01 0.  0.
         14    1    1    2    0    0 -0.18478794714E-01  0.85334413496E-02  0.14200345839E-01  0.24818043784E-01  0.00000000000E+00 0.  1.
     999901    1    3    3    0    0  0.13517597602E+00 -0.54412759315E-01 -0.88831819062E-02  0.89202701965E+00  0.88000000000E+00 0.  1.
        -11    1    4    4    0    0 -0.68401506529E-01  0.37247354411E-01 -0.20859622753E-02  0.77914978442E-01  0.51100000000E-03 0.  1.
         11    1    4    4    0    0 -0.48295674773E-01  0.86319635543E-02 -0.32312016572E-02  0.49169958122E-01  0.51100000000E-03 0. -1.
</event>
<event>
 8    1  0.1123191E+005  0.1043930E+01  0.7957747E-01            NaN
         13   -1    0    0    0    0  0.00000000000E+00  0.00000000000E+00  0.74505805969E-08  0.10566000000E+00  0.10566000000E+00 0.  1.
     999900   -1    0    0    0    0 -0.00000000000E+00 -0.00000000000E+00 -0.74505805969E-08  0.93827000000E+00  0.93827000000E+00 0.  1.
     999902    2    1    2    0    0  0.21365761913E-01  0.49525028781E-02 -0.58181709750E-02  0.10212391609E+01  0.10209870467E+01 0.  0.
     999903    2    3    3    0    0 -0.59470018411E-01 -0.93202330110E-01 -0.65717553689E-01  0.13008444329E+00  0.19488665814E-01 0.  0.
         14    1    1    2    0    0 -0.21365761913E-01 -0.49525028781E-02  0.58181709750E-02  0.22690839129E-01  0.00000000000E+00 0.  1.
     999901    1    3    3    0    0  0.80835780324E-01  0.98154832988E-01  0.59899382714E-01  0.89115471758E+00  0.88000000000E+00 0. -1.
        -11    1    4    4    0    0 -0.31896443464E-01 -0.62179457724E-01 -0.33281088600E-01  0.77405168096E-01  0.51100000000E-03 0.  1.
         11    1    4    4    0    0 -0.27573574947E-01 -0.31022872386E-01 -0.32436465089E-01  0.52679275193E-01  0.51100000000E-03 0. -1.
</event>
<event>
 8    1  0.1123191E+005  0.1043930E+01  0.7957747E-01            NaN
         13   -1    0    0    0    0  0.00000000000E+00  0.00000000000E+00  0.74505805969E-08  0.10566000000E+00  0.10566000000E+00 0.  1.
     999900   -1    0    0    0    0 -0.00000000000E+00 -0.00000000000E+00 -0.74505805969E-08  0.93827000000E+00  0.93827000000E+00 0. -1.
     999902    2    1    2    0    0  0.42236201215E-02 -0.12620812139E-01 -0.18753707361E-01  0.10209337958E+01  0.10206747719E+01 0.  0.
     999903    2    3    3    0    0  0.68385897548E-01  0.10502610984E-01  0.10714592572E+00  0.12936091147E+00  0.21611575494E-01 0.  0.
         14    1    1    2    0    0 -0.42236201215E-02  0.12620812139E-01  0.18753707361E-01  0.22996204160E-01  0.00000000000E+00 0.  1.
     999901    1    3    3    0    0 -0.64162277427E-01 -0.23123423123E-01 -0.12589963308E+00  0.89157288437E+00  0.88000000000E+00 0. -1.
        -11    1    4    4    0    0  0.22949443654E-01 -0.12530692004E-02  0.52580198219E-01  0.57386283310E-01  0.51100000000E-03 0. -1.
         11    1    4    4    0    0  0.45436453894E-01  0.11755680184E-01  0.54565727503E-01  0.71974628155E-01  0.51100000000E-03 0.  1.
</event>
<event>
 8    1  0.1123191E+005  0.1043930E+01  0.7957747E-01            NaN
         13   -1    0    0    0    0  0.00000000000E+00  0.00000000000E+00  0.74505805969E-08  0.10566000000E+00  0.10566000000E+00 0.  1.
     999900   -1    0    0    0    0 -0.00000000000E+00 -0.00000000000E+00 -0.74505805969E-08  0.93827000000E+00  0.93827000000E+00 0. -1.
     999902    2    1    2    0    0  0.16743914561E-01 -0.79122031778E-02  0.14362735508E-01  0.10204939209E+01  0.10202247756E+01 0.  0.
     999903    2    3    3    0    0 -0.12432685269E+00  0.21906894636E-01  0.14435339590E-01  0.12875957408E+00  0.20822357089E-01 0.  0.
         14    1    1    2    0    0 -0.16743914561E-01  0.79122031778E-02 -0.14362735508E-01  0.23436079135E-01  0.00000000000E+00 0. -1.
     999901    1    3    3    0    0  0.14107076725E+00 -0.29819097814E-01 -0.72604082796E-04  0.89173434679E+00  0.88000000000E+00 0.  1.
        -11    1    4    4    0    0 -0.91162813491E-01  0.10640774614E-01  0.18061085419E-01  0.93543297865E-01  0.51100000000E-03 0.  1.
         11    1    4    4    0    0 -0.33164039202E-01  0.11266120023E-01 -0.36257458281E-02  0.35216276214E-01  0.51100000000E-03 0. -1.
</event>
<event>
 8    1  0.1123191E+005  0.1043930E+01  0.7957747E-01            NaN
         13   -1    0    0    0    0  0.00000000000E+00  0.00000000000E+00  0.74505805969E-08  0.10566000000E+00  0.10566000000E+00 0.  1.
     999900   -1    0    0    0    0 -0.00000000000E+00 -0.00000000000E+00 -0.74505805969E-08  0.93827000000E+00  0.93827000000E+00 0.  1.
     999902    2    1    2    0    0  0.20927233453E-01  0.12618620560E-03 -0.98352800834E-02  0.10208064675E+01  0.10205445342E+01 0.  0.
     999903    2    3    3    0    0 -0.60108763684E-01 -0.46716117434E-01 -0.10439744654E+00  0.13080476096E+00  0.20386258780E-01 0.  0.
         14    1    1    2    0    0 -0.20927233453E-01 -0.12618620560E-03  0.98352800834E-02  0.23123532543E-01  0.00000000000E+00 0.  1.
     999901    1    3    3    0    0  0.81035997137E-01  0.46842303639E-01  0.94562166452E-01  0.89000170650E+00  0.88000000000E+00 0. -1.
        -11    1    4    4    0    0 -0.49882510474E-01 -0.27372156948E-01 -0.73990529194E-01  0.93340020134E-01  0.51100000000E-03 0. -1.
         11    1    4    4    0    0 -0.10226253210E-01 -0.19343960486E-01 -0.30406917341E-01  0.37464740827E-01  0.51100000000E-03 0.  1.
</event>
<event>
 8    1  0.1123191E+005  0.1043930E+01  0.7957747E-01            NaN
         13   -1    0    0    0    0  0.00000000000E+00  0.00000000000E+00  0.74505805969E-08  0.10566000000E+00  0.10566000000E+00 0.  1.
     999900   -1    0    0    0    0 -0.00000000000E+00 -0.00000000000E+00 -0.74505805969E-08  0.93827000000E+00  0.93827000000E+00 0. -1.
     999902    2    1    2    0    0 -0.11045476294E-01  0.12996923406E-01 -0.15023762925E-01  0.10212003714E+01  0.10209473848E+01 0.  0.
     999903    2    3    3    0    0  0.78171467861E-02 -0.97222652412E-01  0.81803921413E-01  0.12885528461E+00  0.19961234590E-01 0.  0.
         14    1    1    2    0    0  0.11045476294E-01 -0.12996923406E-01  0.15023762925E-01  0.22729628616E-01  0.00000000000E+00 0.  1.
     999901    1    3    3    0    0 -0.18862623080E-01  0.11021957582E+00 -0.96827684338E-01  0.89234508678E+00  0.88000000000E+00 0. -1.
        -11    1    4    4    0    0  0.99194453355E-02 -0.64028141291E-01  0.64225332302E-01  0.91231314269E-01  0.51100000000E-03 0.  1.
         11    1    4    4    0    0 -0.21022985494E-02 -0.33194511122E-01  0.17578589111E-01  0.37623970337E-01  0.51100000000E-03 0. -1.
</event>
<event>
 8    1  0.1123191E+005  0.1043930E+01  0.7957747E-01            NaN
         13   -1    0    0    0    0  0.00000000000E+00  0.00000000000E+00  0.74505805969E-08  0.10566000000E+00  0.10566000000E+00 0.  1.
     999900   -1    0    0    0    0 -0.00000000000E+00 -0.00000000000E+00 -0.74505805969E-08  0.93827000000E+00  0.93827000000E+00 0.  1.
     999902    2    1    2    0    0  0.11011743553E-01  0.13505112299E-01 -0.11869934966E-01  0.10228458375E+01  0.10226285080E+01 0.  0.
     999903    2    3    3    0    0 -0.13414894456E-01  0.99215785168E-01  0.85313590512E-01  0.13302135043E+00  0.19812610201E-01 0.  0.
         14    1    1    2    0    0 -0.11011743553E-01 -0.13505112299E-01  0.11869934966E-01  0.21084162548E-01  0.00000000000E+00 0. -1.
     999901    1    3    3    0    0  0.24426638009E-01 -0.85710672870E-01 -0.97183525478E-01  0.88982448703E+00  0.88000000000E+00 0.  1.
        -11    1    4    4    0    0 -0.10581932586E-01  0.79098265596E-01  0.56577600317E-01  0.97825348944E-01  0.51100000000E-03 0. -1.
         11    1    4    4    0    0 -0.28329618700E-02  0.20117519573E-01  0.28735990195E-01  0.35196001481E-01  0.51100000000E-03 0.  1.
</event>
<event>
 8    1  0.1123191E+005  0.1043930E+01  0.7957747E-01            NaN
         13   -1    0    0    0    0  0.00000000000E+00  0.00000000000E+00  0.74505805969E-08  0.10566000000E+00  0.10566000000E+00 0.  1.
     999900   -1    0    0    0    0 -0.00000000000E+00 -0.00000000000E+00 -0.74505805969E-08  0.93827000000E+00  0.93827000000E+00 0.  1.
     999902    2    1    2    0    0 -0.17342785849E-01  0.73821986402E-02  0.14746516036E-01  0.10199982468E+01  0.10197174582E+01 0.  0.
     999903    2    3    3    0    0 -0.16766298549E-01  0.12741901463E+00 -0.17439270107E-01  0.13126595054E+00  0.20246174278E-01 0.  0.
         14    1    1    2    0    0  0.17342785849E-01 -0.73821986402E-02 -0.14746516036E-01  0.23931753236E-01  0.00000000000E+00 0. -1.
     999901    1    3    3    0    0 -0.57648729946E-03 -0.12003681599E+00  0.32185786144E-01  0.88873229623E+00  0.88000000000E+00 0. -1.
        -11    1    4    4    0    0 -0.10921916839E-01  0.86775798062E-01 -0.21306668319E-01  0.90019790228E-01  0.51100000000E-03 0. -1.
         11    1    4    4    0    0 -0.58443817102E-02  0.40643216564E-01  0.38673982121E-02  0.41246160308E-01  0.51100000000E-03 0.  1.
</event>
<event>
 8    1  0.1123191E+005  0.1043930E+01  0.7957747E-01            NaN
         13   -1    0    0    0    0  0.00000000000E+00  0.00000000000E+00  0.74505805969E-08  0.10566000000E+00  0.10566000000E+00 0. -1.
     999900   -1    0    0    0    0 -0.00000000000E+00 -0.00000000000E+00 -0.74505805969E-08  0.93827000000E+00  0.93827000000E+00 0.  1.
     999902    2    1    2    0    0  0.14932138258E-01 -0.17204219977E-01  0.49892415108E-02  0.10206094840E+01  0.10203430170E+01 0.  0.
     999903    2    3    3    0    0  0.91088357952E-01 -0.37217774085E-01 -0.86303163810E-01  0.13238957007E+00  0.19912571839E-01 0.  0.
         14    1    1    2    0    0 -0.14932138258E-01  0.17204219977E-01 -0.49892415108E-02  0.23320516050E-01  0.00000000000E+00 0. -1.
     999901    1    3    3    0    0 -0.76156219694E-01  0.20013554108E-01  0.91292405320E-01  0.88821991388E+00  0.88000000000E+00 0. -1.
        -11    1    4    4    0    0  0.12179471650E-01  0.31784260807E-03 -0.55160750028E-02  0.13383899209E-01  0.51100000000E-03 0.  1.
         11    1    4    4    0    0  0.78908886302E-01 -0.37535616693E-01 -0.80787088807E-01  0.11900567086E+00  0.51100000000E-03 0. -1.
</event>
<event>
 8    1  0.1123191E+005  0.1043930E+01  0.7957747E-01            NaN
         13   -1    0    0    0    0  0.00000000000E+00  0.00000000000E+00  0.74505805969E-08  0.10566000000E+00  0.10566000000E+00 0.  1.
     999900   -1    0    0    0    0 -0.00000000000E+00 -0.00000000000E+00 -0.74505805969E-08  0.93827000000E+00  0.93827000000E+00 0. -1.
     999902    2    1    2    0    0  0.18794695856E-01 -0.10973929239E-01  0.13976104407E-01  0.10180649810E+01  0.10177363638E+01 0.  0.
     999903    2    3    3    0    0  0.12211360725E+00 -0.27725829687E-01 -0.31157806885E-01  0.13071358858E+00  0.20851345297E-01 0.  0.
         14    1    1    2    0    0 -0.18794695856E-01  0.10973929239E-01 -0.13976104407E-01  0.25865019035E-01  0.00000000000E+00 0. -1.
     999901    1    3    3    0    0 -0.10331891140E+00  0.16751900448E-01  0.45133911293E-01  0.88735139239E+00  0.88000000000E+00 0.  1.
        -11    1    4    4    0    0  0.60107564436E-01 -0.69537529840E-02 -0.23328168655E-01  0.64851665798E-01  0.51100000000E-03 0.  1.
         11    1    4    4    0    0  0.62006042819E-01 -0.20772076703E-01 -0.78296382308E-02  0.65861922781E-01  0.51100000000E-03 0. -1.
</event>
<event>
 8    1  0.1123191E+005  0.1043930E+01  0.7957747E-01            NaN
         13   -1    0    0    0    0  0.00000000000E+00  0.00000000000E+00  0.74505805969E-08  0.10566000000E+00  0.10566000000E+00 0.  1.
     999900   -1    0    0    0    0 -0.00000000000E+00 -0.00000000000E+00 -0.74505805969E-08  0.93827000000E+00  0.93827000000E+00 0.  1.
     999902    2    1    2    0    0 -0.67540801643E-02  0.20609578301E-01  0.84038266088E-02  0.10206706660E+01  0.10204056114E+01 0.  0.
     999903    2    3    3    0    0 -0.10078107351E+00  0.57233990568E-01  0.63982820429E-01  0.13316210401E+00  0.14345388759E-01 0.  0.
         14    1    1    2    0    0  0.67540801643E-02 -0.20609578301E-01 -0.84038266088E-02  0.23259334003E-01  0.00000000000E+00 0. -1.
     999901    1    3    3    0    0  0.94026993349E-01 -0.36624412267E-01 -0.55578993820E-01  0.88750856199E+00  0.88000000000E+00 0.  1.
        -11    1    4    4    0    0 -0.82145357501E-01  0.50403869876E-01  0.47974879972E-01  0.10765807024E+00  0.51100000000E-03 0.  1.
         11    1    4    4    0    0 -0.18635716012E-01  0.68301206924E-02  0.16007940456E-01  0.25504033771E-01  0.51100000000E-03 0. -1.
</event>
<event>
 8    1  0.1123191E+005  0.1043930E+01  0.7957747E-01            NaN
         13   -1    0    0    0    0  0.00000000000E+00  0.00000000000E+00  0.74505805969E-08  0.10566000000E+00  0.10566000000E+00 0. -1.
     999900   -1    0    0    0    0 -0.00000000000E+00 -0.00000000000E+00 -0.74505805969E-08  0.93827000000E+00  0.93827000000E+00 0. -1.
     999902    2    1    2    0    0  0.20356997817E-01  0.23826929293E-02  0.11515660374E-01  0.10204205334E+01  0.10201496802E+01 0.  0.
     999903    2    3    3    0    0 -0.70636281755E-01  0.10515258422E+00 -0.12926621586E-01  0.12944418544E+00  0.23284100360E-01 0.  0.
         14    1    1    2    0    0 -0.20356997817E-01 -0.23826929293E-02 -0.11515660374E-01  0.23509466594E-01  0.00000000000E+00 0.  1.
     999901    1    3    3    0    0  0.90993279572E-01 -0.10276989130E+00  0.24442281961E-01  0.89097634796E+00  0.88000000000E+00 0. -1.
        -11    1    4    4    0    0 -0.13675144432E-01  0.29616793475E-01 -0.12207063310E-01  0.34834430477E-01  0.51100000000E-03 0. -1.
         11    1    4    4    0    0 -0.56961137323E-01  0.75535790750E-01 -0.71955827600E-03  0.94609754964E-01  0.51100000000E-03 0.  1.
</event>
<event>
 8    1  0.1123191E+005  0.1043930E+01  0.7957747E-01            NaN
         13   -1    0    0    0    0  0.00000000000E+00  0.00000000000E+00  0.74505805969E-08  0.10566000000E+00  0.10566000000E+00 0. -1.
     999900   -1    0    0    0    0 -0.00000000000E+00 -0.00000000000E+00 -0.74505805969E-08  0.93827000000E+00  0.93827000000E+00 0.  1.
     999902    2    1    2    0    0  0.19730889814E-01  0.59314773173E-02 -0.11795417831E-01  0.10201892688E+01  0.10199129972E+01 0.  0.
     999903    2    3    3    0    0 -0.49617255230E-01  0.35455317771E-01  0.11128616617E+00  0.12843263233E+00  0.19783293205E-01 0.  0.
         14    1    1    2    0    0 -0.19730889814E-01 -0.59314773173E-02  0.11795417831E-01  0.23740731199E-01  0.00000000000E+00 0. -1.
     999901    1    3    3    0    0  0.69348145044E-01 -0.29523840454E-01 -0.12308158400E+00  0.89175663647E+00  0.88000000000E+00 0.  1.
        -11    1    4    4    0    0 -0.30211276450E-01  0.15432041745E-01  0.43745926014E-01  0.55360963693E-01  0.51100000000E-03 0. -1.
         11    1    4    4    0    0 -0.19405978780E-01  0.20023276026E-01  0.67540240159E-01  0.73071668634E-01  0.51100000000E-03 0.  1.
</event>
<event>
 8    1  0.1123191E+005  0.1043930E+01  0.7957747E-01            NaN
         13   -1    0    0    0    0  0.00000000000E+00  0.00000000000E+00  0.74505805969E-08  0.10566000000E+00  0.10566000000E+00 0.  1.
     999900   -1    0    0    0    0 -0.00000000000E+00 -0.00000000000E+00 -0.74505805969E-08  0.93827000000E+00  0.93827000000E+00 0.  1.
     999902    2    1    2    0    0  0.18722466814E-02  0.19117340988E-01 -0.10177791899E-01  0.10221914287E+01  0.10219602494E+01 0.  0.
     999903    2    3    3    0    0 -0.76013741180E-01 -0.85413273869E-01 -0.61120111251E-01  0.13113138783E+00  0.19653413763E-01 0.  0.
         14    1    1    2    0    0 -0.18722466814E-02 -0.19117340988E-01  0.10177791899E-01  0.21738571297E-01  0.00000000000E+00 0.  1.
     999901    1    3    3    0    0  0.77885987861E-01  0.10453061486E+00  0.50942319352E-01  0.89106004088E+00  0.88000000000E+00 0. -1.
        -11    1    4    4    0    0 -0.35241771748E-01 -0.53544675835E-01 -0.30374967151E-01  0.70935989008E-01  0.51100000000E-03 0. -1.
         11    1    4    4    0    0 -0.40771969432E-01 -0.31868598035E-01 -0.30745144100E-01  0.60195398817E-01  0.51100000000E-03 0.  1.
</event>
<event>
 8    1  0.1123191E+005  0.1043930E+01  0.7957747E-01            NaN
         13   -1    0    0    0    0  0.00000000000E+00  0.00000000000E+00  0.74505805969E-08  0.10566000000E+00  0.10566000000E+00 0. -1.
     999900   -1    0    0    0    0 -0.00000000000E+00 -0.00000000000E+00 -0.74505805969E-08  0.93827000000E+00  0.93827000000E+00 0. -1.
     999902    2    1    2    0    0  0.25274435876E-01  0.27573703096E-03  0.36179962361E-03  0.10186514708E+01  0.10183377705E+01 0.  0.
     999903    2    3    3    0    0  0.45899451320E-02 -0.91117456938E-01  0.89142248910E-01  0.12923450883E+00  0.20778815557E-01 0.  0.
         14    1    1    2    0    0 -0.25274435876E-01 -0.27573703096E-03 -0.36179962361E-03  0.25278529205E-01  0.00000000000E+00 0. -1.
     999901    1    3    3    0    0  0.20684490744E-01  0.91393193969E-01 -0.88780449287E-01  0.88941696197E+00  0.88000000000E+00 0. -1.
        -11    1    4    4    0    0 -0.77718357939E-02 -0.31999579832E-01  0.27129187923E-01  0.42668823506E-01  0.51100000000E-03 0.  1.
         11    1    4    4    0    0  0.12361780926E-01 -0.59117877106E-01  0.62013060987E-01  0.86565685322E-01  0.51100000000E-03 0. -1.
</event>
<event>
 8    1  0.1123191E+005  0.1043930E+01  0.7957747E-01            NaN
         13   -1    0    0    0    0  0.00000000000E+00  0.00000000000E+00  0.74505805969E-08  0.10566000000E+00  0.10566000000E+00 0. -1.
     999900   -1    0    0    0    0 -0.00000000000E+00 -0.00000000000E+00 -0.74505805969E-08  0.93827000000E+00  0.93827000000E+00 0. -1.
     999902    2    1    2    0    0  0.28449473222E-02  0.21376783567E-01  0.46753811144E-02  0.10218637409E+01  0.10216254623E+01 0.  0.
     999903    2    3    3    0    0  0.32190822153E-01 -0.10922599325E+00 -0.58198144295E-01  0.12952336535E+00  0.20559949922E-01 0.  0.
         14    1    1    2    0    0 -0.28449473222E-02 -0.21376783567E-01 -0.46753811144E-02  0.22066259073E-01  0.00000000000E+00 0.  1.
     999901    1    3    3    0    0 -0.29345874831E-01  0.13060277682E+00  0.62873525410E-01  0.89234037557E+00  0.88000000000E+00 0.  1.
        -11    1    4    4    0    0  0.67743280224E-02 -0.50346786811E-01 -0.33207919703E-01  0.60693636523E-01  0.51100000000E-03 0. -1.
         11    1    4    4    0    0  0.25416494131E-01 -0.58879206438E-01 -0.24990224593E-01  0.68829728831E-01  0.51100000000E-03 0.  1.
</event>
<event>
 8    1  0.1123191E+005  0.1043930E+01  0.7957747E-01            NaN
         13   -1    0    0    0    0  0.00000000000E+00  0.00000000000E+00  0.74505805969E-08  0.10566000000E+00  0.10566000000E+00 0. -1.
     999900   -1    0    0    0    0 -0.00000000000E+00 -0.00000000000E+00 -0.74505805969E-08  0.93827000000E+00  0.93827000000E+00 0.  1.
     999902    2    1    2    0    0 -0.69442089253E-02  0.84361913943E-02  0.21639445239E-01  0.10196883632E+01  0.10194001673E+01 0.  0.
     999903    2    3    3    0    0 -0.11934570455E+00  0.42480247800E-01 -0.23485766840E-01  0.13073989523E+00  0.22211940820E-01 0.  0.
         14    1    1    2    0    0  0.69442089253E-02 -0.84361913943E-02 -0.21639445239E-01  0.24241636766E-01  0.00000000000E+00 0.  1.
     999901    1    3    3    0    0  0.11240149562E+00 -0.34044056406E-01  0.45125212080E-01  0.88894846800E+00  0.88000000000E+00 0. -1.
        -11    1    4    4    0    0 -0.63069259126E-01  0.11230545286E-01 -0.82857644147E-02  0.64596993793E-01  0.51100000000E-03 0.  1.
         11    1    4    4    0    0 -0.56276445420E-01  0.31249702514E-01 -0.15200002426E-01  0.66142901441E-01  0.51100000000E-03 0. -1.
</event>
<event>
 8    1  0.1123191E+005  0.1043930E+01  0.7957747E-01            NaN
         13   -1    0    0    0    0  0.00000000000E+00  0.00000000000E+00  0.74505805969E-08  0.10566000000E+00  0.10566000000E+00 0. -1.
     999900   -1    0    0    0    0 -0.00000000000E+00 -0.00000000000E+00 -0.74505805969E-08  0.93827000000E+00  0.93827000000E+00 0.  1.
     999902    2    1    2    0    0  0.12310540856E-01  0.18164191273E-01 -0.97842855014E-02  0.10199046071E+01  0.10196215906E+01 0.  0.
     999903    2    3    3    0    0  0.78322425436E-01 -0.21624944377E-01  0.99304329857E-01  0.12982535770E+00  0.19779611450E-01 0.  0.
         14    1    1    2    0    0 -0.12310540856E-01 -0.18164191273E-01  0.97842855014E-02  0.24025392891E-01  0.00000000000E+00 0. -1.
     999901    1    3    3    0    0 -0.66011884580E-01  0.39789135650E-01 -0.10908861536E+00  0.89007924941E+00  0.88000000000E+00 0.  1.
        -11    1    4    4    0    0  0.32213986693E-01 -0.56119286341E-02  0.54547256270E-01  0.63599520196E-01  0.51100000000E-03 0.  1.
         11    1    4    4    0    0  0.46108438743E-01 -0.16013015743E-01  0.44757073587E-01  0.66225837507E-01  0.51100000000E-03 0. -1.
</event>
<event>
 8    1  0.1123191E+005  0.1043930E+01  0.7957747E-01            NaN
         13   -1    0    0    0    0  0.00000000000E+00  0.00000000000E+00  0.74505805969E-08  0.10566000000E+00  0.10566000000E+00 0.  1.
     999900   -1    0    0    0    0 -0.00000000000E+00 -0.00000000000E+00 -0.74505805969E-08  0.93827000000E+00  0.93827000000E+00 0.  1.
     999902    2    1    2    0    0  0.20200349418E-01  0.48955069295E-03 -0.12648247544E-01  0.10200915449E+01  0.10198129672E+01 0.  0.
     999903    2    3    3    0    0 -0.50812552385E-02 -0.11105105870E+00  0.63154903807E-01  0.12945885694E+00  0.20319866427E-01 0.  0.
         14    1    1    2    0    0 -0.20200349418E-01 -0.48955069295E-03  0.12648247544E-01  0.23838455118E-01  0.00000000000E+00 0. -1.
     999901    1    3    3    0    0  0.25281604656E-01  0.11154060939E+00 -0.75803151352E-01  0.89063268794E+00  0.88000000000E+00 0.  1.
        -11    1    4    4    0    0  0.37368052037E-02 -0.88922837920E-01  0.52746358477E-01  0.10345856306E+00  0.51100000000E-03 0.  1.
         11    1    4    4    0    0 -0.88180604422E-02 -0.22128220781E-01  0.10408545331E-01  0.26000293879E-01  0.51100000000E-03 0. -1.
</event>
<event>
 8    1  0.1123191E+005  0.1043930E+01  0.7957747E-01            NaN
         13   -1    0    0    0    0  0.00000000000E+00  0.00000000000E+00  0.74505805969E-08  0.10566000000E+00  0.10566000000E+00 0.  1.
     999900   -1    0    0    0    0 -0.00000000000E+00 -0.00000000000E+00 -0.74505805969E-08  0.93827000000E+00  0.93827000000E+00 0.  1.
     999902    2    1    2    0    0  0.18333094588E-01 -0.12700317549E-01  0.86575929275E-02  0.10200060718E+01  0.10197254691E+01 0.  0.
     999903    2    3    3    0    0 -0.48084300042E-01  0.85205715931E-01  0.81759246846E-01  0.12908479951E+00  0.20154331566E-01 0.  0.
         14    1    1    2    0    0 -0.18333094588E-01  0.12700317549E-01 -0.86575929275E-02  0.23923928154E-01  0.00000000000E+00 0. -1.
     999901    1    3    3    0    0  0.66417394631E-01 -0.97906033480E-01 -0.73101653919E-01  0.89092127234E+00  0.88000000000E+00 0.  1.
        -11    1    4    4    0    0 -0.24040960465E-01  0.33732794197E-01  0.46234879422E-01  0.62078936690E-01  0.51100000000E-03 0.  1.
         11    1    4    4    0    0 -0.24043339578E-01  0.51472921734E-01  0.35524367425E-01  0.67005862817E-01  0.51100000000E-03 0. -1.
</event>
<event>
 8    1  0.1123191E+005  0.1043930E+01  0.7957747E-01            NaN
         13   -1    0    0    0    0  0.00000000000E+00  0.00000000000E+00  0.74505805969E-08  0.10566000000E+00  0.10566000000E+00 0.  1.
     999900   -1    0    0    0    0 -0.00000000000E+00 -0.00000000000E+00 -0.74505805969E-08  0.93827000000E+00  0.93827000000E+00 0.  1.
     999902    2    1    2    0    0  0.78013769605E-02 -0.10936296541E-01 -0.19054372480E-01  0.10206162020E+01  0.10203498903E+01 0.  0.
     999903    2    3    3    0    0  0.12979433867E+00  0.32929216305E-02  0.87208306108E-02  0.13165263965E+00  0.19973756725E-01 0.  0.
         14    1    1    2    0    0 -0.78013769605E-02  0.10936296541E-01  0.19054372480E-01  0.23313797956E-01  0.00000000000E+00 0.  1.
     999901    1    3    3    0    0 -0.12199296171E+00 -0.14229218172E-01 -0.27775203091E-01  0.88896356239E+00  0.88000000000E+00 0.  1.
        -11    1    4    4    0    0  0.65719762575E-01  0.11611111274E-01  0.36325079640E-02  0.66838322339E-01  0.51100000000E-03 0. -1.
         11    1    4    4    0    0  0.64074576092E-01 -0.83181896438E-02  0.50883226469E-02  0.64814317313E-01  0.51100000000E-03 0.  1.
</event>
<event>
 8    1  0.1123191E+005  0.1043930E+01  0.7957747E-01            NaN
         13   -1    0    0    0    0  0.00000000000E+00  0.00000000000E+00  0.74505805969E-08  0.10566000000E+00  0.10566000000E+00 0.  1.
     999900   -1    0    0    0    0 -0.00000000000E+00 -0.00000000000E+00 -0.74505805969E-08  0.93827000000E+00  0.93827000000E+00 0.  1.
     999902    2    1    2    0    0 -0.88529226845E-02 -0.15945365378E-01  0.15999057833E-01  0.10196689454E+01  0.10193802821E+01 0.  0.
     999903    2    3    3    0    0  0.51932666357E-01  0.64582660661E-01  0.98238316118E-01  0.13009435811E+00  0.20145802665E-01 0.  0.
         14    1    1    2    0    0  0.88529226845E-02  0.15945365378E-01 -0.15999057833E-01  0.24261054565E-01  0.00000000000E+00 0. -1.
     999901    1    3    3    0    0 -0.60785589041E-01 -0.80528026039E-01 -0.82239258285E-01  0.88957458733E+00  0.88000000000E+00 0. -1.
        -11    1    4    4    0    0  0.11062941329E-02  0.12328359904E-01  0.14359537046E-01  0.18964961635E-01  0.51100000000E-03 0.  1.
         11    1    4    4    0    0  0.50826372224E-01  0.52254300757E-01  0.83878779072E-01  0.11112939647E+00  0.51100000000E-03 0. -1.
</event>
<event>
 8    1  0.1123191E+005  0.1043930E+01  0.7957747E-01            NaN
         13   -1    0    0    0    0  0.00000000000E+00  0.00000000000E+00  0.74505805969E-08  0.10566000000E+00  0.10566000000E+00 0.  1.
     999900   -1    0    0    0    0 -0.00000000000E+00 -0.00000000000E+00 -0.74505805969E-08  0.93827000000E+00  0.93827000000E+00 0.  1.
     999902    2    1    2    0    0  0.17396044401E-01 -0.95077687029E-02 -0.38046604213E-02  0.10237434830E+01  0.10235444414E+01 0.  0.
     999903    2    3    3    0    0 -0.17627263904E-01  0.11691045940E+00  0.54910264145E-01  0.13208455559E+00  0.21270090893E-01 0.  0.
         14    1    1    2    0    0 -0.17396044401E-01  0.95077687029E-02  0.38046604213E-02  0.20186516971E-01  0.00000000000E+00 0.  1.
     999901    1    3    3    0    0  0.35023308305E-01 -0.12641822810E+00 -0.58714924567E-01  0.89165892744E+00  0.88000000000E+00 0.  1.
        -11    1    4    4    0    0 -0.11448026241E-01  0.20582622954E-01  0.12221535725E-01  0.26539192319E-01  0.51100000000E-03 0.  1.
         11    1    4    4    0    0 -0.61792376627E-02  0.96327836444E-01  0.42688728421E-01  0.10554536327E+00  0.51100000000E-03 0. -1.
</event>
<event>
 8    1  0.1123191E+005  0.1043930E+01  0.7957747E-01            NaN
         13   -1    0    0    0    0  0.00000000000E+00  0.00000000000E+00  0.74505805969E-08  0.10566000000E+00  0.10566000000E+00 0. -1.
     999900   -1    0    0    0    0 -0.00000000000E+00 -0.00000000000E+00 -0.74505805969E-08  0.93827000000E+00  0.93827000000E+00 0. -1.
     999902    2    1    2    0    0  0.20734979341E-01 -0.23378575672E-02 -0.13291578569E-01  0.10191899311E+01  0.10188896136E+01 0.  0.
     999903    2    3    3    0    0 -0.55392978519E-01 -0.11448399231E+00 -0.13459116845E-02  0.12873222835E+00  0.19879853456E-01 0.  0.
         14    1    1    2    0    0 -0.20734979341E-01  0.23378575672E-02  0.13291578569E-01  0.24740068859E-01  0.00000000000E+00 0.  1.
     999901    1    3    3    0    0  0.76127957860E-01  0.11214613474E+00 -0.11945666884E-01  0.89045770279E+00  0.88000000000E+00 0.  1.
        -11    1    4    4    0    0 -0.36995473941E-01 -0.84255647959E-01  0.72699101881E-02  0.92308136262E-01  0.51100000000E-03 0.  1.
         11    1    4    4    0    0 -0.18397504579E-01 -0.30228344349E-01 -0.86158218726E-02  0.36424092087E-01  0.51100000000E-03 0. -1.
</event>
<event>
 8    1  0.1123191E+005  0.1043930E+01  0.7957747E-01            NaN
         13   -1    0    0    0    0  0.00000000000E+00  0.00000000000E+00  0.74505805969E-08  0.10566000000E+00  0.10566000000E+00 0. -1.
     999900   -1    0    0    0    0 -0.00000000000E+00 -0.00000000000E+00 -0.74505805969E-08  0.93827000000E+00  0.93827000000E+00 0. -1.
     999902    2    1    2    0    0 -0.41419252870E-02 -0.75186115340E-02 -0.23300085042E-01  0.10190989906E+01  0.10187964339E+01 0.  0.
     999903    2    3    3    0    0 -0.10947962261E-01 -0.11750719473E+00 -0.54598889811E-01  0.13167382432E+00  0.20716142316E-01 0.  0.
         14    1    1    2    0    0  0.41419252870E-02  0.75186115340E-02  0.23300085042E-01  0.24831009392E-01  0.00000000000E+00 0. -1.
     999901    1    3    3    0    0  0.68060369745E-02  0.10998858320E+00  0.31298804769E-01  0.88742516628E+00  0.88000000000E+00 0.  1.
        -11    1    4    4    0    0 -0.15125803136E-01 -0.51732843583E-01 -0.25429019696E-01  0.59598432776E-01  0.51100000000E-03 0. -1.
         11    1    4    4    0    0  0.41778408746E-02 -0.65774351148E-01 -0.29169870115E-01  0.72075391548E-01  0.51100000000E-03 0.  1.
</event>
<event>
 8    1  0.1123191E+005  0.1043930E+01  0.7957747E-01            NaN
         13   -1    0    0    0    0  0.00000000000E+00  0.00000000000E+00  0.74505805969E-08  0.10566000000E+00  0.10566000000E+00 0. -1.
     999900   -1    0    0    0    0 -0.00000000000E+00 -0.00000000000E+00 -0.74505805969E-08  0.93827000000E+00  0.93827000000E+00 0.  1.
     999902    2    1    2    0    0  0.12598943380E-01  0.96890481327E-02  0.18090705669E-01  0.10198492056E+01  0.10195648667E+01 0.  0.
     999903    2    3    3    0    0  0.89690805491E-02 -0.42239583714E-01  0.12277055904E+00  0.13211747223E+00  0.22754987670E-01 0.  0.
         14    1    1    2    0    0 -0.12598943380E-01 -0.96890481327E-02 -0.18090705669E-01  0.24080794414E-01  0.00000000000E+00 0.  1.
     999901    1    3    3    0    0  0.36298628304E-02  0.51928631847E-01 -0.10467985337E+00  0.88773173336E+00  0.88000000000E+00 0.  1.
        -11    1    4    4    0    0  0.14141217584E-01 -0.13488233627E-01  0.46501878081E-01  0.50443951741E-01  0.51100000000E-03 0.  1.
         11    1    4    4    0    0 -0.51721370348E-02 -0.28751350087E-01  0.76268680955E-01  0.81673520488E-01  0.51100000000E-03 0. -1.
</event>
<event>
 8    1  0.1123191E+005  0.1043930E+01  0.7957747E-01            NaN
         13   -1    0    0    0    0  0.00000000000E+00  0.00000000000E+00  0.74505805969E-08  0.10566000000E+00  0.10566000000E+00 0. -1.
     999900   -1    0    0    0    0 -0.00000000000E+00 -0.00000000000E+00 -0.74505805969E-08  0.93827000000E+00  0.93827000000E+00 0. -1.
     999902    2    1    2    0    0 -0.14484249444E-01 -0.16882942437E-01  0.54184889126E-02  0.10210348641E+01  0.10207781377E+01 0.  0.
     999903    2    3    3    0    0  0.26206752365E-01  0.11800845754E+00 -0.39331872605E-01  0.12870418418E+00  0.20124137269E-01 0.  0.
         14    1    1    2    0    0  0.14484249444E-01  0.16882942437E-01 -0.54184889126E-02  0.22895135933E-01  0.00000000000E+00 0. -1.
     999901    1    3    3    0    0 -0.40691001809E-01 -0.13489139998E+00  0.44750361518E-01  0.89233067989E+00  0.88000000000E+00 0.  1.
        -11    1    4    4    0    0  0.23062298424E-01  0.69554637863E-01 -0.30377773659E-01  0.79327091907E-01  0.51100000000E-03 0.  1.
         11    1    4    4    0    0  0.31444539413E-02  0.48453819679E-01 -0.89540989462E-02  0.49377092270E-01  0.51100000000E-03 0. -1.
</event>
<event>
 7    1  0.1123191E+005  0.1043930E+01  0.7957747E-01            NaN
         13   -1    0    0    0    0  0.00000000000E+00  0.00000000000E+00  0.74505805969E-08  0.10566000000E+00  0.10566000000E+00 0.  1.
     999900   -1    0    0    0    0 -0.00000000000E+00 -0.00000000000E+00 -0.74505805969E-08  0.93827000000E+00  0.93827000000E+00 0.  1.
     999903    2    1    2    0    0 -0.32589006391E-01  0.94846327852E-01 -0.55830929873E-01  0.11649426188E+00  0.19898519466E-01 0.  0.
         14    1    1    2    0    0 -0.17178963071E-02 -0.42770618511E-01 -0.52031738127E-02  0.43120180812E-01  0.00000000000E+00 0.  1.
     999901    1    1    2    0    0  0.34306902698E-01 -0.52075709341E-01  0.61034103686E-01  0.88431555730E+00  0.88000000000E+00 0. -1.
        -11    1    3    3    0    0 -0.26273500292E-02  0.20455980715E-01 -0.40291145958E-02  0.21020109434E-01  0.51100000000E-03 0.  1.
         11    1    3    3    0    0 -0.29961656362E-01  0.74390347137E-01 -0.51801815277E-01  0.95474152450E-01  0.51100000000E-03 0. -1.
</event>
<event>
 8    1  0.1123191E+005  0.1043930E+01  0.7957747E-01            NaN
         13   -1    0    0    0    0  0.00000000000E+00  0.00000000000E+00  0.74505805969E-08  0.10566000000E+00  0.10566000000E+00 0. -1.
     999900   -1    0    0    0    0 -0.00000000000E+00 -0.00000000000E+00 -0.74505805969E-08  0.93827000000E+00  0.93827000000E+00 0.  1.
     999902    2    1    2    0    0 -0.23552421315E-01 -0.72602544928E-02 -0.51285196931E-02  0.10187560142E+01  0.10184449357E+01 0.  0.
     999903    2    3    3    0    0  0.26615541739E-01  0.41577271325E-01 -0.11715837301E+00  0.12889500459E+00  0.21231610602E-01 0.  0.
         14    1    1    2    0    0  0.23552421315E-01  0.72602544928E-02  0.51285196931E-02  0.25173985766E-01  0.00000000000E+00 0. -1.
     999901    1    3    3    0    0 -0.50167963054E-01 -0.48837525818E-01  0.11202985332E+00  0.88986100964E+00  0.88000000000E+00 0. -1.
        -11    1    4    4    0    0  0.11115344138E-01  0.34254999520E-01 -0.70149900627E-01  0.78855726148E-01  0.51100000000E-03 0.  1.
         11    1    4    4    0    0  0.15500197601E-01  0.73222718048E-02 -0.47008472387E-01  0.50039278445E-01  0.51100000000E-03 0. -1.
</event>
<event>
 8    1  0.1123191E+005  0.1043930E+01  0.7957747E-01            NaN
         13   -1    0    0    0    0  0.00000000000E+00  0.00000000000E+00  0.74505805969E-08  0.10566000000E+00  0.10566000000E+00 0. -1.
     999900   -1    0    0    0    0 -0.00000000000E+00 -0.00000000000E+00 -0.74505805969E-08  0.93827000000E+00  0.93827000000E+00 0.  1.
     999902    2    1    2    0    0  0.41015764017E-02 -0.89938359821E-02 -0.12514446022E-01  0.10279824806E+01  0.10278587729E+01 0.  0.
     999903    2    3    3    0    0 -0.59927351100E-01  0.71589265080E-01 -0.98960192599E-01  0.13777677023E+00  0.21748756553E-01 0.  0.
         14    1    1    2    0    0 -0.41015764017E-02  0.89938359821E-02  0.12514446022E-01  0.15947519365E-01  0.00000000000E+00 0.  1.
     999901    1    3    3    0    0  0.64028927501E-01 -0.80583101062E-01  0.86445746577E-01  0.89020571040E+00  0.88000000000E+00 0. -1.
        -11    1    4    4    0    0 -0.49604223315E-01  0.44154874260E-01 -0.65260631678E-01  0.93109844053E-01  0.51100000000E-03 0.  1.
         11    1    4    4    0    0 -0.10323127785E-01  0.27434390820E-01 -0.33699560921E-01  0.44666926178E-01  0.51100000000E-03 0. -1.
</event>
<event>
 8    1  0.1123191E+005  0.1043930E+01  0.7957747E-01            NaN
         13   -1    0    0    0    0  0.00000000000E+00  0.00000000000E+00  0.74505805969E-08  0.10566000000E+00  0.10566000000E+00 0.  1.
     999900   -1    0    0    0    0 -0.00000000000E+00 -0.00000000000E+00 -0.74505805969E-08  0.93827000000E+00  0.93827000000E+00 0. -1.
     999902    2    1    2    0    0 -0.19643996676E-01  0.10308516163E-01 -0.82821353520E-02  0.10202499266E+01  0.10199750815E+01 0.  0.
     999903    2    3    3    0    0 -0.96177166143E-01 -0.72928580286E-01  0.47213541343E-01  0.13128113614E+00  0.20904380169E-01 0.  0.
         14    1    1    2    0    0  0.19643996676E-01 -0.10308516163E-01  0.82821353520E-02  0.23680073414E-01  0.00000000000E+00 0.  1.
     999901    1    3    3    0    0  0.76533169467E-01  0.83237096450E-01 -0.55495676695E-01  0.88896879045E+00  0.88000000000E+00 0. -1.
        -11    1    4    4    0    0 -0.17730940917E-01 -0.14832075437E-01  0.66226778397E-03  0.23131719503E-01  0.51100000000E-03 0. -1.
         11    1    4    4    0    0 -0.78446225227E-01 -0.58096504850E-01  0.46551273559E-01  0.10814941664E+00  0.51100000000E-03 0.  1.
</event>
<event>
 8    1  0.1123191E+005  0.1043930E+01  0.7957747E-01            NaN
         13   -1    0    0    0    0  0.00000000000E+00  0.00000000000E+00  0.74505805969E-08  0.10566000000E+00  0.10566000000E+00 0. -1.
     999900   -1    0    0    0    0 -0.00000000000E+00 -0.00000000000E+00 -0.74505805969E-08  0.93827000000E+00  0.93827000000E+00 0.  1.
     999902    2    1    2    0    0 -0.21257930419E-02 -0.20134061195E-01  0.12124025917E-01  0.10203314530E+01  0.10200585192E+01 0.  0.
     999903    2    3    3    0    0  0.68556016378E-01  0.96906986260E-01  0.46664090000E-01  0.12910334471E+00  0.19981114893E-01 0.  0.
         14    1    1    2    0    0  0.21257930419E-02  0.20134061195E-01 -0.12124025917E-01  0.23598547004E-01  0.00000000000E+00 0.  1.
     999901    1    3    3    0    0 -0.70681809419E-01 -0.11704104745E+00 -0.34540064083E-01  0.89122810829E+00  0.88000000000E+00 0.  1.
        -11    1    4    4    0    0  0.49530168637E-01  0.75584535604E-01  0.26667794510E-01  0.94221505043E-01  0.51100000000E-03 0.  1.
         11    1    4    4    0    0  0.19025847741E-01  0.21322450656E-01  0.19996295490E-01  0.34881839667E-01  0.51100000000E-03 0. -1.
</event>
<event>
 8    1  0.1123191E+005  0.1043930E+01  0.7957747E-01            NaN
         13   -1    0    0    0    0  0.00000000000E+00  0.00000000000E+00  0.74505805969E-08  0.10566000000E+00  0.10566000000E+00 0. -1.
     999900   -1    0    0    0    0 -0.00000000000E+00 -0.00000000000E+00 -0.74505805969E-08  0.93827000000E+00  0.93827000000E+00 0.  1.
     999902    2    1    2    0    0 -0.22447305609E-01  0.37390062924E-02  0.19275320098E-02  0.10210919380E+01  0.10208365044E+01 0.  0.
     999903    2    3    3    0    0  0.91458551508E-02 -0.25113781319E-01 -0.12634192548E+00  0.13076409674E+00  0.20557679439E-01 0.  0.
         14    1    1    2    0    0  0.22447305609E-01 -0.37390062924E-02 -0.19275320098E-02  0.22838062020E-01  0.00000000000E+00 0.  1.
     999901    1    3    3    0    0 -0.31593160760E-01  0.28852787611E-01  0.12826945749E+00  0.89032784124E+00  0.88000000000E+00 0. -1.
        -11    1    4    4    0    0  0.13361260415E-01 -0.13777287034E-01 -0.51756683316E-01  0.55202828793E-01  0.51100000000E-03 0.  1.
         11    1    4    4    0    0 -0.42154052646E-02 -0.11336494285E-01 -0.74585242164E-01  0.75561267948E-01  0.51100000000E-03 0. -1.
</event>
<event>
 8    1  0.1123191E+005  0.1043930E+01  0.7957747E-01            NaN
         13   -1    0    0    0    0  0.00000000000E+00  0.00000000000E+00  0.74505805969E-08  0.10566000000E+00  0.10566000000E+00 0.  1.
     999900   -1    0    0    0    0 -0.00000000000E+00 -0.00000000000E+00 -0.74505805969E-08  0.93827000000E+00  0.93827000000E+00 0.  1.
     999902    2    1    2    0    0  0.21219865585E-01  0.75244285973E-02 -0.44351557839E-02  0.10209828797E+01  0.10207249730E+01 0.  0.
     999903    2    3    3    0    0 -0.11806796014E+00  0.14136052111E-01 -0.46269178445E-01  0.12902161522E+00  0.19127706057E-01 0.  0.
         14    1    1    2    0    0 -0.21219865585E-01 -0.75244285973E-02  0.44351557839E-02  0.22947120255E-01  0.00000000000E+00 0. -1.
     999901    1    3    3    0    0  0.13928782573E+00 -0.66116235133E-02  0.41834022661E-01  0.89196126452E+00  0.88000000000E+00 0.  1.
        -11    1    4    4    0    0 -0.86228553489E-01  0.12357932896E-01 -0.42440121226E-01  0.96899468280E-01  0.51100000000E-03 0. -1.
         11    1    4    4    0    0 -0.31839406651E-01  0.17781192145E-02 -0.38290572192E-02  0.32122146940E-01  0.51100000000E-03 0.  1.
</event>
<event>
 8    1  0.1123191E+005  0.1043930E+01  0.7957747E-01            NaN
         13   -1    0    0    0    0  0.00000000000E+00  0.00000000000E+00  0.74505805969E-08  0.10566000000E+00  0.10566000000E+00 0.  1.
     999900   -1    0    0    0    0 -0.00000000000E+00 -0.00000000000E+00 -0.74505805969E-08  0.93827000000E+00  0.93827000000E+00 0.  1.
     999902    2    1    2    0    0  0.30567915772E-02 -0.13910568067E-01  0.18112718491E-01  0.10208883323E+01  0.10206282715E+01 0.  0.
     999903    2    3    3    0    0 -0.63943128319E-01 -0.10128833383E+00 -0.50741692322E-01  0.13135767342E+00  0.18222754983E-01 0.  0.
         14    1    1    2    0    0 -0.30567915772E-02  0.13910568067E-01 -0.18112718491E-01  0.23041667687E-01  0.00000000000E+00 0. -1.
     999901    1    3    3    0    0  0.66999919896E-01  0.87377765759E-01  0.68854410813E-01  0.88953065889E+00  0.88000000000E+00 0.  1.
        -11    1    4    4    0    0 -0.29646992476E-01 -0.56180345120E-01 -0.35071316465E-01  0.72563308223E-01  0.51100000000E-03 0.  1.
         11    1    4    4    0    0 -0.34296135843E-01 -0.45107988706E-01 -0.15670375857E-01  0.58794365200E-01  0.51100000000E-03 0. -1.
</event>
<event>
 8    1  0.1123191E+005  0.1043930E+01  0.7957747E-01            NaN
         13   -1    0    0    0    0  0.00000000000E+00  0.00000000000E+00  0.74505805969E-08  0.10566000000E+00  0.10566000000E+00 0.  1.
     999900   -1    0    0    0    0 -0.00000000000E+00 -0.00000000000E+00 -0.74505805969E-08  0.93827000000E+00  0.93827000000E+00 0.  1.
     999902    2    1    2    0    0  0.20418507322E-01 -0.10444795341E-01 -0.35817895212E-02  0.10207171069E+01  0.10204531218E+01 0.  0.
     999903    2    3    3    0    0  0.46711248621E-01 -0.35277284755E-01 -0.11737960179E+00  0.13265297470E+00  0.19809422332E-01 0.  0.
         14    1    1    2    0    0 -0.20418507322E-01  0.10444795341E-01  0.35817895212E-02  0.23212893123E-01  0.00000000000E+00 0. -1.
     999901    1    3    3    0    0 -0.26292741299E-01  0.24832489414E-01  0.11379781227E+00  0.88806413217E+00  0.88000000000E+00 0. -1.
        -11    1    4    4    0    0  0.22493492063E-01 -0.29001815695E-01 -0.66718108606E-01  0.76148733645E-01  0.51100000000E-03 0. -1.
         11    1    4    4    0    0  0.24217756558E-01 -0.62754690599E-02 -0.50661493187E-01  0.56504241058E-01  0.51100000000E-03 0.  1.
</event>
<event>
 8    1  0.1123191E+005  0.1043930E+01  0.7957747E-01            NaN
         13   -1    0    0    0    0  0.00000000000E+00  0.00000000000E+00  0.74505805969E-08  0.10566000000E+00  0.10566000000E+00 0.  1.
     999900   -1    0    0    0    0 -0.00000000000E+00 -0.00000000000E+00 -0.74505805969E-08  0.93827000000E+00  0.93827000000E+00 0. -1.
     999902    2    1    2    0    0  0.22206019482E-01 -0.42929082061E-02  0.47248938238E-02  0.10208245681E+01  0.10205630494E+01 0.  0.
     999903    2    3    3    0    0  0.25631705176E-01 -0.11054812235E+00 -0.63853963506E-01  0.13177734464E+00  0.20250141682E-01 0.  0.
         14    1    1    2    0    0 -0.22206019482E-01  0.42929082061E-02 -0.47248938238E-02  0.23105431910E-01  0.00000000000E+00 0. -1.
     999901    1    3    3    0    0 -0.34256856938E-02  0.10625521415E+00  0.68578857330E-01  0.88904722345E+00  0.88000000000E+00 0.  1.
        -11    1    4    4    0    0  0.26921645018E-02 -0.35953751859E-01 -0.11689680592E-01  0.37905537534E-01  0.51100000000E-03 0. -1.
         11    1    4    4    0    0  0.22939540674E-01 -0.74594370495E-01 -0.52164282914E-01  0.93871807103E-01  0.51100000000E-03 0.  1.
</event>
<event>
 8    1  0.1123191E+005  0.1043930E+01  0.7957747E-01            NaN
         13   -1    0    0    0    0  0.00000000000E+00  0.00000000000E+00  0.74505805969E-08  0.10566000000E+00  0.10566000000E+00 0. -1.
     999900   -1    0    0    0    0 -0.00000000000E+00 -0.00000000000E+00 -0.74505805969E-08  0.93827000000E+00  0.93827000000E+00 0.  1.
     999902    2    1    2    0    0 -0.56040793820E-02 -0.17799898026E-01  0.15411644067E-01  0.10197275033E+01  0.10194402484E+01 0.  0.
     999903    2    3    3    0    0  0.78843688719E-01 -0.91793142203E-01 -0.45520069159E-01  0.13050362853E+00  0.17799217862E-01 0.  0.
         14    1    1    2    0    0  0.56040793820E-02  0.17799898026E-01 -0.15411644067E-01  0.24202496737E-01  0.00000000000E+00 0.  1.
     999901    1    3    3    0    0 -0.84447768101E-01  0.73993244177E-01  0.60931713226E-01  0.88922387473E+00  0.88000000000E+00 0. -1.
        -11    1    4    4    0    0  0.12680888402E-01 -0.23659098284E-01 -0.14957220830E-01  0.30733327810E-01  0.51100000000E-03 0.  1.
         11    1    4    4    0    0  0.66162800318E-01 -0.68134043918E-01 -0.30562848329E-01  0.99770300719E-01  0.51100000000E-03 0. -1.
</event>
<event>
 8    1  0.1123191E+005  0.1043930E+01  0.7957747E-01            NaN
         13   -1    0    0    0    0  0.00000000000E+00  0.00000000000E+00  0.74505805969E-08  0.10566000000E+00  0.10566000000E+00 0.  1.
     999900   -1    0    0    0    0 -0.00000000000E+00 -0.00000000000E+00 -0.74505805969E-08  0.93827000000E+00  0.93827000000E+00 0. -1.
     999902    2    1    2    0    0  0.18001065701E-01  0.12837060689E-01 -0.10923198742E-01  0.10192694087E+01  0.10189710412E+01 0.  0.
     999903    2    3    3    0    0 -0.25124420608E-01  0.29224476101E-02 -0.12624095278E+00  0.13064333911E+00  0.22161378196E-01 0.  0.
         14    1    1    2    0    0 -0.18001065701E-01 -0.12837060689E-01  0.10923198742E-01  0.24660591321E-01  0.00000000000E+00 0.  1.
     999901    1    3    3    0    0  0.43125486309E-01  0.99146130792E-02  0.11531775404E+00  0.88862606957E+00  0.88000000000E+00 0.  1.
        -11    1    4    4    0    0 -0.45021674285E-02  0.94832125411E-03 -0.78031652713E-01  0.78168847828E-01  0.51100000000E-03 0. -1.
         11    1    4    4    0    0 -0.20622253180E-01  0.19741263560E-02 -0.48209300069E-01  0.52474491281E-01  0.51100000000E-03 0.  1.
</event>
<event>
 8    1  0.1123191E+005  0.1043930E+01  0.7957747E-01            NaN
         13   -1    0    0    0    0  0.00000000000E+00  0.00000000000E+00  0.74505805969E-08  0.10566000000E+00  0.10566000000E+00 0.  1.
     999900   -1    0    0    0    0 -0.00000000000E+00 -0.00000000000E+00 -0.74505805969E-08  0.93827000000E+00  0.93827000000E+00 0. -1.
     999902    2    1    2    0    0  0.19305574845E-01  0.12772059565E-01 -0.69394509144E-02  0.10197641831E+01  0.10194778087E+01 0.  0.
     999903    2    3    3    0    0 -0.50304941541E-01 -0.64375416309E-01  0.96195161282E-01  0.12766883775E+00  0.19262443005E-01 0.  0.
         14    1    1    2    0    0 -0.19305574845E-01 -0.12772059565E-01  0.69394509144E-02  0.24165816862E-01  0.00000000000E+00 0. -1.
     999901    1    3    3    0    0  0.69610516386E-01  0.77147475874E-01 -0.10313461220E+00  0.89209534539E+00  0.88000000000E+00 0. -1.
        -11    1    4    4    0    0 -0.33344043438E-02 -0.74669433546E-02  0.19931742839E-01  0.21550150556E-01  0.51100000000E-03 0.  1.
         11    1    4    4    0    0 -0.46970537197E-01 -0.56908472954E-01  0.76263418443E-01  0.10611868720E+00  0.51100000000E-03 0. -1.
</event>
<event>
 8    1  0.1123191E+005  0.1043930E+01  0.7957747E-01            NaN
         13   -1    0    0    0    0  0.00000000000E+00  0.00000000000E+00  0.74505805969E-08  0.10566000000E+00  0.10566000000E+00 0.  1.
     999900   -1    0    0    0    0 -0.00000000000E+00 -0.00000000000E+00 -0.74505805969E-08  0.93827000000E+00  0.93827000000E+00 0. -1.
     999902    2    1    2    0    0 -0.16460436599E-01 -0.24083483337E-02 -0.89654524964E-02  0.10250322368E+01  0.10248580200E+01 0.  0.
     999903    2    3    3    0    0  0.22202283384E-01  0.18163208997E-01  0.12842351266E+00  0.13329588417E+00  0.21268535062E-01 0.  0.
         14    1    1    2    0    0  0.16460436599E-01  0.24083483337E-02  0.89654524964E-02  0.18897763179E-01  0.00000000000E+00 0. -1.
     999901    1    3    3    0    0 -0.38662719983E-01 -0.20571557330E-01 -0.13738896516E+00  0.89173635265E+00  0.88000000000E+00 0. -1.
        -11    1    4    4    0    0  0.17133445714E-01  0.75304227916E-03  0.52373847802E-01  0.55112640014E-01  0.51100000000E-03 0.  1.
         11    1    4    4    0    0  0.50688376701E-02  0.17410166717E-01  0.76049664862E-01  0.78183244158E-01  0.51100000000E-03 0. -1.
</event>
<event>
 8    1  0.1241495E+005  0.1043930E+01  0.7957747E-01            NaN
         13   -1    0    0    0    0  0.00000000000E+00  0.00000000000E+00  0.74505805969E-08  0.10566000000E+00  0.10566000000E+00 0.  1.
     999900   -1    0    0    0    0 -0.00000000000E+00 -0.00000000000E+00 -0.74505805969E-08  0.93827000000E+00  0.93827000000E+00 0.  1.
     999902    2    1    2    0    0  0.16926946262E-01  0.15731799328E-01  0.53057073937E-02  0.10202200538E+01  0.10199445066E+01 0.  0.
     999903    2    3    3    0    0  0.90174237570E-01  0.52013121807E-01 -0.79368917877E-01  0.13238488200E+00  0.19737626403E-01 0.  0.
         14    1    1    2    0    0 -0.16926946262E-01 -0.15731799328E-01 -0.53057073937E-02  0.23709946242E-01  0.00000000000E+00 0.  1.
     999901    1    3    3    0    0 -0.73247291308E-01 -0.36281322479E-01  0.84674625271E-01  0.88783517176E+00  0.88000000000E+00 0. -1.
        -11    1    4    4    0    0  0.16417030215E-01  0.15229515371E-01 -0.25399660482E-01  0.33865334682E-01  0.51100000000E-03 0.  1.
         11    1    4    4    0    0  0.73757207355E-01  0.36783606436E-01 -0.53969257395E-01  0.98519547319E-01  0.51100000000E-03 0. -1.
</event>
<event>
 8    1  0.1123191E+005  0.1043930E+01  0.7957747E-01            NaN
         13   -1    0    0    0    0  0.00000000000E+00  0.00000000000E+00  0.74505805969E-08  0.10566000000E+00  0.10566000000E+00 0. -1.
     999900   -1    0    0    0    0 -0.00000000000E+00 -0.00000000000E+00 -0.74505805969E-08  0.93827000000E+00  0.93827000000E+00 0. -1.
     999902    2    1    2    0    0 -0.92183496605E-02 -0.11502850553E-01  0.18454423421E-01  0.10203109550E+01  0.10200375413E+01 0.  0.
     999903    2    3    3    0    0 -0.91414150943E-01  0.79066393862E-01  0.47638385302E-01  0.13137302615E+00  0.19529839062E-01 0.  0.
         14    1    1    2    0    0  0.92183496605E-02  0.11502850553E-01 -0.18454423421E-01  0.23619044966E-01  0.00000000000E+00 0. -1.
     999901    1    3    3    0    0  0.82195801283E-01 -0.90569244415E-01 -0.29183961881E-01  0.88893792889E+00  0.88000000000E+00 0. -1.
        -11    1    4    4    0    0 -0.23720320915E-01  0.10100356866E-01  0.94833585715E-02  0.27474825639E-01  0.51100000000E-03 0. -1.
         11    1    4    4    0    0 -0.67693830029E-01  0.68966036996E-01  0.38155026731E-01  0.10389820051E+00  0.51100000000E-03 0.  1.
</event>
<event>
 8    1  0.1123191E+005  0.1043930E+01  0.7957747E-01            NaN
         13   -1    0    0    0    0  0.00000000000E+00  0.00000000000E+00  0.74505805969E-08  0.10566000000E+00  0.10566000000E+00 0. -1.
     999900   -1    0    0    0    0 -0.00000000000E+00 -0.00000000000E+00 -0.74505805969E-08  0.93827000000E+00  0.93827000000E+00 0. -1.
     999902    2    1    2    0    0  0.17471639065E-01 -0.15846269877E-01  0.77017900590E-02  0.10191170999E+01  0.10188149897E+01 0.  0.
     999903    2    3    3    0    0  0.50525710549E-01 -0.84406483309E-01  0.86201524525E-01  0.13235034207E+00  0.20214063519E-01 0.  0.
         14    1    1    2    0    0 -0.17471639065E-01  0.15846269877E-01 -0.77017900590E-02  0.24812900087E-01  0.00000000000E+00 0. -1.
     999901    1    3    3    0    0 -0.33054071484E-01  0.68560213432E-01 -0.78499734466E-01  0.88676675784E+00  0.88000000000E+00 0. -1.
        -11    1    4    4    0    0  0.49919802007E-01 -0.79295092624E-01  0.75029786470E-01  0.12003927826E+00  0.51100000000E-03 0. -1.
         11    1    4    4    0    0  0.60590854258E-03 -0.51113906852E-02  0.11171738055E-01  0.12311063807E-01  0.51100000000E-03 0.  1.
</event>
<event>
 8    1  0.1123191E+005  0.1043930E+01  0.7957747E-01            NaN
         13   -1    0    0    0    0  0.00000000000E+00  0.00000000000E+00  0.74505805969E-08  0.10566000000E+00  0.10566000000E+00 0. -1.
     999900   -1    0    0    0    0 -0.00000000000E+00 -0.00000000000E+00 -0.74505805969E-08  0.93827000000E+00  0.93827000000E+00 0. -1.
     999902    2    1    2    0    0  0.19600700549E-01 -0.12042203773E-01 -0.91797432137E-02  0.10191616771E+01  0.10188606648E+01 0.  0.
     999903    2    3    3    0    0  0.11185136927E+00 -0.65254098414E-01 -0.19985719762E-01  0.13267509472E+00  0.20842878849E-01 0.  0.
         14    1    1    2    0    0 -0.19600700549E-01  0.12042203773E-01  0.91797432137E-02  0.24768322899E-01  0.00000000000E+00 0.  1.
     999901    1    3    3    0    0 -0.92250668716E-01  0.53211894641E-01  0.10805976548E-01  0.88648658238E+00  0.88000000000E+00 0.  1.
        -11    1    4    4    0    0  0.29138719808E-01 -0.26586752681E-01 -0.10848197023E-01  0.40912894176E-01  0.51100000000E-03 0. -1.
         11    1    4    4    0    0  0.82712649458E-01 -0.38667345732E-01 -0.91375227387E-02  0.91762200546E-01  0.51100000000E-03 0.  1.
</event>
<event>
 8    1  0.1151967E+005  0.1043930E+01  0.7957747E-01            NaN
         13   -1    0    0    0    0  0.00000000000E+00  0.00000000000E+00  0.74505805969E-08  0.10566000000E+00  0.10566000000E+00 0.  1.
     999900   -1    0    0    0    0 -0.00000000000E+00 -0.00000000000E+00 -0.74505805969E-08  0.93827000000E+00  0.93827000000E+00 0.  1.
     999902    2    1    2    0    0  0.10197284296E-01  0.13778085578E-01  0.16701336413E-01  0.10199977020E+01  0.10197169005E+01 0.  0.
     999903    2    3    3    0    0  0.20040664440E-02  0.96803249178E-01 -0.84720890607E-01  0.13025235937E+00  0.20326398665E-01 0.  0.
         14    1    1    2    0    0 -0.10197284296E-01 -0.13778085578E-01 -0.16701336413E-01  0.23932297992E-01  0.00000000000E+00 0. -1.
     999901    1    3    3    0    0  0.81932178516E-02 -0.83025163600E-01  0.10142222702E+00  0.88974534264E+00  0.88000000000E+00 0. -1.
        -11    1    4    4    0    0 -0.20532148006E-02  0.42160228557E-01 -0.24395565878E-01  0.48755567051E-01  0.51100000000E-03 0. -1.
         11    1    4    4    0    0  0.40572812446E-02  0.54643020621E-01 -0.60325324729E-01  0.81496792320E-01  0.51100000000E-03 0.  1.
</event>
<event>
 8    1  0.1123191E+005  0.1043930E+01  0.7957747E-01            NaN
         13   -1    0    0    0    0  0.00000000000E+00  0.00000000000E+00  0.74505805969E-08  0.10566000000E+00  0.10566000000E+00 0. -1.
     999900   -1    0    0    0    0 -0.00000000000E+00 -0.00000000000E+00 -0.74505805969E-08  0.93827000000E+00  0.93827000000E+00 0. -1.
     999902    2    1    2    0    0 -0.56604373333E-02 -0.86839695563E-02  0.21287829290E-01  0.10202525096E+01  0.10199777251E+01 0.  0.
     999903    2    3    3    0    0 -0.87215147802E-01 -0.96669527962E-01  0.10057606204E-01  0.13204152831E+00  0.19553263495E-01 0.  0.
         14    1    1    2    0    0  0.56604373333E-02  0.86839695563E-02 -0.21287829290E-01  0.23677490449E-01  0.00000000000E+00 0.  1.
     999901    1    3    3    0    0  0.81554710469E-01  0.87985558406E-01  0.11230223086E-01  0.88821098124E+00  0.88000000000E+00 0.  1.
        -11    1    4    4    0    0 -0.65851497537E-01 -0.81284716660E-01  0.13520353796E-01  0.10548310755E+00  0.51100000000E-03 0.  1.
         11    1    4    4    0    0 -0.21363650265E-01 -0.15384811302E-01 -0.34627475915E-02  0.26558420761E-01  0.51100000000E-03 0. -1.
</event>
<event>
 8    1  0.1123191E+005  0.1043930E+01  0.7957747E-01            NaN
         13   -1    0    0    0    0  0.00000000000E+00  0.00000000000E+00  0.74505805969E-08  0.10566000000E+00  0.10566000000E+00 0.  1.
     999900   -1    0    0    0    0 -0.00000000000E+00 -0.00000000000E+00 -0.74505805969E-08  0.93827000000E+00  0.93827000000E+00 0. -1.
     999902    2    1    2    0    0  0.16501627669E-02 -0.16850465776E-01 -0.16527759663E-01  0.10202693138E+01  0.10199949238E+01 0.  0.
     999903    2    3    3    0    0 -0.20952694549E-02  0.27502747587E-02  0.12670781564E+00  0.12846516075E+00  0.20891931851E-01 0.  0.
         14    1    1    2    0    0 -0.16501627669E-02  0.16850465776E-01  0.16527759663E-01  0.23660686243E-01  0.00000000000E+00 0.  1.
     999901    1    3    3    0    0  0.37454322218E-02 -0.19600740535E-01 -0.14323557530E+00  0.89180415301E+00  0.88000000000E+00 0. -1.
        -11    1    4    4    0    0 -0.10021664769E-01  0.32431581746E-02  0.39118426674E-01  0.40514988166E-01  0.51100000000E-03 0.  1.
         11    1    4    4    0    0  0.79263953136E-02 -0.49288341596E-03  0.87589388965E-01  0.87950172581E-01  0.51100000000E-03 0. -1.
</event>
<event>
 8    1  0.1123191E+005  0.1043930E+01  0.7957747E-01            NaN
         13   -1    0    0    0    0  0.00000000000E+00  0.00000000000E+00  0.74505805969E-08  0.10566000000E+00  0.10566000000E+00 0. -1.
     999900   -1    0    0    0    0 -0.00000000000E+00 -0.00000000000E+00 -0.74505805969E-08  0.93827000000E+00  0.93827000000E+00 0.  1.
     999902    2    1    2    0    0 -0.18179413343E-01  0.19840303032E-01 -0.65888884599E-02  0.10162254490E+01  0.10158477352E+01 0.  0.
     999903    2    3    3    0    0  0.54628547061E-01 -0.10342760412E+00 -0.36799999965E-01  0.12414434996E+00  0.19391549244E-01 0.  0.
         14    1    1    2    0    0  0.18179413343E-01 -0.19840303032E-01  0.65888884599E-02  0.27704550981E-01  0.00000000000E+00 0.  1.
     999901    1    3    3    0    0 -0.72807960404E-01  0.12326790716E+00  0.30211111505E-01  0.89208109905E+00  0.88000000000E+00 0.  1.
        -11    1    4    4    0    0  0.53484436274E-01 -0.87757523020E-01 -0.30434495410E-01  0.10718436174E+00  0.51100000000E-03 0.  1.
         11    1    4    4    0    0  0.11441107865E-02 -0.15670081103E-01 -0.63655045552E-02  0.16959988222E-01  0.51100000000E-03 0. -1.
</event>
<event>
 8    1  0.1123191E+005  0.1043930E+01  0.7957747E-01            NaN
         13   -1    0    0    0    0  0.00000000000E+00  0.00000000000E+00  0.74505805969E-08  0.10566000000E+00  0.10566000000E+00 0.  1.
     999900   -1    0    0    0    0 -0.00000000000E+00 -0.00000000000E+00 -0.74505805969E-08  0.93827000000E+00  0.93827000000E+00 0. -1.
     999902    2    1    2    0    0  0.86014160767E-02 -0.59629196886E-02  0.18283310569E-01  0.10228629590E+01  0.10226459860E+01 0.  0.
     999903    2    3    3    0    0 -0.64389379648E-02  0.12095691232E+00 -0.41480380848E-01  0.13162418361E+00  0.30533082952E-01 0.  0.
         14    1    1    2    0    0 -0.86014160767E-02  0.59629196886E-02 -0.18283310569E-01  0.21067040967E-01  0.00000000000E+00 0. -1.
     999901    1    3    3    0    0  0.15040354041E-01 -0.12691983201E+00  0.59763691417E-01  0.89123877542E+00  0.88000000000E+00 0.  1.
        -11    1    4    4    0    0 -0.13082744869E-01  0.29406245083E-01 -0.17981852415E-01  0.36871311347E-01  0.51100000000E-03 0.  1.
         11    1    4    4    0    0  0.66438069042E-02  0.91550667241E-01 -0.23498528433E-01  0.94752872262E-01  0.51100000000E-03 0. -1.
</event>
<event>
 8    1  0.1123191E+005  0.1043930E+01  0.7957747E-01            NaN
         13   -1    0    0    0    0  0.00000000000E+00  0.00000000000E+00  0.74505805969E-08  0.10566000000E+00  0.10566000000E+00 0. -1.
     999900   -1    0    0    0    0 -0.00000000000E+00 -0.00000000000E+00 -0.74505805969E-08  0.93827000000E+00  0.93827000000E+00 0. -1.
     999902    2    1    2    0    0  0.42087541757E-02 -0.17126410544E-01  0.18412590759E-01  0.10184339013E+01  0.10181147088E+01 0.  0.
     999903    2    3    3    0    0  0.17264133744E-01 -0.94656382995E-01 -0.83742965655E-01  0.12904248171E+00  0.19524257544E-01 0.  0.
         14    1    1    2    0    0 -0.42087541757E-02  0.17126410544E-01 -0.18412590759E-01  0.25496098687E-01  0.00000000000E+00 0.  1.
     999901    1    3    3    0    0 -0.13055379568E-01  0.77529972451E-01  0.10215555641E+00  0.88939141961E+00  0.88000000000E+00 0.  1.
        -11    1    4    4    0    0  0.51530025584E-02 -0.12906890027E-01 -0.21399296437E-01  0.25521211855E-01  0.51100000000E-03 0.  1.
         11    1    4    4    0    0  0.12111131185E-01 -0.81749492968E-01 -0.62343669217E-01  0.10352126985E+00  0.51100000000E-03 0. -1.
</event>
<event>
 8    1  0.1123191E+005  0.1043930E+01  0.7957747E-01            NaN
         13   -1    0    0    0    0  0.00000000000E+00  0.00000000000E+00  0.74505805969E-08  0.10566000000E+00  0.10566000000E+00 0. -1.
     999900   -1    0    0    0    0 -0.00000000000E+00 -0.00000000000E+00 -0.74505805969E-08  0.93827000000E+00  0.93827000000E+00 0. -1.
     999902    2    1    2    0    0  0.10776502806E-01  0.15098641976E-01  0.14576950485E-01  0.10203378511E+01  0.10200650670E+01 0.  0.
     999903    2    3    3    0    0 -0.44925076503E-01  0.51154570388E-01 -0.10826509515E+00  0.12933119343E+00  0.19239911533E-01 0.  0.
         14    1    1    2    0    0 -0.10776502806E-01 -0.15098641976E-01 -0.14576950485E-01  0.23592148857E-01  0.00000000000E+00 0.  1.
     999901    1    3    3    0    0  0.55701579309E-01 -0.36055928413E-01  0.12284204564E+00  0.89100665771E+00  0.88000000000E+00 0.  1.
        -11    1    4    4    0    0 -0.42047461977E-01  0.47203436394E-01 -0.87224878517E-01  0.10772462123E+00  0.51100000000E-03 0. -1.
         11    1    4    4    0    0 -0.28776145257E-02  0.39511339939E-02 -0.21040216635E-01  0.21606572200E-01  0.51100000000E-03 0.  1.
</event>
<event>
 8    1  0.1123191E+005  0.1043930E+01  0.7957747E-01            NaN
         13   -1    0    0    0    0  0.00000000000E+00  0.00000000000E+00  0.74505805969E-08  0.10566000000E+00  0.10566000000E+00 0. -1.
     999900   -1    0    0    0    0 -0.00000000000E+00 -0.00000000000E+00 -0.74505805969E-08  0.93827000000E+00  0.93827000000E+00 0.  1.
     999902    2    1    2    0    0  0.13790366902E-01 -0.13606332092E-02  0.20756374287E-01  0.10189729846E+01  0.10186673112E+01 0.  0.
     999903    2    3    3    0    0 -0.82256493440E-01  0.67044991040E-01  0.71764370293E-01  0.12964394291E+00  0.19906419902E-01 0.  0.
         14    1    1    2    0    0 -0.13790366902E-01  0.13606332092E-02 -0.20756374287E-01  0.24957015358E-01  0.00000000000E+00 0.  1.
     999901    1    3    3    0    0  0.96046860342E-01 -0.68405624250E-01 -0.51007996006E-01  0.88932904173E+00  0.88000000000E+00 0. -1.
        -11    1    4    4    0    0 -0.42754440847E-01  0.22114288744E-01  0.31488588268E-01  0.57521963552E-01  0.51100000000E-03 0.  1.
         11    1    4    4    0    0 -0.39502052594E-01  0.44930702297E-01  0.40275782025E-01  0.72121979359E-01  0.51100000000E-03 0. -1.
</event>
<event>
 8    1  0.1123191E+005  0.1043930E+01  0.7957747E-01            NaN
         13   -1    0    0    0    0  0.00000000000E+00  0.00000000000E+00  0.74505805969E-08  0.10566000000E+00  0.10566000000E+00 0. -1.
     999900   -1    0    0    0    0 -0.00000000000E+00 -0.00000000000E+00 -0.74505805969E-08  0.93827000000E+00  0.93827000000E+00 0.  1.
     999902    2    1    2    0    0 -0.15100529131E-01  0.25820065906E-02 -0.17988407909E-01  0.10203021445E+01  0.10200285243E+01 0.  0.
     999903    2    3    3    0    0  0.82558235044E-01  0.81494567820E-01 -0.56537192747E-01  0.13055474472E+00  0.19770190882E-01 0.  0.
         14    1    1    2    0    0  0.15100529131E-01 -0.25820065906E-02  0.17988407909E-01  0.23627855535E-01  0.00000000000E+00 0. -1.
     999901    1    3    3    0    0 -0.97658764175E-01 -0.78912561230E-01  0.38548784839E-01  0.88974739974E+00  0.88000000000E+00 0.  1.
        -11    1    4    4    0    0  0.58723805580E-01  0.66539640920E-01 -0.36268692787E-01  0.95873293221E-01  0.51100000000E-03 0.  1.
         11    1    4    4    0    0  0.23834429464E-01  0.14954926900E-01 -0.20268499961E-01  0.34681451500E-01  0.51100000000E-03 0. -1.
</event>
<event>
 8    1  0.1123191E+005  0.1043930E+01  0.7957747E-01            NaN
         13   -1    0    0    0    0  0.00000000000E+00  0.00000000000E+00  0.74505805969E-08  0.10566000000E+00  0.10566000000E+00 0.  1.
     999900   -1    0    0    0    0 -0.00000000000E+00 -0.00000000000E+00 -0.74505805969E-08  0.93827000000E+00  0.93827000000E+00 0.  1.
     999902    2    1    2    0    0  0.16827012100E-01  0.17255947780E-01  0.15843024555E-02  0.10197757854E+01  0.10194896892E+01 0.  0.
     999903    2    3    3    0    0 -0.78352523420E-01  0.79504688305E-01  0.64180789613E-01  0.13025210953E+00  0.19655149280E-01 0.  0.
         14    1    1    2    0    0 -0.16827012100E-01 -0.17255947780E-01 -0.15843024555E-02  0.24154214628E-01  0.00000000000E+00 0. -1.
     999901    1    3    3    0    0  0.95179535519E-01 -0.62248740525E-01 -0.62596487157E-01  0.88952367584E+00  0.88000000000E+00 0.  1.
        -11    1    4    4    0    0 -0.50366189042E-01  0.46380847022E-01  0.28788952237E-01  0.74276516215E-01  0.51100000000E-03 0. -1.
         11    1    4    4    0    0 -0.27986334377E-01  0.33123841283E-01  0.35391837376E-01  0.55975593316E-01  0.51100000000E-03 0.  1.
</event>
<event>
 8    1  0.1123191E+005  0.1043930E+01  0.7957747E-01            NaN
         13   -1    0    0    0    0  0.00000000000E+00  0.00000000000E+00  0.74505805969E-08  0.10566000000E+00  0.10566000000E+00 0.  1.
     999900   -1    0    0    0    0 -0.00000000000E+00 -0.00000000000E+00 -0.74505805969E-08  0.93827000000E+00  0.93827000000E+00 0. -1.
     999902    2    1    2    0    0 -0.12402961964E-01 -0.12721932198E-01  0.14943765830E-01  0.10207136876E+01  0.10204496239E+01 0.  0.
     999903    2    3    3    0    0  0.87618584052E-02  0.11472646529E+00 -0.53886186511E-01  0.12862142444E+00  0.20020432787E-01 0.  0.
         14    1    1    2    0    0  0.12402961964E-01  0.12721932198E-01 -0.14943765830E-01  0.23216312401E-01  0.00000000000E+00 0. -1.
     999901    1    3    3    0    0 -0.21164820369E-01 -0.12744839749E+00  0.68829952341E-01  0.89209226316E+00  0.88000000000E+00 0.  1.
        -11    1    4    4    0    0  0.14185271257E-01  0.76334150948E-01 -0.40703265114E-01  0.87664938451E-01  0.51100000000E-03 0. -1.
         11    1    4    4    0    0 -0.54234128515E-02  0.38392314340E-01 -0.13182921397E-01  0.40956485993E-01  0.51100000000E-03 0.  1.
</event>
<event>
 7    1  0.1123191E+005  0.1043930E+01  0.7957747E-01            NaN
         13   -1    0    0    0    0  0.00000000000E+00  0.00000000000E+00  0.74505805969E-08  0.10566000000E+00  0.10566000000E+00 0. -1.
     999900   -1    0    0    0    0 -0.00000000000E+00 -0.00000000000E+00 -0.74505805969E-08  0.93827000000E+00  0.93827000000E+00 0. -1.
     999903    2    1    2    0    0 -0.91687885713E-01 -0.41764186236E-02  0.74779076496E-01  0.12008381705E+00  0.20102287833E-01 0.  0.
         14    1    1    2    0    0  0.38336688797E-01  0.64757427726E-02 -0.80601382185E-02  0.39706457667E-01  0.00000000000E+00 0.  1.
     999901    1    1    2    0    0  0.53351196916E-01 -0.22993241490E-02 -0.66718938277E-01  0.88413972529E+00  0.88000000000E+00 0. -1.
        -11    1    3    3    0    0 -0.42210871425E-01 -0.95386806579E-02  0.26510824392E-01  0.50752625805E-01  0.51100000000E-03 0. -1.
         11    1    3    3    0    0 -0.49477014287E-01  0.53622620342E-02  0.48268252103E-01  0.69331191242E-01  0.51100000000E-03 0.  1.
</event>
<event>
 8    1  0.1123191E+005  0.1043930E+01  0.7957747E-01            NaN
         13   -1    0    0    0    0  0.00000000000E+00  0.00000000000E+00  0.74505805969E-08  0.10566000000E+00  0.10566000000E+00 0. -1.
     999900   -1    0    0    0    0 -0.00000000000E+00 -0.00000000000E+00 -0.74505805969E-08  0.93827000000E+00  0.93827000000E+00 0.  1.
     999902    2    1    2    0    0 -0.10787822025E-01 -0.12638571309E-01  0.16937995624E-01  0.10202022465E+01  0.10199262804E+01 0.  0.
     999903    2    3    3    0    0  0.74977255293E-01 -0.10128537047E+00 -0.27802041900E-01  0.13047443734E+00  0.19243445226E-01 0.  0.
         14    1    1    2    0    0  0.10787822025E-01  0.12638571309E-01 -0.16937995624E-01  0.23727753466E-01  0.00000000000E+00 0.  1.
     999901    1    3    3    0    0 -0.85765077317E-01  0.88646799160E-01  0.44740037523E-01  0.88972780919E+00  0.88000000000E+00 0. -1.
        -11    1    4    4    0    0  0.27373083840E-01 -0.23521439445E-01 -0.45740110278E-02  0.36383052790E-01  0.51100000000E-03 0. -1.
         11    1    4    4    0    0  0.47604171453E-01 -0.77763931024E-01 -0.23228030872E-01  0.94091384554E-01  0.51100000000E-03 0.  1.
</event>
<event>
 8    1  0.1123191E+005  0.1043930E+01  0.7957747E-01            NaN
         13   -1    0    0    0    0  0.00000000000E+00  0.00000000000E+00  0.74505805969E-08  0.10566000000E+00  0.10566000000E+00 0. -1.
     999900   -1    0    0    0    0 -0.00000000000E+00 -0.00000000000E+00 -0.74505805969E-08  0.93827000000E+00  0.93827000000E+00 0. -1.
     999902    2    1    2    0    0 -0.39623589982E-02  0.18973608460E-01  0.15973648681E-01  0.10188131618E+01  0.10185035116E+01 0.  0.
     999903    2    3    3    0    0 -0.68513193251E-01 -0.39615769254E-01 -0.97708393122E-01  0.12722854331E+00  0.19408898009E-01 0.  0.
         14    1    1    2    0    0  0.39623589982E-02 -0.18973608460E-01 -0.15973648681E-01  0.25116838157E-01  0.00000000000E+00 0.  1.
     999901    1    3    3    0    0  0.64550834253E-01  0.58589377715E-01  0.11368204180E+00  0.89158461854E+00  0.88000000000E+00 0.  1.
        -11    1    4    4    0    0 -0.67922307131E-01 -0.35515436462E-01 -0.88245267878E-01  0.11688573248E+00  0.51100000000E-03 0.  1.
         11    1    4    4    0    0 -0.59088612022E-03 -0.41003327928E-02 -0.94631252441E-02  0.10342810827E-01  0.51100000000E-03 0. -1.
</event>
<event>
 8    1  0.1123191E+005  0.1043930E+01  0.7957747E-01            NaN
         13   -1    0    0    0    0  0.00000000000E+00  0.00000000000E+00  0.74505805969E-08  0.10566000000E+00  0.10566000000E+00 0.  1.
     999900   -1    0    0    0    0 -0.00000000000E+00 -0.00000000000E+00 -0.74505805969E-08  0.93827000000E+00  0.93827000000E+00 0.  1.
     999902    2    1    2    0    0 -0.16009617592E-01  0.80486565825E-02  0.13852535231E-01  0.10212809060E+01  0.10210297290E+01 0.  0.
     999903    2    3    3    0    0  0.12657059353E+00 -0.53169185594E-02 -0.15791549543E-01  0.12921222758E+00  0.19950988628E-01 0.  0.
         14    1    1    2    0    0  0.16009617592E-01 -0.80486565825E-02 -0.13852535231E-01  0.22649094034E-01  0.00000000000E+00 0. -1.
     999901    1    3    3    0    0 -0.14258021113E+00  0.13365575142E-01  0.29644084775E-01  0.89206867839E+00  0.88000000000E+00 0. -1.
        -11    1    4    4    0    0  0.69027498318E-01 -0.10200411747E-01 -0.18615898952E-02  0.69803800482E-01  0.51100000000E-03 0. -1.
         11    1    4    4    0    0  0.57543095217E-01  0.48834931877E-02 -0.13929959648E-01  0.59408427093E-01  0.51100000000E-03 0.  1.
</event>
<event>
 8    1  0.1123191E+005  0.1043930E+01  0.7957747E-01            NaN
         13   -1    0    0    0    0  0.00000000000E+00  0.00000000000E+00  0.74505805969E-08  0.10566000000E+00  0.10566000000E+00 0. -1.
     999900   -1    0    0    0    0 -0.00000000000E+00 -0.00000000000E+00 -0.74505805969E-08  0.93827000000E+00  0.93827000000E+00 0. -1.
     999902    2    1    2    0    0  0.19189844374E-01  0.13363911907E-01  0.57463535468E-02  0.10198496170E+01  0.10195652879E+01 0.  0.
     999903    2    3    3    0    0  0.20904136800E-01  0.65293899408E-01 -0.10962463085E+00  0.13079949101E+00  0.19765397157E-01 0.  0.
         14    1    1    2    0    0 -0.19189844374E-01 -0.13363911907E-01 -0.57463535468E-02  0.24080383046E-01  0.00000000000E+00 0.  1.
     999901    1    3    3    0    0 -0.17142924257E-02 -0.51929987500E-01  0.11537098439E+00  0.88905012594E+00  0.88000000000E+00 0.  1.
        -11    1    4    4    0    0  0.21072071278E-01  0.45588771982E-01 -0.66083432369E-01  0.83003912399E-01  0.51100000000E-03 0.  1.
         11    1    4    4    0    0 -0.16793447824E-03  0.19705127426E-01 -0.43541198478E-01  0.47795578611E-01  0.51100000000E-03 0. -1.
</event>
<event>
 8    1  0.1123191E+005  0.1043930E+01  0.7957747E-01            NaN
         13   -1    0    0    0    0  0.00000000000E+00  0.00000000000E+00  0.74505805969E-08  0.10566000000E+00  0.10566000000E+00 0. -1.
     999900   -1    0    0    0    0 -0.00000000000E+00 -0.00000000000E+00 -0.74505805969E-08  0.93827000000E+00  0.93827000000E+00 0.  1.
     999902    2    1    2    0    0  0.24358599894E-02 -0.15524860144E-01  0.15026568489E-01  0.10221871286E+01  0.10219558569E+01 0.  0.
     999903    2    3    3    0    0 -0.84921725834E-01  0.21915722373E-01  0.98229883769E-01  0.13316747938E+00  0.19810832711E-01 0.  0.
         14    1    1    2    0    0 -0.24358599894E-02  0.15524860144E-01 -0.15026568489E-01  0.21742871405E-01  0.00000000000E+00 0.  1.
     999901    1    3    3    0    0  0.87357585824E-01 -0.37440582517E-01 -0.83203315280E-01  0.88901964922E+00  0.88000000000E+00 0.  1.
        -11    1    4    4    0    0 -0.68867051086E-01  0.25339539142E-01  0.82707590003E-01  0.11056929743E+00  0.51100000000E-03 0.  1.
         11    1    4    4    0    0 -0.16054674748E-01 -0.34238167695E-02  0.15522293766E-01  0.22598181947E-01  0.51100000000E-03 0. -1.
</event>
<event>
 8    1  0.1123191E+005  0.1043930E+01  0.7957747E-01            NaN
         13   -1    0    0    0    0  0.00000000000E+00  0.00000000000E+00  0.74505805969E-08  0.10566000000E+00  0.10566000000E+00 0.  1.
     999900   -1    0    0    0    0 -0.00000000000E+00 -0.00000000000E+00 -0.74505805969E-08  0.93827000000E+00  0.93827000000E+00 0. -1.
     999902    2    1    2    0    0 -0.66607551257E-02  0.23828519104E-03  0.22846124762E-01  0.10201315157E+01  0.10198538824E+01 0.  0.
     999903    2    3    3    0    0  0.56396345965E-01 -0.71649646969E-01 -0.87595724470E-01  0.12808808914E+00  0.20477497063E-01 0.  0.
         14    1    1    2    0    0  0.66607551257E-02 -0.23828519104E-03 -0.22846124762E-01  0.23798484307E-01  0.00000000000E+00 0. -1.
     999901    1    3    3    0    0 -0.63057101091E-01  0.71887932160E-01  0.11044184923E+00  0.89204342655E+00  0.88000000000E+00 0. -1.
        -11    1    4    4    0    0 -0.10118013176E-02 -0.61593099267E-02 -0.74371476888E-02  0.97228147892E-02  0.51100000000E-03 0.  1.
         11    1    4    4    0    0  0.57408147283E-01 -0.65490337042E-01 -0.80158576782E-01  0.11836527435E+00  0.51100000000E-03 0. -1.
</event>
<event>
 8    1  0.1123191E+005  0.1043930E+01  0.7957747E-01            NaN
         13   -1    0    0    0    0  0.00000000000E+00  0.00000000000E+00  0.74505805969E-08  0.10566000000E+00  0.10566000000E+00 0.  1.
     999900   -1    0    0    0    0 -0.00000000000E+00 -0.00000000000E+00 -0.74505805969E-08  0.93827000000E+00  0.93827000000E+00 0.  1.
     999902    2    1    2    0    0  0.61593336822E-02 -0.22623815231E-03  0.21666510238E-01  0.10214038765E+01  0.10211554498E+01 0.  0.
     999903    2    3    3    0    0 -0.66597968357E-01 -0.90617509904E-01  0.67600572931E-01  0.13259897937E+00  0.19126666680E-01 0.  0.
         14    1    1    2    0    0 -0.61593336822E-02  0.22623815231E-03 -0.21666510238E-01  0.22526123524E-01  0.00000000000E+00 0. -1.
     999901    1    3    3    0    0  0.72757302040E-01  0.90391271752E-01 -0.45934062693E-01  0.88880489711E+00  0.88000000000E+00 0.  1.
        -11    1    4    4    0    0 -0.47129989491E-01 -0.56439098444E-01  0.52991543451E-01  0.90636485705E-01  0.51100000000E-03 0. -1.
         11    1    4    4    0    0 -0.19467978866E-01 -0.34178411460E-01  0.14609029479E-01  0.41962493662E-01  0.51100000000E-03 0.  1.
</event>
<event>
 8    1  0.1123191E+005  0.1043930E+01  0.7957747E-01            NaN
         13   -1    0    0    0    0  0.00000000000E+00  0.00000000000E+00  0.74505805969E-08  0.10566000000E+00  0.10566000000E+00 0.  1.
     999900   -1    0    0    0    0 -0.00000000000E+00 -0.00000000000E+00 -0.74505805969E-08  0.93827000000E+00  0.93827000000E+00 0.  1.
     999902    2    1    2    0    0  0.56583817984E-02 -0.23153904871E-01 -0.20198663110E-02  0.10200092882E+01  0.10197287617E+01 0.  0.
     999903    2    3    3    0    0 -0.34870952179E-01  0.40473364769E-01  0.11575380829E+00  0.12896400604E+00  0.19460065701E-01 0.  0.
         14    1    1    2    0    0 -0.56583817984E-02  0.23153904871E-01  0.20198663110E-02  0.23920711847E-01  0.00000000000E+00 0.  1.
     999901    1    3    3    0    0  0.40529333977E-01 -0.63627269640E-01 -0.11777367460E+00  0.89104528212E+00  0.88000000000E+00 0.  1.
        -11    1    4    4    0    0  0.11814847747E-02  0.58136721263E-02  0.20911700117E-01  0.21742930176E-01  0.51100000000E-03 0. -1.
         11    1    4    4    0    0 -0.36052436954E-01  0.34659692643E-01  0.94842108174E-01  0.10722107586E+00  0.51100000000E-03 0.  1.
</event>
<event>
 8    1  0.1123191E+005  0.1043930E+01  0.7957747E-01            NaN
         13   -1    0    0    0    0  0.00000000000E+00  0.00000000000E+00  0.74505805969E-08  0.10566000000E+00  0.10566000000E+00 0.  1.
     999900   -1    0    0    0    0 -0.00000000000E+00 -0.00000000000E+00 -0.74505805969E-08  0.93827000000E+00  0.93827000000E+00 0. -1.
     999902    2    1    2    0    0  0.36175454919E-02 -0.19797407752E-01  0.91371500441E-02  0.10218277037E+01  0.10215886377E+01 0.  0.
     999903    2    3    3    0    0  0.71282035030E-01  0.99189799891E-01  0.42561186451E-01  0.13061863459E+00  0.18166677982E-01 0.  0.
         14    1    1    2    0    0 -0.36175454919E-02  0.19797407752E-01 -0.91371500441E-02  0.22102296261E-01  0.00000000000E+00 0.  1.
     999901    1    3    3    0    0 -0.67664489538E-01 -0.11898720764E+00 -0.33424036407E-01  0.89120906915E+00  0.88000000000E+00 0. -1.
        -11    1    4    4    0    0  0.18950422940E-01  0.21023100687E-01  0.26444998814E-02  0.28431387457E-01  0.51100000000E-03 0.  1.
         11    1    4    4    0    0  0.52331612090E-01  0.78166699205E-01  0.39916686570E-01  0.10218724713E+00  0.51100000000E-03 0. -1.
</event>
<event>
 8    1  0.1123191E+005  0.1043930E+01  0.7957747E-01            NaN
         13   -1    0    0    0    0  0.00000000000E+00  0.00000000000E+00  0.74505805969E-08  0.10566000000E+00  0.10566000000E+00 0. -1.
     999900   -1    0    0    0    0 -0.00000000000E+00 -0.00000000000E+00 -0.74505805969E-08  0.93827000000E+00  0.93827000000E+00 0.  1.
     999902    2    1    2    0    0  0.12381588734E-01  0.26046915935E-02 -0.19314307799E-01  0.10208403780E+01  0.10205792212E+01 0.  0.
     999903    2    3    3    0    0  0.69629162010E-03  0.32549940352E-01  0.12271170169E+00  0.12887364575E+00  0.22142073037E-01 0.  0.
         14    1    1    2    0    0 -0.12381588734E-01 -0.26046915935E-02  0.19314307799E-01  0.23089621990E-01  0.00000000000E+00 0. -1.
     999901    1    3    3    0    0  0.11685297114E-01 -0.29945248758E-01 -0.14202600949E+00  0.89196673226E+00  0.88000000000E+00 0.  1.
        -11    1    4    4    0    0 -0.88684001647E-02  0.23849653722E-01  0.66795851894E-01  0.71480077332E-01  0.51100000000E-03 0.  1.
         11    1    4    4    0    0  0.95646917848E-02  0.87002866299E-02  0.55915849794E-01  0.57393568416E-01  0.51100000000E-03 0. -1.
</event>
<event>
 8    1  0.1123191E+005  0.1043930E+01  0.7957747E-01            NaN
         13   -1    0    0    0    0  0.00000000000E+00  0.00000000000E+00  0.74505805969E-08  0.10566000000E+00  0.10566000000E+00 0. -1.
     999900   -1    0    0    0    0 -0.00000000000E+00 -0.00000000000E+00 -0.74505805969E-08  0.93827000000E+00  0.93827000000E+00 0.  1.
     999902    2    1    2    0    0  0.34026085954E-02 -0.69903746174E-02  0.20341289951E-01  0.10221536100E+01  0.10219216170E+01 0.  0.
     999903    2    3    3    0    0 -0.17224399079E-01  0.12794171076E+00  0.16081822087E-01  0.13161990256E+00  0.19985306410E-01 0.  0.
         14    1    1    2    0    0 -0.34026085954E-02  0.69903746174E-02 -0.20341289951E-01  0.21776389954E-01  0.00000000000E+00 0.  1.
     999901    1    3    3    0    0  0.20627007675E-01 -0.13493208537E+00  0.42594678635E-02  0.89053370749E+00  0.88000000000E+00 0. -1.
        -11    1    4    4    0    0 -0.37438721892E-02  0.73306403372E-01  0.16957351739E-01  0.75336964720E-01  0.51100000000E-03 0.  1.
         11    1    4    4    0    0 -0.13480526890E-01  0.54635307385E-01 -0.87552965201E-03  0.56282937836E-01  0.51100000000E-03 0. -1.
</event>
<event>
 8    1  0.1123191E+005  0.1043930E+01  0.7957747E-01            NaN
         13   -1    0    0    0    0  0.00000000000E+00  0.00000000000E+00  0.74505805969E-08  0.10566000000E+00  0.10566000000E+00 0. -1.
     999900   -1    0    0    0    0 -0.00000000000E+00 -0.00000000000E+00 -0.74505805969E-08  0.93827000000E+00  0.93827000000E+00 0. -1.
     999902    2    1    2    0    0  0.22107295549E-02  0.12946975482E-01 -0.20502049273E-01  0.10195815807E+01  0.10192908094E+01 0.  0.
     999903    2    3    3    0    0  0.54708462291E-01 -0.11470509271E+00 -0.56539819257E-02  0.12869913750E+00  0.19525018341E-01 0.  0.
         14    1    1    2    0    0 -0.22107295549E-02 -0.12946975482E-01  0.20502049273E-01  0.24348419326E-01  0.00000000000E+00 0. -1.
     999901    1    3    3    0    0 -0.52497732736E-01  0.12765206819E+00 -0.14848067347E-01  0.89088244318E+00  0.88000000000E+00 0.  1.
        -11    1    4    4    0    0  0.40466276055E-01 -0.69783185610E-01  0.32620208503E-02  0.80734840018E-01  0.51100000000E-03 0.  1.
         11    1    4    4    0    0  0.14242186236E-01 -0.44921907099E-01 -0.89160027760E-02  0.47964297480E-01  0.51100000000E-03 0. -1.
</event>
<event>
 7    1  0.1123191E+005  0.1043930E+01  0.7957747E-01            NaN
         13   -1    0    0    0    0  0.00000000000E+00  0.00000000000E+00  0.74505805969E-08  0.10566000000E+00  0.10566000000E+00 0. -1.
     999900   -1    0    0    0    0 -0.00000000000E+00 -0.00000000000E+00 -0.74505805969E-08  0.93827000000E+00  0.93827000000E+00 0.  1.
     999902    2    1    2    0    0  0.23843787779E-01  0.34048874278E-02 -0.96835089036E-02  0.10179706121E+01  0.10176395616E+01 0.  0.
         14    1    1    2    0    0 -0.23843787779E-01 -0.34048874278E-02  0.96835089036E-02  0.25959387873E-01  0.00000000000E+00 0.  1.
     999901    1    3    3    0    0  0.65547639377E-01  0.10193369609E+00  0.59831943295E-01  0.89031838848E+00  0.88000000000E+00 0. -1.
        -11    1    3    3    0    0 -0.23717720355E-01 -0.59507225913E-01 -0.43132033529E-01  0.77228709895E-01  0.51100000000E-03 0.  1.
         11    1    3    3    0    0 -0.17986131243E-01 -0.39021582750E-01 -0.26383418670E-01  0.50423513752E-01  0.51100000000E-03 0. -1.
</event>
<event>
 8    1  0.1123191E+005  0.1043930E+01  0.7957747E-01            NaN
         13   -1    0    0    0    0  0.00000000000E+00  0.00000000000E+00  0.74505805969E-08  0.10566000000E+00  0.10566000000E+00 0.  1.
     999900   -1    0    0    0    0 -0.00000000000E+00 -0.00000000000E+00 -0.74505805969E-08  0.93827000000E+00  0.93827000000E+00 0.  1.
     999902    2    1    2    0    0  0.27564141047E-02  0.54022986035E-02 -0.22757029635E-01  0.10203786721E+01  0.10201068421E+01 0.  0.
     999903    2    3    3    0    0 -0.79836185000E-01 -0.98210469232E-01 -0.16840320253E-01  0.13043926373E+00  0.26677564252E-01 0.  0.
         14    1    1    2    0    0 -0.27564141047E-02 -0.54022986035E-02  0.22757029635E-01  0.23551327919E-01  0.00000000000E+00 0.  1.
     999901    1    3    3    0    0  0.82592599104E-01  0.10361276784E+00 -0.59167093820E-02  0.88993940835E+00  0.88000000000E+00 0.  1.
        -11    1    4    4    0    0 -0.76131807690E-01 -0.79158188789E-01 -0.16163591819E-01  0.11101168324E+00  0.51100000000E-03 0.  1.
         11    1    4    4    0    0 -0.37043773095E-02 -0.19052280442E-01 -0.67672843400E-03  0.19427580490E-01  0.51100000000E-03 0. -1.
</event>
<event>
 8    1  0.1123191E+005  0.1043930E+01  0.7957747E-01            NaN
         13   -1    0    0    0    0  0.00000000000E+00  0.00000000000E+00  0.74505805969E-08  0.10566000000E+00  0.10566000000E+00 0.  1.
     999900   -1    0    0    0    0 -0.00000000000E+00 -0.00000000000E+00 -0.74505805969E-08  0.93827000000E+00  0.93827000000E+00 0.  1.
     999902    2    1    2    0    0 -0.15445158657E-01  0.27503630019E-03 -0.20639423463E-01  0.10181498842E+01  0.10178234485E+01 0.  0.
     999903    2    3    3    0    0 -0.84845686529E-01  0.23820753224E-01  0.90853880778E-01  0.12809281244E+00  0.19675419700E-01 0.  0.
         14    1    1    2    0    0  0.15445158657E-01 -0.27503630019E-03  0.20639423463E-01  0.25780115822E-01  0.00000000000E+00 0.  1.
     999901    1    3    3    0    0  0.69400527872E-01 -0.23545716924E-01 -0.11149330424E+00  0.89005707173E+00  0.88000000000E+00 0.  1.
        -11    1    4    4    0    0 -0.27506566931E-01  0.76726401571E-02  0.43285999179E-01  0.51859613162E-01  0.51100000000E-03 0. -1.
         11    1    4    4    0    0 -0.57339119598E-01  0.16148113067E-01  0.47567881599E-01  0.76233199281E-01  0.51100000000E-03 0.  1.
</event>
<event>
 8    1  0.1123191E+005  0.1043930E+01  0.7957747E-01            NaN
         13   -1    0    0    0    0  0.00000000000E+00  0.00000000000E+00  0.74505805969E-08  0.10566000000E+00  0.10566000000E+00 0. -1.
     999900   -1    0    0    0    0 -0.00000000000E+00 -0.00000000000E+00 -0.74505805969E-08  0.93827000000E+00  0.93827000000E+00 0. -1.
     999902    2    1    2    0    0  0.12621044845E-01 -0.12083986836E-01  0.15198653736E-01  0.10207715763E+01  0.10205088429E+01 0.  0.
     999903    2    3    3    0    0  0.73362440298E-01  0.91134715388E-01 -0.53321326119E-01  0.13001986838E+00  0.19349892976E-01 0.  0.
         14    1    1    2    0    0 -0.12621044845E-01  0.12083986836E-01 -0.15198653736E-01  0.23158423655E-01  0.00000000000E+00 0.  1.
     999901    1    3    3    0    0 -0.60741395453E-01 -0.10321870222E+00  0.68519979855E-01  0.89075170797E+00  0.88000000000E+00 0. -1.
        -11    1    4    4    0    0  0.21609267933E-01  0.14228949070E-01 -0.12169941219E-01  0.28597063530E-01  0.51100000000E-03 0.  1.
         11    1    4    4    0    0  0.51753172364E-01  0.76905766317E-01 -0.41151384900E-01  0.10142280485E+00  0.51100000000E-03 0. -1.
</event>
<event>
 8    1  0.1123191E+005  0.1043930E+01  0.7957747E-01            NaN
         13   -1    0    0    0    0  0.00000000000E+00  0.00000000000E+00  0.74505805969E-08  0.10566000000E+00  0.10566000000E+00 0.  1.
     999900   -1    0    0    0    0 -0.00000000000E+00 -0.00000000000E+00 -0.74505805969E-08  0.93827000000E+00  0.93827000000E+00 0.  1.
     999902    2    1    2    0    0  0.19436579745E-01  0.85881017441E-02 -0.23609195415E-02  0.10225498675E+01  0.10223263283E+01 0.  0.
     999903    2    3    3    0    0  0.39915070701E-01  0.12653047552E+00 -0.85538725588E-02  0.13442368009E+00  0.19833883376E-01 0.  0.
         14    1    1    2    0    0 -0.19436579745E-01 -0.85881017441E-02  0.23609195415E-02  0.21380132479E-01  0.00000000000E+00 0. -1.
     999901    1    3    3    0    0 -0.20478490956E-01 -0.11794237378E+00  0.61929530173E-02  0.88812618743E+00  0.88000000000E+00 0. -1.
        -11    1    4    4    0    0  0.75462962151E-02  0.54923099084E-01 -0.68573617817E-03  0.55445691939E-01  0.51100000000E-03 0. -1.
         11    1    4    4    0    0  0.32368774486E-01  0.71607376438E-01 -0.78681363806E-02  0.78977988156E-01  0.51100000000E-03 0.  1.
</event>
<event>
 8    1  0.1123191E+005  0.1043930E+01  0.7957747E-01            NaN
         13   -1    0    0    0    0  0.00000000000E+00  0.00000000000E+00  0.74505805969E-08  0.10566000000E+00  0.10566000000E+00 0.  1.
     999900   -1    0    0    0    0 -0.00000000000E+00 -0.00000000000E+00 -0.74505805969E-08  0.93827000000E+00  0.93827000000E+00 0.  1.
     999902    2    1    2    0    0  0.46863675592E-02  0.57857731600E-02 -0.22356857400E-01  0.10203659111E+01  0.10200937831E+01 0.  0.
     999903    2    3    3    0    0 -0.43017517244E-01  0.31425289330E-01 -0.11978541565E+00  0.13333413639E+00  0.24318522261E-01 0.  0.
         14    1    1    2    0    0 -0.46863675592E-02 -0.57857731600E-02  0.22356857400E-01  0.23564088880E-01  0.00000000000E+00 0.  1.
     999901    1    3    3    0    0  0.47703884803E-01 -0.25639516170E-01  0.97428558252E-01  0.88703177473E+00  0.88000000000E+00 0. -1.
        -11    1    4    4    0    0 -0.34740247511E-01  0.12243645182E-01 -0.86700057754E-01  0.94201660176E-01  0.51100000000E-03 0. -1.
         11    1    4    4    0    0 -0.82772697328E-02  0.19181644148E-01 -0.33085357898E-01  0.39132476215E-01  0.51100000000E-03 0.  1.
</event>
<event>
 8    1  0.1123191E+005  0.1043930E+01  0.7957747E-01            NaN
         13   -1    0    0    0    0  0.00000000000E+00  0.00000000000E+00  0.74505805969E-08  0.10566000000E+00  0.10566000000E+00 0.  1.
     999900   -1    0    0    0    0 -0.00000000000E+00 -0.00000000000E+00 -0.74505805969E-08  0.93827000000E+00  0.93827000000E+00 0.  1.
     999902    2    1    2    0    0  0.45042488333E-02  0.35502601373E-02  0.23882676775E-01  0.10193683459E+01  0.10190723967E+01 0.  0.
     999903    2    3    3    0    0 -0.10749056176E-01  0.10994220205E+00  0.68879383919E-01  0.13168787841E+00  0.19861968461E-01 0.  0.
         14    1    1    2    0    0 -0.45042488333E-02 -0.35502601373E-02 -0.23882676775E-01  0.24561654149E-01  0.00000000000E+00 0. -1.
     999901    1    3    3    0    0  0.15253305009E-01 -0.10639194191E+00 -0.44996707144E-01  0.88768046744E+00  0.88000000000E+00 0. -1.
        -11    1    4    4    0    0  0.57832300584E-02  0.35174552347E-01  0.20985710115E-01  0.41368539166E-01  0.51100000000E-03 0. -1.
         11    1    4    4    0    0 -0.16532286234E-01  0.74767649704E-01  0.47893673805E-01  0.90319339246E-01  0.51100000000E-03 0.  1.
</event>
<event>
 8    1  0.1123191E+005  0.1043930E+01  0.7957747E-01            NaN
         13   -1    0    0    0    0  0.00000000000E+00  0.00000000000E+00  0.74505805969E-08  0.10566000000E+00  0.10566000000E+00 0. -1.
     999900   -1    0    0    0    0 -0.00000000000E+00 -0.00000000000E+00 -0.74505805969E-08  0.93827000000E+00  0.93827000000E+00 0.  1.
     999902    2    1    2    0    0  0.15277986029E-01 -0.33797721701E-02  0.17799372050E-01  0.10202306886E+01  0.10199553914E+01 0.  0.
     999903    2    3    3    0    0 -0.96940940956E-01  0.79822409519E-01 -0.21231939408E-01  0.12835674350E+00  0.15984218986E-01 0.  0.
         14    1    1    2    0    0 -0.15277986029E-01  0.33797721701E-02 -0.17799372050E-01  0.23699311433E-01  0.00000000000E+00 0.  1.
     999901    1    3    3    0    0  0.11221892699E+00 -0.83202181689E-01  0.39031311458E-01  0.89187394506E+00  0.88000000000E+00 0. -1.
        -11    1    4    4    0    0 -0.28273516045E-01  0.31723755708E-01 -0.33301246109E-02  0.42627916167E-01  0.51100000000E-03 0.  1.
         11    1    4    4    0    0 -0.68667424910E-01  0.48098653811E-01 -0.17901814797E-01  0.85728827335E-01  0.51100000000E-03 0. -1.
</event>
<event>
 8    1  0.1123191E+005  0.1043930E+01  0.7957747E-01            NaN
         13   -1    0    0    0    0  0.00000000000E+00  0.00000000000E+00  0.74505805969E-08  0.10566000000E+00  0.10566000000E+00 0. -1.
     999900   -1    0    0    0    0 -0.00000000000E+00 -0.00000000000E+00 -0.74505805969E-08  0.93827000000E+00  0.93827000000E+00 0. -1.
     999902    2    1    2    0    0  0.28083254152E-02  0.18189712648E-01  0.15561345505E-01  0.10198279708E+01  0.10195431242E+01 0.  0.
     999903    2    3    3    0    0  0.33529315898E-01 -0.79802786027E-01 -0.91374228202E-01  0.12742586077E+00  0.19884685849E-01 0.  0.
         14    1    1    2    0    0 -0.28083254152E-02 -0.18189712648E-01 -0.15561345505E-01  0.24102029205E-01  0.00000000000E+00 0.  1.
     999901    1    3    3    0    0 -0.30720990483E-01  0.97992498676E-01  0.10693557371E+00  0.89240211002E+00  0.88000000000E+00 0.  1.
        -11    1    4    4    0    0  0.18942808132E-01 -0.61450109368E-01 -0.75169532643E-01  0.98922523623E-01  0.51100000000E-03 0.  1.
         11    1    4    4    0    0  0.14586507766E-01 -0.18352676659E-01 -0.16204695559E-01  0.28503337147E-01  0.51100000000E-03 0. -1.
</event>
<event>
 8    1  0.1123191E+005  0.1043930E+01  0.7957747E-01            NaN
         13   -1    0    0    0    0  0.00000000000E+00  0.00000000000E+00  0.74505805969E-08  0.10566000000E+00  0.10566000000E+00 0.  1.
     999900   -1    0    0    0    0 -0.00000000000E+00 -0.00000000000E+00 -0.74505805969E-08  0.93827000000E+00  0.93827000000E+00 0. -1.
     999902    2    1    2    0    0  0.36091483076E-02  0.16598640877E-01  0.60228453219E-02  0.10259073616E+01  0.10257490429E+01 0.  0.
     999903    2    3    3    0    0 -0.11312656546E+00 -0.27899169583E-01  0.65287504726E-01  0.13511020067E+00  0.20404033274E-01 0.  0.
         14    1    1    2    0    0 -0.36091483076E-02 -0.16598640877E-01 -0.60228453219E-02  0.18022638437E-01  0.00000000000E+00 0.  1.
     999901    1    3    3    0    0  0.11673571377E+00  0.44497810460E-01 -0.59264659405E-01  0.89079716090E+00  0.88000000000E+00 0. -1.
        -11    1    4    4    0    0 -0.11200705826E+00 -0.26249056619E-01  0.60682854211E-01  0.13006638301E+00  0.51100000000E-03 0.  1.
         11    1    4    4    0    0 -0.11195072036E-02 -0.16501129642E-02  0.46046505156E-02  0.50438176558E-02  0.51100000000E-03 0. -1.
</event>
<event>
 8    1  0.1123191E+005  0.1043930E+01  0.7957747E-01            NaN
         13   -1    0    0    0    0  0.00000000000E+00  0.00000000000E+00  0.74505805969E-08  0.10566000000E+00  0.10566000000E+00 0.  1.
     999900   -1    0    0    0    0 -0.00000000000E+00 -0.00000000000E+00 -0.74505805969E-08  0.93827000000E+00  0.93827000000E+00 0. -1.
     999902    2    1    2    0    0  0.19421381764E-01  0.16493816301E-01 -0.24591117268E-02  0.10183314986E+01  0.10180097041E+01 0.  0.
     999903    2    3    3    0    0 -0.10150077087E+00 -0.40917917332E-01 -0.60040052183E-01  0.12634840518E+00  0.19555796611E-01 0.  0.
         14    1    1    2    0    0 -0.19421381764E-01 -0.16493816301E-01  0.24591117268E-02  0.25598501446E-01  0.00000000000E+00 0. -1.
     999901    1    3    3    0    0  0.12092215263E+00  0.57411733633E-01  0.57580940456E-01  0.89198309337E+00  0.88000000000E+00 0. -1.
        -11    1    4    4    0    0 -0.61563513313E-01 -0.34362296629E-01 -0.41675727485E-01  0.81902142728E-01  0.51100000000E-03 0. -1.
         11    1    4    4    0    0 -0.39937257553E-01 -0.65556207038E-02 -0.18364324698E-01  0.44446262455E-01  0.51100000000E-03 0.  1.
</event>
<event>
 8    1  0.1123191E+005  0.1043930E+01  0.7957747E-01            NaN
         13   -1    0    0    0    0  0.00000000000E+00  0.00000000000E+00  0.74505805969E-08  0.10566000000E+00  0.10566000000E+00 0. -1.
     999900   -1    0    0    0    0 -0.00000000000E+00 -0.00000000000E+00 -0.74505805969E-08  0.93827000000E+00  0.93827000000E+00 0. -1.
     999902    2    1    2    0    0 -0.16899382407E-01 -0.16115490529E-01 -0.13584121768E-02  0.10205389025E+01  0.10202708013E+01 0.  0.
     999903    2    3    3    0    0  0.64881074532E-01  0.53973904242E-01 -0.95473042997E-01  0.12899073767E+00  0.20019298041E-01 0.  0.
         14    1    1    2    0    0  0.16899382407E-01  0.16115490529E-01  0.13584121768E-02  0.23391097545E-01  0.00000000000E+00 0. -1.
     999901    1    3    3    0    0 -0.81780456939E-01 -0.70089394771E-01  0.94114630820E-01  0.89154816478E+00  0.88000000000E+00 0.  1.
        -11    1    4    4    0    0  0.23540243839E-01  0.80411183577E-02 -0.29564634677E-01  0.38641058591E-01  0.51100000000E-03 0.  1.
         11    1    4    4    0    0  0.41340830693E-01  0.45932785884E-01 -0.65908408320E-01  0.90349679079E-01  0.51100000000E-03 0. -1.
</event>
<event>
 8    1  0.1123191E+005  0.1043930E+01  0.7957747E-01            NaN
         13   -1    0    0    0    0  0.00000000000E+00  0.00000000000E+00  0.74505805969E-08  0.10566000000E+00  0.10566000000E+00 0. -1.
     999900   -1    0    0    0    0 -0.00000000000E+00 -0.00000000000E+00 -0.74505805969E-08  0.93827000000E+00  0.93827000000E+00 0.  1.
     999902    2    1    2    0    0 -0.70103201735E-02 -0.21302141611E-01  0.84242837381E-02  0.10199739072E+01  0.10196925404E+01 0.  0.
     999903    2    3    3    0    0  0.80508685483E-01  0.59001116977E-01  0.79478312413E-01  0.12915581988E+00  0.20041043436E-01 0.  0.
         14    1    1    2    0    0  0.70103201735E-02  0.21302141611E-01 -0.84242837381E-02  0.23956092809E-01  0.00000000000E+00 0.  1.
     999901    1    3    3    0    0 -0.87519005656E-01 -0.80303258589E-01 -0.71054028675E-01  0.89081808731E+00  0.88000000000E+00 0.  1.
        -11    1    4    4    0    0  0.13119470386E-01  0.17418285454E-01  0.10822133449E-01  0.24349473603E-01  0.51100000000E-03 0.  1.
         11    1    4    4    0    0  0.67389215097E-01  0.41582831524E-01  0.68656178964E-01  0.10480634628E+00  0.51100000000E-03 0. -1.
</event>
<event>
 8    1  0.1123191E+005  0.1043930E+01  0.7957747E-01            NaN
         13   -1    0    0    0    0  0.00000000000E+00  0.00000000000E+00  0.74505805969E-08  0.10566000000E+00  0.10566000000E+00 0.  1.
     999900   -1    0    0    0    0 -0.00000000000E+00 -0.00000000000E+00 -0.74505805969E-08  0.93827000000E+00  0.93827000000E+00 0. -1.
     999902    2    1    2    0    0  0.11552214939E-01  0.12840121267E-02 -0.18631442403E-01  0.10219701957E+01  0.10217342355E+01 0.  0.
     999903    2    3    3    0    0  0.93204387053E-03  0.10886846869E+00  0.70092533705E-01  0.13092634314E+00  0.19378644573E-01 0.  0.
         14    1    1    2    0    0 -0.11552214939E-01 -0.12840121267E-02  0.18631442403E-01  0.21959804260E-01  0.00000000000E+00 0.  1.
     999901    1    3    3    0    0  0.10620171068E-01 -0.10758445656E+00 -0.88723976107E-01  0.89104385260E+00  0.88000000000E+00 0. -1.
        -11    1    4    4    0    0  0.23323548087E-02  0.76814250882E-01  0.59303337463E-01  0.97072220397E-01  0.51100000000E-03 0. -1.
         11    1    4    4    0    0 -0.14003109382E-02  0.32054217806E-01  0.10789196242E-01  0.33854122739E-01  0.51100000000E-03 0.  1.
</event>
<event>
 8    1  0.1123191E+005  0.1043930E+01  0.7957747E-01            NaN
         13   -1    0    0    0    0  0.00000000000E+00  0.00000000000E+00  0.74505805969E-08  0.10566000000E+00  0.10566000000E+00 0. -1.
     999900   -1    0    0    0    0 -0.00000000000E+00 -0.00000000000E+00 -0.74505805969E-08  0.93827000000E+00  0.93827000000E+00 0. -1.
     999902    2    1    2    0    0  0.25163029245E-02 -0.82062815291E-02  0.11410426752E-01  0.10296516011E+01  0.10295525955E+01 0.  0.
     999903    2    3    3    0    0 -0.54860078546E-01  0.77679742539E-01  0.99715650083E-01  0.13922121596E+00  0.19888828107E-01 0.  0.
         14    1    1    2    0    0 -0.25163029245E-02  0.82062815291E-02 -0.11410426752E-01  0.14278398916E-01  0.00000000000E+00 0.  1.
     999901    1    3    3    0    0  0.57376381471E-01 -0.85886024068E-01 -0.88305223331E-01  0.89043038512E+00  0.88000000000E+00 0.  1.
        -11    1    4    4    0    0 -0.15561606684E-01  0.22453598215E-01  0.16603168040E-01  0.31972706882E-01  0.51100000000E-03 0. -1.
         11    1    4    4    0    0 -0.39298471862E-01  0.55226144324E-01  0.83112482043E-01  0.10724850908E+00  0.51100000000E-03 0.  1.
</event>
<event>
 8    1  0.1123191E+005  0.1043930E+01  0.7957747E-01            NaN
         13   -1    0    0    0    0  0.00000000000E+00  0.00000000000E+00  0.74505805969E-08  0.10566000000E+00  0.10566000000E+00 0.  1.
     999900   -1    0    0    0    0 -0.00000000000E+00 -0.00000000000E+00 -0.74505805969E-08  0.93827000000E+00  0.93827000000E+00 0.  1.
     999902    2    1    2    0    0 -0.21190222125E-01 -0.10455685659E-01 -0.90772617066E-02  0.10186170872E+01  0.10183025222E+01 0.  0.
     999903    2    3    3    0    0  0.95329281796E-01  0.42411273037E-01  0.67594782835E-01  0.12606439262E+00  0.20899482581E-01 0.  0.
         14    1    1    2    0    0  0.21190222125E-01  0.10455685659E-01  0.90772617066E-02  0.25312912839E-01  0.00000000000E+00 0.  1.
     999901    1    3    3    0    0 -0.11651950392E+00 -0.52866958696E-01 -0.76672044541E-01  0.89255269454E+00  0.88000000000E+00 0.  1.
        -11    1    4    4    0    0  0.37924782932E-01  0.24250507924E-01  0.19755304591E-01  0.49162073547E-01  0.51100000000E-03 0. -1.
         11    1    4    4    0    0  0.57404498864E-01  0.18160765113E-01  0.47839478243E-01  0.76902319074E-01  0.51100000000E-03 0.  1.
</event>
<event>
 8    1  0.1123191E+005  0.1043930E+01  0.7957747E-01            NaN
         13   -1    0    0    0    0  0.00000000000E+00  0.00000000000E+00  0.74505805969E-08  0.10566000000E+00  0.10566000000E+00 0.  1.
     999900   -1    0    0    0    0 -0.00000000000E+00 -0.00000000000E+00 -0.74505805969E-08  0.93827000000E+00  0.93827000000E+00 0. -1.
     999902    2    1    2    0    0 -0.22913902965E-01  0.37197947592E-02  0.49943958500E-02  0.10201849413E+01  0.10199085678E+01 0.  0.
     999903    2    3    3    0    0  0.35038048732E-01 -0.91639458400E-01 -0.81201194391E-01  0.12896022462E+00  0.20289168751E-01 0.  0.
         14    1    1    2    0    0  0.22913902965E-01 -0.37197947592E-02 -0.49943958500E-02  0.23745058687E-01  0.00000000000E+00 0.  1.
     999901    1    3    3    0    0 -0.57951951697E-01  0.95359253159E-01  0.86195590241E-01  0.89122471669E+00  0.88000000000E+00 0.  1.
        -11    1    4    4    0    0  0.22366822134E-01 -0.41572300781E-01 -0.49275653431E-01  0.68241351589E-01  0.51100000000E-03 0. -1.
         11    1    4    4    0    0  0.12671226597E-01 -0.50067157619E-01 -0.31925540960E-01  0.60718873030E-01  0.51100000000E-03 0.  1.
</event>
<event>
 8    1  0.1123191E+005  0.1043930E+01  0.7957747E-01            NaN
         13   -1    0    0    0    0  0.00000000000E+00  0.00000000000E+00  0.74505805969E-08  0.10566000000E+00  0.10566000000E+00 0. -1.
     999900   -1    0    0    0    0 -0.00000000000E+00 -0.00000000000E+00 -0.74505805969E-08  0.93827000000E+00  0.93827000000E+00 0.  1.
     999902    2    1    2    0    0 -0.18870543371E-01  0.11236449459E-01  0.98398993329E-02  0.10198638657E+01  0.10195798770E+01 0.  0.
     999903    2    3    3    0    0  0.12052828751E+00  0.18934334996E-01  0.33686863511E-01  0.12853902633E+00  0.22403111059E-01 0.  0.
         14    1    1    2    0    0  0.18870543371E-01 -0.11236449459E-01 -0.98398993329E-02  0.24066134348E-01  0.00000000000E+00 0.  1.
     999901    1    3    3    0    0 -0.13939883088E+00 -0.76978855370E-02 -0.23846964178E-01  0.89132483932E+00  0.88000000000E+00 0. -1.
        -11    1    4    4    0    0  0.21492314994E-01  0.11317758344E-01  0.24766616055E-02  0.24421429758E-01  0.51100000000E-03 0. -1.
         11    1    4    4    0    0  0.99035972515E-01  0.76165766515E-02  0.31210201905E-01  0.10411759657E+00  0.51100000000E-03 0.  1.
</event>
<event>
 8    1  0.1123191E+005  0.1043930E+01  0.7957747E-01            NaN
         13   -1    0    0    0    0  0.00000000000E+00  0.00000000000E+00  0.74505805969E-08  0.10566000000E+00  0.10566000000E+00 0. -1.
     999900   -1    0    0    0    0 -0.00000000000E+00 -0.00000000000E+00 -0.74505805969E-08  0.93827000000E+00  0.93827000000E+00 0.  1.
     999902    2    1    2    0    0 -0.32554047000E-02 -0.10433119667E-01  0.21126970261E-01  0.10201435224E+01  0.10198661725E+01 0.  0.
     999903    2    3    3    0    0 -0.11062617279E+00  0.16820132902E-01 -0.61841217587E-01  0.12932651433E+00  0.19492155844E-01 0.  0.
         14    1    1    2    0    0  0.32554047000E-02  0.10433119667E-01 -0.21126970261E-01  0.23786477632E-01  0.00000000000E+00 0.  1.
     999901    1    3    3    0    0  0.10737076809E+00 -0.27253252570E-01  0.82968187848E-01  0.89081700804E+00  0.88000000000E+00 0. -1.
        -11    1    4    4    0    0 -0.45714620588E-01 -0.27420105474E-03 -0.32356277023E-01  0.56009744737E-01  0.51100000000E-03 0.  1.
         11    1    4    4    0    0 -0.64911552199E-01  0.17094333957E-01 -0.29484940565E-01  0.73316769593E-01  0.51100000000E-03 0. -1.
</event>
<event>
 8    1  0.1123191E+005  0.1043930E+01  0.7957747E-01            NaN
         13   -1    0    0    0    0  0.00000000000E+00  0.00000000000E+00  0.74505805969E-08  0.10566000000E+00  0.10566000000E+00 0. -1.
     999900   -1    0    0    0    0 -0.00000000000E+00 -0.00000000000E+00 -0.74505805969E-08  0.93827000000E+00  0.93827000000E+00 0. -1.
     999902    2    1    2    0    0  0.86779789284E-02 -0.48721210614E-02  0.21138750270E-01  0.10205656758E+01  0.10202981951E+01 0.  0.
     999903    2    3    3    0    0 -0.50252914653E-01 -0.66559886491E-02  0.12132019693E+00  0.13292140322E+00  0.19489782821E-01 0.  0.
         14    1    1    2    0    0 -0.86779789284E-02  0.48721210614E-02 -0.21138750270E-01  0.23364324191E-01  0.00000000000E+00 0.  1.
     999901    1    3    3    0    0  0.58930893581E-01  0.17838675877E-02 -0.10018144666E+00  0.88764427259E+00  0.88000000000E+00 0. -1.
        -11    1    4    4    0    0 -0.18376667485E-01 -0.22392448651E-02  0.69454063616E-01  0.71880763764E-01  0.51100000000E-03 0.  1.
         11    1    4    4    0    0 -0.31876247168E-01 -0.44167437840E-02  0.51866133317E-01  0.61040639458E-01  0.51100000000E-03 0. -1.
</event>
<event>
 8    1  0.1123191E+005  0.1043930E+01  0.7957747E-01            NaN
         13   -1    0    0    0    0  0.00000000000E+00  0.00000000000E+00  0.74505805969E-08  0.10566000000E+00  0.10566000000E+00 0.  1.
     999900   -1    0    0    0    0 -0.00000000000E+00 -0.00000000000E+00 -0.74505805969E-08  0.93827000000E+00  0.93827000000E+00 0. -1.
     999902    2    1    2    0    0 -0.10058486770E-01  0.10244994761E-01 -0.17685642553E-01  0.10211502935E+01  0.10208961784E+01 0.  0.
     999903    2    3    3    0    0 -0.64313251530E-01  0.87457047480E-01 -0.76153492017E-01  0.13417578996E+00  0.20466039894E-01 0.  0.
         14    1    1    2    0    0  0.10058486770E-01 -0.10244994761E-01  0.17685642553E-01  0.22779706457E-01  0.00000000000E+00 0. -1.
     999901    1    3    3    0    0  0.54254764760E-01 -0.77212052718E-01  0.58467849464E-01  0.88697450358E+00  0.88000000000E+00 0.  1.
        -11    1    4    4    0    0 -0.20482685687E-01  0.14584588317E-01 -0.21505757081E-01  0.33090925311E-01  0.51100000000E-03 0.  1.
         11    1    4    4    0    0 -0.43830565842E-01  0.72872459163E-01 -0.54647734936E-01  0.10108486465E+00  0.51100000000E-03 0. -1.
</event>
<event>
 8    1  0.1123191E+005  0.1043930E+01  0.7957747E-01            NaN
         13   -1    0    0    0    0  0.00000000000E+00  0.00000000000E+00  0.74505805969E-08  0.10566000000E+00  0.10566000000E+00 0. -1.
     999900   -1    0    0    0    0 -0.00000000000E+00 -0.00000000000E+00 -0.74505805969E-08  0.93827000000E+00  0.93827000000E+00 0. -1.
     999902    2    1    2    0    0  0.18338599685E-01 -0.17968843907E-02 -0.15685337136E-01  0.10197315944E+01  0.10194444378E+01 0.  0.
     999903    2    3    3    0    0 -0.25336144126E-01  0.10413186233E+00  0.67358398843E-01  0.12842657103E+00  0.21699430838E-01 0.  0.
         14    1    1    2    0    0 -0.18338599685E-01  0.17968843907E-02  0.15685337136E-01  0.24198405588E-01  0.00000000000E+00 0. -1.
     999901    1    3    3    0    0  0.43674743811E-01 -0.10592874672E+00 -0.83043735979E-01  0.89130502339E+00  0.88000000000E+00 0. -1.
        -11    1    4    4    0    0 -0.22690305443E-01  0.96584641982E-01  0.54292924183E-01  0.11309918552E+00  0.51100000000E-03 0.  1.
         11    1    4    4    0    0 -0.26458386830E-02  0.75472203504E-02  0.13065474660E-01  0.15327385506E-01  0.51100000000E-03 0. -1.
</event>
<event>
 8    1  0.1123191E+005  0.1043930E+01  0.7957747E-01            NaN
         13   -1    0    0    0    0  0.00000000000E+00  0.00000000000E+00  0.74505805969E-08  0.10566000000E+00  0.10566000000E+00 0.  1.
     999900   -1    0    0    0    0 -0.00000000000E+00 -0.00000000000E+00 -0.74505805969E-08  0.93827000000E+00  0.93827000000E+00 0.  1.
     999902    2    1    2    0    0  0.14922575544E-01  0.34283815839E-02 -0.18553076485E-01  0.10198747779E+01  0.10195910499E+01 0.  0.
     999903    2    3    3    0    0 -0.54566500922E-01 -0.61883810956E-01 -0.99994564188E-01  0.13098382278E+00  0.18728050698E-01 0.  0.
         14    1    1    2    0    0 -0.14922575544E-01 -0.34283815839E-02  0.18553076485E-01  0.24055222057E-01  0.00000000000E+00 0.  1.
     999901    1    3    3    0    0  0.69489076465E-01  0.65312192540E-01  0.81441487703E-01  0.88889095516E+00  0.88000000000E+00 0. -1.
        -11    1    4    4    0    0 -0.25867778109E-02 -0.83448185013E-02 -0.18617688417E-01  0.20571992083E-01  0.51100000000E-03 0. -1.
         11    1    4    4    0    0 -0.51979723111E-01 -0.53538992454E-01 -0.81376875771E-01  0.11041183070E+00  0.51100000000E-03 0.  1.
</event>
<event>
 8    1  0.1123191E+005  0.1043930E+01  0.7957747E-01            NaN
         13   -1    0    0    0    0  0.00000000000E+00  0.00000000000E+00  0.74505805969E-08  0.10566000000E+00  0.10566000000E+00 0.  1.
     999900   -1    0    0    0    0 -0.00000000000E+00 -0.00000000000E+00 -0.74505805969E-08  0.93827000000E+00  0.93827000000E+00 0.  1.
     999902    2    1    2    0    0  0.19504242421E-01  0.11487896124E-01  0.70778612305E-02  0.10202132686E+01  0.10199375618E+01 0.  0.
     999903    2    3    3    0    0 -0.13318639927E-02  0.21755537897E-01  0.12817667162E+00  0.13161634664E+00  0.20457914450E-01 0.  0.
         14    1    1    2    0    0 -0.19504242421E-01 -0.11487896124E-01 -0.70778612305E-02  0.23716731423E-01  0.00000000000E+00 0. -1.
     999901    1    3    3    0    0  0.20836106414E-01 -0.10267641773E-01 -0.12109881039E+00  0.88859692194E+00  0.88000000000E+00 0.  1.
        -11    1    4    4    0    0 -0.73973118870E-02  0.16920112139E-02  0.54017008923E-01  0.54549807507E-01  0.51100000000E-03 0. -1.
         11    1    4    4    0    0  0.60654478943E-02  0.20063526683E-01  0.74159662700E-01  0.77066539132E-01  0.51100000000E-03 0.  1.
</event>
<event>
 8    1  0.1123191E+005  0.1043930E+01  0.7957747E-01            NaN
         13   -1    0    0    0    0  0.00000000000E+00  0.00000000000E+00  0.74505805969E-08  0.10566000000E+00  0.10566000000E+00 0. -1.
     999900   -1    0    0    0    0 -0.00000000000E+00 -0.00000000000E+00 -0.74505805969E-08  0.93827000000E+00  0.93827000000E+00 0. -1.
     999902    2    1    2    0    0  0.45484599277E-02  0.52967732577E-02  0.23095815426E-01  0.10198019875E+01  0.10195165192E+01 0.  0.
     999903    2    3    3    0    0  0.60219292776E-02 -0.98000986262E-02  0.13181617714E+00  0.13298171055E+00  0.13278750621E-01 0.  0.
         14    1    1    2    0    0 -0.45484599277E-02 -0.52967732577E-02 -0.23095815426E-01  0.24128012451E-01  0.00000000000E+00 0.  1.
     999901    1    3    3    0    0 -0.14734693499E-02  0.15096871884E-01 -0.10872036172E+00  0.88682027700E+00  0.88000000000E+00 0. -1.
        -11    1    4    4    0    0  0.57895534395E-02 -0.10422491356E-02  0.20877234628E-01  0.21696203792E-01  0.51100000000E-03 0. -1.
         11    1    4    4    0    0  0.23237583804E-03 -0.87578494906E-02  0.11093894251E+00  0.11128550675E+00  0.51100000000E-03 0.  1.
</event>
<event>
 8    1  0.1123191E+005  0.1043930E+01  0.7957747E-01            NaN
         13   -1    0    0    0    0  0.00000000000E+00  0.00000000000E+00  0.74505805969E-08  0.10566000000E+00  0.10566000000E+00 0.  1.
     999900   -1    0    0    0    0 -0.00000000000E+00 -0.00000000000E+00 -0.74505805969E-08  0.93827000000E+00  0.93827000000E+00 0. -1.
     999902    2    1    2    0    0 -0.13556169323E-01 -0.19814648424E-01 -0.55911209720E-02  0.10192794290E+01  0.10189813068E+01 0.  0.
     999903    2    3    3    0    0  0.67377769345E-01 -0.85373960424E-01 -0.69206529001E-01  0.13085653081E+00  0.22481349580E-01 0.  0.
         14    1    1    2    0    0  0.13556169323E-01  0.19814648424E-01  0.55911209720E-02  0.24650571040E-01  0.00000000000E+00 0.  1.
     999901    1    3    3    0    0 -0.80933938668E-01  0.65559312000E-01  0.63615408029E-01  0.88842289815E+00  0.88000000000E+00 0. -1.
        -11    1    4    4    0    0  0.41846879337E-01 -0.34904447585E-01 -0.33727548541E-01  0.64088145730E-01  0.51100000000E-03 0.  1.
         11    1    4    4    0    0  0.25530890008E-01 -0.50469512838E-01 -0.35478980461E-01  0.66768385081E-01  0.51100000000E-03 0. -1.
</event>
<event>
 8    1  0.1123191E+005  0.1043930E+01  0.7957747E-01            NaN
         13   -1    0    0    0    0  0.00000000000E+00  0.00000000000E+00  0.74505805969E-08  0.10566000000E+00  0.10566000000E+00 0.  1.
     999900   -1    0    0    0    0 -0.00000000000E+00 -0.00000000000E+00 -0.74505805969E-08  0.93827000000E+00  0.93827000000E+00 0.  1.
     999902    2    1    2    0    0  0.17896784532E-01  0.20175166589E-01  0.25757835576E-02  0.10168381764E+01  0.10164772059E+01 0.  0.
     999903    2    3    3    0    0  0.10285553261E+00  0.31372902533E-01 -0.69031807773E-01  0.12978066685E+00  0.22674024818E-01 0.  0.
         14    1    1    2    0    0 -0.17896784532E-01 -0.20175166589E-01 -0.25757835576E-02  0.27091823572E-01  0.00000000000E+00 0. -1.
     999901    1    3    3    0    0 -0.84958748078E-01 -0.11197735944E-01  0.71607591331E-01  0.88705750958E+00  0.88000000000E+00 0. -1.
        -11    1    4    4    0    0  0.43834450641E-01  0.24833413889E-01 -0.34849992762E-01  0.61261248966E-01  0.51100000000E-03 0. -1.
         11    1    4    4    0    0  0.59021081969E-01  0.65394886441E-02 -0.34181815011E-01  0.68519417882E-01  0.51100000000E-03 0.  1.
</event>
<event>
 8    1  0.1123191E+005  0.1043930E+01  0.7957747E-01            NaN
         13   -1    0    0    0    0  0.00000000000E+00  0.00000000000E+00  0.74505805969E-08  0.10566000000E+00  0.10566000000E+00 0.  1.
     999900   -1    0    0    0    0 -0.00000000000E+00 -0.00000000000E+00 -0.74505805969E-08  0.93827000000E+00  0.93827000000E+00 0.  1.
     999902    2    1    2    0    0  0.22626697298E-02  0.23851776054E-02  0.22900082746E-01  0.10207951229E+01  0.10205329296E+01 0.  0.
     999903    2    3    3    0    0  0.48816781388E-01 -0.16155722855E-01 -0.11617179781E+00  0.12846556596E+00  0.19063827142E-01 0.  0.
         14    1    1    2    0    0 -0.22626697298E-02 -0.23851776054E-02 -0.22900082746E-01  0.23134877054E-01  0.00000000000E+00 0. -1.
     999901    1    3    3    0    0 -0.46554111658E-01  0.18540900460E-01  0.13907188056E+00  0.89232955698E+00  0.88000000000E+00 0. -1.
        -11    1    4    4    0    0  0.31176253623E-01 -0.19548236348E-01 -0.74997507462E-01  0.83540287172E-01  0.51100000000E-03 0.  1.
         11    1    4    4    0    0  0.17640527764E-01  0.33925134929E-02 -0.41174290350E-01  0.44925278791E-01  0.51100000000E-03 0. -1.
</event>
<event>
 8    1  0.1123191E+005  0.1043930E+01  0.7957747E-01            NaN
         13   -1    0    0    0    0  0.00000000000E+00  0.00000000000E+00  0.74505805969E-08  0.10566000000E+00  0.10566000000E+00 0. -1.
     999900   -1    0    0    0    0 -0.00000000000E+00 -0.00000000000E+00 -0.74505805969E-08  0.93827000000E+00  0.93827000000E+00 0. -1.
     999902    2    1    2    0    0 -0.14661376222E-01  0.90338292786E-02  0.15901391838E-01  0.10204902840E+01  0.10202210542E+01 0.  0.
     999903    2    3    3    0    0  0.75036114521E-01  0.10433202165E+00 -0.85356395111E-02  0.13047648982E+00  0.20872662245E-01 0.  0.
         14    1    1    2    0    0  0.14661376222E-01 -0.90338292786E-02 -0.15901391838E-01  0.23439716008E-01  0.00000000000E+00 0.  1.
     999901    1    3    3    0    0 -0.89697490743E-01 -0.95298192375E-01  0.24437031349E-01  0.89001379417E+00  0.88000000000E+00 0.  1.
        -11    1    4    4    0    0  0.49007927338E-01  0.60892270285E-01 -0.14445763309E-01  0.79489538438E-01  0.51100000000E-03 0.  1.
         11    1    4    4    0    0  0.26028187183E-01  0.43439751368E-01  0.59101237976E-02  0.50986951382E-01  0.51100000000E-03 0. -1.
</event>
<event>
 7    1  0.1123191E+005  0.1043930E+01  0.7957747E-01            NaN
         13   -1    0    0    0    0  0.00000000000E+00  0.00000000000E+00  0.74505805969E-08  0.10566000000E+00  0.10566000000E+00 0. -1.
     999900   -1    0    0    0    0 -0.00000000000E+00 -0.00000000000E+00 -0.74505805969E-08  0.93827000000E+00  0.93827000000E+00 0. -1.
     999903    2    1    2    0    0 -0.12621538066E-01  0.71729744774E-01  0.27788977196E-02  0.75609846366E-01  0.20116338795E-01 0.  0.
         14    1    1    2    0    0  0.11137631062E-01 -0.62190739467E-01 -0.59037837627E-01  0.86470811103E-01  0.00000000000E+00 0.  1.
     999901    1    1    2    0    0  0.14839070043E-02 -0.95390053061E-02  0.56258939907E-01  0.88184934253E+00  0.88000000000E+00 0.  1.
        -11    1    3    3    0    0 -0.12027286133E-01  0.17564500706E-01  0.24828868705E-02  0.21438123635E-01  0.51100000000E-03 0.  1.
         11    1    3    3    0    0 -0.59425193357E-03  0.54165244067E-01  0.29601084913E-03  0.54171722731E-01  0.51100000000E-03 0. -1.
</event>
<event>
 7    1  0.1123191E+005  0.1043930E+01  0.7957747E-01            NaN
         13   -1    0    0    0    0  0.00000000000E+00  0.00000000000E+00  0.74505805969E-08  0.10566000000E+00  0.10566000000E+00 0.  1.
     999900   -1    0    0    0    0 -0.00000000000E+00 -0.00000000000E+00 -0.74505805969E-08  0.93827000000E+00  0.93827000000E+00 0. -1.
     999902    2    1    2    0    0 -0.81532716106E-02 -0.14535005077E-01  0.15851388591E-01  0.10209298102E+01  0.10206706955E+01 0.  0.
         14    1    1    2    0    0  0.81532716106E-02  0.14535005077E-01 -0.15851388591E-01  0.23000189799E-01  0.00000000000E+00 0. -1.
     999901    1    3    3    0    0 -0.54491653109E-01  0.94895858757E-01  0.35120048330E-02  0.88678458401E+00  0.88000000000E+00 0. -1.
        -11    1    3    3    0    0  0.31196181900E-02 -0.82664623118E-01  0.85490464109E-02  0.83165613378E-01  0.51100000000E-03 0.  1.
         11    1    3    3    0    0  0.43218763309E-01 -0.26766240715E-01  0.37903373469E-02  0.50979612809E-01  0.51100000000E-03 0. -1.
</event>
<event>
 8    1  0.1123191E+005  0.1043930E+01  0.7957747E-01            NaN
         13   -1    0    0    0    0  0.00000000000E+00  0.00000000000E+00  0.74505805969E-08  0.10566000000E+00  0.10566000000E+00 0. -1.
     999900   -1    0    0    0    0 -0.00000000000E+00 -0.00000000000E+00 -0.74505805969E-08  0.93827000000E+00  0.93827000000E+00 0. -1.
     999902    2    1    2    0    0 -0.11771156566E-01 -0.14491056160E-01 -0.12365914742E-01  0.10215365482E+01  0.10212910715E+01 0.  0.
     999903    2    3    3    0    0  0.12593127827E+00 -0.64212963807E-02 -0.29623912007E-01  0.13062413947E+00  0.16886970032E-01 0.  0.
         14    1    1    2    0    0  0.11771156566E-01  0.14491056160E-01  0.12365914742E-01  0.22393451787E-01  0.00000000000E+00 0. -1.
     999901    1    3    3    0    0 -0.13770243483E+00 -0.80697597792E-02  0.17257997265E-01  0.89091240874E+00  0.88000000000E+00 0.  1.
        -11    1    4    4    0    0  0.29317756544E-01 -0.77868078399E-02 -0.10655685806E-01  0.32155403684E-01  0.51100000000E-03 0.  1.
         11    1    4    4    0    0  0.96613521723E-01  0.13655114592E-02 -0.18968226201E-01  0.98468735787E-01  0.51100000000E-03 0. -1.
</event>
<event>
 8    1  0.1123191E+005  0.1043930E+01  0.7957747E-01            NaN
         13   -1    0    0    0    0  0.00000000000E+00  0.00000000000E+00  0.74505805969E-08  0.10566000000E+00  0.10566000000E+00 0.  1.
     999900   -1    0    0    0    0 -0.00000000000E+00 -0.00000000000E+00 -0.74505805969E-08  0.93827000000E+00  0.93827000000E+00 0.  1.
     999902    2    1    2    0    0  0.13835009516E-01 -0.87095055046E-02  0.16997139111E-01  0.10203468341E+01  0.10200742601E+01 0.  0.
     999903    2    3    3    0    0 -0.32738594583E-01  0.39258495783E-01  0.11978452425E+00  0.13184513110E+00  0.20536827350E-01 0.  0.
         14    1    1    2    0    0 -0.13835009516E-01  0.87095055046E-02 -0.16997139111E-01  0.23583165869E-01  0.00000000000E+00 0.  1.
     999901    1    3    3    0    0  0.46573604100E-01 -0.47968001288E-01 -0.10278738514E+00  0.88850170303E+00  0.88000000000E+00 0.  1.
        -11    1    4    4    0    0 -0.87873246824E-02  0.26368114527E-01  0.64220268382E-01  0.69978557650E-01  0.51100000000E-03 0.  1.
         11    1    4    4    0    0 -0.23951269901E-01  0.12890381256E-01  0.55564255870E-01  0.61866573448E-01  0.51100000000E-03 0. -1.
</event>
<event>
 8    1  0.1123191E+005  0.1043930E+01  0.7957747E-01            NaN
         13   -1    0    0    0    0  0.00000000000E+00  0.00000000000E+00  0.74505805969E-08  0.10566000000E+00  0.10566000000E+00 0.  1.
     999900   -1    0    0    0    0 -0.00000000000E+00 -0.00000000000E+00 -0.74505805969E-08  0.93827000000E+00  0.93827000000E+00 0. -1.
     999902    2    1    2    0    0  0.63009194083E-02 -0.22603547079E-01 -0.75812427940E-02  0.10192703737E+01  0.10189720298E+01 0.  0.
     999903    2    3    3    0    0  0.86490533046E-01 -0.89331254786E-01  0.38644297357E-01  0.13190361658E+00  0.21083096575E-01 0.  0.
         14    1    1    2    0    0 -0.63009194083E-02  0.22603547079E-01  0.75812427940E-02  0.24659626280E-01  0.00000000000E+00 0. -1.
     999901    1    3    3    0    0 -0.80189613637E-01  0.66727707706E-01 -0.46225540151E-01  0.88736675714E+00  0.88000000000E+00 0. -1.
        -11    1    4    4    0    0  0.47387302375E-01 -0.60010516668E-01  0.30632131217E-01  0.82373582665E-01  0.51100000000E-03 0.  1.
         11    1    4    4    0    0  0.39103230670E-01 -0.29320738118E-01  0.80121661403E-02  0.49530033918E-01  0.51100000000E-03 0. -1.
</event>
<event>
 8    1  0.1123191E+005  0.1043930E+01  0.7957747E-01            NaN
         13   -1    0    0    0    0  0.00000000000E+00  0.00000000000E+00  0.74505805969E-08  0.10566000000E+00  0.10566000000E+00 0. -1.
     999900   -1    0    0    0    0 -0.00000000000E+00 -0.00000000000E+00 -0.74505805969E-08  0.93827000000E+00  0.93827000000E+00 0. -1.
     999902    2    1    2    0    0 -0.48044998458E-03  0.19367349475E-01 -0.13242608492E-01  0.10204631779E+01  0.10201933179E+01 0.  0.
     999903    2    3    3    0    0 -0.10083501244E+00  0.78158008125E-01  0.27225348596E-01  0.13188845666E+00  0.19415752014E-01 0.  0.
         14    1    1    2    0    0  0.48044998458E-03 -0.19367349475E-01  0.13242608492E-01  0.23466822059E-01  0.00000000000E+00 0. -1.
     999901    1    3    3    0    0  0.10035456245E+00 -0.58790658650E-01 -0.40467957087E-01  0.88857472128E+00  0.88000000000E+00 0. -1.
        -11    1    4    4    0    0 -0.59772108801E-01  0.49297537518E-01  0.70790562522E-02  0.77803125607E-01  0.51100000000E-03 0.  1.
         11    1    4    4    0    0 -0.41062903638E-01  0.28860470607E-01  0.20146292344E-01  0.54085331052E-01  0.51100000000E-03 0. -1.
</event>
<event>
 8    1  0.1123191E+005  0.1043930E+01  0.7957747E-01            NaN
         13   -1    0    0    0    0  0.00000000000E+00  0.00000000000E+00  0.74505805969E-08  0.10566000000E+00  0.10566000000E+00 0.  1.
     999900   -1    0    0    0    0 -0.00000000000E+00 -0.00000000000E+00 -0.74505805969E-08  0.93827000000E+00  0.93827000000E+00 0. -1.
     999902    2    1    2    0    0 -0.33932991373E-02 -0.21059093651E-01  0.97084908058E-02  0.10204938165E+01  0.10202246688E+01 0.  0.
     999903    2    3    3    0    0  0.12391013475E+00 -0.12907893982E-01 -0.32390130100E-01  0.13030007340E+00  0.20215176931E-01 0.  0.
         14    1    1    2    0    0  0.33932991373E-02  0.21059093651E-01 -0.97084908058E-02  0.23436183524E-01  0.00000000000E+00 0.  1.
     999901    1    3    3    0    0 -0.12730343389E+00 -0.81511996685E-02  0.42098620906E-01  0.89019374308E+00  0.88000000000E+00 0. -1.
        -11    1    4    4    0    0  0.52444736252E-01 -0.12458805687E-01 -0.21364371115E-01  0.57985943761E-01  0.51100000000E-03 0.  1.
         11    1    4    4    0    0  0.71465398498E-01 -0.44908829579E-03 -0.11025758986E-01  0.72314129636E-01  0.51100000000E-03 0. -1.
</event>
<event>
 8    1  0.1123191E+005  0.1043930E+01  0.7957747E-01            NaN
         13   -1    0    0    0    0  0.00000000000E+00  0.00000000000E+00  0.74505805969E-08  0.10566000000E+00  0.10566000000E+00 0. -1.
     999900   -1    0    0    0    0 -0.00000000000E+00 -0.00000000000E+00 -0.74505805969E-08  0.93827000000E+00  0.93827000000E+00 0. -1.
     999902    2    1    2    0    0 -0.71030335380E-03 -0.21987901800E-01 -0.59787054668E-02  0.10211326915E+01  0.10208781790E+01 0.  0.
     999903    2    3    3    0    0  0.51151181933E-01  0.11138031960E+00  0.33472461171E-01  0.12870169097E+00  0.20535349883E-01 0.  0.
         14    1    1    2    0    0  0.71030335380E-03  0.21987901800E-01  0.59787054668E-02  0.22797308514E-01  0.00000000000E+00 0. -1.
     999901    1    3    3    0    0 -0.51861485287E-01 -0.13336822140E+00 -0.39451166638E-01  0.89243100052E+00  0.88000000000E+00 0.  1.
        -11    1    4    4    0    0  0.44125954310E-01  0.78330269522E-01  0.29775107591E-01  0.94707703595E-01  0.51100000000E-03 0.  1.
         11    1    4    4    0    0  0.70252276232E-02  0.33050050075E-01  0.36973535802E-02  0.33993987374E-01  0.51100000000E-03 0. -1.
</event>
<event>
 8    1  0.1123191E+005  0.1043930E+01  0.7957747E-01            NaN
         13   -1    0    0    0    0  0.00000000000E+00  0.00000000000E+00  0.74505805969E-08  0.10566000000E+00  0.10566000000E+00 0. -1.
     999900   -1    0    0    0    0 -0.00000000000E+00 -0.00000000000E+00 -0.74505805969E-08  0.93827000000E+00  0.93827000000E+00 0.  1.
     999902    2    1    2    0    0 -0.17812281894E-02  0.18220043521E-01 -0.17626657728E-01  0.10185165818E+01  0.10181994823E+01 0.  0.
     999903    2    3    3    0    0 -0.10977857700E+00  0.59033137651E-01 -0.34470134675E-01  0.13081570952E+00  0.19705642977E-01 0.  0.
         14    1    1    2    0    0  0.17812281894E-02 -0.18220043521E-01  0.17626657728E-01  0.25413418157E-01  0.00000000000E+00 0. -1.
     999901    1    3    3    0    0  0.10799734881E+00 -0.40813094129E-01  0.16843476947E-01  0.88770087232E+00  0.88000000000E+00 0.  1.
        -11    1    4    4    0    0 -0.36881829749E-01  0.28866158282E-01 -0.18274338134E-01  0.50276605045E-01  0.51100000000E-03 0.  1.
         11    1    4    4    0    0 -0.72896747247E-01  0.30166979369E-01 -0.16195796542E-01  0.80539104478E-01  0.51100000000E-03 0. -1.
</event>
<event>
 8    1  0.1123191E+005  0.1043930E+01  0.7957747E-01            NaN
         13   -1    0    0    0    0  0.00000000000E+00  0.00000000000E+00  0.74505805969E-08  0.10566000000E+00  0.10566000000E+00 0.  1.
     999900   -1    0    0    0    0 -0.00000000000E+00 -0.00000000000E+00 -0.74505805969E-08  0.93827000000E+00  0.93827000000E+00 0.  1.
     999902    2    1    2    0    0 -0.16700041280E-01  0.73993765729E-02 -0.13344728580E-01  0.10213086841E+01  0.10210581297E+01 0.  0.
     999903    2    3    3    0    0 -0.11055312751E+00  0.60329547220E-01 -0.41655985964E-01  0.13428470919E+00  0.20868964681E-01 0.  0.
         14    1    1    2    0    0  0.16700041280E-01 -0.73993765729E-02  0.13344728580E-01  0.22621315905E-01  0.00000000000E+00 0. -1.
     999901    1    3    3    0    0  0.93853086226E-01 -0.52930170648E-01  0.28311257384E-01  0.88702397490E+00  0.88000000000E+00 0. -1.
        -11    1    4    4    0    0 -0.42479218534E-01  0.28336014553E-01 -0.26583317786E-01  0.57570371142E-01  0.51100000000E-03 0.  1.
         11    1    4    4    0    0 -0.68073908972E-01  0.31993532668E-01 -0.15072668178E-01  0.76714338049E-01  0.51100000000E-03 0. -1.
</event>
<event>
 8    1  0.1140091E+005  0.1043930E+01  0.7957747E-01            NaN
         13   -1    0    0    0    0  0.00000000000E+00  0.00000000000E+00  0.74505805969E-08  0.10566000000E+00  0.10566000000E+00 0.  1.
     999900   -1    0    0    0    0 -0.00000000000E+00 -0.00000000000E+00 -0.74505805969E-08  0.93827000000E+00  0.93827000000E+00 0. -1.
     999902    2    1    2    0    0  0.79521485174E-03  0.23498047873E-01 -0.12127201354E-02  0.10203872451E+01  0.10201156153E+01 0.  0.
     999903    2    3    3    0    0 -0.72254433248E-02 -0.11699612923E+00  0.47168855039E-01  0.12789426380E+00  0.19792436482E-01 0.  0.
         14    1    1    2    0    0 -0.79521485174E-03 -0.23498047873E-01  0.12127201354E-02  0.23542754950E-01  0.00000000000E+00 0. -1.
     999901    1    3    3    0    0  0.80206581766E-02  0.14049417710E+00 -0.48381575174E-01  0.89249298125E+00  0.88000000000E+00 0. -1.
        -11    1    4    4    0    0 -0.13863326221E-01 -0.66194410301E-01  0.26028509465E-01  0.72468173669E-01  0.51100000000E-03 0. -1.
         11    1    4    4    0    0  0.66378828960E-02 -0.50801718930E-01  0.21140345574E-01  0.55426090134E-01  0.51100000000E-03 0.  1.
</event>
<event>
 8    1  0.1123191E+005  0.1043930E+01  0.7957747E-01            NaN
         13   -1    0    0    0    0  0.00000000000E+00  0.00000000000E+00  0.74505805969E-08  0.10566000000E+00  0.10566000000E+00 0.  1.
     999900   -1    0    0    0    0 -0.00000000000E+00 -0.00000000000E+00 -0.74505805969E-08  0.93827000000E+00  0.93827000000E+00 0. -1.
     999902    2    1    2    0    0  0.65118744746E-02 -0.85129721541E-02 -0.20790134358E-01  0.10205397266E+01  0.10202716445E+01 0.  0.
     999903    2    3    3    0    0 -0.61988319096E-01  0.30708551013E-01 -0.11107675397E+00  0.13240557113E+00  0.20189680122E-01 0.  0.
         14    1    1    2    0    0 -0.65118744746E-02  0.85129721541E-02  0.20790134358E-01  0.23390273420E-01  0.00000000000E+00 0.  1.
     999901    1    3    3    0    0  0.68500193570E-01 -0.39221523167E-01  0.90286619613E-01  0.88813415545E+00  0.88000000000E+00 0.  1.
        -11    1    4    4    0    0 -0.57469689386E-01  0.20895626087E-01 -0.91840351831E-01  0.11033722732E+00  0.51100000000E-03 0. -1.
         11    1    4    4    0    0 -0.45186297102E-02  0.98129249263E-02 -0.19236402140E-01  0.22068343806E-01  0.51100000000E-03 0.  1.
</event>
<event>
 8    1  0.1123191E+005  0.1043930E+01  0.7957747E-01            NaN
         13   -1    0    0    0    0  0.00000000000E+00  0.00000000000E+00  0.74505805969E-08  0.10566000000E+00  0.10566000000E+00 0.  1.
     999900   -1    0    0    0    0 -0.00000000000E+00 -0.00000000000E+00 -0.74505805969E-08  0.93827000000E+00  0.93827000000E+00 0. -1.
     999902    2    1    2    0    0  0.16690974379E-01  0.14950812684E-01 -0.80508289107E-02  0.10201196814E+01  0.10198417687E+01 0.  0.
     999903    2    3    3    0    0  0.33861560804E-01 -0.63768927841E-01  0.10522858151E+00  0.12920787240E+00  0.20212334493E-01 0.  0.
         14    1    1    2    0    0 -0.16690974379E-01 -0.14950812684E-01  0.80508289107E-02  0.23810318599E-01  0.00000000000E+00 0.  1.
     999901    1    3    3    0    0 -0.17170586425E-01  0.78719740525E-01 -0.11327941042E+00  0.89091180900E+00  0.88000000000E+00 0. -1.
        -11    1    4    4    0    0  0.14152839737E-01 -0.46990790646E-01  0.69924994468E-01  0.85429522125E-01  0.51100000000E-03 0.  1.
         11    1    4    4    0    0  0.19708721067E-01 -0.16778137195E-01  0.35303587044E-01  0.43778350278E-01  0.51100000000E-03 0. -1.
</event>
<event>
 8    1  0.1123191E+005  0.1043930E+01  0.7957747E-01            NaN
         13   -1    0    0    0    0  0.00000000000E+00  0.00000000000E+00  0.74505805969E-08  0.10566000000E+00  0.10566000000E+00 0.  1.
     999900   -1    0    0    0    0 -0.00000000000E+00 -0.00000000000E+00 -0.74505805969E-08  0.93827000000E+00  0.93827000000E+00 0.  1.
     999902    2    1    2    0    0 -0.17386140488E-01 -0.15460242342E-01  0.32028936107E-02  0.10204447812E+01  0.10201744929E+01 0.  0.
     999903    2    3    3    0    0 -0.12790859664E+00 -0.30235860849E-01 -0.62403620179E-02  0.13335814096E+00  0.21694129779E-01 0.  0.
         14    1    1    2    0    0  0.17386140488E-01  0.15460242342E-01 -0.32028936107E-02  0.23485218794E-01  0.00000000000E+00 0. -1.
     999901    1    3    3    0    0  0.11052245616E+00  0.14775618507E-01  0.94432556286E-02  0.88708664024E+00  0.88000000000E+00 0.  1.
        -11    1    4    4    0    0 -0.97356196646E-01 -0.13298547436E-01 -0.54420262050E-02  0.98412179935E-01  0.51100000000E-03 0.  1.
         11    1    4    4    0    0 -0.30552399997E-01 -0.16937313412E-01 -0.79833581293E-03  0.34945961030E-01  0.51100000000E-03 0. -1.
</event>
<event>
 8    1  0.1123191E+005  0.1043930E+01  0.7957747E-01            NaN
         13   -1    0    0    0    0  0.00000000000E+00  0.00000000000E+00  0.74505805969E-08  0.10566000000E+00  0.10566000000E+00 0.  1.
     999900   -1    0    0    0    0 -0.00000000000E+00 -0.00000000000E+00 -0.74505805969E-08  0.93827000000E+00  0.93827000000E+00 0. -1.
     999902    2    1    2    0    0  0.94110663050E-02  0.27129608503E-01  0.87199387507E-02  0.10139196491E+01  0.10134754234E+01 0.  0.
     999903    2    3    3    0    0  0.63641724856E-01  0.80410488692E-01 -0.72109038980E-01  0.12695113778E+00  0.20019042084E-01 0.  0.
         14    1    1    2    0    0 -0.94110663050E-02 -0.27129608503E-01 -0.87199387507E-02  0.30010350853E-01  0.00000000000E+00 0. -1.
     999901    1    3    3    0    0 -0.54230658551E-01 -0.53280880189E-01  0.80828977731E-01  0.88696851137E+00  0.88000000000E+00 0.  1.
        -11    1    4    4    0    0  0.51594216351E-02  0.18818884449E-01 -0.12326315532E-01  0.23086126117E-01  0.51100000000E-03 0.  1.
         11    1    4    4    0    0  0.58482303220E-01  0.61591604243E-01 -0.59782723448E-01  0.10386501166E+00  0.51100000000E-03 0. -1.
</event>
<event>
 8    1  0.1123191E+005  0.1043930E+01  0.7957747E-01            NaN
         13   -1    0    0    0    0  0.00000000000E+00  0.00000000000E+00  0.74505805969E-08  0.10566000000E+00  0.10566000000E+00 0. -1.
     999900   -1    0    0    0    0 -0.00000000000E+00 -0.00000000000E+00 -0.74505805969E-08  0.93827000000E+00  0.93827000000E+00 0. -1.
     999902    2    1    2    0    0 -0.18584111180E-01  0.13379153693E-01  0.57755753040E-02  0.10203137299E+01  0.10200403812E+01 0.  0.
     999903    2    3    3    0    0  0.63334013034E-01 -0.26992559666E-01  0.10802740844E+00  0.12969827324E+00  0.20295950877E-01 0.  0.
         14    1    1    2    0    0  0.18584111180E-01 -0.13379153693E-01 -0.57755753040E-02  0.23616270070E-01  0.00000000000E+00 0.  1.
     999901    1    3    3    0    0 -0.81918124214E-01  0.40371713359E-01 -0.10225183314E+00  0.89061545669E+00  0.88000000000E+00 0. -1.
        -11    1    4    4    0    0  0.50093722836E-02  0.21799621358E-02  0.15932638259E-01  0.16850997848E-01  0.51100000000E-03 0. -1.
         11    1    4    4    0    0  0.58324640751E-01 -0.29172521802E-01  0.92094770186E-01  0.11284727539E+00  0.51100000000E-03 0.  1.
</event>
<event>
 8    1  0.1123191E+005  0.1043930E+01  0.7957747E-01            NaN
         13   -1    0    0    0    0  0.00000000000E+00  0.00000000000E+00  0.74505805969E-08  0.10566000000E+00  0.10566000000E+00 0. -1.
     999900   -1    0    0    0    0 -0.00000000000E+00 -0.00000000000E+00 -0.74505805969E-08  0.93827000000E+00  0.93827000000E+00 0. -1.
     999902    2    1    2    0    0  0.18987986155E-01  0.93153693140E-02  0.12909890840E-01  0.10191512792E+01  0.10188500110E+01 0.  0.
     999903    2    3    3    0    0 -0.45955340794E-01 -0.11374864650E+00  0.30454510858E-01  0.12804511189E+00  0.20430994059E-01 0.  0.
         14    1    1    2    0    0 -0.18987986155E-01 -0.93153693140E-02 -0.12909890840E-01  0.24778720814E-01  0.00000000000E+00 0.  1.
     999901    1    3    3    0    0  0.64943326949E-01  0.12306401582E+00 -0.17544620018E-01  0.89110616730E+00  0.88000000000E+00 0. -1.
        -11    1    4    4    0    0 -0.35421806793E-01 -0.61567471102E-01  0.19978834775E-01  0.73788026497E-01  0.51100000000E-03 0. -1.
         11    1    4    4    0    0 -0.10533534001E-01 -0.52181175401E-01  0.10475676084E-01  0.54257085392E-01  0.51100000000E-03 0.  1.
</event>
<event>
 8    1  0.1123191E+005  0.1043930E+01  0.7957747E-01            NaN
         13   -1    0    0    0    0  0.00000000000E+00  0.00000000000E+00  0.74505805969E-08  0.10566000000E+00  0.10566000000E+00 0.  1.
     999900   -1    0    0    0    0 -0.00000000000E+00 -0.00000000000E+00 -0.74505805969E-08  0.93827000000E+00  0.93827000000E+00 0.  1.
     999902    2    1    2    0    0 -0.13516481782E-01 -0.19721468794E-01 -0.25827974827E-02  0.10198820800E+01  0.10195985263E+01 0.  0.
     999903    2    3    3    0    0 -0.84006863570E-02 -0.12840490501E+00 -0.26629470201E-01  0.13285530303E+00  0.19570684660E-01 0.  0.
         14    1    1    2    0    0  0.13516481782E-01  0.19721468794E-01  0.25827974827E-02  0.24047919952E-01  0.00000000000E+00 0.  1.
     999901    1    3    3    0    0 -0.51157954247E-02  0.10868343622E+00  0.24046672719E-01  0.88702677701E+00  0.88000000000E+00 0.  1.
        -11    1    4    4    0    0  0.62562536322E-02 -0.28612956183E-01 -0.62915847051E-02  0.29961427371E-01  0.51100000000E-03 0.  1.
         11    1    4    4    0    0 -0.14656939989E-01 -0.99791948832E-01 -0.20337885496E-01  0.10289387566E+00  0.51100000000E-03 0. -1.
</event>
<event>
 8    1  0.1123191E+005  0.1043930E+01  0.7957747E-01            NaN
         13   -1    0    0    0    0  0.00000000000E+00  0.00000000000E+00  0.74505805969E-08  0.10566000000E+00  0.10566000000E+00 0.  1.
     999900   -1    0    0    0    0 -0.00000000000E+00 -0.00000000000E+00 -0.74505805969E-08  0.93827000000E+00  0.93827000000E+00 0.  1.
     999902    2    1    2    0    0 -0.15060302882E-02 -0.19305454901E-01  0.12617305597E-01  0.10208179876E+01  0.10205563182E+01 0.  0.
     999903    2    3    3    0    0  0.36779728447E-01  0.44436230809E-01  0.11661263541E+00  0.13158020701E+00  0.19685454235E-01 0.  0.
         14    1    1    2    0    0  0.15060302882E-02  0.19305454901E-01 -0.12617305597E-01  0.23112012390E-01  0.00000000000E+00 0. -1.
     999901    1    3    3    0    0 -0.38285758735E-01 -0.63741685710E-01 -0.10399532981E+00  0.88923778060E+00  0.88000000000E+00 0.  1.
        -11    1    4    4    0    0  0.31164128144E-01  0.23518585356E-01  0.80450079576E-01  0.89424846463E-01  0.51100000000E-03 0.  1.
         11    1    4    4    0    0  0.56156003023E-02  0.20917645453E-01  0.36162555829E-01  0.42155360550E-01  0.51100000000E-03 0. -1.
</event>
<event>
 8    1  0.1123191E+005  0.1043930E+01  0.7957747E-01            NaN
         13   -1    0    0    0    0  0.00000000000E+00  0.00000000000E+00  0.74505805969E-08  0.10566000000E+00  0.10566000000E+00 0. -1.
     999900   -1    0    0    0    0 -0.00000000000E+00 -0.00000000000E+00 -0.74505805969E-08  0.93827000000E+00  0.93827000000E+00 0. -1.
     999902    2    1    2    0    0  0.20357888740E-01 -0.93667710959E-02 -0.48678074594E-02  0.10209980227E+01  0.10207404600E+01 0.  0.
     999903    2    3    3    0    0 -0.21945188693E-01  0.11825232128E+00  0.43978820395E-01  0.12944758879E+00  0.18903407224E-01 0.  0.
         14    1    1    2    0    0 -0.20357888740E-01  0.93667710959E-02  0.48678074594E-02  0.22931977328E-01  0.00000000000E+00 0.  1.
     999901    1    3    3    0    0  0.42303077433E-01 -0.12761909238E+00 -0.48846627854E-01  0.89155043388E+00  0.88000000000E+00 0.  1.
        -11    1    4    4    0    0  0.89087193992E-04  0.16965005275E-01  0.12619801601E-01  0.21150410255E-01  0.51100000000E-03 0. -1.
         11    1    4    4    0    0 -0.22034275887E-01  0.10128731601E+00  0.31359018794E-01  0.10829717854E+00  0.51100000000E-03 0.  1.
</event>
<event>
 8    1  0.1123191E+005  0.1043930E+01  0.7957747E-01            NaN
         13   -1    0    0    0    0  0.00000000000E+00  0.00000000000E+00  0.74505805969E-08  0.10566000000E+00  0.10566000000E+00 0. -1.
     999900   -1    0    0    0    0 -0.00000000000E+00 -0.00000000000E+00 -0.74505805969E-08  0.93827000000E+00  0.93827000000E+00 0.  1.
     999902    2    1    2    0    0  0.34045553437E-02  0.21110289715E-01 -0.66922620436E-02  0.10215241592E+01  0.10212784078E+01 0.  0.
     999903    2    3    3    0    0 -0.47913631318E-01  0.27996770707E-02  0.11983207335E+00  0.13080689643E+00  0.21146254822E-01 0.  0.
         14    1    1    2    0    0 -0.34045553437E-02 -0.21110289715E-01  0.66922620436E-02  0.22405840761E-01  0.00000000000E+00 0.  1.
     999901    1    3    3    0    0  0.51318186661E-01  0.18310612644E-01 -0.12652433539E+00  0.89071726281E+00  0.88000000000E+00 0.  1.
        -11    1    4    4    0    0 -0.48215300602E-01  0.53114183431E-02  0.10389170693E+00  0.11465894761E+00  0.51100000000E-03 0.  1.
         11    1    4    4    0    0  0.30166928427E-03 -0.25117412724E-02  0.15940366422E-01  0.16147948825E-01  0.51100000000E-03 0. -1.
</event>
<event>
 8    1  0.1123191E+005  0.1043930E+01  0.7957747E-01            NaN
         13   -1    0    0    0    0  0.00000000000E+00  0.00000000000E+00  0.74505805969E-08  0.10566000000E+00  0.10566000000E+00 0.  1.
     999900   -1    0    0    0    0 -0.00000000000E+00 -0.00000000000E+00 -0.74505805969E-08  0.93827000000E+00  0.93827000000E+00 0. -1.
     999902    2    1    2    0    0  0.14383497911E-01  0.13602509141E-01  0.64046977040E-02  0.10231229478E+01  0.10229113515E+01 0.  0.
     999903    2    3    3    0    0 -0.20209135119E-01 -0.12116457782E+00 -0.40793355843E-01  0.13094220704E+00  0.19811603719E-01 0.  0.
         14    1    1    2    0    0 -0.14383497911E-01 -0.13602509141E-01 -0.64046977040E-02  0.20807052165E-01  0.00000000000E+00 0. -1.
     999901    1    3    3    0    0  0.34592633030E-01  0.13476708697E+00  0.47198053547E-01  0.89218074080E+00  0.88000000000E+00 0.  1.
        -11    1    4    4    0    0 -0.96194066044E-03 -0.64464025252E-01 -0.18922766463E-01  0.67192768161E-01  0.51100000000E-03 0.  1.
         11    1    4    4    0    0 -0.19247194458E-01 -0.56700552571E-01 -0.21870589380E-01  0.63749438878E-01  0.51100000000E-03 0. -1.
</event>
<event>
 8    1  0.1123191E+005  0.1043930E+01  0.7957747E-01            NaN
         13   -1    0    0    0    0  0.00000000000E+00  0.00000000000E+00  0.74505805969E-08  0.10566000000E+00  0.10566000000E+00 0.  1.
     999900   -1    0    0    0    0 -0.00000000000E+00 -0.00000000000E+00 -0.74505805969E-08  0.93827000000E+00  0.93827000000E+00 0.  1.
     999902    2    1    2    0    0 -0.20585036694E-01 -0.11036463969E-01 -0.54849358407E-02  0.10199376722E+01  0.10196554434E+01 0.  0.
     999903    2    3    3    0    0 -0.24514572967E-02  0.24087516711E-01  0.12522017493E+00  0.12940617544E+00  0.21900865950E-01 0.  0.
         14    1    1    2    0    0  0.20585036694E-01  0.11036463969E-01  0.54849358407E-02  0.23992327812E-01  0.00000000000E+00 0.  1.
     999901    1    3    3    0    0 -0.18133579398E-01 -0.35123980680E-01 -0.13070511077E+00  0.89053149675E+00  0.88000000000E+00 0.  1.
        -11    1    4    4    0    0 -0.15433286396E-02  0.22899698128E-01  0.61163744583E-01  0.65330259529E-01  0.51100000000E-03 0.  1.
         11    1    4    4    0    0 -0.90812865707E-03  0.11878185832E-02  0.64056430342E-01  0.64075915911E-01  0.51100000000E-03 0. -1.
</event>
<event>
 8    1  0.1123191E+005  0.1043930E+01  0.7957747E-01            NaN
         13   -1    0    0    0    0  0.00000000000E+00  0.00000000000E+00  0.74505805969E-08  0.10566000000E+00  0.10566000000E+00 0.  1.
     999900   -1    0    0    0    0 -0.00000000000E+00 -0.00000000000E+00 -0.74505805969E-08  0.93827000000E+00  0.93827000000E+00 0. -1.
     999902    2    1    2    0    0 -0.20287064219E-01 -0.60832667630E-02  0.10230696254E-01  0.10204089827E+01  0.10201378602E+01 0.  0.
     999903    2    3    3    0    0  0.84105461537E-01 -0.52008231358E-02  0.97013277424E-01  0.12999908016E+00  0.19682673201E-01 0.  0.
         14    1    1    2    0    0  0.20287064219E-01  0.60832667630E-02 -0.10230696254E-01  0.23521017303E-01  0.00000000000E+00 0. -1.
     999901    1    3    3    0    0 -0.10439252576E+00 -0.88244362721E-03 -0.86782581170E-01  0.89040990254E+00  0.88000000000E+00 0. -1.
        -11    1    4    4    0    0  0.53455974245E-01  0.48212745475E-02  0.52977185765E-01  0.75416372250E-01  0.51100000000E-03 0.  1.
         11    1    4    4    0    0  0.30649487292E-01 -0.10022097683E-01  0.44036091660E-01  0.54582707911E-01  0.51100000000E-03 0. -1.
</event>
<event>
 8    1  0.1123191E+005  0.1043930E+01  0.7957747E-01            NaN
         13   -1    0    0    0    0  0.00000000000E+00  0.00000000000E+00  0.74505805969E-08  0.10566000000E+00  0.10566000000E+00 0.  1.
     999900   -1    0    0    0    0 -0.00000000000E+00 -0.00000000000E+00 -0.74505805969E-08  0.93827000000E+00  0.93827000000E+00 0. -1.
     999902    2    1    2    0    0  0.13548272861E-01  0.12832231888E-01 -0.14704623504E-01  0.10201718893E+01  0.10198952083E+01 0.  0.
     999903    2    3    3    0    0  0.79642553154E-01 -0.15475996063E-01 -0.10343141012E+00  0.13279245954E+00  0.18797286598E-01 0.  0.
         14    1    1    2    0    0 -0.13548272861E-01 -0.12832231888E-01  0.14704623504E-01  0.23758110723E-01  0.00000000000E+00 0.  1.
     999901    1    3    3    0    0 -0.66094280293E-01  0.28308227950E-01  0.88726786619E-01  0.88737942974E+00  0.88000000000E+00 0.  1.
        -11    1    4    4    0    0  0.75274074888E-01 -0.18832562677E-01 -0.94368169879E-01  0.12217391037E+00  0.51100000000E-03 0.  1.
         11    1    4    4    0    0  0.43684782667E-02  0.33565666139E-02 -0.90632402442E-02  0.10618549172E-01  0.51100000000E-03 0. -1.
</event>
<event>
 8    1  0.1123191E+005  0.1043930E+01  0.7957747E-01            NaN
         13   -1    0    0    0    0  0.00000000000E+00  0.00000000000E+00  0.74505805969E-08  0.10566000000E+00  0.10566000000E+00 0. -1.
     999900   -1    0    0    0    0 -0.00000000000E+00 -0.00000000000E+00 -0.74505805969E-08  0.93827000000E+00  0.93827000000E+00 0. -1.
     999902    2    1    2    0    0  0.17273432961E-02  0.21935067918E-01 -0.90834525316E-02  0.10201257981E+01  0.10198480298E+01 0.  0.
     999903    2    3    3    0    0  0.61847663639E-01 -0.73585834747E-01  0.82557084790E-01  0.12819716649E+00  0.19463624363E-01 0.  0.
         14    1    1    2    0    0 -0.17273432961E-02 -0.21935067918E-01  0.90834525316E-02  0.23804201926E-01  0.00000000000E+00 0. -1.
     999901    1    3    3    0    0 -0.60120320343E-01  0.95520902665E-01 -0.91640537322E-01  0.89192863159E+00  0.88000000000E+00 0. -1.
        -11    1    4    4    0    0  0.22065075111E-01 -0.33826133262E-01  0.45497072823E-01  0.60838471279E-01  0.51100000000E-03 0. -1.
         11    1    4    4    0    0  0.39782588528E-01 -0.39759701486E-01  0.37060011967E-01  0.67358695209E-01  0.51100000000E-03 0.  1.
</event>
<event>
 8    1  0.1123191E+005  0.1043930E+01  0.7957747E-01            NaN
         13   -1    0    0    0    0  0.00000000000E+00  0.00000000000E+00  0.74505805969E-08  0.10566000000E+00  0.10566000000E+00 0.  1.
     999900   -1    0    0    0    0 -0.00000000000E+00 -0.00000000000E+00 -0.74505805969E-08  0.93827000000E+00  0.93827000000E+00 0. -1.
     999902    2    1    2    0    0  0.22746286349E-01  0.95951569897E-03 -0.59337521346E-02  0.10204029171E+01  0.10201316531E+01 0.  0.
     999903    2    3    3    0    0 -0.17499490138E-01  0.56200462235E-02  0.12672654361E+00  0.12953805807E+00  0.19562069414E-01 0.  0.
         14    1    1    2    0    0 -0.22746286349E-01 -0.95951569897E-03  0.59337521346E-02  0.23527082850E-01  0.00000000000E+00 0.  1.
     999901    1    3    3    0    0  0.40245776487E-01 -0.46605305246E-02 -0.13266029574E+00  0.89086485908E+00  0.88000000000E+00 0. -1.
        -11    1    4    4    0    0  0.35751738569E-02  0.41342830580E-02  0.33450164217E-01  0.33897621918E-01  0.51100000000E-03 0.  1.
         11    1    4    4    0    0 -0.21074663995E-01  0.14857631656E-02  0.93276379392E-01  0.95640436156E-01  0.51100000000E-03 0. -1.
</event>
<event>
 8    1  0.1123191E+005  0.1043930E+01  0.7957747E-01            NaN
         13   -1    0    0    0    0  0.00000000000E+00  0.00000000000E+00  0.74505805969E-08  0.10566000000E+00  0.10566000000E+00 0. -1.
     999900   -1    0    0    0    0 -0.00000000000E+00 -0.00000000000E+00 -0.74505805969E-08  0.93827000000E+00  0.93827000000E+00 0. -1.
     999902    2    1    2    0    0 -0.40708163900E-02  0.40716194448E-02  0.22434871820E-01  0.10207681109E+01  0.10205052980E+01 0.  0.
     999903    2    3    3    0    0  0.41318473847E-01 -0.71872541909E-01  0.10156235876E+00  0.13279915738E+00  0.21161874276E-01 0.  0.
         14    1    1    2    0    0  0.40708163900E-02 -0.40716194448E-02 -0.22434871820E-01  0.23161889054E-01  0.00000000000E+00 0.  1.
     999901    1    3    3    0    0 -0.45389290237E-01  0.75944161354E-01 -0.79127486935E-01  0.88796895357E+00  0.88000000000E+00 0. -1.
        -11    1    4    4    0    0  0.29044181724E-01 -0.29536259056E-01  0.51502144703E-01  0.66096044671E-01  0.51100000000E-03 0.  1.
         11    1    4    4    0    0  0.12274292122E-01 -0.42336282853E-01  0.50060214052E-01  0.66703112707E-01  0.51100000000E-03 0. -1.
</event>
<event>
 8    1  0.1123191E+005  0.1043930E+01  0.7957747E-01            NaN
         13   -1    0    0    0    0  0.00000000000E+00  0.00000000000E+00  0.74505805969E-08  0.10566000000E+00  0.10566000000E+00 0.  1.
     999900   -1    0    0    0    0 -0.00000000000E+00 -0.00000000000E+00 -0.74505805969E-08  0.93827000000E+00  0.93827000000E+00 0. -1.
     999902    2    1    2    0    0  0.19503355413E-01  0.11056739330E-01 -0.77047467523E-02  0.10202235562E+01  0.10199480914E+01 0.  0.
     999903    2    3    3    0    0  0.12466295449E-01 -0.11405687048E+00  0.56419672013E-01  0.12903621522E+00  0.17400782243E-01 0.  0.
         14    1    1    2    0    0 -0.19503355413E-01 -0.11056739330E-01  0.77047467523E-02  0.23706443839E-01  0.00000000000E+00 0.  1.
     999901    1    3    3    0    0  0.70370599638E-02  0.12511360981E+00 -0.64124418766E-01  0.89118734094E+00  0.88000000000E+00 0. -1.
        -11    1    4    4    0    0  0.50402019482E-02 -0.29869020582E-01  0.68658468822E-02  0.31063853602E-01  0.51100000000E-03 0. -1.
         11    1    4    4    0    0  0.74260935006E-02 -0.84187849896E-01  0.49553825131E-01  0.97972361618E-01  0.51100000000E-03 0.  1.
</event>
<event>
 8    1  0.1123191E+005  0.1043930E+01  0.7957747E-01            NaN
         13   -1    0    0    0    0  0.00000000000E+00  0.00000000000E+00  0.74505805969E-08  0.10566000000E+00  0.10566000000E+00 0. -1.
     999900   -1    0    0    0    0 -0.00000000000E+00 -0.00000000000E+00 -0.74505805969E-08  0.93827000000E+00  0.93827000000E+00 0.  1.
     999902    2    1    2    0    0  0.21814992317E-01 -0.81124719470E-02  0.44173648408E-02  0.10202399345E+01  0.10199648547E+01 0.  0.
     999903    2    3    3    0    0 -0.56407238248E-01 -0.11347792299E+00  0.25273257631E-01  0.13026489896E+00  0.16467872283E-01 0.  0.
         14    1    1    2    0    0 -0.21814992317E-01  0.81124719470E-02 -0.44173648408E-02  0.23690065492E-01  0.00000000000E+00 0.  1.
     999901    1    3    3    0    0  0.78222230565E-01  0.10536545104E+00 -0.20855892791E-01  0.88997503554E+00  0.88000000000E+00 0.  1.
        -11    1    4    4    0    0 -0.56146927918E-01 -0.10329071047E+00  0.23885635032E-01  0.11996763341E+00  0.51100000000E-03 0.  1.
         11    1    4    4    0    0 -0.26031033007E-03 -0.10187212517E-01  0.13876225991E-02  0.10297265551E-01  0.51100000000E-03 0. -1.
</event>
<event>
 8    1  0.1123191E+005  0.1043930E+01  0.7957747E-01            NaN
         13   -1    0    0    0    0  0.00000000000E+00  0.00000000000E+00  0.74505805969E-08  0.10566000000E+00  0.10566000000E+00 0.  1.
     999900   -1    0    0    0    0 -0.00000000000E+00 -0.00000000000E+00 -0.74505805969E-08  0.93827000000E+00  0.93827000000E+00 0. -1.
     999902    2    1    2    0    0  0.19884719866E-02 -0.19092794110E-01 -0.13155385556E-01  0.10206587092E+01  0.10203933789E+01 0.  0.
     999903    2    3    3    0    0  0.61443615232E-01 -0.39696312515E-02 -0.11522717565E+00  0.13263715850E+00  0.22896243883E-01 0.  0.
         14    1    1    2    0    0 -0.19884719866E-02  0.19092794110E-01  0.13155385556E-01  0.23271290830E-01  0.00000000000E+00 0.  1.
     999901    1    3    3    0    0 -0.59455143245E-01 -0.15123162859E-01  0.10207179009E+00  0.88802155066E+00  0.88000000000E+00 0.  1.
        -11    1    4    4    0    0  0.32484540779E-01 -0.13432410747E-01 -0.58777963065E-01  0.68489306546E-01  0.51100000000E-03 0.  1.
         11    1    4    4    0    0  0.28959074453E-01  0.94627794954E-02 -0.56449212581E-01  0.64147851959E-01  0.51100000000E-03 0. -1.
</event>
<event>
 8    1  0.1123191E+005  0.1043930E+01  0.7957747E-01            NaN
         13   -1    0    0    0    0  0.00000000000E+00  0.00000000000E+00  0.74505805969E-08  0.10566000000E+00  0.10566000000E+00 0. -1.
     999900   -1    0    0    0    0 -0.00000000000E+00 -0.00000000000E+00 -0.74505805969E-08  0.93827000000E+00  0.93827000000E+00 0. -1.
     999902    2    1    2    0    0 -0.22940943272E-01 -0.25624839192E-02  0.59191485326E-02  0.10200995673E+01  0.10198211793E+01 0.  0.
     999903    2    3    3    0    0  0.86090348062E-01  0.20116904648E-01  0.92931533466E-01  0.12882332940E+00  0.11955852299E-01 0.  0.
         14    1    1    2    0    0  0.22940943272E-01  0.25624839192E-02 -0.59191485326E-02  0.23830432673E-01  0.00000000000E+00 0.  1.
     999901    1    3    3    0    0 -0.10903129133E+00 -0.22679388567E-01 -0.87012384933E-01  0.89127623792E+00  0.88000000000E+00 0. -1.
        -11    1    4    4    0    0  0.49351024348E-01  0.14392852151E-01  0.61297920003E-01  0.80002336934E-01  0.51100000000E-03 0. -1.
         11    1    4    4    0    0  0.36739323714E-01  0.57240524972E-02  0.31633613462E-01  0.48820992469E-01  0.51100000000E-03 0.  1.
</event>
<event>
 8    1  0.1123191E+005  0.1043930E+01  0.7957747E-01            NaN
         13   -1    0    0    0    0  0.00000000000E+00  0.00000000000E+00  0.74505805969E-08  0.10566000000E+00  0.10566000000E+00 0.  1.
     999900   -1    0    0    0    0 -0.00000000000E+00 -0.00000000000E+00 -0.74505805969E-08  0.93827000000E+00  0.93827000000E+00 0.  1.
     999902    2    1    2    0    0 -0.19654465924E-01  0.64764578562E-02 -0.12488233341E-01  0.10197598012E+01  0.10194733217E+01 0.  0.
     999903    2    3    3    0    0 -0.37299245553E-01  0.12229165893E+00 -0.26471902894E-01  0.13188591262E+00  0.18618505368E-01 0.  0.
         14    1    1    2    0    0  0.19654465924E-01 -0.64764578562E-02  0.12488233341E-01  0.24170198781E-01  0.00000000000E+00 0.  1.
     999901    1    3    3    0    0  0.17644779628E-01 -0.11581520107E+00  0.13983669553E-01  0.88787388860E+00  0.88000000000E+00 0. -1.
        -11    1    4    4    0    0 -0.24420414386E-01  0.57468040889E-01 -0.19547400152E-01  0.65431600440E-01  0.51100000000E-03 0. -1.
         11    1    4    4    0    0 -0.12878831167E-01  0.64823618038E-01 -0.69245027415E-02  0.66454312177E-01  0.51100000000E-03 0.  1.
</event>
<event>
 8    1  0.1123191E+005  0.1043930E+01  0.7957747E-01            NaN
         13   -1    0    0    0    0  0.00000000000E+00  0.00000000000E+00  0.74505805969E-08  0.10566000000E+00  0.10566000000E+00 0. -1.
     999900   -1    0    0    0    0 -0.00000000000E+00 -0.00000000000E+00 -0.74505805969E-08  0.93827000000E+00  0.93827000000E+00 0.  1.
     999902    2    1    2    0    0  0.11424458365E-01 -0.28391947953E-02 -0.20162469860E-01  0.10205825276E+01  0.10203154371E+01 0.  0.
     999903    2    3    3    0    0  0.73057521879E-01 -0.55795850222E-01 -0.94923153311E-01  0.13368219406E+00  0.20247112584E-01 0.  0.
         14    1    1    2    0    0 -0.11424458365E-01  0.28391947953E-02  0.20162469860E-01  0.23347472388E-01  0.00000000000E+00 0. -1.
     999901    1    3    3    0    0 -0.61633063514E-01  0.52956655427E-01  0.74760683451E-01  0.88690033356E+00  0.88000000000E+00 0. -1.
        -11    1    4    4    0    0  0.19836831275E-01 -0.48690600440E-02 -0.19122791010E-01  0.27984815129E-01  0.51100000000E-03 0.  1.
         11    1    4    4    0    0  0.53220690604E-01 -0.50926790178E-01 -0.75800362301E-01  0.10569737893E+00  0.51100000000E-03 0. -1.
</event>
<event>
 8    1  0.1123191E+005  0.1043930E+01  0.7957747E-01            NaN
         13   -1    0    0    0    0  0.00000000000E+00  0.00000000000E+00  0.74505805969E-08  0.10566000000E+00  0.10566000000E+00 0. -1.
     999900   -1    0    0    0    0 -0.00000000000E+00 -0.00000000000E+00 -0.74505805969E-08  0.93827000000E+00  0.93827000000E+00 0. -1.
     999902    2    1    2    0    0 -0.12852792073E-01 -0.55945614331E-03  0.20277320266E-01  0.10199159005E+01  0.10196331533E+01 0.  0.
     999903    2    3    3    0    0  0.34135452844E-01 -0.17537502346E-02  0.12624899182E+00  0.13231277039E+00  0.19988909232E-01 0.  0.
         14    1    1    2    0    0  0.12852792073E-01  0.55945614331E-03 -0.20277320266E-01  0.24014099451E-01  0.00000000000E+00 0.  1.
     999901    1    3    3    0    0 -0.46988244917E-01  0.11942940913E-02 -0.10597167155E+00  0.88760313016E+00  0.88000000000E+00 0.  1.
        -11    1    4    4    0    0  0.34831945089E-02  0.50481825966E-02  0.88022296903E-02  0.10740445058E-01  0.51100000000E-03 0. -1.
         11    1    4    4    0    0  0.30652258335E-01 -0.68019328312E-02  0.11744676213E+00  0.12157232533E+00  0.51100000000E-03 0.  1.
</event>
<event>
 8    1  0.1123191E+005  0.1043930E+01  0.7957747E-01            NaN
         13   -1    0    0    0    0  0.00000000000E+00  0.00000000000E+00  0.74505805969E-08  0.10566000000E+00  0.10566000000E+00 0.  1.
     999900   -1    0    0    0    0 -0.00000000000E+00 -0.00000000000E+00 -0.74505805969E-08  0.93827000000E+00  0.93827000000E+00 0.  1.
     999902    2    1    2    0    0  0.19625984448E-01 -0.28610052817E-02  0.12688382299E-01  0.10203851564E+01  0.10201134778E+01 0.  0.
     999903    2    3    3    0    0  0.57457496245E-01  0.10358666416E+00  0.55053710493E-01  0.13215255695E+00  0.20045608066E-01 0.  0.
         14    1    1    2    0    0 -0.19625984448E-01  0.28610052817E-02 -0.12688382299E-01  0.23544843642E-01  0.00000000000E+00 0. -1.
     999901    1    3    3    0    0 -0.37831511797E-01 -0.10644766944E+00 -0.42365328194E-01  0.88823259941E+00  0.88000000000E+00 0.  1.
        -11    1    4    4    0    0  0.16750520936E-01  0.49718820396E-01  0.20795814193E-01  0.56438179118E-01  0.51100000000E-03 0. -1.
         11    1    4    4    0    0  0.40706975309E-01  0.53867843767E-01  0.34257896299E-01  0.75714377834E-01  0.51100000000E-03 0.  1.
</event>
<event>
 8    1  0.1123191E+005  0.1043930E+01  0.7957747E-01            NaN
         13   -1    0    0    0    0  0.00000000000E+00  0.00000000000E+00  0.74505805969E-08  0.10566000000E+00  0.10566000000E+00 0.  1.
     999900   -1    0    0    0    0 -0.00000000000E+00 -0.00000000000E+00 -0.74505805969E-08  0.93827000000E+00  0.93827000000E+00 0.  1.
     999902    2    1    2    0    0 -0.12824679338E-01 -0.15144074004E-01  0.10655929444E-01  0.10214052534E+01  0.10211568574E+01 0.  0.
     999903    2    3    3    0    0 -0.78355444822E-01 -0.98729126536E-01 -0.39698058931E-01  0.13358980727E+00  0.19577654671E-01 0.  0.
         14    1    1    2    0    0  0.12824679338E-01  0.15144074004E-01 -0.10655929444E-01  0.22524746610E-01  0.00000000000E+00 0. -1.
     999901    1    3    3    0    0  0.65530765483E-01  0.83585052533E-01  0.50353988374E-01  0.88781544612E+00  0.88000000000E+00 0. -1.
        -11    1    4    4    0    0 -0.13729953233E-01 -0.31154258384E-01 -0.10332831098E-01  0.35582691729E-01  0.51100000000E-03 0.  1.
         11    1    4    4    0    0 -0.64625491589E-01 -0.67574868153E-01 -0.29365227832E-01  0.98007115536E-01  0.51100000000E-03 0. -1.
</event>
<event>
 8    1  0.1123191E+005  0.1043930E+01  0.7957747E-01            NaN
         13   -1    0    0    0    0  0.00000000000E+00  0.00000000000E+00  0.74505805969E-08  0.10566000000E+00  0.10566000000E+00 0. -1.
     999900   -1    0    0    0    0 -0.00000000000E+00 -0.00000000000E+00 -0.74505805969E-08  0.93827000000E+00  0.93827000000E+00 0.  1.
     999902    2    1    2    0    0  0.19942983607E-01  0.95129846254E-02 -0.76915226593E-02  0.10205338680E+01  0.10202656501E+01 0.  0.
     999903    2    3    3    0    0  0.20004734849E-01 -0.67000911401E-01  0.10738092383E+00  0.12974991662E+00  0.20373181301E-01 0.  0.
         14    1    1    2    0    0 -0.19942983607E-01 -0.95129846254E-02  0.76915226593E-02  0.23396131997E-01  0.00000000000E+00 0.  1.
     999901    1    3    3    0    0 -0.61751242196E-04  0.76513896027E-01 -0.11507244649E+00  0.89078395138E+00  0.88000000000E+00 0.  1.
        -11    1    4    4    0    0  0.20664555946E-01 -0.51699957823E-01  0.70668685366E-01  0.89967959428E-01  0.51100000000E-03 0.  1.
         11    1    4    4    0    0 -0.65982109683E-03 -0.15300953578E-01  0.36712238461E-01  0.39781957193E-01  0.51100000000E-03 0. -1.
</event>
<event>
 8    1  0.1123191E+005  0.1043930E+01  0.7957747E-01            NaN
         13   -1    0    0    0    0  0.00000000000E+00  0.00000000000E+00  0.74505805969E-08  0.10566000000E+00  0.10566000000E+00 0.  1.
     999900   -1    0    0    0    0 -0.00000000000E+00 -0.00000000000E+00 -0.74505805969E-08  0.93827000000E+00  0.93827000000E+00 0.  1.
     999902    2    1    2    0    0  0.12461525112E-01 -0.16699496802E-01 -0.11944735906E-01  0.10199125164E+01  0.10196296885E+01 0.  0.
     999903    2    3    3    0    0 -0.16272289141E-01 -0.12787708983E+00 -0.20269695857E-01  0.13241299855E+00  0.22472296659E-01 0.  0.
         14    1    1    2    0    0 -0.12461525112E-01  0.16699496802E-01  0.11944735906E-01  0.24017483578E-01  0.00000000000E+00 0.  1.
     999901    1    3    3    0    0  0.28733814253E-01  0.11117759303E+00  0.83249599514E-02  0.88749951788E+00  0.88000000000E+00 0. -1.
        -11    1    4    4    0    0 -0.21108202736E-01 -0.11756743420E+00 -0.18176247026E-01  0.12082340371E+00  0.51100000000E-03 0.  1.
         11    1    4    4    0    0  0.48359135944E-02 -0.10309655625E-01 -0.20934488315E-02  0.11589594834E-01  0.51100000000E-03 0. -1.
</event>
<event>
 8    1  0.1123191E+005  0.1043930E+01  0.7957747E-01            NaN
         13   -1    0    0    0    0  0.00000000000E+00  0.00000000000E+00  0.74505805969E-08  0.10566000000E+00  0.10566000000E+00 0.  1.
     999900   -1    0    0    0    0 -0.00000000000E+00 -0.00000000000E+00 -0.74505805969E-08  0.93827000000E+00  0.93827000000E+00 0. -1.
     999902    2    1    2    0    0  0.22038866159E-01  0.82487134570E-02 -0.47444079310E-02  0.10199245360E+01  0.10196419944E+01 0.  0.
     999903    2    3    3    0    0 -0.11997201891E+00  0.38574468107E-01  0.91205149649E-02  0.12791613976E+00  0.19951944953E-01 0.  0.
         14    1    1    2    0    0 -0.22038866159E-01 -0.82487134570E-02  0.47444079310E-02  0.24005464001E-01  0.00000000000E+00 0.  1.
     999901    1    3    3    0    0  0.14201088507E+00 -0.30325754650E-01 -0.13864922896E-01  0.89200839624E+00  0.88000000000E+00 0.  1.
        -11    1    4    4    0    0 -0.73766142009E-01  0.33576765280E-01  0.38702771438E-02  0.81142362793E-01  0.51100000000E-03 0.  1.
         11    1    4    4    0    0 -0.46205876900E-01  0.49977028266E-02  0.52502378211E-02  0.46773776967E-01  0.51100000000E-03 0. -1.
</event>
<event>
 8    1  0.1123191E+005  0.1043930E+01  0.7957747E-01            NaN
         13   -1    0    0    0    0  0.00000000000E+00  0.00000000000E+00  0.74505805969E-08  0.10566000000E+00  0.10566000000E+00 0. -1.
     999900   -1    0    0    0    0 -0.00000000000E+00 -0.00000000000E+00 -0.74505805969E-08  0.93827000000E+00  0.93827000000E+00 0.  1.
     999902    2    1    2    0    0  0.18069431819E-01  0.10881199009E-01 -0.13693456120E-01  0.10187821254E+01  0.10184716998E+01 0.  0.
     999903    2    3    3    0    0  0.10230448849E+00  0.80444527620E-01 -0.11122726888E-01  0.13202330240E+00  0.19206950117E-01 0.  0.
         14    1    1    2    0    0 -0.18069431819E-01 -0.10881199009E-01  0.13693456120E-01  0.25147874635E-01  0.00000000000E+00 0. -1.
     999901    1    3    3    0    0 -0.84235056675E-01 -0.69563328611E-01 -0.25707292314E-02  0.88675882297E+00  0.88000000000E+00 0. -1.
        -11    1    4    4    0    0  0.26843187696E-01  0.31125835235E-01 -0.76192364832E-02  0.41805361263E-01  0.51100000000E-03 0.  1.
         11    1    4    4    0    0  0.75461300798E-01  0.49318692384E-01 -0.35034904052E-02  0.90217941135E-01  0.51100000000E-03 0. -1.
</event>
<event>
 8    1  0.1123191E+005  0.1043930E+01  0.7957747E-01            NaN
         13   -1    0    0    0    0  0.00000000000E+00  0.00000000000E+00  0.74505805969E-08  0.10566000000E+00  0.10566000000E+00 0.  1.
     999900   -1    0    0    0    0 -0.00000000000E+00 -0.00000000000E+00 -0.74505805969E-08  0.93827000000E+00  0.93827000000E+00 0. -1.
     999902    2    1    2    0    0  0.65227549317E-02 -0.94597277357E-02  0.24966682235E-01  0.10164460410E+01  0.10160744000E+01 0.  0.
     999903    2    3    3    0    0 -0.97510219307E-01 -0.42728129929E-02  0.81287982396E-01  0.12851482031E+00  0.19540295740E-01 0.  0.
         14    1    1    2    0    0 -0.65227549317E-02  0.94597277357E-02 -0.24966682235E-01  0.27483959004E-01  0.00000000000E+00 0. -1.
     999901    1    3    3    0    0  0.10403297424E+00 -0.51869147427E-02 -0.56321300161E-01  0.88793122068E+00  0.88000000000E+00 0. -1.
        -11    1    4    4    0    0 -0.68590097598E-01  0.37316382881E-03  0.45711731231E-01  0.82429146743E-01  0.51100000000E-03 0.  1.
         11    1    4    4    0    0 -0.28920121709E-01 -0.46459768218E-02  0.35576251165E-01  0.46085673569E-01  0.51100000000E-03 0. -1.
</event>
<event>
 8    1  0.1123191E+005  0.1043930E+01  0.7957747E-01            NaN
         13   -1    0    0    0    0  0.00000000000E+00  0.00000000000E+00  0.74505805969E-08  0.10566000000E+00  0.10566000000E+00 0. -1.
     999900   -1    0    0    0    0 -0.00000000000E+00 -0.00000000000E+00 -0.74505805969E-08  0.93827000000E+00  0.93827000000E+00 0.  1.
     999902    2    1    2    0    0 -0.10310679520E-01  0.94102820980E-02  0.63740316735E-02  0.10285842579E+01  0.10284697778E+01 0.  0.
     999903    2    3    3    0    0 -0.11864398600E-01 -0.84971127650E-01 -0.10436737842E+00  0.13663475009E+00  0.20387465849E-01 0.  0.
         14    1    1    2    0    0  0.10310679520E-01 -0.94102820980E-02 -0.63740316735E-02  0.15345742116E-01  0.00000000000E+00 0.  1.
     999901    1    3    3    0    0  0.15537190805E-02  0.94381409748E-01  0.11074141010E+00  0.89194950780E+00  0.88000000000E+00 0. -1.
        -11    1    4    4    0    0 -0.14842646689E-01 -0.68614321282E-01 -0.92850586910E-01  0.11640327253E+00  0.51100000000E-03 0.  1.
         11    1    4    4    0    0  0.29782480886E-02 -0.16356806368E-01 -0.11516791515E-01  0.20231477554E-01  0.51100000000E-03 0. -1.
</event>
<event>
 8    1  0.1123191E+005  0.1043930E+01  0.7957747E-01            NaN
         13   -1    0    0    0    0  0.00000000000E+00  0.00000000000E+00  0.74505805969E-08  0.10566000000E+00  0.10566000000E+00 0. -1.
     999900   -1    0    0    0    0 -0.00000000000E+00 -0.00000000000E+00 -0.74505805969E-08  0.93827000000E+00  0.93827000000E+00 0.  1.
     999902    2    1    2    0    0 -0.95750971309E-02 -0.26249725304E-01 -0.12352089018E-01  0.10133799645E+01  0.10129193689E+01 0.  0.
     999903    2    3    3    0    0 -0.83805115680E-01 -0.36910979961E-01  0.83317735755E-01  0.12502391352E+00  0.17418840529E-01 0.  0.
         14    1    1    2    0    0  0.95750971309E-02  0.26249725304E-01  0.12352089018E-01  0.30550035461E-01  0.00000000000E+00 0. -1.
     999901    1    3    3    0    0  0.74230018549E-01  0.10661254658E-01 -0.95669824773E-01  0.88835605102E+00  0.88000000000E+00 0.  1.
        -11    1    4    4    0    0 -0.63943044381E-01 -0.19978881373E-01  0.57092683895E-01  0.88021044648E-01  0.51100000000E-03 0. -1.
         11    1    4    4    0    0 -0.19862071298E-01 -0.16932098588E-01  0.26225051861E-01  0.37002868875E-01  0.51100000000E-03 0.  1.
</event>
<event>
 8    1  0.1123191E+005  0.1043930E+01  0.7957747E-01            NaN
         13   -1    0    0    0    0  0.00000000000E+00  0.00000000000E+00  0.74505805969E-08  0.10566000000E+00  0.10566000000E+00 0.  1.
     999900   -1    0    0    0    0 -0.00000000000E+00 -0.00000000000E+00 -0.74505805969E-08  0.93827000000E+00  0.93827000000E+00 0.  1.
     999902    2    1    2    0    0  0.29466346224E-02  0.17147700048E-01  0.16013690044E-01  0.10202833397E+01  0.10200092788E+01 0.  0.
     999903    2    3    3    0    0 -0.72249216072E-02 -0.12008940479E+00  0.42369059648E-01  0.12919855758E+00  0.20578275679E-01 0.  0.
         14    1    1    2    0    0 -0.29466346224E-02 -0.17147700048E-01 -0.16013690044E-01  0.23646660258E-01  0.00000000000E+00 0. -1.
     999901    1    3    3    0    0  0.10171556230E-01  0.13723710484E+00 -0.26355369604E-01  0.89108478217E+00  0.88000000000E+00 0. -1.
        -11    1    4    4    0    0 -0.11295220627E-01 -0.46157560786E-01  0.22220671054E-01  0.52460668790E-01  0.51100000000E-03 0. -1.
         11    1    4    4    0    0  0.40702990196E-02 -0.73931844001E-01  0.20148388594E-01  0.76737888787E-01  0.51100000000E-03 0.  1.
</event>
<event>
 8    1  0.1123191E+005  0.1043930E+01  0.7957747E-01            NaN
         13   -1    0    0    0    0  0.00000000000E+00  0.00000000000E+00  0.74505805969E-08  0.10566000000E+00  0.10566000000E+00 0.  1.
     999900   -1    0    0    0    0 -0.00000000000E+00 -0.00000000000E+00 -0.74505805969E-08  0.93827000000E+00  0.93827000000E+00 0.  1.
     999902    2    1    2    0    0 -0.11823308481E-01  0.27605699732E-02  0.20093122917E-01  0.10204535233E+01  0.10201834385E+01 0.  0.
     999903    2    3    3    0    0  0.14106978168E-01  0.11146717530E-01  0.13055571181E+00  0.13312906697E+00  0.18849361832E-01 0.  0.
         14    1    1    2    0    0  0.11823308481E-01 -0.27605699732E-02 -0.20093122917E-01  0.23476476707E-01  0.00000000000E+00 0. -1.
     999901    1    3    3    0    0 -0.25930286649E-01 -0.83861475564E-02 -0.11046258890E+00  0.88732445632E+00  0.88000000000E+00 0.  1.
        -11    1    4    4    0    0  0.24748147341E-02  0.12424203654E-01  0.44195796531E-01  0.45978419899E-01  0.51100000000E-03 0.  1.
         11    1    4    4    0    0  0.11632163434E-01 -0.12774861244E-02  0.86359915282E-01  0.87150647075E-01  0.51100000000E-03 0. -1.
</event>
<event>
 8    1  0.1123191E+005  0.1043930E+01  0.7957747E-01            NaN
         13   -1    0    0    0    0  0.00000000000E+00  0.00000000000E+00  0.74505805969E-08  0.10566000000E+00  0.10566000000E+00 0.  1.
     999900   -1    0    0    0    0 -0.00000000000E+00 -0.00000000000E+00 -0.74505805969E-08  0.93827000000E+00  0.93827000000E+00 0. -1.
     999902    2    1    2    0    0 -0.68593614222E-02  0.20707286636E-01  0.87963073823E-02  0.10204094221E+01  0.10201383099E+01 0.  0.
     999903    2    3    3    0    0  0.92386077359E-01 -0.76697520276E-01 -0.40146025887E-01  0.12814673352E+00  0.19803661568E-01 0.  0.
         14    1    1    2    0    0  0.68593614222E-02 -0.20707286636E-01 -0.87963073823E-02  0.23520577852E-01  0.00000000000E+00 0.  1.
     999901    1    3    3    0    0 -0.99245438782E-01  0.97404806911E-01  0.48942333270E-01  0.89226268863E+00  0.88000000000E+00 0.  1.
        -11    1    4    4    0    0  0.61978937887E-01 -0.39172398585E-01 -0.26365429011E-01  0.77918306709E-01  0.51100000000E-03 0. -1.
         11    1    4    4    0    0  0.30407139472E-01 -0.37525121691E-01 -0.13780596876E-01  0.50228426813E-01  0.51100000000E-03 0.  1.
</event>
<event>
 8    1  0.1123191E+005  0.1043930E+01  0.7957747E-01            NaN
         13   -1    0    0    0    0  0.00000000000E+00  0.00000000000E+00  0.74505805969E-08  0.10566000000E+00  0.10566000000E+00 0. -1.
     999900   -1    0    0    0    0 -0.00000000000E+00 -0.00000000000E+00 -0.74505805969E-08  0.93827000000E+00  0.93827000000E+00 0. -1.
     999902    2    1    2    0    0  0.10644028995E-01  0.25980420693E-01  0.46838099585E-02  0.10154657121E+01  0.10150666957E+01 0.  0.
     999903    2    3    3    0    0  0.77079845035E-01  0.89259833410E-01 -0.48585355907E-01  0.12909355220E+00  0.19899448246E-01 0.  0.
         14    1    1    2    0    0 -0.10644028995E-01 -0.25980420693E-01 -0.46838099585E-02  0.28464287947E-01  0.00000000000E+00 0. -1.
     999901    1    3    3    0    0 -0.66435816040E-01 -0.63279412718E-01  0.53269165865E-01  0.88637215985E+00  0.88000000000E+00 0. -1.
        -11    1    4    4    0    0  0.52383704643E-01  0.64750357509E-01 -0.43381791852E-01  0.93909010723E-01  0.51100000000E-03 0.  1.
         11    1    4    4    0    0  0.24696140392E-01  0.24509475902E-01 -0.52035640546E-02  0.35184541479E-01  0.51100000000E-03 0. -1.
</event>
<event>
 8    1  0.1123191E+005  0.1043930E+01  0.7957747E-01            NaN
         13   -1    0    0    0    0  0.00000000000E+00  0.00000000000E+00  0.74505805969E-08  0.10566000000E+00  0.10566000000E+00 0. -1.
     999900   -1    0    0    0    0 -0.00000000000E+00 -0.00000000000E+00 -0.74505805969E-08  0.93827000000E+00  0.93827000000E+00 0. -1.
     999902    2    1    2    0    0  0.13882412607E-01 -0.18609948558E-01  0.71159648549E-02  0.10196464969E+01  0.10193572927E+01 0.  0.
     999903    2    3    3    0    0  0.12198672640E+00  0.39401269644E-01 -0.16102711699E-01  0.13083214566E+00  0.20604163342E-01 0.  0.
         14    1    1    2    0    0 -0.13882412607E-01  0.18609948558E-01 -0.71159648549E-02  0.24283503062E-01  0.00000000000E+00 0. -1.
     999901    1    3    3    0    0 -0.10810431379E+00 -0.58011218203E-01  0.23218676554E-01  0.88881435128E+00  0.88000000000E+00 0.  1.
        -11    1    4    4    0    0  0.90934857894E-01  0.30462243365E-01 -0.29703528979E-02  0.95948844539E-01  0.51100000000E-03 0.  1.
         11    1    4    4    0    0  0.31051868504E-01  0.89390262791E-02 -0.13132358801E-01  0.34883301121E-01  0.51100000000E-03 0. -1.
</event>
<event>
 8    1  0.1123191E+005  0.1043930E+01  0.7957747E-01            NaN
         13   -1    0    0    0    0  0.00000000000E+00  0.00000000000E+00  0.74505805969E-08  0.10566000000E+00  0.10566000000E+00 0. -1.
     999900   -1    0    0    0    0 -0.00000000000E+00 -0.00000000000E+00 -0.74505805969E-08  0.93827000000E+00  0.93827000000E+00 0.  1.
     999902    2    1    2    0    0  0.93156830295E-02  0.73561191051E-02 -0.23142128871E-01  0.10179212982E+01  0.10175889724E+01 0.  0.
     999903    2    3    3    0    0  0.57488204748E-01  0.74279109613E-01  0.83878395777E-01  0.12761086294E+00  0.20655925351E-01 0.  0.
         14    1    1    2    0    0 -0.93156830295E-02 -0.73561191051E-02  0.23142128871E-01  0.26008701761E-01  0.00000000000E+00 0. -1.
     999901    1    3    3    0    0 -0.48172521719E-01 -0.66922990508E-01 -0.10702052465E+00  0.89031043530E+00  0.88000000000E+00 0.  1.
        -11    1    4    4    0    0  0.63736170257E-02  0.22261948307E-01  0.18031773483E-01  0.29353420795E-01  0.51100000000E-03 0. -1.
         11    1    4    4    0    0  0.51114587723E-01  0.52017161306E-01  0.65846622294E-01  0.98257442145E-01  0.51100000000E-03 0.  1.
</event>
<event>
 8    1  0.1123191E+005  0.1043930E+01  0.7957747E-01            NaN
         13   -1    0    0    0    0  0.00000000000E+00  0.00000000000E+00  0.74505805969E-08  0.10566000000E+00  0.10566000000E+00 0. -1.
     999900   -1    0    0    0    0 -0.00000000000E+00 -0.00000000000E+00 -0.74505805969E-08  0.93827000000E+00  0.93827000000E+00 0. -1.
     999902    2    1    2    0    0  0.18516988091E-01  0.28735577364E-02  0.12464909824E-01  0.10214242194E+01  0.10211762462E+01 0.  0.
     999903    2    3    3    0    0 -0.40998465218E-01 -0.30571428400E-01  0.12035118056E+00  0.13221102582E+00  0.19490056450E-01 0.  0.
         14    1    1    2    0    0 -0.18516988091E-01 -0.28735577364E-02 -0.12464909824E-01  0.22505780567E-01  0.00000000000E+00 0.  1.
     999901    1    3    3    0    0  0.59515453309E-01  0.33444986136E-01 -0.10788627074E+00  0.88921319361E+00  0.88000000000E+00 0. -1.
        -11    1    4    4    0    0 -0.22754761364E-01 -0.22901146498E-01  0.53479759275E-01  0.62470692719E-01  0.51100000000E-03 0.  1.
         11    1    4    4    0    0 -0.18243703854E-01 -0.76702819022E-02  0.66871421290E-01  0.69740333101E-01  0.51100000000E-03 0. -1.
</event>
<event>
 8    1  0.1123191E+005  0.1043930E+01  0.7957747E-01            NaN
         13   -1    0    0    0    0  0.00000000000E+00  0.00000000000E+00  0.74505805969E-08  0.10566000000E+00  0.10566000000E+00 0.  1.
     999900   -1    0    0    0    0 -0.00000000000E+00 -0.00000000000E+00 -0.74505805969E-08  0.93827000000E+00  0.93827000000E+00 0.  1.
     999902    2    1    2    0    0 -0.22375194083E-02  0.93752047053E-02 -0.20477735554E-01  0.10212973110E+01  0.10210465018E+01 0.  0.
     999903    2    3    3    0    0  0.44979286242E-01  0.98376658758E-01  0.69667231869E-01  0.13097332466E+00  0.24482348689E-01 0.  0.
         14    1    1    2    0    0  0.22375194083E-02 -0.93752047053E-02  0.20477735554E-01  0.22632688965E-01  0.00000000000E+00 0.  1.
     999901    1    3    3    0    0 -0.47216805651E-01 -0.89001454053E-01 -0.90144967423E-01  0.89032398637E+00  0.88000000000E+00 0.  1.
        -11    1    4    4    0    0  0.42422983981E-01  0.75424489267E-01  0.46424809375E-01  0.98204313539E-01  0.51100000000E-03 0. -1.
         11    1    4    4    0    0  0.25563022614E-02  0.22952169491E-01  0.23242422494E-01  0.32769011123E-01  0.51100000000E-03 0.  1.
</event>
<event>
 8    1  0.1123191E+005  0.1043930E+01  0.7957747E-01            NaN
         13   -1    0    0    0    0  0.00000000000E+00  0.00000000000E+00  0.74505805969E-08  0.10566000000E+00  0.10566000000E+00 0.  1.
     999900   -1    0    0    0    0 -0.00000000000E+00 -0.00000000000E+00 -0.74505805969E-08  0.93827000000E+00  0.93827000000E+00 0. -1.
     999902    2    1    2    0    0 -0.14104272030E-01  0.21045176198E-01  0.12577292780E-02  0.10185644365E+01  0.10182485450E+01 0.  0.
     999903    2    3    3    0    0 -0.21008963296E-01 -0.12253627962E+00 -0.10350228291E-01  0.12682565526E+00  0.22827685920E-01 0.  0.
         14    1    1    2    0    0  0.14104272030E-01 -0.21045176198E-01 -0.12577292780E-02  0.25365563538E-01  0.00000000000E+00 0. -1.
     999901    1    3    3    0    0  0.69046912660E-02  0.14358145582E+00  0.11607957569E-01  0.89173878120E+00  0.88000000000E+00 0.  1.
        -11    1    4    4    0    0 -0.24602567123E-02 -0.46940865662E-01 -0.13545153200E-01  0.48920650327E-01  0.51100000000E-03 0.  1.
         11    1    4    4    0    0 -0.18548706583E-01 -0.75595413961E-01  0.31949249087E-02  0.77905004935E-01  0.51100000000E-03 0. -1.
</event>
<event>
 8    1  0.1123191E+005  0.1043930E+01  0.7957747E-01            NaN
         13   -1    0    0    0    0  0.00000000000E+00  0.00000000000E+00  0.74505805969E-08  0.10566000000E+00  0.10566000000E+00 0.  1.
     999900   -1    0    0    0    0 -0.00000000000E+00 -0.00000000000E+00 -0.74505805969E-08  0.93827000000E+00  0.93827000000E+00 0. -1.
     999902    2    1    2    0    0 -0.62166244802E-02  0.18885026228E-02 -0.23892130449E-01  0.10191702189E+01  0.10188694167E+01 0.  0.
     999903    2    3    3    0    0 -0.11579350217E+00  0.52129346218E-01 -0.22493558884E-01  0.13095110715E+00  0.22729460854E-01 0.  0.
         14    1    1    2    0    0  0.62166244802E-02 -0.18885026228E-02  0.23892130449E-01  0.24759781087E-01  0.00000000000E+00 0.  1.
     999901    1    3    3    0    0  0.10957687769E+00 -0.50240843595E-01 -0.13985715655E-02  0.88821911176E+00  0.88000000000E+00 0.  1.
        -11    1    4    4    0    0 -0.45908369730E-02  0.19859999022E-02  0.36269089604E-02  0.61996426777E-02  0.51100000000E-03 0. -1.
         11    1    4    4    0    0 -0.11120266520E+00  0.50143346316E-01 -0.26120467844E-01  0.12475146448E+00  0.51100000000E-03 0.  1.
</event>
<event>
 8    1  0.1123191E+005  0.1043930E+01  0.7957747E-01            NaN
         13   -1    0    0    0    0  0.00000000000E+00  0.00000000000E+00  0.74505805969E-08  0.10566000000E+00  0.10566000000E+00 0. -1.
     999900   -1    0    0    0    0 -0.00000000000E+00 -0.00000000000E+00 -0.74505805969E-08  0.93827000000E+00  0.93827000000E+00 0. -1.
     999902    2    1    2    0    0 -0.62292122601E-02 -0.17963871757E-01 -0.13602249875E-01  0.10205521264E+01  0.10202843318E+01 0.  0.
     999903    2    3    3    0    0 -0.55889913319E-01  0.49791052975E-02  0.11505062273E+00  0.12951670224E+00  0.19734651413E-01 0.  0.
         14    1    1    2    0    0  0.62292122601E-02  0.17963871757E-01  0.13602249875E-01  0.23377873632E-01  0.00000000000E+00 0. -1.
     999901    1    3    3    0    0  0.49660701059E-01 -0.22942977054E-01 -0.12865287261E+00  0.89103542413E+00  0.88000000000E+00 0. -1.
        -11    1    4    4    0    0 -0.17826590500E-01  0.11313178790E-02  0.59043089136E-01  0.61688043450E-01  0.51100000000E-03 0.  1.
         11    1    4    4    0    0 -0.38063322819E-01  0.38477874185E-02  0.56007533598E-01  0.67828658787E-01  0.51100000000E-03 0. -1.
</event>
<event>
 8    1  0.1123191E+005  0.1043930E+01  0.7957747E-01            NaN
         13   -1    0    0    0    0  0.00000000000E+00  0.00000000000E+00  0.74505805969E-08  0.10566000000E+00  0.10566000000E+00 0. -1.
     999900   -1    0    0    0    0 -0.00000000000E+00 -0.00000000000E+00 -0.74505805969E-08  0.93827000000E+00  0.93827000000E+00 0.  1.
     999902    2    1    2    0    0 -0.21242523450E-01 -0.36835634901E-02  0.38126353302E-02  0.10220359453E+01  0.10218014112E+01 0.  0.
     999903    2    3    3    0    0 -0.11667003618E+00 -0.21152475829E-01  0.60603743507E-01  0.13488499815E+00  0.21490100575E-01 0.  0.
         14    1    1    2    0    0  0.21242523450E-01  0.36835634901E-02 -0.38126353302E-02  0.21894054688E-01  0.00000000000E+00 0.  1.
     999901    1    3    3    0    0  0.95427512730E-01  0.17468912339E-01 -0.56791108177E-01  0.88715094716E+00  0.88000000000E+00 0.  1.
        -11    1    4    4    0    0 -0.51247402053E-01 -0.11776655344E-01  0.38576417002E-01  0.65217995201E-01  0.51100000000E-03 0.  1.
         11    1    4    4    0    0 -0.65422634127E-01 -0.93758204851E-02  0.22027326505E-01  0.69667002948E-01  0.51100000000E-03 0. -1.
</event>
<event>
 8    1  0.1123191E+005  0.1043930E+01  0.7957747E-01            NaN
         13   -1    0    0    0    0  0.00000000000E+00  0.00000000000E+00  0.74505805969E-08  0.10566000000E+00  0.10566000000E+00 0. -1.
     999900   -1    0    0    0    0 -0.00000000000E+00 -0.00000000000E+00 -0.74505805969E-08  0.93827000000E+00  0.93827000000E+00 0.  1.
     999902    2    1    2    0    0 -0.82364972172E-02  0.21965599247E-01 -0.43121952433E-02  0.10200779044E+01  0.10197990040E+01 0.  0.
     999903    2    3    3    0    0 -0.80431547756E-01 -0.18198603302E-01 -0.99633228221E-01  0.13108331059E+00  0.21345517421E-01 0.  0.
         14    1    1    2    0    0  0.82364972172E-02 -0.21965599247E-01  0.43121952433E-02  0.23852095600E-01  0.00000000000E+00 0.  1.
     999901    1    3    3    0    0  0.72195050539E-01  0.40164202549E-01  0.95321032977E-01  0.88899459381E+00  0.88000000000E+00 0. -1.
        -11    1    4    4    0    0 -0.38512929337E-01 -0.90020280898E-03 -0.57279672308E-01  0.69030993560E-01  0.51100000000E-03 0. -1.
         11    1    4    4    0    0 -0.41918618419E-01 -0.17298400493E-01 -0.42353555913E-01  0.62052317033E-01  0.51100000000E-03 0.  1.
</event>
<event>
 8    1  0.1123191E+005  0.1043930E+01  0.7957747E-01            NaN
         13   -1    0    0    0    0  0.00000000000E+00  0.00000000000E+00  0.74505805969E-08  0.10566000000E+00  0.10566000000E+00 0.  1.
     999900   -1    0    0    0    0 -0.00000000000E+00 -0.00000000000E+00 -0.74505805969E-08  0.93827000000E+00  0.93827000000E+00 0.  1.
     999902    2    1    2    0    0  0.75872666913E-02  0.17943450746E-01  0.12454693777E-01  0.10208074258E+01  0.10205455145E+01 0.  0.
     999903    2    3    3    0    0 -0.90040140641E-01 -0.86858088256E-01 -0.22244762554E-01  0.12855268330E+00  0.19478411160E-01 0.  0.
         14    1    1    2    0    0 -0.75872666913E-02 -0.17943450746E-01 -0.12454693777E-01  0.23122574199E-01  0.00000000000E+00 0. -1.
     999901    1    3    3    0    0  0.97627407332E-01  0.10480153900E+00  0.34699456331E-01  0.89225474250E+00  0.88000000000E+00 0.  1.
        -11    1    4    4    0    0 -0.49141723772E-01 -0.60260056494E-01 -0.15674314804E-01  0.79322939239E-01  0.51100000000E-03 0. -1.
         11    1    4    4    0    0 -0.40898416869E-01 -0.26598031761E-01 -0.65704477496E-02  0.49229744064E-01  0.51100000000E-03 0.  1.
</event>
<event>
 8    1  0.1123191E+005  0.1043930E+01  0.7957747E-01            NaN
         13   -1    0    0    0    0  0.00000000000E+00  0.00000000000E+00  0.74505805969E-08  0.10566000000E+00  0.10566000000E+00 0.  1.
     999900   -1    0    0    0    0 -0.00000000000E+00 -0.00000000000E+00 -0.74505805969E-08  0.93827000000E+00  0.93827000000E+00 0.  1.
     999902    2    1    2    0    0 -0.20687467659E-02 -0.20653461747E-01 -0.97207939880E-02  0.10210097245E+01  0.10207524276E+01 0.  0.
     999903    2    3    3    0    0  0.12302874395E+00  0.21535434254E-01  0.31726508255E-01  0.13019708198E+00  0.18570462147E-01 0.  0.
         14    1    1    2    0    0  0.20687467659E-02  0.20653461747E-01  0.97207939880E-02  0.22920275545E-01  0.00000000000E+00 0.  1.
     999901    1    3    3    0    0 -0.12509749071E+00 -0.42188896001E-01 -0.41447302243E-01  0.89081264247E+00  0.88000000000E+00 0.  1.
        -11    1    4    4    0    0  0.57965896744E-01  0.19042161991E-01  0.12241684295E-01  0.62231576181E-01  0.51100000000E-03 0. -1.
         11    1    4    4    0    0  0.65062847204E-01  0.24932722635E-02  0.19484823960E-01  0.67965505800E-01  0.51100000000E-03 0.  1.
</event>
<event>
 8    1  0.1123191E+005  0.1043930E+01  0.7957747E-01            NaN
         13   -1    0    0    0    0  0.00000000000E+00  0.00000000000E+00  0.74505805969E-08  0.10566000000E+00  0.10566000000E+00 0.  1.
     999900   -1    0    0    0    0 -0.00000000000E+00 -0.00000000000E+00 -0.74505805969E-08  0.93827000000E+00  0.93827000000E+00 0.  1.
     999902    2    1    2    0    0 -0.22233174214E-01  0.67346981471E-02 -0.29941919619E-02  0.10205070331E+01  0.10202381924E+01 0.  0.
     999903    2    3    3    0    0 -0.12879044561E+00 -0.21112966100E-01 -0.19253361104E-01  0.13349276876E+00  0.20417913175E-01 0.  0.
         14    1    1    2    0    0  0.22233174214E-01 -0.67346981471E-02  0.29941919619E-02  0.23422966940E-01  0.00000000000E+00 0. -1.
     999901    1    3    3    0    0  0.10655727140E+00  0.27847664247E-01  0.16259169142E-01  0.88701426430E+00  0.88000000000E+00 0. -1.
        -11    1    4    4    0    0 -0.83749095098E-01 -0.14399250877E-01 -0.22276392372E-01  0.87850715044E-01  0.51100000000E-03 0.  1.
         11    1    4    4    0    0 -0.45041350515E-01 -0.67137152232E-02  0.30230312686E-02  0.45642053716E-01  0.51100000000E-03 0. -1.
</event>
<event>
 8    1  0.1123191E+005  0.1043930E+01  0.7957747E-01            NaN
         13   -1    0    0    0    0  0.00000000000E+00  0.00000000000E+00  0.74505805969E-08  0.10566000000E+00  0.10566000000E+00 0.  1.
     999900   -1    0    0    0    0 -0.00000000000E+00 -0.00000000000E+00 -0.74505805969E-08  0.93827000000E+00  0.93827000000E+00 0. -1.
     999902    2    1    2    0    0 -0.52030022566E-02  0.38837288407E-02  0.22183976091E-01  0.10208154293E+01  0.10205537014E+01 0.  0.
     999903    2    3    3    0    0 -0.13800928162E-01  0.11917490100E+00 -0.47014836038E-01  0.13056015453E+00  0.21034174514E-01 0.  0.
         14    1    1    2    0    0  0.52030022566E-02 -0.38837288407E-02 -0.22183976091E-01  0.23114570673E-01  0.00000000000E+00 0. -1.
     999901    1    3    3    0    0  0.85979259049E-02 -0.11529117215E+00  0.69198812129E-01  0.89025527480E+00  0.88000000000E+00 0. -1.
        -11    1    4    4    0    0 -0.90282747633E-02  0.49305782806E-01 -0.30248203535E-01  0.58547287737E-01  0.51100000000E-03 0. -1.
         11    1    4    4    0    0 -0.47726533983E-02  0.69869118189E-01 -0.16766632504E-01  0.72012866792E-01  0.51100000000E-03 0.  1.
</event>
<event>
 8    1  0.1182750E+005  0.1043930E+01  0.7957747E-01            NaN
         13   -1    0    0    0    0  0.00000000000E+00  0.00000000000E+00  0.74505805969E-08  0.10566000000E+00  0.10566000000E+00 0. -1.
     999900   -1    0    0    0    0 -0.00000000000E+00 -0.00000000000E+00 -0.74505805969E-08  0.93827000000E+00  0.93827000000E+00 0. -1.
     999902    2    1    2    0    0 -0.16741113661E-01 -0.71706300870E-02  0.12795272911E-01  0.10216723759E+01  0.10214299006E+01 0.  0.
     999903    2    3    3    0    0  0.96911528861E-01  0.81723389584E-01  0.25696912348E-01  0.12982848697E+00  0.11160102794E-01 0.  0.
         14    1    1    2    0    0  0.16741113661E-01  0.71706300870E-02 -0.12795272911E-01  0.22257624117E-01  0.00000000000E+00 0. -1.
     999901    1    3    3    0    0 -0.11365264252E+00 -0.88894019671E-01 -0.12901639438E-01  0.89184388891E+00  0.88000000000E+00 0. -1.
        -11    1    4    4    0    0  0.62672413514E-01  0.45827622902E-01  0.14934710196E-01  0.79065220711E-01  0.51100000000E-03 0. -1.
         11    1    4    4    0    0  0.34239115347E-01  0.35895766682E-01  0.10762202152E-01  0.50763266262E-01  0.51100000000E-03 0.  1.
</event>
<event>
 8    1  0.1123191E+005  0.1043930E+01  0.7957747E-01            NaN
         13   -1    0    0    0    0  0.00000000000E+00  0.00000000000E+00  0.74505805969E-08  0.10566000000E+00  0.10566000000E+00 0.  1.
     999900   -1    0    0    0    0 -0.00000000000E+00 -0.00000000000E+00 -0.74505805969E-08  0.93827000000E+00  0.93827000000E+00 0. -1.
     999902    2    1    2    0    0 -0.73250630991E-02  0.19290674486E-01  0.10326836052E-01  0.10208555506E+01  0.10205947408E+01 0.  0.
     999903    2    3    3    0    0 -0.37094902781E-01 -0.80840408272E-01 -0.90998033481E-01  0.12890308200E+00  0.20595121489E-01 0.  0.
         14    1    1    2    0    0  0.73250630991E-02 -0.19290674486E-01 -0.10326836052E-01  0.23074449384E-01  0.00000000000E+00 0. -1.
     999901    1    3    3    0    0  0.29769839682E-01  0.10013108276E+00  0.10132486953E+00  0.89195246862E+00  0.88000000000E+00 0.  1.
        -11    1    4    4    0    0 -0.32756983895E-01 -0.47674937310E-01 -0.57772855381E-01  0.81755021750E-01  0.51100000000E-03 0.  1.
         11    1    4    4    0    0 -0.43379188866E-02 -0.33165470961E-01 -0.33225178101E-01  0.47148060248E-01  0.51100000000E-03 0. -1.
</event>
<event>
 8    1  0.1123191E+005  0.1043930E+01  0.7957747E-01            NaN
         13   -1    0    0    0    0  0.00000000000E+00  0.00000000000E+00  0.74505805969E-08  0.10566000000E+00  0.10566000000E+00 0.  1.
     999900   -1    0    0    0    0 -0.00000000000E+00 -0.00000000000E+00 -0.74505805969E-08  0.93827000000E+00  0.93827000000E+00 0.  1.
     999902    2    1    2    0    0  0.14846456398E-01 -0.18034404034E-01  0.81168001854E-02  0.10192006765E+01  0.10189006230E+01 0.  0.
     999903    2    3    3    0    0  0.10631986927E+00  0.45354093145E-01 -0.56534367748E-01  0.12983839914E+00  0.17348394429E-01 0.  0.
         14    1    1    2    0    0 -0.14846456398E-01  0.18034404034E-01 -0.81168001854E-02  0.24729323519E-01  0.00000000000E+00 0.  1.
     999901    1    3    3    0    0 -0.91473412869E-01 -0.63388497179E-01  0.64651167933E-01  0.88936227734E+00  0.88000000000E+00 0. -1.
        -11    1    4    4    0    0  0.58880034527E-01  0.34379669105E-01 -0.32418249732E-01  0.75498504293E-01  0.51100000000E-03 0. -1.
         11    1    4    4    0    0  0.47439834741E-01  0.10974424040E-01 -0.24116118016E-01  0.54339894850E-01  0.51100000000E-03 0.  1.
</event>
<event>
 8    1  0.1123191E+005  0.1043930E+01  0.7957747E-01            NaN
         13   -1    0    0    0    0  0.00000000000E+00  0.00000000000E+00  0.74505805969E-08  0.10566000000E+00  0.10566000000E+00 0. -1.
     999900   -1    0    0    0    0 -0.00000000000E+00 -0.00000000000E+00 -0.74505805969E-08  0.93827000000E+00  0.93827000000E+00 0.  1.
     999902    2    1    2    0    0  0.16969162202E-01 -0.77555207558E-02  0.14598506170E-01  0.10202399821E+01  0.10199649033E+01 0.  0.
     999903    2    3    3    0    0 -0.11641303536E+00 -0.40454851463E-01 -0.30223829223E-01  0.12846136681E+00  0.20006326534E-01 0.  0.
         14    1    1    2    0    0 -0.16969162202E-01  0.77555207558E-02 -0.14598506170E-01  0.23690017949E-01  0.00000000000E+00 0.  1.
     999901    1    3    3    0    0  0.13338219756E+00  0.32699330707E-01  0.44822335393E-01  0.89177861524E+00  0.88000000000E+00 0.  1.
        -11    1    4    4    0    0 -0.47768861571E-01 -0.20668307446E-01 -0.34390037261E-02  0.52164460470E-01  0.51100000000E-03 0. -1.
         11    1    4    4    0    0 -0.68644173786E-01 -0.19786544017E-01 -0.26784825497E-01  0.76296906339E-01  0.51100000000E-03 0.  1.
</event>
<event>
 8    1  0.1123191E+005  0.1043930E+01  0.7957747E-01            NaN
         13   -1    0    0    0    0  0.00000000000E+00  0.00000000000E+00  0.74505805969E-08  0.10566000000E+00  0.10566000000E+00 0.  1.
     999900   -1    0    0    0    0 -0.00000000000E+00 -0.00000000000E+00 -0.74505805969E-08  0.93827000000E+00  0.93827000000E+00 0. -1.
     999902    2    1    2    0    0  0.58591005642E-02 -0.18309080904E-01 -0.13790592884E-01  0.10202713450E+01  0.10199970027E+01 0.  0.
     999903    2    3    3    0    0  0.82763219031E-01 -0.62643766984E-01  0.77733083634E-01  0.13108273107E+00  0.19137871558E-01 0.  0.
         14    1    1    2    0    0 -0.58591005642E-02  0.18309080904E-01  0.13790592884E-01  0.23658654971E-01  0.00000000000E+00 0.  1.
     999901    1    3    3    0    0 -0.76904118467E-01  0.44334686080E-01 -0.91523676518E-01  0.88918861396E+00  0.88000000000E+00 0. -1.
        -11    1    4    4    0    0  0.49440582666E-01 -0.25716262477E-01  0.43518898996E-01  0.70709639095E-01  0.51100000000E-03 0. -1.
         11    1    4    4    0    0  0.33322636365E-01 -0.36927504507E-01  0.34214184638E-01  0.60373091977E-01  0.51100000000E-03 0.  1.
</event>
<event>
 8    1  0.1123191E+005  0.1043930E+01  0.7957747E-01            NaN
         13   -1    0    0    0    0  0.00000000000E+00  0.00000000000E+00  0.74505805969E-08  0.10566000000E+00  0.10566000000E+00 0. -1.
     999900   -1    0    0    0    0 -0.00000000000E+00 -0.00000000000E+00 -0.74505805969E-08  0.93827000000E+00  0.93827000000E+00 0. -1.
     999902    2    1    2    0    0 -0.15539959547E-01 -0.31494311487E-02  0.28767723290E-01  0.10110819991E+01  0.10105482758E+01 0.  0.
     999903    2    3    3    0    0  0.10523919504E+00  0.54573712026E-01  0.18868573670E-02  0.12055286068E+00  0.21814072730E-01 0.  0.
         14    1    1    2    0    0  0.15539959547E-01  0.31494311487E-02 -0.28767723290E-01  0.32848000892E-01  0.00000000000E+00 0.  1.
     999901    1    3    3    0    0 -0.12077915459E+00 -0.57723143175E-01  0.26880865924E-01  0.89052913843E+00  0.88000000000E+00 0.  1.
        -11    1    4    4    0    0  0.12858276323E-01  0.44907990214E-02  0.70431005614E-02  0.15341738245E-01  0.51100000000E-03 0. -1.
         11    1    4    4    0    0  0.92380918720E-01  0.50082913005E-01 -0.51562431944E-02  0.10521112243E+00  0.51100000000E-03 0.  1.
</event>
<event>
 8    1  0.1123191E+005  0.1043930E+01  0.7957747E-01            NaN
         13   -1    0    0    0    0  0.00000000000E+00  0.00000000000E+00  0.74505805969E-08  0.10566000000E+00  0.10566000000E+00 0. -1.
     999900   -1    0    0    0    0 -0.00000000000E+00 -0.00000000000E+00 -0.74505805969E-08  0.93827000000E+00  0.93827000000E+00 0.  1.
     999902    2    1    2    0    0  0.15946885857E-01 -0.39764378240E-02  0.19225445752E-01  0.10186370565E+01  0.10183229939E+01 0.  0.
     999903    2    3    3    0    0 -0.18853080982E-01  0.99003110574E-01  0.79455334979E-01  0.12990567716E+00  0.20131570611E-01 0.  0.
         14    1    1    2    0    0 -0.15946885857E-01  0.39764378240E-02 -0.19225445752E-01  0.25292943496E-01  0.00000000000E+00 0.  1.
     999901    1    3    3    0    0  0.34799966839E-01 -0.10297954840E+00 -0.60229889227E-01  0.88873137935E+00  0.88000000000E+00 0. -1.
        -11    1    4    4    0    0 -0.65302917462E-02  0.26132389761E-01  0.10782148900E-01  0.29018310785E-01  0.51100000000E-03 0.  1.
         11    1    4    4    0    0 -0.12322789236E-01  0.72870720813E-01  0.68673186078E-01  0.10088736637E+00  0.51100000000E-03 0. -1.
</event>
<event>
 8    1  0.1123191E+005  0.1043930E+01  0.7957747E-01            NaN
         13   -1    0    0    0    0  0.00000000000E+00  0.00000000000E+00  0.74505805969E-08  0.10566000000E+00  0.10566000000E+00 0. -1.
     999900   -1    0    0    0    0 -0.00000000000E+00 -0.00000000000E+00 -0.74505805969E-08  0.93827000000E+00  0.93827000000E+00 0.  1.
     999902    2    1    2    0    0  0.44685290772E-02 -0.14567196653E-01 -0.18869549980E-01  0.10196765284E+01  0.10193880476E+01 0.  0.
     999903    2    3    3    0    0 -0.58449444169E-01  0.92219085129E-01  0.62711150094E-01  0.12725432336E+00  0.18446606275E-01 0.  0.
         14    1    1    2    0    0 -0.44685290772E-02  0.14567196653E-01  0.18869549980E-01  0.24253471646E-01  0.00000000000E+00 0. -1.
     999901    1    3    3    0    0  0.62917973246E-01 -0.10678628178E+00 -0.81580700074E-01  0.89242220499E+00  0.88000000000E+00 0.  1.
        -11    1    4    4    0    0 -0.37906800289E-01  0.46014535544E-01  0.40169869826E-01  0.71889794494E-01  0.51100000000E-03 0.  1.
         11    1    4    4    0    0 -0.20542643880E-01  0.46204549585E-01  0.22541280268E-01  0.55364528870E-01  0.51100000000E-03 0. -1.
</event>
<event>
 8    1  0.1279336E+005  0.1043930E+01  0.7957747E-01            NaN
         13   -1    0    0    0    0  0.00000000000E+00  0.00000000000E+00  0.74505805969E-08  0.10566000000E+00  0.10566000000E+00 0. -1.
     999900   -1    0    0    0    0 -0.00000000000E+00 -0.00000000000E+00 -0.74505805969E-08  0.93827000000E+00  0.93827000000E+00 0. -1.
     999902    2    1    2    0    0  0.88442264113E-03  0.27624561197E-01 -0.20065150012E-02  0.10162185459E+01  0.10158406412E+01 0.  0.
     999903    2    3    3    0    0 -0.83360611818E-02  0.12844511203E+00  0.58820676527E-02  0.13037881407E+00  0.19909789509E-01 0.  0.
         14    1    1    2    0    0 -0.88442264113E-03 -0.27624561197E-01  0.20065150012E-02  0.27711454079E-01  0.00000000000E+00 0. -1.
     999901    1    3    3    0    0  0.92204838230E-02 -0.10082055083E+00 -0.78885826539E-02  0.88583973185E+00  0.88000000000E+00 0. -1.
        -11    1    4    4    0    0 -0.13055685752E-01  0.51053662266E-01  0.15827489980E-02  0.52722799401E-01  0.51100000000E-03 0.  1.
         11    1    4    4    0    0  0.47196245698E-02  0.77391449761E-01  0.42993186547E-02  0.77656014668E-01  0.51100000000E-03 0. -1.
</event>
<event>
 8    1  0.1123191E+005  0.1043930E+01  0.7957747E-01            NaN
         13   -1    0    0    0    0  0.00000000000E+00  0.00000000000E+00  0.74505805969E-08  0.10566000000E+00  0.10566000000E+00 0. -1.
     999900   -1    0    0    0    0 -0.00000000000E+00 -0.00000000000E+00 -0.74505805969E-08  0.93827000000E+00  0.93827000000E+00 0. -1.
     999902    2    1    2    0    0  0.10866661201E-01  0.18233264389E-01 -0.72930899686E-02  0.10214861720E+01  0.10212395772E+01 0.  0.
     999903    2    3    3    0    0  0.25457433872E-01 -0.11973885252E+00 -0.39124292364E-01  0.13004777188E+00  0.19905752304E-01 0.  0.
         14    1    1    2    0    0 -0.10866661201E-01 -0.18233264389E-01  0.72930899686E-02  0.22443828043E-01  0.00000000000E+00 0. -1.
     999901    1    3    3    0    0 -0.14590772671E-01  0.13797211691E+00  0.31831202395E-01  0.89143840008E+00  0.88000000000E+00 0.  1.
        -11    1    4    4    0    0  0.12179848297E-01 -0.95453039747E-01 -0.32662010838E-01  0.10162036988E+00  0.51100000000E-03 0.  1.
         11    1    4    4    0    0  0.13277585575E-01 -0.24285812773E-01 -0.64622815258E-02  0.28427401997E-01  0.51100000000E-03 0. -1.
</event>
<event>
 8    1  0.1123191E+005  0.1043930E+01  0.7957747E-01            NaN
         13   -1    0    0    0    0  0.00000000000E+00  0.00000000000E+00  0.74505805969E-08  0.10566000000E+00  0.10566000000E+00 0. -1.
     999900   -1    0    0    0    0 -0.00000000000E+00 -0.00000000000E+00 -0.74505805969E-08  0.93827000000E+00  0.93827000000E+00 0.  1.
     999902    2    1    2    0    0 -0.93054897061E-02 -0.14344586871E-01  0.23206560014E-02  0.10266747180E+01  0.10265297034E+01 0.  0.
     999903    2    3    3    0    0 -0.41217137315E-01 -0.10533667831E-02  0.12888130845E+00  0.13694857561E+00  0.21084560745E-01 0.  0.
         14    1    1    2    0    0  0.93054897061E-02  0.14344586871E-01 -0.23206560014E-02  0.17255281958E-01  0.00000000000E+00 0.  1.
     999901    1    3    3    0    0  0.31911647609E-01 -0.13291220088E-01 -0.12656065245E+00  0.88972614244E+00  0.88000000000E+00 0.  1.
        -11    1    4    4    0    0 -0.43471846648E-01 -0.20394473954E-02  0.12461844761E+00  0.13199992198E+00  0.51100000000E-03 0.  1.
         11    1    4    4    0    0  0.22547093329E-02  0.98608061228E-03  0.42628608394E-02  0.49486536235E-02  0.51100000000E-03 0. -1.
</event>
<event>
 8    1  0.1123191E+005  0.1043930E+01  0.7957747E-01            NaN
         13   -1    0    0    0    0  0.00000000000E+00  0.00000000000E+00  0.74505805969E-08  0.10566000000E+00  0.10566000000E+00 0.  1.
     999900   -1    0    0    0    0 -0.00000000000E+00 -0.00000000000E+00 -0.74505805969E-08  0.93827000000E+00  0.93827000000E+00 0.  1.
     999902    2    1    2    0    0 -0.20503226981E-01 -0.71406824926E-02  0.11462907175E-01  0.10193786272E+01  0.10190829288E+01 0.  0.
     999903    2    3    3    0    0  0.10138731300E+00 -0.48305200718E-01  0.59512105835E-01  0.12872687331E+00  0.20399448972E-01 0.  0.
         14    1    1    2    0    0  0.20503226981E-01  0.71406824926E-02 -0.11462907175E-01  0.24551372751E-01  0.00000000000E+00 0. -1.
     999901    1    3    3    0    0 -0.12189053998E+00  0.41164518226E-01 -0.48049198660E-01  0.89065175394E+00  0.88000000000E+00 0. -1.
        -11    1    4    4    0    0  0.69053061964E-01 -0.34377533225E-01  0.51090472542E-01  0.92523714057E-01  0.51100000000E-03 0. -1.
         11    1    4    4    0    0  0.32334251036E-01 -0.13927667493E-01  0.84216332924E-02  0.36203159256E-01  0.51100000000E-03 0.  1.
</event>
<event>
 8    1  0.1123191E+005  0.1043930E+01  0.7957747E-01            NaN
         13   -1    0    0    0    0  0.00000000000E+00  0.00000000000E+00  0.74505805969E-08  0.10566000000E+00  0.10566000000E+00 0. -1.
     999900   -1    0    0    0    0 -0.00000000000E+00 -0.00000000000E+00 -0.74505805969E-08  0.93827000000E+00  0.93827000000E+00 0. -1.
     999902    2    1    2    0    0  0.73728475959E-02 -0.18164169287E-01  0.13850827520E-01  0.10199270554E+01  0.10196445738E+01 0.  0.
     999903    2    3    3    0    0  0.12382570633E+00  0.35353617150E-01  0.92173124770E-02  0.13063132772E+00  0.19922377855E-01 0.  0.
         14    1    1    2    0    0 -0.73728475959E-02  0.18164169287E-01 -0.13850827520E-01  0.24002944622E-01  0.00000000000E+00 0.  1.
     999901    1    3    3    0    0 -0.11645285873E+00 -0.53517786436E-01  0.46335150431E-02  0.88929572766E+00  0.88000000000E+00 0.  1.
        -11    1    4    4    0    0  0.37128092173E-01  0.33171220768E-02 -0.29935020740E-02  0.37399474635E-01  0.51100000000E-03 0. -1.
         11    1    4    4    0    0  0.86697614153E-01  0.32036495073E-01  0.12210814551E-01  0.93231853084E-01  0.51100000000E-03 0.  1.
</event>
<event>
 8    1  0.1123191E+005  0.1043930E+01  0.7957747E-01            NaN
         13   -1    0    0    0    0  0.00000000000E+00  0.00000000000E+00  0.74505805969E-08  0.10566000000E+00  0.10566000000E+00 0. -1.
     999900   -1    0    0    0    0 -0.00000000000E+00 -0.00000000000E+00 -0.74505805969E-08  0.93827000000E+00  0.93827000000E+00 0.  1.
     999902    2    1    2    0    0 -0.35429842824E-02 -0.18813366438E-01  0.16516365830E-01  0.10186458976E+01  0.10183320573E+01 0.  0.
     999903    2    3    3    0    0 -0.12572591249E+00 -0.28518504141E-01  0.60117641187E-02  0.13008908776E+00  0.16331542944E-01 0.  0.
         14    1    1    2    0    0  0.35429842824E-02  0.18813366438E-01 -0.16516365830E-01  0.25284102408E-01  0.00000000000E+00 0.  1.
     999901    1    3    3    0    0  0.12218292821E+00  0.97051377030E-02  0.10504601711E-01  0.88855680983E+00  0.88000000000E+00 0.  1.
        -11    1    4    4    0    0 -0.27138625244E-01 -0.11839046449E-01 -0.26139436149E-02  0.29728131848E-01  0.51100000000E-03 0. -1.
         11    1    4    4    0    0 -0.98587287251E-01 -0.16679457692E-01  0.86257077337E-02  0.10036095591E+00  0.51100000000E-03 0.  1.
</event>
<event>
 8    1  0.1123191E+005  0.1043930E+01  0.7957747E-01            NaN
         13   -1    0    0    0    0  0.00000000000E+00  0.00000000000E+00  0.74505805969E-08  0.10566000000E+00  0.10566000000E+00 0.  1.
     999900   -1    0    0    0    0 -0.00000000000E+00 -0.00000000000E+00 -0.74505805969E-08  0.93827000000E+00  0.93827000000E+00 0.  1.
     999902    2    1    2    0    0  0.17049403518E-01 -0.15179792272E-01  0.56583832098E-02  0.10204113786E+01  0.10201403119E+01 0.  0.
     999903    2    3    3    0    0 -0.61663985914E-01  0.95233902968E-01  0.57120880716E-01  0.12853954336E+00  0.19689483520E-01 0.  0.
         14    1    1    2    0    0 -0.17049403518E-01  0.15179792272E-01 -0.56583832098E-02  0.23518621437E-01  0.00000000000E+00 0.  1.
     999901    1    3    3    0    0  0.78713389431E-01 -0.11041369524E+00 -0.51462497506E-01  0.89187183520E+00  0.88000000000E+00 0.  1.
        -11    1    4    4    0    0 -0.39016551182E-01  0.75904080515E-01  0.43508438114E-01  0.95796482258E-01  0.51100000000E-03 0. -1.
         11    1    4    4    0    0 -0.22647434732E-01  0.19329822453E-01  0.13612442602E-01  0.32743061106E-01  0.51100000000E-03 0.  1.
</event>
<event>
 8    1  0.1123191E+005  0.1043930E+01  0.7957747E-01            NaN
         13   -1    0    0    0    0  0.00000000000E+00  0.00000000000E+00  0.74505805969E-08  0.10566000000E+00  0.10566000000E+00 0.  1.
     999900   -1    0    0    0    0 -0.00000000000E+00 -0.00000000000E+00 -0.74505805969E-08  0.93827000000E+00  0.93827000000E+00 0. -1.
     999902    2    1    2    0    0  0.52155626430E-03  0.67269872599E-03  0.23671465950E-01  0.10202432348E+01  0.10199682325E+01 0.  0.
     999903    2    3    3    0    0  0.38980436376E-01 -0.43616889841E-01  0.11807197179E+00  0.13325275651E+00  0.19834290905E-01 0.  0.
         14    1    1    2    0    0 -0.52155626430E-03 -0.67269872599E-03 -0.23671465950E-01  0.23686765181E-01  0.00000000000E+00 0. -1.
     999901    1    3    3    0    0 -0.38458880112E-01  0.44289588567E-01 -0.94400505836E-01  0.88699047831E+00  0.88000000000E+00 0. -1.
        -11    1    4    4    0    0  0.35076068775E-01 -0.30098208066E-01  0.76707307984E-01  0.89557271892E-01  0.51100000000E-03 0. -1.
         11    1    4    4    0    0  0.39043676011E-02 -0.13518681775E-01  0.41364663802E-01  0.43695484615E-01  0.51100000000E-03 0.  1.
</event>
<event>
 8    1  0.1123191E+005  0.1043930E+01  0.7957747E-01            NaN
         13   -1    0    0    0    0  0.00000000000E+00  0.00000000000E+00  0.74505805969E-08  0.10566000000E+00  0.10566000000E+00 0. -1.
     999900   -1    0    0    0    0 -0.00000000000E+00 -0.00000000000E+00 -0.74505805969E-08  0.93827000000E+00  0.93827000000E+00 0. -1.
     999902    2    1    2    0    0  0.17146124581E-01  0.15001757541E-01 -0.51567101519E-02  0.10205711906E+01  0.10203038376E+01 0.  0.
     999903    2    3    3    0    0  0.69209484240E-01  0.92601861492E-01 -0.64156975861E-01  0.13365890580E+00  0.19583873170E-01 0.  0.
         14    1    1    2    0    0 -0.17146124581E-01 -0.15001757541E-01  0.51567101519E-02  0.23358809410E-01  0.00000000000E+00 0.  1.
     999901    1    3    3    0    0 -0.52063359659E-01 -0.77600103951E-01  0.59000265709E-01  0.88691228479E+00  0.88000000000E+00 0.  1.
        -11    1    4    4    0    0  0.51925024224E-01  0.81477329773E-01 -0.51052760644E-01  0.10927675369E+00  0.51100000000E-03 0.  1.
         11    1    4    4    0    0  0.17284460016E-01  0.11124531718E-01 -0.13104215216E-01  0.24382152108E-01  0.51100000000E-03 0. -1.
</event>
<event>
 8    1  0.1123191E+005  0.1043930E+01  0.7957747E-01            NaN
         13   -1    0    0    0    0  0.00000000000E+00  0.00000000000E+00  0.74505805969E-08  0.10566000000E+00  0.10566000000E+00 0. -1.
     999900   -1    0    0    0    0 -0.00000000000E+00 -0.00000000000E+00 -0.74505805969E-08  0.93827000000E+00  0.93827000000E+00 0. -1.
     999902    2    1    2    0    0 -0.51265770728E-02 -0.22073480232E-01 -0.14753111384E-01  0.10168897593E+01  0.10165301805E+01 0.  0.
     999903    2    3    3    0    0 -0.95120977458E-01  0.37816474074E-02  0.81213562388E-01  0.12673410874E+00  0.20089559325E-01 0.  0.
         14    1    1    2    0    0  0.51265770728E-02  0.22073480232E-01  0.14753111384E-01  0.27040240708E-01  0.00000000000E+00 0. -1.
     999901    1    3    3    0    0  0.89994400385E-01 -0.25855127640E-01 -0.95966673772E-01  0.89015565055E+00  0.88000000000E+00 0. -1.
        -11    1    4    4    0    0 -0.71924493501E-01  0.69411307750E-02  0.50706833402E-01  0.88276588836E-01  0.51100000000E-03 0. -1.
         11    1    4    4    0    0 -0.23196483957E-01 -0.31594833675E-02  0.30506728986E-01  0.38457519909E-01  0.51100000000E-03 0.  1.
</event>
<event>
 8    1  0.1123191E+005  0.1043930E+01  0.7957747E-01            NaN
         13   -1    0    0    0    0  0.00000000000E+00  0.00000000000E+00  0.74505805969E-08  0.10566000000E+00  0.10566000000E+00 0. -1.
     999900   -1    0    0    0    0 -0.00000000000E+00 -0.00000000000E+00 -0.74505805969E-08  0.93827000000E+00  0.93827000000E+00 0.  1.
     999902    2    1    2    0    0 -0.19052888530E-01 -0.12071089150E-01 -0.83761425004E-02  0.10198700017E+01  0.10195861596E+01 0.  0.
     999903    2    3    3    0    0  0.10042260132E-01  0.67857208117E-01 -0.10862329762E+00  0.13010342980E+00  0.20553198712E-01 0.  0.
         14    1    1    2    0    0  0.19052888530E-01  0.12071089150E-01  0.83761425004E-02  0.24059998292E-01  0.00000000000E+00 0. -1.
     999901    1    3    3    0    0 -0.29095148662E-01 -0.79928297267E-01  0.10024715512E+00  0.88976657191E+00  0.88000000000E+00 0.  1.
        -11    1    4    4    0    0  0.17986742380E-02  0.23368931020E-01 -0.55952869283E-01  0.60665697623E-01  0.51100000000E-03 0. -1.
         11    1    4    4    0    0  0.82435858938E-02  0.44488277096E-01 -0.52670428337E-01  0.69437732175E-01  0.51100000000E-03 0.  1.
</event>
<event>
 8    1  0.1123191E+005  0.1043930E+01  0.7957747E-01            NaN
         13   -1    0    0    0    0  0.00000000000E+00  0.00000000000E+00  0.74505805969E-08  0.10566000000E+00  0.10566000000E+00 0. -1.
     999900   -1    0    0    0    0 -0.00000000000E+00 -0.00000000000E+00 -0.74505805969E-08  0.93827000000E+00  0.93827000000E+00 0.  1.
     999902    2    1    2    0    0 -0.45776470921E-03 -0.42737303729E-03  0.21807211348E-01  0.10221137982E+01  0.10218809469E+01 0.  0.
     999903    2    3    3    0    0 -0.48853184803E-01 -0.32173045915E-01  0.11975785087E+00  0.13478960023E+00  0.20113551079E-01 0.  0.
         14    1    1    2    0    0  0.45776470921E-03  0.42737303729E-03 -0.21807211348E-01  0.21816201846E-01  0.00000000000E+00 0.  1.
     999901    1    3    3    0    0  0.48395420094E-01  0.31745672878E-01 -0.97950639523E-01  0.88732419792E+00  0.88000000000E+00 0.  1.
        -11    1    4    4    0    0 -0.36105618530E-01 -0.12543588343E-01  0.79684013625E-01  0.88378506699E-01  0.51100000000E-03 0.  1.
         11    1    4    4    0    0 -0.12747566273E-01 -0.19629457572E-01  0.40073837245E-01  0.46411093534E-01  0.51100000000E-03 0. -1.
</event>
<event>
 8    1  0.1123191E+005  0.1043930E+01  0.7957747E-01            NaN
         13   -1    0    0    0    0  0.00000000000E+00  0.00000000000E+00  0.74505805969E-08  0.10566000000E+00  0.10566000000E+00 0.  1.
     999900   -1    0    0    0    0 -0.00000000000E+00 -0.00000000000E+00 -0.74505805969E-08  0.93827000000E+00  0.93827000000E+00 0.  1.
     999902    2    1    2    0    0 -0.71416856804E-02 -0.19625284290E-01  0.10882111011E-01  0.10203805669E+01  0.10201087812E+01 0.  0.
     999903    2    3    3    0    0  0.44100887584E-01  0.56544578237E-01  0.10705874176E+00  0.13039315490E+00  0.19965546396E-01 0.  0.
         14    1    1    2    0    0  0.71416856804E-02  0.19625284290E-01 -0.10882111011E-01  0.23549433069E-01  0.00000000000E+00 0. -1.
     999901    1    3    3    0    0 -0.51242573264E-01 -0.76169862527E-01 -0.96176630752E-01  0.88998741203E+00  0.88000000000E+00 0.  1.
        -11    1    4    4    0    0  0.23185937564E-01  0.33670747433E-01  0.77174147863E-01  0.87335085463E-01  0.51100000000E-03 0. -1.
         11    1    4    4    0    0  0.20914950020E-01  0.22873830804E-01  0.29884593900E-01  0.43058069437E-01  0.51100000000E-03 0.  1.
</event>
<event>
 8    1  0.1123191E+005  0.1043930E+01  0.7957747E-01            NaN
         13   -1    0    0    0    0  0.00000000000E+00  0.00000000000E+00  0.74505805969E-08  0.10566000000E+00  0.10566000000E+00 0.  1.
     999900   -1    0    0    0    0 -0.00000000000E+00 -0.00000000000E+00 -0.74505805969E-08  0.93827000000E+00  0.93827000000E+00 0.  1.
     999902    2    1    2    0    0 -0.45453467700E-02 -0.10582041984E-01 -0.19441204251E-01  0.10213335354E+01  0.10210835374E+01 0.  0.
     999903    2    3    3    0    0  0.63874670480E-01 -0.74641836373E-01 -0.88367280747E-01  0.13367607892E+00  0.20227221828E-01 0.  0.
         14    1    1    2    0    0  0.45453467700E-02  0.10582041984E-01  0.19441204251E-01  0.22596464603E-01  0.00000000000E+00 0.  1.
     999901    1    3    3    0    0 -0.68420017250E-01  0.64059794389E-01  0.68926076496E-01  0.88765745648E+00  0.88000000000E+00 0. -1.
        -11    1    4    4    0    0  0.25372663714E-01 -0.45123443464E-01 -0.44506471341E-01  0.68271401965E-01  0.51100000000E-03 0. -1.
         11    1    4    4    0    0  0.38502006767E-01 -0.29518392909E-01 -0.43860809406E-01  0.65404676956E-01  0.51100000000E-03 0.  1.
</event>
<event>
 8    1  0.1123191E+005  0.1043930E+01  0.7957747E-01            NaN
         13   -1    0    0    0    0  0.00000000000E+00  0.00000000000E+00  0.74505805969E-08  0.10566000000E+00  0.10566000000E+00 0. -1.
     999900   -1    0    0    0    0 -0.00000000000E+00 -0.00000000000E+00 -0.74505805969E-08  0.93827000000E+00  0.93827000000E+00 0.  1.
     999902    2    1    2    0    0 -0.13640140189E-01 -0.13838982743E-01  0.12601549637E-01  0.10207703385E+01  0.10205075767E+01 0.  0.
     999903    2    3    3    0    0  0.24958156799E-02 -0.12576211744E+00 -0.35073486236E-01  0.13225468517E+00  0.20947864699E-01 0.  0.
         14    1    1    2    0    0  0.13640140189E-01  0.13838982743E-01 -0.12601549637E-01  0.23159661504E-01  0.00000000000E+00 0.  1.
     999901    1    3    3    0    0 -0.16135955868E-01  0.11192313469E+00  0.47675035874E-01  0.88851565332E+00  0.88000000000E+00 0.  1.
        -11    1    4    4    0    0  0.46708922298E-02 -0.11236165255E+00 -0.24646123216E-01  0.11512884395E+00  0.51100000000E-03 0. -1.
         11    1    4    4    0    0 -0.21750765499E-02 -0.13400464890E-01 -0.10427363020E-01  0.17125841229E-01  0.51100000000E-03 0.  1.
</event>
<event>
 8    1  0.1123191E+005  0.1043930E+01  0.7957747E-01            NaN
         13   -1    0    0    0    0  0.00000000000E+00  0.00000000000E+00  0.74505805969E-08  0.10566000000E+00  0.10566000000E+00 0. -1.
     999900   -1    0    0    0    0 -0.00000000000E+00 -0.00000000000E+00 -0.74505805969E-08  0.93827000000E+00  0.93827000000E+00 0.  1.
     999902    2    1    2    0    0  0.10905756973E-01  0.35503550942E-02  0.20835955023E-01  0.10201460227E+01  0.10198687317E+01 0.  0.
     999903    2    3    3    0    0  0.72742811354E-01 -0.39824963505E-01 -0.96777024389E-01  0.12911400725E+00  0.20666158243E-01 0.  0.
         14    1    1    2    0    0 -0.10905756973E-01 -0.35503550942E-02 -0.20835955023E-01  0.23783977341E-01  0.00000000000E+00 0.  1.
     999901    1    3    3    0    0 -0.61837054381E-01  0.43375318599E-01  0.11761297941E+00  0.89103201541E+00  0.88000000000E+00 0. -1.
        -11    1    4    4    0    0  0.41829283818E-01 -0.31298082349E-01 -0.69913707924E-01  0.87277984739E-01  0.51100000000E-03 0. -1.
         11    1    4    4    0    0  0.30913527536E-01 -0.85268811554E-02 -0.26863316465E-01  0.41836022510E-01  0.51100000000E-03 0.  1.
</event>
<event>
 8    1  0.1123191E+005  0.1043930E+01  0.7957747E-01            NaN
         13   -1    0    0    0    0  0.00000000000E+00  0.00000000000E+00  0.74505805969E-08  0.10566000000E+00  0.10566000000E+00 0. -1.
     999900   -1    0    0    0    0 -0.00000000000E+00 -0.00000000000E+00 -0.74505805969E-08  0.93827000000E+00  0.93827000000E+00 0. -1.
     999902    2    1    2    0    0 -0.30201150777E-02  0.11059100443E-01 -0.20466791976E-01  0.10204712197E+01  0.10202015467E+01 0.  0.
     999903    2    3    3    0    0  0.18826085470E-01 -0.11314770317E+00 -0.59414670360E-01  0.13062768081E+00  0.19407826080E-01 0.  0.
         14    1    1    2    0    0  0.30201150777E-02 -0.11059100443E-01  0.20466791976E-01  0.23458780264E-01  0.00000000000E+00 0. -1.
     999901    1    3    3    0    0 -0.21846200548E-01  0.12420680361E+00  0.38947878384E-01  0.88984353893E+00  0.88000000000E+00 0. -1.
        -11    1    4    4    0    0  0.49260471500E-02 -0.74315994898E-01 -0.31774641755E-01  0.80975440831E-01  0.51100000000E-03 0.  1.
         11    1    4    4    0    0  0.13900038320E-01 -0.38831708269E-01 -0.27640028605E-01  0.49652239977E-01  0.51100000000E-03 0. -1.
</event>
<event>
 8    1  0.1123191E+005  0.1043930E+01  0.7957747E-01            NaN
         13   -1    0    0    0    0  0.00000000000E+00  0.00000000000E+00  0.74505805969E-08  0.10566000000E+00  0.10566000000E+00 0. -1.
     999900   -1    0    0    0    0 -0.00000000000E+00 -0.00000000000E+00 -0.74505805969E-08  0.93827000000E+00  0.93827000000E+00 0. -1.
     999902    2    1    2    0    0 -0.23428548189E-02 -0.23630136966E-02 -0.23137129018E-01  0.10205548093E+01  0.10202870768E+01 0.  0.
     999903    2    3    3    0    0  0.60666619116E-01 -0.10608745518E+00  0.39613155896E-01  0.13001196818E+00  0.19973055035E-01 0.  0.
         14    1    1    2    0    0  0.23428548189E-02  0.23630136966E-02  0.23137129018E-01  0.23375190729E-01  0.00000000000E+00 0. -1.
     999901    1    3    3    0    0 -0.63009473935E-01  0.10372444148E+00 -0.62750284914E-01  0.89054284109E+00  0.88000000000E+00 0. -1.
        -11    1    4    4    0    0  0.58697798570E-01 -0.95744670413E-01  0.31297599739E-01  0.11658590970E+00  0.51100000000E-03 0. -1.
         11    1    4    4    0    0  0.19688205457E-02 -0.10342784769E-01  0.83155561571E-02  0.13426058480E-01  0.51100000000E-03 0.  1.
</event>
<event>
 8    1  0.1123191E+005  0.1043930E+01  0.7957747E-01            NaN
         13   -1    0    0    0    0  0.00000000000E+00  0.00000000000E+00  0.74505805969E-08  0.10566000000E+00  0.10566000000E+00 0.  1.
     999900   -1    0    0    0    0 -0.00000000000E+00 -0.00000000000E+00 -0.74505805969E-08  0.93827000000E+00  0.93827000000E+00 0. -1.
     999902    2    1    2    0    0 -0.20511009331E-01  0.86591037677E-04 -0.94469401882E-02  0.10213478460E+01  0.10210981680E+01 0.  0.
     999903    2    3    3    0    0 -0.66299971335E-01 -0.99444512625E-01 -0.55638940467E-01  0.13335191663E+00  0.20053545357E-01 0.  0.
         14    1    1    2    0    0  0.20511009331E-01 -0.86591037677E-04  0.94469401882E-02  0.22582154031E-01  0.00000000000E+00 0. -1.
     999901    1    3    3    0    0  0.45788962005E-01  0.99531103663E-01  0.46192000279E-01  0.88799592934E+00  0.88000000000E+00 0.  1.
        -11    1    4    4    0    0 -0.54087273388E-01 -0.78968606699E-01 -0.35330535417E-01  0.10202931853E+00  0.51100000000E-03 0.  1.
         11    1    4    4    0    0 -0.12212697947E-01 -0.20475905927E-01 -0.20308405050E-01  0.31322598094E-01  0.51100000000E-03 0. -1.
</event>
<event>
 8    1  0.1123191E+005  0.1043930E+01  0.7957747E-01            NaN
         13   -1    0    0    0    0  0.00000000000E+00  0.00000000000E+00  0.74505805969E-08  0.10566000000E+00  0.10566000000E+00 0. -1.
     999900   -1    0    0    0    0 -0.00000000000E+00 -0.00000000000E+00 -0.74505805969E-08  0.93827000000E+00  0.93827000000E+00 0. -1.
     999902    2    1    2    0    0 -0.19524569404E-01  0.63236622781E-02 -0.91124807417E-02  0.10214748264E+01  0.10212279795E+01 0.  0.
     999903    2    3    3    0    0 -0.35711366537E-01  0.12103744343E+00 -0.38124192932E-01  0.13340785630E+00  0.20465522806E-01 0.  0.
         14    1    1    2    0    0  0.19524569404E-01 -0.63236622781E-02  0.91124807417E-02  0.22455173575E-01  0.00000000000E+00 0.  1.
     999901    1    3    3    0    0  0.16186797133E-01 -0.11471378115E+00  0.29011712191E-01  0.88806697013E+00  0.88000000000E+00 0.  1.
        -11    1    4    4    0    0 -0.21489317016E-01  0.99040539341E-01 -0.33929387066E-01  0.10687508412E+00  0.51100000000E-03 0. -1.
         11    1    4    4    0    0 -0.14222049521E-01  0.21996904087E-01 -0.41948058660E-02  0.26532772174E-01  0.51100000000E-03 0.  1.
</event>
<event>
 8    1  0.1123191E+005  0.1043930E+01  0.7957747E-01            NaN
         13   -1    0    0    0    0  0.00000000000E+00  0.00000000000E+00  0.74505805969E-08  0.10566000000E+00  0.10566000000E+00 0. -1.
     999900   -1    0    0    0    0 -0.00000000000E+00 -0.00000000000E+00 -0.74505805969E-08  0.93827000000E+00  0.93827000000E+00 0.  1.
     999902    2    1    2    0    0  0.11768816991E-01  0.90917685906E-02  0.56091453902E-02  0.10280357299E+01  0.10279128534E+01 0.  0.
     999903    2    3    3    0    0  0.13675035122E+00  0.30368368245E-02  0.15614759193E-01  0.13912788407E+00  0.20071534227E-01 0.  0.
         14    1    1    2    0    0 -0.11768816991E-01 -0.90917685906E-02 -0.56091453902E-02  0.15894270083E-01  0.00000000000E+00 0. -1.
     999901    1    3    3    0    0 -0.12498153423E+00  0.60549317661E-02 -0.10005613803E-01  0.88890784584E+00  0.88000000000E+00 0.  1.
        -11    1    4    4    0    0  0.11282600129E+00 -0.29121505677E-02  0.18244640000E-01  0.11432985261E+00  0.51100000000E-03 0.  1.
         11    1    4    4    0    0  0.23924349926E-01  0.59489873922E-02 -0.26298808069E-02  0.24798031463E-01  0.51100000000E-03 0. -1.
</event>
<event>
 8    1  0.1123191E+005  0.1043930E+01  0.7957747E-01            NaN
         13   -1    0    0    0    0  0.00000000000E+00  0.00000000000E+00  0.74505805969E-08  0.10566000000E+00  0.10566000000E+00 0.  1.
     999900   -1    0    0    0    0 -0.00000000000E+00 -0.00000000000E+00 -0.74505805969E-08  0.93827000000E+00  0.93827000000E+00 0.  1.
     999902    2    1    2    0    0  0.20715778863E-01 -0.82525468640E-02  0.85278605792E-02  0.10200559046E+01  0.10197764834E+01 0.  0.
     999903    2    3    3    0    0 -0.16025309188E-02 -0.13835766112E-01 -0.12662375636E+00  0.12944081445E+00  0.22964151251E-01 0.  0.
         14    1    1    2    0    0 -0.20715778863E-01  0.82525468640E-02 -0.85278605792E-02  0.23874095369E-01  0.00000000000E+00 0.  1.
     999901    1    3    3    0    0  0.22318309782E-01  0.55832192483E-02  0.13515161694E+00  0.89061509018E+00  0.88000000000E+00 0. -1.
        -11    1    4    4    0    0 -0.11533708802E-02  0.62499617406E-02 -0.22047376807E-01  0.22950822016E-01  0.51100000000E-03 0.  1.
         11    1    4    4    0    0 -0.44916003852E-03 -0.20085727853E-01 -0.10457637955E+00  0.10648999244E+00  0.51100000000E-03 0. -1.
</event>
<event>
 8    1  0.1123191E+005  0.1043930E+01  0.7957747E-01            NaN
         13   -1    0    0    0    0  0.00000000000E+00  0.00000000000E+00  0.74505805969E-08  0.10566000000E+00  0.10566000000E+00 0.  1.
     999900   -1    0    0    0    0 -0.00000000000E+00 -0.00000000000E+00 -0.74505805969E-08  0.93827000000E+00  0.93827000000E+00 0.  1.
     999902    2    1    2    0    0  0.25146482829E-01 -0.71397086106E-02 -0.21585240842E-02  0.10177006221E+01  0.10173625588E+01 0.  0.
     999903    2    3    3    0    0  0.35302716287E-02 -0.12380105570E+00 -0.30421764578E-01  0.12928858863E+00  0.21234198322E-01 0.  0.
         14    1    1    2    0    0 -0.25146482829E-01  0.71397086106E-02  0.21585240842E-02  0.26229377879E-01  0.00000000000E+00 0. -1.
     999901    1    3    3    0    0  0.21616211200E-01  0.11666134709E+00  0.28263240494E-01  0.88841203349E+00  0.88000000000E+00 0. -1.
        -11    1    4    4    0    0 -0.43088350280E-02 -0.33957401643E-01 -0.39783870556E-03  0.34235808480E-01  0.51100000000E-03 0. -1.
         11    1    4    4    0    0  0.78391066567E-02 -0.89843654061E-01 -0.30023925872E-01  0.95052780148E-01  0.51100000000E-03 0.  1.
</event>
<event>
 8    1  0.1123191E+005  0.1043930E+01  0.7957747E-01            NaN
         13   -1    0    0    0    0  0.00000000000E+00  0.00000000000E+00  0.74505805969E-08  0.10566000000E+00  0.10566000000E+00 0. -1.
     999900   -1    0    0    0    0 -0.00000000000E+00 -0.00000000000E+00 -0.74505805969E-08  0.93827000000E+00  0.93827000000E+00 0. -1.
     999902    2    1    2    0    0 -0.14656491012E-01  0.18499547089E-01  0.76148800228E-02  0.10191301539E+01  0.10188283654E+01 0.  0.
     999903    2    3    3    0    0  0.56395345561E-01  0.11337872138E+00  0.27748962847E-01  0.13095460674E+00  0.18545474539E-01 0.  0.
         14    1    1    2    0    0  0.14656491012E-01 -0.18499547089E-01 -0.76148800228E-02  0.24799846149E-01  0.00000000000E+00 0. -1.
     999901    1    3    3    0    0 -0.71051836573E-01 -0.94879174287E-01 -0.20134082824E-01  0.88817554711E+00  0.88000000000E+00 0. -1.
        -11    1    4    4    0    0  0.40222193964E-01  0.69123044173E-01  0.99853218179E-02  0.80596450888E-01  0.51100000000E-03 0.  1.
         11    1    4    4    0    0  0.16173151597E-01  0.44255677202E-01  0.17763641029E-01  0.50358155852E-01  0.51100000000E-03 0. -1.
</event>
<event>
 8    1  0.1123191E+005  0.1043930E+01  0.7957747E-01            NaN
         13   -1    0    0    0    0  0.00000000000E+00  0.00000000000E+00  0.74505805969E-08  0.10566000000E+00  0.10566000000E+00 0.  1.
     999900   -1    0    0    0    0 -0.00000000000E+00 -0.00000000000E+00 -0.74505805969E-08  0.93827000000E+00  0.93827000000E+00 0.  1.
     999902    2    1    2    0    0 -0.18391880976E-01  0.11571830371E-01 -0.93295430249E-02  0.10202824015E+01  0.10200083185E+01 0.  0.
     999903    2    3    3    0    0 -0.42653360729E-01 -0.58033718254E-01  0.10615512289E+00  0.12968133484E+00  0.19003074858E-01 0.  0.
         14    1    1    2    0    0  0.18391880976E-01 -0.11571830371E-01  0.93295430249E-02  0.23647598546E-01  0.00000000000E+00 0.  1.
     999901    1    3    3    0    0  0.24261479753E-01  0.69605548625E-01 -0.11548466591E+00  0.89060106662E+00  0.88000000000E+00 0.  1.
        -11    1    4    4    0    0 -0.46834783825E-02 -0.16276954323E-03  0.11411698813E-01  0.12347042337E-01  0.51100000000E-03 0. -1.
         11    1    4    4    0    0 -0.37969882347E-01 -0.57870948711E-01  0.94743424074E-01  0.11733429250E+00  0.51100000000E-03 0.  1.
</event>
<event>
 8    1  0.1123191E+005  0.1043930E+01  0.7957747E-01            NaN
         13   -1    0    0    0    0  0.00000000000E+00  0.00000000000E+00  0.74505805969E-08  0.10566000000E+00  0.10566000000E+00 0. -1.
     999900   -1    0    0    0    0 -0.00000000000E+00 -0.00000000000E+00 -0.74505805969E-08  0.93827000000E+00  0.93827000000E+00 0. -1.
     999902    2    1    2    0    0 -0.99295636329E-02 -0.15712974923E-01 -0.14848696426E-01  0.10201397163E+01  0.10198622765E+01 0.  0.
     999903    2    3    3    0    0 -0.12445569162E+00  0.36091202601E-01 -0.14751905788E-02  0.13110723234E+00  0.19878030658E-01 0.  0.
         14    1    1    2    0    0  0.99295636329E-02  0.15712974923E-01  0.14848696426E-01  0.23790283740E-01  0.00000000000E+00 0.  1.
     999901    1    3    3    0    0  0.11452612799E+00 -0.51804177524E-01 -0.13373505847E-01  0.88903248392E+00  0.88000000000E+00 0.  1.
        -11    1    4    4    0    0 -0.11011762313E+00  0.36110896404E-01  0.34453415759E-02  0.11593972254E+00  0.51100000000E-03 0. -1.
         11    1    4    4    0    0 -0.14338068490E-01 -0.19693803318E-04 -0.49205321547E-02  0.15167509801E-01  0.51100000000E-03 0.  1.
</event>
<event>
 8    1  0.1123191E+005  0.1043930E+01  0.7957747E-01            NaN
         13   -1    0    0    0    0  0.00000000000E+00  0.00000000000E+00  0.74505805969E-08  0.10566000000E+00  0.10566000000E+00 0.  1.
     999900   -1    0    0    0    0 -0.00000000000E+00 -0.00000000000E+00 -0.74505805969E-08  0.93827000000E+00  0.93827000000E+00 0. -1.
     999902    2    1    2    0    0  0.23320884188E-01 -0.33316941325E-02 -0.36832043163E-02  0.10200861367E+01  0.10198074310E+01 0.  0.
     999903    2    3    3    0    0 -0.48756666663E-01 -0.11046665252E+00 -0.43202179111E-01  0.12978572555E+00  0.19945235373E-01 0.  0.
         14    1    1    2    0    0 -0.23320884188E-01  0.33316941325E-02  0.36832043163E-02  0.23843863344E-01  0.00000000000E+00 0. -1.
     999901    1    3    3    0    0  0.72077550851E-01  0.10713495839E+00  0.39518974795E-01  0.89030041111E+00  0.88000000000E+00 0.  1.
        -11    1    4    4    0    0 -0.40434276276E-02 -0.21920640118E-01 -0.20446465451E-02  0.22389851957E-01  0.51100000000E-03 0.  1.
         11    1    4    4    0    0 -0.44713239035E-01 -0.88546012401E-01 -0.41157532566E-01  0.10739587359E+00  0.51100000000E-03 0. -1.
</event>
<event>
 8    1  0.1123191E+005  0.1043930E+01  0.7957747E-01            NaN
         13   -1    0    0    0    0  0.00000000000E+00  0.00000000000E+00  0.74505805969E-08  0.10566000000E+00  0.10566000000E+00 0. -1.
     999900   -1    0    0    0    0 -0.00000000000E+00 -0.00000000000E+00 -0.74505805969E-08  0.93827000000E+00  0.93827000000E+00 0.  1.
     999902    2    1    2    0    0  0.86916341795E-02 -0.14187311874E-01  0.18848956542E-01  0.10187882521E+01  0.10184779797E+01 0.  0.
     999903    2    3    3    0    0  0.76413832962E-01 -0.92488717572E-02  0.10535016342E+00  0.13194376566E+00  0.19643952465E-01 0.  0.
         14    1    1    2    0    0 -0.86916341795E-02  0.14187311874E-01 -0.18848956542E-01  0.25141747864E-01  0.00000000000E+00 0.  1.
     999901    1    3    3    0    0 -0.67722198783E-01 -0.49384401171E-02 -0.86501206874E-01  0.88684448647E+00  0.88000000000E+00 0.  1.
        -11    1    4    4    0    0  0.55424924860E-01  0.22805441709E-02  0.72522503125E-01  0.91306613988E-01  0.51100000000E-03 0.  1.
         11    1    4    4    0    0  0.20988908102E-01 -0.11529415928E-01  0.32827660292E-01  0.40637151674E-01  0.51100000000E-03 0. -1.
</event>
<event>
 8    1  0.1123191E+005  0.1043930E+01  0.7957747E-01            NaN
         13   -1    0    0    0    0  0.00000000000E+00  0.00000000000E+00  0.74505805969E-08  0.10566000000E+00  0.10566000000E+00 0. -1.
     999900   -1    0    0    0    0 -0.00000000000E+00 -0.00000000000E+00 -0.74505805969E-08  0.93827000000E+00  0.93827000000E+00 0. -1.
     999902    2    1    2    0    0 -0.24239276110E-01 -0.80695672017E-02 -0.22459047947E-02  0.10182842497E+01  0.10179612510E+01 0.  0.
     999903    2    3    3    0    0 -0.11408752143E+00  0.56150868555E-01 -0.24186014819E-01  0.13110989253E+00  0.20879607800E-01 0.  0.
         14    1    1    2    0    0  0.24239276110E-01  0.80695672017E-02  0.22459047947E-02  0.25645750321E-01  0.00000000000E+00 0. -1.
     999901    1    3    3    0    0  0.89848245316E-01 -0.64220435757E-01  0.21940110024E-01  0.88717435715E+00  0.88000000000E+00 0. -1.
        -11    1    4    4    0    0 -0.10766297951E+00  0.50545721227E-01 -0.17408051320E-01  0.12020602507E+00  0.51100000000E-03 0.  1.
         11    1    4    4    0    0 -0.64245419147E-02  0.56051473283E-02 -0.67779634983E-02  0.10903867459E-01  0.51100000000E-03 0. -1.
</event>
<event>
 8    1  0.1123191E+005  0.1043930E+01  0.7957747E-01            NaN
         13   -1    0    0    0    0  0.00000000000E+00  0.00000000000E+00  0.74505805969E-08  0.10566000000E+00  0.10566000000E+00 0. -1.
     999900   -1    0    0    0    0 -0.00000000000E+00 -0.00000000000E+00 -0.74505805969E-08  0.93827000000E+00  0.93827000000E+00 0. -1.
     999902    2    1    2    0    0  0.18592839956E-01  0.62475987051E-02 -0.13847282230E-01  0.10199201393E+01  0.10196374930E+01 0.  0.
     999903    2    3    3    0    0  0.91775395576E-01 -0.88680879834E-01  0.21498114401E-01  0.13109147212E+00  0.20875427134E-01 0.  0.
         14    1    1    2    0    0 -0.18592839956E-01 -0.62475987051E-02  0.13847282230E-01  0.24009860732E-01  0.00000000000E+00 0. -1.
     999901    1    3    3    0    0 -0.73182555620E-01  0.94928478539E-01 -0.35345396631E-01  0.88882866715E+00  0.88000000000E+00 0.  1.
        -11    1    4    4    0    0  0.46474359410E-01 -0.44394301162E-01  0.26302375498E-03  0.64273247629E-01  0.51100000000E-03 0.  1.
         11    1    4    4    0    0  0.45301036166E-01 -0.44286578672E-01  0.21235090646E-01  0.66818224489E-01  0.51100000000E-03 0. -1.
</event>
<event>
 8    1  0.1239398E+005  0.1043930E+01  0.7957747E-01            NaN
         13   -1    0    0    0    0  0.00000000000E+00  0.00000000000E+00  0.74505805969E-08  0.10566000000E+00  0.10566000000E+00 0. -1.
     999900   -1    0    0    0    0 -0.00000000000E+00 -0.00000000000E+00 -0.74505805969E-08  0.93827000000E+00  0.93827000000E+00 0. -1.
     999902    2    1    2    0    0 -0.36707824259E-02  0.20220908090E-01  0.93769529860E-02  0.10213404667E+01  0.10210906237E+01 0.  0.
     999903    2    3    3    0    0 -0.12963391359E+00  0.41409963869E-02  0.15829584813E-01  0.13220217012E+00  0.20118116843E-01 0.  0.
         14    1    1    2    0    0  0.36707824259E-02 -0.20220908090E-01 -0.93769529860E-02  0.22589533304E-01  0.00000000000E+00 0.  1.
     999901    1    3    3    0    0  0.12596313117E+00  0.16079911703E-01 -0.64526318266E-02  0.88913829657E+00  0.88000000000E+00 0.  1.
        -11    1    4    4    0    0 -0.58652940766E-01  0.26151488387E-02  0.17229230249E-01  0.61189165381E-01  0.51100000000E-03 0.  1.
         11    1    4    4    0    0 -0.70980972827E-01  0.15258475482E-02 -0.13996454368E-02  0.71013004743E-01  0.51100000000E-03 0. -1.
</event>
<event>
 8    1  0.1123191E+005  0.1043930E+01  0.7957747E-01            NaN
         13   -1    0    0    0    0  0.00000000000E+00  0.00000000000E+00  0.74505805969E-08  0.10566000000E+00  0.10566000000E+00 0. -1.
     999900   -1    0    0    0    0 -0.00000000000E+00 -0.00000000000E+00 -0.74505805969E-08  0.93827000000E+00  0.93827000000E+00 0. -1.
     999902    2    1    2    0    0  0.14408800982E-01  0.18171296639E-01 -0.17966648188E-02  0.10206697856E+01  0.10204047108E+01 0.  0.
     999903    2    3    3    0    0  0.43953393332E-01  0.12241638546E+00  0.23442924907E-01  0.13366529954E+00  0.19979223170E-01 0.  0.
         14    1    1    2    0    0 -0.14408800982E-01 -0.18171296639E-01  0.17966648188E-02  0.23260214353E-01  0.00000000000E+00 0. -1.
     999901    1    3    3    0    0 -0.29544592350E-01 -0.10424508882E+00 -0.25239589725E-01  0.88700448610E+00  0.88000000000E+00 0.  1.
        -11    1    4    4    0    0  0.24718186127E-01  0.42095406067E-01  0.53302112989E-02  0.49108901544E-01  0.51100000000E-03 0.  1.
         11    1    4    4    0    0  0.19235207205E-01  0.80320979395E-01  0.18112713608E-01  0.84556397998E-01  0.51100000000E-03 0. -1.
</event>
<event>
 8    1  0.1123191E+005  0.1043930E+01  0.7957747E-01            NaN
         13   -1    0    0    0    0  0.00000000000E+00  0.00000000000E+00  0.74505805969E-08  0.10566000000E+00  0.10566000000E+00 0. -1.
     999900   -1    0    0    0    0 -0.00000000000E+00 -0.00000000000E+00 -0.74505805969E-08  0.93827000000E+00  0.93827000000E+00 0. -1.
     999902    2    1    2    0    0  0.43097062295E-03  0.22698986559E-01 -0.40829491101E-02  0.10208627028E+01  0.10206020565E+01 0.  0.
     999903    2    3    3    0    0  0.11757272851E+00  0.57319317775E-01 -0.56167340530E-02  0.13242412233E+00  0.19893461131E-01 0.  0.
         14    1    1    2    0    0 -0.43097062295E-03 -0.22698986559E-01  0.40829491101E-02  0.23067297195E-01  0.00000000000E+00 0. -1.
     999901    1    3    3    0    0 -0.11714175788E+00 -0.34620331216E-01  0.15337849430E-02  0.88843858047E+00  0.88000000000E+00 0.  1.
        -11    1    4    4    0    0  0.73554378021E-01  0.41522533730E-01  0.44474559891E-02  0.84583735547E-01  0.51100000000E-03 0.  1.
         11    1    4    4    0    0  0.44018350486E-01  0.15796784044E-01 -0.10064190042E-01  0.47840386786E-01  0.51100000000E-03 0. -1.
</event>
<event>
 8    1  0.1123191E+005  0.1043930E+01  0.7957747E-01            NaN
         13   -1    0    0    0    0  0.00000000000E+00  0.00000000000E+00  0.74505805969E-08  0.10566000000E+00  0.10566000000E+00 0. -1.
     999900   -1    0    0    0    0 -0.00000000000E+00 -0.00000000000E+00 -0.74505805969E-08  0.93827000000E+00  0.93827000000E+00 0.  1.
     999902    2    1    2    0    0  0.10938015465E-03 -0.13859801742E-01 -0.18476959580E-01  0.10208322922E+01  0.10205709504E+01 0.  0.
     999903    2    3    3    0    0  0.26376779190E-01  0.46609186640E-02  0.12432931307E+00  0.12874113948E+00  0.19976092281E-01 0.  0.
         14    1    1    2    0    0 -0.10938015465E-03  0.13859801742E-01  0.18476959580E-01  0.23097707758E-01  0.00000000000E+00 0.  1.
     999901    1    3    3    0    0 -0.26267399036E-01 -0.18520720406E-01 -0.14280627265E+00  0.89209115277E+00  0.88000000000E+00 0.  1.
        -11    1    4    4    0    0  0.26557109581E-01  0.30688736334E-03  0.82238454818E-01  0.86422212544E-01  0.51100000000E-03 0. -1.
         11    1    4    4    0    0 -0.18033039042E-03  0.43540313006E-02  0.42090858248E-01  0.42318926932E-01  0.51100000000E-03 0.  1.
</event>
<event>
 8    1  0.1123191E+005  0.1043930E+01  0.7957747E-01            NaN
         13   -1    0    0    0    0  0.00000000000E+00  0.00000000000E+00  0.74505805969E-08  0.10566000000E+00  0.10566000000E+00 0.  1.
     999900   -1    0    0    0    0 -0.00000000000E+00 -0.00000000000E+00 -0.74505805969E-08  0.93827000000E+00  0.93827000000E+00 0.  1.
     999902    2    1    2    0    0 -0.21805300004E-01  0.90159056324E-02 -0.12449583045E-01  0.10172513610E+01  0.10169014611E+01 0.  0.
     999903    2    3    3    0    0  0.24494125390E-02  0.82484579095E-01  0.94956070505E-01  0.12735141632E+00  0.19799558173E-01 0.  0.
         14    1    1    2    0    0  0.21805300004E-01 -0.90159056324E-02  0.12449583045E-01  0.26678639033E-01  0.00000000000E+00 0.  1.
     999901    1    3    3    0    0 -0.24254712543E-01 -0.73468673463E-01 -0.10740565355E+00  0.88989994464E+00  0.88000000000E+00 0.  1.
        -11    1    4    4    0    0 -0.52593070040E-02  0.16071912390E-01  0.28096986061E-01  0.32797384420E-01  0.51100000000E-03 0.  1.
         11    1    4    4    0    0  0.77087195430E-02  0.66412666705E-01  0.66859084443E-01  0.94554031905E-01  0.51100000000E-03 0. -1.
</event>
<event>
 8    1  0.1123191E+005  0.1043930E+01  0.7957747E-01            NaN
         13   -1    0    0    0    0  0.00000000000E+00  0.00000000000E+00  0.74505805969E-08  0.10566000000E+00  0.10566000000E+00 0. -1.
     999900   -1    0    0    0    0 -0.00000000000E+00 -0.00000000000E+00 -0.74505805969E-08  0.93827000000E+00  0.93827000000E+00 0.  1.
     999902    2    1    2    0    0  0.22149846684E-02  0.21923665121E-01  0.11104490627E-01  0.10192548513E+01  0.10189561271E+01 0.  0.
     999903    2    3    3    0    0  0.27388651556E-01 -0.89487838979E-02  0.12599949161E+00  0.13089249123E+00  0.20658010692E-01 0.  0.
         14    1    1    2    0    0 -0.22149846684E-02 -0.21923665121E-01 -0.11104490627E-01  0.24675148662E-01  0.00000000000E+00 0. -1.
     999901    1    3    3    0    0 -0.25173666887E-01  0.30872449019E-01 -0.11489500098E+00  0.88836236011E+00  0.88000000000E+00 0.  1.
        -11    1    4    4    0    0 -0.28948698362E-02  0.14716175458E-02  0.87666791584E-02  0.93627834556E-02  0.51100000000E-03 0.  1.
         11    1    4    4    0    0  0.30283521392E-01 -0.10420401444E-01  0.11723281245E+00  0.12152970777E+00  0.51100000000E-03 0. -1.
</event>
<event>
 8    1  0.1123191E+005  0.1043930E+01  0.7957747E-01            NaN
         13   -1    0    0    0    0  0.00000000000E+00  0.00000000000E+00  0.74505805969E-08  0.10566000000E+00  0.10566000000E+00 0.  1.
     999900   -1    0    0    0    0 -0.00000000000E+00 -0.00000000000E+00 -0.74505805969E-08  0.93827000000E+00  0.93827000000E+00 0. -1.
     999902    2    1    2    0    0  0.53138980442E-02  0.38921039022E-02 -0.22464564019E-01  0.10205196898E+01  0.10202511430E+01 0.  0.
     999903    2    3    3    0    0 -0.94218320562E-01  0.83289981597E-02 -0.90224428228E-01  0.13230927121E+00  0.20465377068E-01 0.  0.
         14    1    1    2    0    0 -0.53138980442E-02 -0.38921039022E-02  0.22464564019E-01  0.23410310159E-01  0.00000000000E+00 0.  1.
     999901    1    3    3    0    0  0.99532218606E-01 -0.44368942575E-02  0.67759864209E-01  0.88821041863E+00  0.88000000000E+00 0.  1.
        -11    1    4    4    0    0 -0.29829900515E-01 -0.68337670424E-02 -0.29660313319E-01  0.42620636362E-01  0.51100000000E-03 0.  1.
         11    1    4    4    0    0 -0.64388420047E-01  0.15162765202E-01 -0.60564114909E-01  0.89688634845E-01  0.51100000000E-03 0. -1.
</event>
<event>
 8    1  0.1123191E+005  0.1043930E+01  0.7957747E-01            NaN
         13   -1    0    0    0    0  0.00000000000E+00  0.00000000000E+00  0.74505805969E-08  0.10566000000E+00  0.10566000000E+00 0. -1.
     999900   -1    0    0    0    0 -0.00000000000E+00 -0.00000000000E+00 -0.74505805969E-08  0.93827000000E+00  0.93827000000E+00 0. -1.
     999902    2    1    2    0    0  0.14656640327E-01 -0.13451039410E-01 -0.14618649681E-01  0.10192429085E+01  0.10189438915E+01 0.  0.
     999903    2    3    3    0    0  0.56237427206E-05 -0.53576485213E-01 -0.11898789797E+00  0.13204640060E+00  0.20191390472E-01 0.  0.
         14    1    1    2    0    0 -0.14656640327E-01  0.13451039410E-01  0.14618649681E-01  0.24687091473E-01  0.00000000000E+00 0. -1.
     999901    1    3    3    0    0  0.14651016584E-01  0.40125445803E-01  0.10436924829E+00  0.88719650793E+00  0.88000000000E+00 0.  1.
        -11    1    4    4    0    0  0.96918061442E-02 -0.20653399623E-01 -0.43509056316E-01  0.49130368662E-01  0.51100000000E-03 0. -1.
         11    1    4    4    0    0 -0.96861824015E-02 -0.32923085591E-01 -0.75478841653E-01  0.82916031940E-01  0.51100000000E-03 0.  1.
</event>
<event>
 8    1  0.1123191E+005  0.1043930E+01  0.7957747E-01            NaN
         13   -1    0    0    0    0  0.00000000000E+00  0.00000000000E+00  0.74505805969E-08  0.10566000000E+00  0.10566000000E+00 0.  1.
     999900   -1    0    0    0    0 -0.00000000000E+00 -0.00000000000E+00 -0.74505805969E-08  0.93827000000E+00  0.93827000000E+00 0.  1.
     999902    2    1    2    0    0  0.10923799615E-01  0.76331437877E-02  0.19336557742E-01  0.10204460321E+01  0.10201757730E+01 0.  0.
     999903    2    3    3    0    0 -0.10305197650E+00  0.40866569381E-01 -0.63906278897E-01  0.12858039876E+00  0.12614281903E-01 0.  0.
         14    1    1    2    0    0 -0.10923799615E-01 -0.76331437877E-02 -0.19336557742E-01  0.23483967881E-01  0.00000000000E+00 0.  1.
     999901    1    3    3    0    0  0.11397577612E+00 -0.33233425593E-01  0.83242836638E-01  0.89186563336E+00  0.88000000000E+00 0. -1.
        -11    1    4    4    0    0 -0.88694056552E-02  0.13090309707E-02 -0.85156379594E-02  0.12375666835E-01  0.51100000000E-03 0. -1.
         11    1    4    4    0    0 -0.94182570850E-01  0.39557538410E-01 -0.55390640938E-01  0.11620473192E+00  0.51100000000E-03 0.  1.
</event>
<event>
 8    1  0.1123191E+005  0.1043930E+01  0.7957747E-01            NaN
         13   -1    0    0    0    0  0.00000000000E+00  0.00000000000E+00  0.74505805969E-08  0.10566000000E+00  0.10566000000E+00 0.  1.
     999900   -1    0    0    0    0 -0.00000000000E+00 -0.00000000000E+00 -0.74505805969E-08  0.93827000000E+00  0.93827000000E+00 0.  1.
     999902    2    1    2    0    0  0.14830545939E-01  0.13720257776E-01  0.12418476558E-01  0.10202148334E+01  0.10199391635E+01 0.  0.
     999903    2    3    3    0    0 -0.74336865709E-01 -0.94612183230E-01 -0.37652123204E-01  0.12769379162E+00  0.20262951871E-01 0.  0.
         14    1    1    2    0    0 -0.14830545939E-01 -0.13720257776E-01 -0.12418476558E-01  0.23715166588E-01  0.00000000000E+00 0. -1.
     999901    1    3    3    0    0  0.89167411647E-01  0.10833244101E+00  0.50070599762E-01  0.89252104179E+00  0.88000000000E+00 0.  1.
        -11    1    4    4    0    0 -0.45991529194E-01 -0.43969144439E-01 -0.24502158345E-01  0.68184479941E-01  0.51100000000E-03 0. -1.
         11    1    4    4    0    0 -0.28345336515E-01 -0.50643038791E-01 -0.13149964859E-01  0.59509311682E-01  0.51100000000E-03 0.  1.
</event>
<event>
 8    1  0.1123191E+005  0.1043930E+01  0.7957747E-01            NaN
         13   -1    0    0    0    0  0.00000000000E+00  0.00000000000E+00  0.74505805969E-08  0.10566000000E+00  0.10566000000E+00 0.  1.
     999900   -1    0    0    0    0 -0.00000000000E+00 -0.00000000000E+00 -0.74505805969E-08  0.93827000000E+00  0.93827000000E+00 0. -1.
     999902    2    1    2    0    0 -0.28132987164E-02 -0.18792369460E-02 -0.20987220728E-01  0.10226718342E+01  0.10224508647E+01 0.  0.
     999903    2    3    3    0    0  0.41593973076E-01  0.52718918122E-01  0.10968025086E+00  0.13024427269E+00  0.20602674962E-01 0.  0.
         14    1    1    2    0    0  0.28132987164E-02  0.18792369460E-02  0.20987220728E-01  0.21258165844E-01  0.00000000000E+00 0.  1.
     999901    1    3    3    0    0 -0.44407271793E-01 -0.54598155068E-01 -0.13066747159E+00  0.89242756146E+00  0.88000000000E+00 0. -1.
        -11    1    4    4    0    0  0.19112330785E-01  0.23143191565E-01  0.30575019232E-01  0.42848353829E-01  0.51100000000E-03 0.  1.
         11    1    4    4    0    0  0.22481642291E-01  0.29575726557E-01  0.79105231633E-01  0.87395918865E-01  0.51100000000E-03 0. -1.
</event>
<event>
 8    1  0.1123191E+005  0.1043930E+01  0.7957747E-01            NaN
         13   -1    0    0    0    0  0.00000000000E+00  0.00000000000E+00  0.74505805969E-08  0.10566000000E+00  0.10566000000E+00 0.  1.
     999900   -1    0    0    0    0 -0.00000000000E+00 -0.00000000000E+00 -0.74505805969E-08  0.93827000000E+00  0.93827000000E+00 0.  1.
     999902    2    1    2    0    0 -0.12286369797E-01 -0.23283777376E-01  0.14129050972E-02  0.10175655263E+01  0.10172239256E+01 0.  0.
     999903    2    3    3    0    0 -0.32986777335E-02  0.65081652949E-01  0.10688178715E+00  0.12682824015E+00  0.20376046026E-01 0.  0.
         14    1    1    2    0    0  0.12286369797E-01  0.23283777376E-01 -0.14129050972E-02  0.26364473681E-01  0.00000000000E+00 0. -1.
     999901    1    3    3    0    0 -0.89876920631E-02 -0.88365430325E-01 -0.10546888205E+00  0.89073728617E+00  0.88000000000E+00 0.  1.
        -11    1    4    4    0    0 -0.10405331902E-01  0.19410716289E-01  0.36065195254E-01  0.42261167383E-01  0.51100000000E-03 0. -1.
         11    1    4    4    0    0  0.71066541686E-02  0.45670936660E-01  0.70816591892E-01  0.84567072771E-01  0.51100000000E-03 0.  1.
</event>
<event>
 8    1  0.1123191E+005  0.1043930E+01  0.7957747E-01            NaN
         13   -1    0    0    0    0  0.00000000000E+00  0.00000000000E+00  0.74505805969E-08  0.10566000000E+00  0.10566000000E+00 0.  1.
     999900   -1    0    0    0    0 -0.00000000000E+00 -0.00000000000E+00 -0.74505805969E-08  0.93827000000E+00  0.93827000000E+00 0.  1.
     999902    2    1    2    0    0  0.11841356115E-01  0.17045149125E-01  0.10151706708E-01  0.10208256287E+01  0.10205641343E+01 0.  0.
     999903    2    3    3    0    0  0.46156150624E-01  0.37740888159E-03 -0.12040443688E+00  0.13037617742E+00  0.19240232311E-01 0.  0.
         14    1    1    2    0    0 -0.11841356115E-01 -0.17045149125E-01 -0.10151706708E-01  0.23104371284E-01  0.00000000000E+00 0. -1.
     999901    1    3    3    0    0 -0.34314794509E-01  0.16667740243E-01  0.13055614359E+00  0.89044945130E+00  0.88000000000E+00 0. -1.
        -11    1    4    4    0    0  0.93431232779E-02  0.14808461037E-02 -0.50302288282E-01  0.51186601618E-01  0.51100000000E-03 0. -1.
         11    1    4    4    0    0  0.36813027346E-01 -0.11034372221E-02 -0.70102148600E-01  0.79189575800E-01  0.51100000000E-03 0.  1.
</event>
<event>
 8    1  0.1123191E+005  0.1043930E+01  0.7957747E-01            NaN
         13   -1    0    0    0    0  0.00000000000E+00  0.00000000000E+00  0.74505805969E-08  0.10566000000E+00  0.10566000000E+00 0. -1.
     999900   -1    0    0    0    0 -0.00000000000E+00 -0.00000000000E+00 -0.74505805969E-08  0.93827000000E+00  0.93827000000E+00 0. -1.
     999902    2    1    2    0    0  0.17794203126E-01 -0.63638194677E-02  0.25037733634E-01  0.10125609074E+01  0.10120748842E+01 0.  0.
     999903    2    3    3    0    0  0.65907113922E-01 -0.12406633740E-01  0.10638079571E+00  0.12748008539E+00  0.20895603595E-01 0.  0.
         14    1    1    2    0    0 -0.17794203126E-01  0.63638194677E-02 -0.25037733634E-01  0.31369092570E-01  0.00000000000E+00 0.  1.
     999901    1    3    3    0    0 -0.48112910796E-01  0.60428142723E-02 -0.81343062077E-01  0.88508082204E+00  0.88000000000E+00 0. -1.
        -11    1    4    4    0    0  0.61161123573E-01 -0.15541358233E-01  0.10313808356E+00  0.12091295321E+00  0.51100000000E-03 0.  1.
         11    1    4    4    0    0  0.47459903491E-02  0.31347244928E-02  0.32427121531E-02  0.65671321859E-02  0.51100000000E-03 0. -1.
</event>
<event>
 8    1  0.1123191E+005  0.1043930E+01  0.7957747E-01            NaN
         13   -1    0    0    0    0  0.00000000000E+00  0.00000000000E+00  0.74505805969E-08  0.10566000000E+00  0.10566000000E+00 0.  1.
     999900   -1    0    0    0    0 -0.00000000000E+00 -0.00000000000E+00 -0.74505805969E-08  0.93827000000E+00  0.93827000000E+00 0. -1.
     999902    2    1    2    0    0 -0.13851129416E-01  0.17915205233E-01 -0.78669127291E-02  0.10199571679E+01  0.10196754031E+01 0.  0.
     999903    2    3    3    0    0  0.11293613987E+00  0.61146404611E-01  0.49389693593E-02  0.12972801822E+00  0.17649668768E-01 0.  0.
         14    1    1    2    0    0  0.13851129416E-01 -0.17915205233E-01  0.78669127291E-02  0.23972832135E-01  0.00000000000E+00 0. -1.
     999901    1    3    3    0    0 -0.12678726929E+00 -0.43231199378E-01 -0.12805882088E-01  0.89022914964E+00  0.88000000000E+00 0. -1.
        -11    1    4    4    0    0  0.93766768650E-01  0.54928544789E-01 -0.11209762144E-02  0.10867782499E+00  0.51100000000E-03 0. -1.
         11    1    4    4    0    0  0.19169371225E-01  0.62178598222E-02  0.60599455736E-02  0.21050193236E-01  0.51100000000E-03 0.  1.
</event>
<event>
 8    1  0.1123191E+005  0.1043930E+01  0.7957747E-01            NaN
         13   -1    0    0    0    0  0.00000000000E+00  0.00000000000E+00  0.74505805969E-08  0.10566000000E+00  0.10566000000E+00 0. -1.
     999900   -1    0    0    0    0 -0.00000000000E+00 -0.00000000000E+00 -0.74505805969E-08  0.93827000000E+00  0.93827000000E+00 0.  1.
     999902    2    1    2    0    0  0.63124112845E-02 -0.69862404500E-02  0.21092050043E-01  0.10208317605E+01  0.10205704065E+01 0.  0.
     999903    2    3    3    0    0 -0.56236746864E-01 -0.27452988094E-01  0.11628229998E+00  0.13325502095E+00  0.17863064348E-01 0.  0.
         14    1    1    2    0    0 -0.63124112845E-02  0.69862404500E-02 -0.21092050043E-01  0.23098239475E-01  0.00000000000E+00 0.  1.
     999901    1    3    3    0    0  0.62549158148E-01  0.20466747644E-01 -0.95190249937E-01  0.88757673957E+00  0.88000000000E+00 0.  1.
        -11    1    4    4    0    0 -0.39181181898E-01 -0.96602154855E-02  0.69172778645E-01  0.80085074794E-01  0.51100000000E-03 0.  1.
         11    1    4    4    0    0 -0.17055564965E-01 -0.17792772609E-01  0.47109521334E-01  0.53169946160E-01  0.51100000000E-03 0. -1.
</event>
<event>
 8    1  0.1123191E+005  0.1043930E+01  0.7957747E-01            NaN
         13   -1    0    0    0    0  0.00000000000E+00  0.00000000000E+00  0.74505805969E-08  0.10566000000E+00  0.10566000000E+00 0.  1.
     999900   -1    0    0    0    0 -0.00000000000E+00 -0.00000000000E+00 -0.74505805969E-08  0.93827000000E+00  0.93827000000E+00 0. -1.
     999902    2    1    2    0    0  0.11265239611E-01 -0.36471160045E-02  0.20480832391E-01  0.10202726211E+01  0.10199983088E+01 0.  0.
     999903    2    3    3    0    0 -0.56402863819E-01 -0.11583548866E+00  0.32453754130E-02  0.13040619064E+00  0.19902226390E-01 0.  0.
         14    1    1    2    0    0 -0.11265239611E-01  0.36471160045E-02 -0.20480832391E-01  0.23657378850E-01  0.00000000000E+00 0. -1.
     999901    1    3    3    0    0  0.67668103430E-01  0.11218837265E+00  0.17235456978E-01  0.88986643051E+00  0.88000000000E+00 0. -1.
        -11    1    4    4    0    0 -0.19731868099E-01 -0.54235248117E-01 -0.63999118503E-02  0.58069172111E-01  0.51100000000E-03 0.  1.
         11    1    4    4    0    0 -0.36670995720E-01 -0.61600240539E-01  0.96452872633E-02  0.72337018524E-01  0.51100000000E-03 0. -1.
</event>
<event>
 8    1  0.1123191E+005  0.1043930E+01  0.7957747E-01            NaN
         13   -1    0    0    0    0  0.00000000000E+00  0.00000000000E+00  0.74505805969E-08  0.10566000000E+00  0.10566000000E+00 0. -1.
     999900   -1    0    0    0    0 -0.00000000000E+00 -0.00000000000E+00 -0.74505805969E-08  0.93827000000E+00  0.93827000000E+00 0.  1.
     999902    2    1    2    0    0  0.26176329556E-02  0.20339026996E-01 -0.12921076666E-03  0.10234228130E+01  0.10232173325E+01 0.  0.
     999903    2    3    3    0    0 -0.23152967270E-01 -0.80202733097E-01 -0.10008901366E+00  0.13170271596E+00  0.18954061461E-01 0.  0.
         14    1    1    2    0    0 -0.26176329556E-02 -0.20339026996E-01  0.12921076666E-03  0.20507186956E-01  0.00000000000E+00 0. -1.
     999901    1    3    3    0    0  0.25770600225E-01  0.10054176009E+00  0.99959802889E-01  0.89172009709E+00  0.88000000000E+00 0.  1.
        -11    1    4    4    0    0 -0.23095009632E-01 -0.54793743434E-01 -0.77624126489E-01  0.97782922454E-01  0.51100000000E-03 0.  1.
         11    1    4    4    0    0 -0.57957637266E-04 -0.25408989663E-01 -0.22464887167E-01  0.33919793501E-01  0.51100000000E-03 0. -1.
</event>
<event>
 8    1  0.1123191E+005  0.1043930E+01  0.7957747E-01            NaN
         13   -1    0    0    0    0  0.00000000000E+00  0.00000000000E+00  0.74505805969E-08  0.10566000000E+00  0.10566000000E+00 0.  1.
     999900   -1    0    0    0    0 -0.00000000000E+00 -0.00000000000E+00 -0.74505805969E-08  0.93827000000E+00  0.93827000000E+00 0. -1.
     999902    2    1    2    0    0  0.23172980931E-01  0.46660362143E-02  0.83813701347E-03  0.10202770633E+01  0.10200028552E+01 0.  0.
     999903    2    3    3    0    0 -0.38698844684E-01  0.94816211360E-01  0.77922528090E-01  0.13016629482E+00  0.19586459764E-01 0.  0.
         14    1    1    2    0    0 -0.23172980931E-01 -0.46660362143E-02 -0.83813701347E-03  0.23652936664E-01  0.00000000000E+00 0. -1.
     999901    1    3    3    0    0  0.61871825615E-01 -0.90150175146E-01 -0.77084391077E-01  0.89011076852E+00  0.88000000000E+00 0. -1.
        -11    1    4    4    0    0 -0.13114331573E-01  0.14531819292E-01  0.10307868319E-01  0.22128550220E-01  0.51100000000E-03 0.  1.
         11    1    4    4    0    0 -0.25584513111E-01  0.80284392069E-01  0.67614659771E-01  0.10803774460E+00  0.51100000000E-03 0. -1.
</event>
<event>
 8    1  0.1123191E+005  0.1043930E+01  0.7957747E-01            NaN
         13   -1    0    0    0    0  0.00000000000E+00  0.00000000000E+00  0.74505805969E-08  0.10566000000E+00  0.10566000000E+00 0.  1.
     999900   -1    0    0    0    0 -0.00000000000E+00 -0.00000000000E+00 -0.74505805969E-08  0.93827000000E+00  0.93827000000E+00 0. -1.
     999902    2    1    2    0    0 -0.27428675561E-02 -0.17934534186E-01 -0.14660558215E-01  0.10206039886E+01  0.10203373946E+01 0.  0.
     999903    2    3    3    0    0  0.78299473532E-01 -0.54368081585E-01 -0.90373122659E-01  0.13289477001E+00  0.20174804726E-01 0.  0.
         14    1    1    2    0    0  0.27428675561E-02  0.17934534186E-01  0.14660558215E-01  0.23326011363E-01  0.00000000000E+00 0.  1.
     999901    1    3    3    0    0 -0.81042341088E-01  0.36433547399E-01  0.75712564444E-01  0.88770921863E+00  0.88000000000E+00 0.  1.
        -11    1    4    4    0    0  0.99619202465E-02 -0.65882916387E-02 -0.22094246808E-01  0.25120953499E-01  0.51100000000E-03 0. -1.
         11    1    4    4    0    0  0.68337553285E-01 -0.47779789946E-01 -0.68278875852E-01  0.10777381651E+00  0.51100000000E-03 0.  1.
</event>
<event>
 8    1  0.1123191E+005  0.1043930E+01  0.7957747E-01            NaN
         13   -1    0    0    0    0  0.00000000000E+00  0.00000000000E+00  0.74505805969E-08  0.10566000000E+00  0.10566000000E+00 0.  1.
     999900   -1    0    0    0    0 -0.00000000000E+00 -0.00000000000E+00 -0.74505805969E-08  0.93827000000E+00  0.93827000000E+00 0.  1.
     999902    2    1    2    0    0 -0.20060851702E-01  0.11446702123E-01 -0.85265586344E-04  0.10208329865E+01  0.10205716606E+01 0.  0.
     999903    2    3    3    0    0  0.15850176218E-02 -0.12574897302E+00  0.24023470512E-01  0.12961335699E+00  0.20178668872E-01 0.  0.
         14    1    1    2    0    0  0.20060851702E-01 -0.11446702123E-01  0.85265586344E-04  0.23097013459E-01  0.00000000000E+00 0. -1.
     999901    1    3    3    0    0 -0.21645869324E-01  0.13719567515E+00 -0.24108736099E-01  0.89121962955E+00  0.88000000000E+00 0.  1.
        -11    1    4    4    0    0 -0.46346566622E-02 -0.29179695290E-01  0.12767797638E-01  0.32190253760E-01  0.51100000000E-03 0. -1.
         11    1    4    4    0    0  0.62196742840E-02 -0.96569277735E-01  0.11255672875E-01  0.97423103231E-01  0.51100000000E-03 0.  1.
</event>
<event>
 8    1  0.1123191E+005  0.1043930E+01  0.7957747E-01            NaN
         13   -1    0    0    0    0  0.00000000000E+00  0.00000000000E+00  0.74505805969E-08  0.10566000000E+00  0.10566000000E+00 0. -1.
     999900   -1    0    0    0    0 -0.00000000000E+00 -0.00000000000E+00 -0.74505805969E-08  0.93827000000E+00  0.93827000000E+00 0.  1.
     999902    2    1    2    0    0  0.73785206448E-02  0.51866310994E-02  0.21892059933E-01  0.10202528803E+01  0.10199781046E+01 0.  0.
     999903    2    3    3    0    0  0.54956001361E-01  0.25388717392E-01 -0.11187136360E+00  0.12864512213E+00  0.19225410196E-01 0.  0.
         14    1    1    2    0    0 -0.73785206448E-02 -0.51866310994E-02 -0.21892059933E-01  0.23677119698E-01  0.00000000000E+00 0.  1.
     999901    1    3    3    0    0 -0.47577480716E-01 -0.20202086292E-01  0.13376342353E+00  0.89160775817E+00  0.88000000000E+00 0. -1.
        -11    1    4    4    0    0  0.32272466887E-01  0.16197631531E-01 -0.84672442794E-01  0.92051936840E-01  0.51100000000E-03 0.  1.
         11    1    4    4    0    0  0.22683534474E-01  0.91910858607E-02 -0.27198920805E-01  0.36593185288E-01  0.51100000000E-03 0. -1.
</event>
<event>
 8    1  0.1123191E+005  0.1043930E+01  0.7957747E-01            NaN
         13   -1    0    0    0    0  0.00000000000E+00  0.00000000000E+00  0.74505805969E-08  0.10566000000E+00  0.10566000000E+00 0. -1.
     999900   -1    0    0    0    0 -0.00000000000E+00 -0.00000000000E+00 -0.74505805969E-08  0.93827000000E+00  0.93827000000E+00 0. -1.
     999902    2    1    2    0    0 -0.15904634881E-01  0.14963274408E-01 -0.99506492777E-02  0.10199326582E+01  0.10196503101E+01 0.  0.
     999903    2    3    3    0    0  0.20601552616E-01  0.11735281651E+00 -0.53338243893E-01  0.13218336735E+00  0.20769372395E-01 0.  0.
         14    1    1    2    0    0  0.15904634881E-01 -0.14963274408E-01  0.99506492777E-02  0.23997341786E-01  0.00000000000E+00 0. -1.
     999901    1    3    3    0    0 -0.36506187497E-01 -0.10238954210E+00  0.43387594615E-01  0.88774929086E+00  0.88000000000E+00 0.  1.
        -11    1    4    4    0    0  0.25488623519E-02  0.48131557787E-01 -0.12446815661E-01  0.49782807227E-01  0.51100000000E-03 0.  1.
         11    1    4    4    0    0  0.18052690264E-01  0.69221258725E-01 -0.40891428231E-01  0.82400560126E-01  0.51100000000E-03 0. -1.
</event>
<event>
 7    1  0.1123191E+005  0.1043930E+01  0.7957747E-01            NaN
         13   -1    0    0    0    0  0.00000000000E+00  0.00000000000E+00  0.74505805969E-08  0.10566000000E+00  0.10566000000E+00 0. -1.
     999900   -1    0    0    0    0 -0.00000000000E+00 -0.00000000000E+00 -0.74505805969E-08  0.93827000000E+00  0.93827000000E+00 0. -1.
     999903    2    1    2    0    0  0.42233546369E-01 -0.46835910525E-01  0.96461576743E-01  0.11639635408E+00  0.16309521842E-01 0.  0.
         14    1    1    2    0    0 -0.62757216070E-02  0.40353859921E-01 -0.12863694903E-01  0.42816974891E-01  0.00000000000E+00 0.  1.
     999901    1    1    2    0    0 -0.35957824762E-01  0.64820506035E-02 -0.83597881840E-01  0.88471667103E+00  0.88000000000E+00 0. -1.
        -11    1    3    3    0    0  0.34618446819E-01 -0.27356904153E-01  0.68302027648E-01  0.81315835893E-01  0.51100000000E-03 0.  1.
         11    1    3    3    0    0  0.76150995497E-02 -0.19479006371E-01  0.28159549095E-01  0.35080518192E-01  0.51100000000E-03 0. -1.
</event>
<event>
 8    1  0.1123191E+005  0.1043930E+01  0.7957747E-01            NaN
         13   -1    0    0    0    0  0.00000000000E+00  0.00000000000E+00  0.74505805969E-08  0.10566000000E+00  0.10566000000E+00 0. -1.
     999900   -1    0    0    0    0 -0.00000000000E+00 -0.00000000000E+00 -0.74505805969E-08  0.93827000000E+00  0.93827000000E+00 0. -1.
     999902    2    1    2    0    0 -0.65909554269E-02  0.20961782756E-01 -0.53043388272E-03  0.10219500457E+01  0.10217136475E+01 0.  0.
     999903    2    3    3    0    0 -0.12755964987E+00 -0.27958162035E-01 -0.60488494568E-02  0.13231133313E+00  0.20410222863E-01 0.  0.
         14    1    1    2    0    0  0.65909554269E-02 -0.20961782756E-01  0.53043388272E-03  0.21979954273E-01  0.00000000000E+00 0.  1.
     999901    1    3    3    0    0  0.12096869444E+00  0.48919944791E-01  0.55184155741E-02  0.88963871259E+00  0.88000000000E+00 0.  1.
        -11    1    4    4    0    0 -0.10445232000E+00 -0.17693411164E-01 -0.11101941344E-01  0.10652163242E+00  0.51100000000E-03 0. -1.
         11    1    4    4    0    0 -0.23107329872E-01 -0.10264750871E-01  0.50530918870E-02  0.25789700713E-01  0.51100000000E-03 0.  1.
</event>
<event>
 8    1  0.1123191E+005  0.1043930E+01  0.7957747E-01            NaN
         13   -1    0    0    0    0  0.00000000000E+00  0.00000000000E+00  0.74505805969E-08  0.10566000000E+00  0.10566000000E+00 0.  1.
     999900   -1    0    0    0    0 -0.00000000000E+00 -0.00000000000E+00 -0.74505805969E-08  0.93827000000E+00  0.93827000000E+00 0.  1.
     999902    2    1    2    0    0  0.59271108340E-02  0.21837084729E-01  0.39607874027E-02  0.10209587843E+01  0.10207003295E+01 0.  0.
     999903    2    3    3    0    0 -0.80752380310E-01 -0.80499859011E-01 -0.56357747286E-01  0.12875672770E+00  0.20023112188E-01 0.  0.
         14    1    1    2    0    0 -0.59271108340E-02 -0.21837084729E-01 -0.39607874027E-02  0.22971215666E-01  0.00000000000E+00 0.  1.
     999901    1    3    3    0    0  0.86679491144E-01  0.10233694374E+00  0.60318534689E-01  0.89220205664E+00  0.88000000000E+00 0. -1.
        -11    1    4    4    0    0 -0.67946102773E-01 -0.56429352847E-01 -0.40028441126E-01  0.96971552348E-01  0.51100000000E-03 0.  1.
         11    1    4    4    0    0 -0.12806277537E-01 -0.24070506164E-01 -0.16329306160E-01  0.31785175350E-01  0.51100000000E-03 0. -1.
</event>
<event>
 8    1  0.1462382E+005  0.1043930E+01  0.7957747E-01            NaN
         13   -1    0    0    0    0  0.00000000000E+00  0.00000000000E+00  0.74505805969E-08  0.10566000000E+00  0.10566000000E+00 0.  1.
     999900   -1    0    0    0    0 -0.00000000000E+00 -0.00000000000E+00 -0.74505805969E-08  0.93827000000E+00  0.93827000000E+00 0. -1.
     999902    2    1    2    0    0 -0.18274607815E-01 -0.14197340433E-01  0.10270921044E-01  0.10186116749E+01  0.10182969737E+01 0.  0.
     999903    2    3    3    0    0  0.35453119696E-01 -0.77674392008E-01  0.96628300993E-01  0.13048240400E+00  0.19959817904E-01 0.  0.
         14    1    1    2    0    0  0.18274607815E-01  0.14197340433E-01 -0.10270921044E-01  0.25318325088E-01  0.00000000000E+00 0. -1.
     999901    1    3    3    0    0 -0.53727727511E-01  0.63477051575E-01 -0.86357379949E-01  0.88812927091E+00  0.88000000000E+00 0. -1.
        -11    1    4    4    0    0  0.28713042678E-01 -0.41840412881E-01  0.49476091935E-01  0.70874563590E-01  0.51100000000E-03 0.  1.
         11    1    4    4    0    0  0.67400770178E-02 -0.35833979127E-01  0.47152209057E-01  0.59607840409E-01  0.51100000000E-03 0. -1.
</event>
<event>
 8    1  0.1123191E+005  0.1043930E+01  0.7957747E-01            NaN
         13   -1    0    0    0    0  0.00000000000E+00  0.00000000000E+00  0.74505805969E-08  0.10566000000E+00  0.10566000000E+00 0. -1.
     999900   -1    0    0    0    0 -0.00000000000E+00 -0.00000000000E+00 -0.74505805969E-08  0.93827000000E+00  0.93827000000E+00 0. -1.
     999902    2    1    2    0    0  0.14068607596E-02  0.85285417400E-02  0.22308937001E-01  0.10200050350E+01  0.10197244076E+01 0.  0.
     999903    2    3    3    0    0  0.24711814612E-01  0.12466564605E+00  0.30241681665E-01  0.13203325822E+00  0.19131776713E-01 0.  0.
         14    1    1    2    0    0 -0.14068607596E-02 -0.85285417400E-02 -0.22308937001E-01  0.23924965027E-01  0.00000000000E+00 0.  1.
     999901    1    3    3    0    0 -0.23304953852E-01 -0.11613710431E+00 -0.79327446640E-02  0.88797177675E+00  0.88000000000E+00 0.  1.
        -11    1    4    4    0    0  0.11221749210E-01  0.19973918210E-01  0.40106222553E-02  0.23264377831E-01  0.51100000000E-03 0. -1.
         11    1    4    4    0    0  0.13490065402E-01  0.10469172784E+00  0.26231059410E-01  0.10876888039E+00  0.51100000000E-03 0.  1.
</event>
<event>
 8    1  0.1123191E+005  0.1043930E+01  0.7957747E-01            NaN
         13   -1    0    0    0    0  0.00000000000E+00  0.00000000000E+00  0.74505805969E-08  0.10566000000E+00  0.10566000000E+00 0. -1.
     999900   -1    0    0    0    0 -0.00000000000E+00 -0.00000000000E+00 -0.74505805969E-08  0.93827000000E+00  0.93827000000E+00 0. -1.
     999902    2    1    2    0    0 -0.19958279545E-01 -0.35960071824E-02  0.10975306395E-01  0.10208709120E+01  0.10206104533E+01 0.  0.
     999903    2    3    3    0    0 -0.72133586224E-01 -0.95099678389E-01 -0.53648970457E-01  0.13223629548E+00  0.19000597897E-01 0.  0.
         14    1    1    2    0    0  0.19958279545E-01  0.35960071824E-02 -0.10975306395E-01  0.23059088025E-01  0.00000000000E+00 0.  1.
     999901    1    3    3    0    0  0.52175306679E-01  0.91503671207E-01  0.64624276852E-01  0.88863461649E+00  0.88000000000E+00 0.  1.
        -11    1    4    4    0    0 -0.33975669983E-01 -0.57124787533E-01 -0.35942747398E-01  0.75562753477E-01  0.51100000000E-03 0. -1.
         11    1    4    4    0    0 -0.38157916241E-01 -0.37974890856E-01 -0.17706223059E-01  0.56673542005E-01  0.51100000000E-03 0.  1.
</event>
<event>
 8    1  0.1123191E+005  0.1043930E+01  0.7957747E-01            NaN
         13   -1    0    0    0    0  0.00000000000E+00  0.00000000000E+00  0.74505805969E-08  0.10566000000E+00  0.10566000000E+00 0.  1.
     999900   -1    0    0    0    0 -0.00000000000E+00 -0.00000000000E+00 -0.74505805969E-08  0.93827000000E+00  0.93827000000E+00 0. -1.
     999902    2    1    2    0    0 -0.15674985367E-01 -0.40902237639E-02  0.17809094345E-01  0.10198551389E+01  0.10195709418E+01 0.  0.
     999903    2    3    3    0    0 -0.97060555646E-01  0.86091490467E-01 -0.40058531914E-02  0.13124259982E+00  0.19392703651E-01 0.  0.
         14    1    1    2    0    0  0.15674985367E-01  0.40902237639E-02 -0.17809094345E-01  0.24074861122E-01  0.00000000000E+00 0. -1.
     999901    1    3    3    0    0  0.81385570280E-01 -0.90181714231E-01  0.21814947536E-01  0.88861253906E+00  0.88000000000E+00 0.  1.
        -11    1    4    4    0    0 -0.49299578306E-01  0.56071180381E-01 -0.48580606957E-02  0.74821705174E-01  0.51100000000E-03 0.  1.
         11    1    4    4    0    0 -0.47760977341E-01  0.30020310086E-01  0.85220750428E-03  0.56420894648E-01  0.51100000000E-03 0. -1.
</event>
<event>
 8    1  0.1123191E+005  0.1043930E+01  0.7957747E-01            NaN
         13   -1    0    0    0    0  0.00000000000E+00  0.00000000000E+00  0.74505805969E-08  0.10566000000E+00  0.10566000000E+00 0. -1.
     999900   -1    0    0    0    0 -0.00000000000E+00 -0.00000000000E+00 -0.74505805969E-08  0.93827000000E+00  0.93827000000E+00 0.  1.
     999902    2    1    2    0    0  0.93676834660E-02  0.24413826200E-01 -0.16905002019E-01  0.10127921212E+01  0.10123133474E+01 0.  0.
     999903    2    3    3    0    0 -0.95947991289E-01 -0.70581002143E-01  0.51240983974E-02  0.12116400924E+00  0.21604764642E-01 0.  0.
         14    1    1    2    0    0 -0.93676834660E-02 -0.24413826200E-01  0.16905002019E-01  0.31137878805E-01  0.00000000000E+00 0.  1.
     999901    1    3    3    0    0  0.10531567475E+00  0.94994828343E-01 -0.22029100416E-01  0.89162811195E+00  0.88000000000E+00 0.  1.
        -11    1    4    4    0    0 -0.52384854248E-01 -0.49901441753E-01 -0.22116303569E-02  0.72384247412E-01  0.51100000000E-03 0. -1.
         11    1    4    4    0    0 -0.43563137041E-01 -0.20679560390E-01  0.73357287544E-02  0.48779761829E-01  0.51100000000E-03 0.  1.
</event>
<event>
 8    1  0.1123191E+005  0.1043930E+01  0.7957747E-01            NaN
         13   -1    0    0    0    0  0.00000000000E+00  0.00000000000E+00  0.74505805969E-08  0.10566000000E+00  0.10566000000E+00 0.  1.
     999900   -1    0    0    0    0 -0.00000000000E+00 -0.00000000000E+00 -0.74505805969E-08  0.93827000000E+00  0.93827000000E+00 0. -1.
     999902    2    1    2    0    0 -0.17364021974E-01  0.10641188240E-02  0.15100921724E-01  0.10208935193E+01  0.10206335769E+01 0.  0.
     999903    2    3    3    0    0 -0.39330221857E-01  0.83174028368E-01 -0.90508858900E-01  0.13051271480E+00  0.19414681028E-01 0.  0.
         14    1    1    2    0    0  0.17364021974E-01 -0.10641188240E-02 -0.15100921724E-01  0.23036480740E-01  0.00000000000E+00 0. -1.
     999901    1    3    3    0    0  0.21966199883E-01 -0.82109909544E-01  0.10560978062E+00  0.89038080446E+00  0.88000000000E+00 0.  1.
        -11    1    4    4    0    0  0.51451829112E-03  0.15215242738E-01 -0.13734064525E-01  0.20509851048E-01  0.51100000000E-03 0. -1.
         11    1    4    4    0    0 -0.39844740148E-01  0.67958785630E-01 -0.76774794375E-01  0.11000286375E+00  0.51100000000E-03 0.  1.
</event>
<event>
 8    1  0.1123191E+005  0.1043930E+01  0.7957747E-01            NaN
         13   -1    0    0    0    0  0.00000000000E+00  0.00000000000E+00  0.74505805969E-08  0.10566000000E+00  0.10566000000E+00 0. -1.
     999900   -1    0    0    0    0 -0.00000000000E+00 -0.00000000000E+00 -0.74505805969E-08  0.93827000000E+00  0.93827000000E+00 0.  1.
     999902    2    1    2    0    0  0.18818699101E-01 -0.92343006165E-02 -0.12213523405E-01  0.10196692107E+01  0.10193805537E+01 0.  0.
     999903    2    3    3    0    0 -0.60065050678E-01  0.97757023471E-01  0.51598966619E-01  0.12740141273E+00  0.20110212773E-01 0.  0.
         14    1    1    2    0    0 -0.18818699101E-01  0.92343006165E-02  0.12213523405E-01  0.24260789305E-01  0.00000000000E+00 0.  1.
     999901    1    3    3    0    0  0.78883749779E-01 -0.10699132409E+00 -0.63812490024E-01  0.89226779797E+00  0.88000000000E+00 0.  1.
        -11    1    4    4    0    0 -0.33493917928E-01  0.54418428496E-01  0.39563226671E-01  0.75157953163E-01  0.51100000000E-03 0. -1.
         11    1    4    4    0    0 -0.26571132750E-01  0.43338594975E-01  0.12035739948E-01  0.52243459563E-01  0.51100000000E-03 0.  1.
</event>
<event>
 8    1  0.1123191E+005  0.1043930E+01  0.7957747E-01            NaN
         13   -1    0    0    0    0  0.00000000000E+00  0.00000000000E+00  0.74505805969E-08  0.10566000000E+00  0.10566000000E+00 0. -1.
     999900   -1    0    0    0    0 -0.00000000000E+00 -0.00000000000E+00 -0.74505805969E-08  0.93827000000E+00  0.93827000000E+00 0.  1.
     999902    2    1    2    0    0 -0.52102731369E-02 -0.20625431519E-02 -0.23141858244E-01  0.10201193588E+01  0.10198414385E+01 0.  0.
     999903    2    3    3    0    0 -0.77193332801E-01 -0.10299334822E+00 -0.16556120292E-01  0.13140570402E+00  0.20661885734E-01 0.  0.
         14    1    1    2    0    0  0.52102731369E-02  0.20625431519E-02  0.23141858244E-01  0.23810641180E-01  0.00000000000E+00 0. -1.
     999901    1    3    3    0    0  0.71983059664E-01  0.10093080507E+00 -0.65857379517E-02  0.88871365480E+00  0.88000000000E+00 0.  1.
        -11    1    4    4    0    0 -0.36297694296E-01 -0.56611930512E-01 -0.17757637542E-01  0.69555935042E-01  0.51100000000E-03 0. -1.
         11    1    4    4    0    0 -0.40895638505E-01 -0.46381417709E-01  0.12015172497E-02  0.61849768974E-01  0.51100000000E-03 0.  1.
</event>
<event>
 8    1  0.1123191E+005  0.1043930E+01  0.7957747E-01            NaN
         13   -1    0    0    0    0  0.00000000000E+00  0.00000000000E+00  0.74505805969E-08  0.10566000000E+00  0.10566000000E+00 0. -1.
     999900   -1    0    0    0    0 -0.00000000000E+00 -0.00000000000E+00 -0.74505805969E-08  0.93827000000E+00  0.93827000000E+00 0.  1.
     999902    2    1    2    0    0 -0.10212835367E-01 -0.77110801463E-02  0.21025086695E-01  0.10193166493E+01  0.10190194377E+01 0.  0.
     999903    2    3    3    0    0  0.27609190962E-01 -0.11304599530E+00  0.57947025511E-01  0.13146014083E+00  0.19551122287E-01 0.  0.
         14    1    1    2    0    0  0.10212835367E-01  0.77110801463E-02 -0.21025086695E-01  0.24613350722E-01  0.00000000000E+00 0.  1.
     999901    1    3    3    0    0 -0.37822026329E-01  0.10533491515E+00 -0.36921938816E-01  0.88785650845E+00  0.88000000000E+00 0.  1.
        -11    1    4    4    0    0  0.13986652956E-01 -0.91027526546E-01  0.45754567130E-01  0.10283665973E+00  0.51100000000E-03 0. -1.
         11    1    4    4    0    0  0.13622538006E-01 -0.22018468755E-01  0.12192458380E-01  0.28623481102E-01  0.51100000000E-03 0.  1.
</event>
<event>
 8    1  0.1123191E+005  0.1043930E+01  0.7957747E-01            NaN
         13   -1    0    0    0    0  0.00000000000E+00  0.00000000000E+00  0.74505805969E-08  0.10566000000E+00  0.10566000000E+00 0.  1.
     999900   -1    0    0    0    0 -0.00000000000E+00 -0.00000000000E+00 -0.74505805969E-08  0.93827000000E+00  0.93827000000E+00 0.  1.
     999902    2    1    2    0    0  0.20684095360E-01 -0.11133932228E-01  0.52209803561E-02  0.10198664408E+01  0.10195825136E+01 0.  0.
     999903    2    3    3    0    0 -0.33677805064E-02  0.69688383829E-02 -0.12755365948E+00  0.12939729024E+00  0.20342468393E-01 0.  0.
         14    1    1    2    0    0 -0.20684095360E-01  0.11133932228E-01 -0.52209803561E-02  0.24063559246E-01  0.00000000000E+00 0.  1.
     999901    1    3    3    0    0  0.24051875866E-01 -0.18102770611E-01  0.13277463984E+00  0.89046915052E+00  0.88000000000E+00 0. -1.
        -11    1    4    4    0    0 -0.42104736521E-02 -0.65972000187E-02 -0.57816985806E-01  0.58346517506E-01  0.51100000000E-03 0.  1.
         11    1    4    4    0    0  0.84269314576E-03  0.13566038402E-01 -0.69736673674E-01  0.71050772732E-01  0.51100000000E-03 0. -1.
</event>
<event>
 8    1  0.1123191E+005  0.1043930E+01  0.7957747E-01            NaN
         13   -1    0    0    0    0  0.00000000000E+00  0.00000000000E+00  0.74505805969E-08  0.10566000000E+00  0.10566000000E+00 0. -1.
     999900   -1    0    0    0    0 -0.00000000000E+00 -0.00000000000E+00 -0.74505805969E-08  0.93827000000E+00  0.93827000000E+00 0.  1.
     999902    2    1    2    0    0 -0.91896478394E-02  0.19225640239E-01  0.10152353033E-01  0.10203260778E+01  0.10200530182E+01 0.  0.
     999903    2    3    3    0    0 -0.11298569396E+00  0.40108936912E-01 -0.51148235173E-01  0.13186252011E+00  0.19927076783E-01 0.  0.
         14    1    1    2    0    0  0.91896478394E-02 -0.19225640239E-01 -0.10152353033E-01  0.23603922176E-01  0.00000000000E+00 0. -1.
     999901    1    3    3    0    0  0.10379604612E+00 -0.20883296673E-01  0.61300588205E-01  0.88846355771E+00  0.88000000000E+00 0. -1.
        -11    1    4    4    0    0 -0.14905969839E-01  0.66108934463E-02 -0.14808192086E-01  0.22032601363E-01  0.51100000000E-03 0.  1.
         11    1    4    4    0    0 -0.98079724120E-01  0.33498043466E-01 -0.36340043087E-01  0.10982991875E+00  0.51100000000E-03 0. -1.
</event>
<event>
 8    1  0.1123191E+005  0.1043930E+01  0.7957747E-01            NaN
         13   -1    0    0    0    0  0.00000000000E+00  0.00000000000E+00  0.74505805969E-08  0.10566000000E+00  0.10566000000E+00 0.  1.
     999900   -1    0    0    0    0 -0.00000000000E+00 -0.00000000000E+00 -0.74505805969E-08  0.93827000000E+00  0.93827000000E+00 0. -1.
     999902    2    1    2    0    0 -0.18404737898E-01 -0.13697240382E-01  0.25205289101E-02  0.10208496656E+01  0.10205887212E+01 0.  0.
     999903    2    3    3    0    0  0.79684550096E-01 -0.66445087450E-01  0.77076233479E-01  0.13070226381E+00  0.19436018795E-01 0.  0.
         14    1    1    2    0    0  0.18404737898E-01  0.13697240382E-01 -0.25205289101E-02  0.23080334425E-01  0.00000000000E+00 0. -1.
     999901    1    3    3    0    0 -0.98089287995E-01  0.52747847068E-01 -0.74555704569E-01  0.89014740177E+00  0.88000000000E+00 0. -1.
        -11    1    4    4    0    0  0.26120276134E-01 -0.11016523669E-01  0.23550813738E-01  0.36858303920E-01  0.51100000000E-03 0. -1.
         11    1    4    4    0    0  0.53564273962E-01 -0.55428563781E-01  0.53525419741E-01  0.93843959888E-01  0.51100000000E-03 0.  1.
</event>
<event>
 8    1  0.1123191E+005  0.1043930E+01  0.7957747E-01            NaN
         13   -1    0    0    0    0  0.00000000000E+00  0.00000000000E+00  0.74505805969E-08  0.10566000000E+00  0.10566000000E+00 0. -1.
     999900   -1    0    0    0    0 -0.00000000000E+00 -0.00000000000E+00 -0.74505805969E-08  0.93827000000E+00  0.93827000000E+00 0. -1.
     999902    2    1    2    0    0  0.22123108107E-01 -0.66038270076E-02  0.95224495183E-02  0.10189556234E+01  0.10186495192E+01 0.  0.
     999903    2    3    3    0    0 -0.11453569398E+00 -0.67475982865E-04  0.51950042908E-01  0.12737362896E+00  0.20169398760E-01 0.  0.
         14    1    1    2    0    0 -0.22123108107E-01  0.66038270076E-02 -0.95224495183E-02  0.24974376635E-01  0.00000000000E+00 0.  1.
     999901    1    3    3    0    0  0.13665880209E+00 -0.65363510247E-02 -0.42427593389E-01  0.89158199441E+00  0.88000000000E+00 0. -1.
        -11    1    4    4    0    0 -0.98081325793E-01 -0.64158568387E-03  0.51751504627E-01  0.11090012378E+00  0.51100000000E-03 0.  1.
         11    1    4    4    0    0 -0.16454368190E-01  0.57410970100E-03  0.19853828100E-03  0.16473505180E-01  0.51100000000E-03 0. -1.
</event>
<event>
 8    1  0.1123191E+005  0.1043930E+01  0.7957747E-01            NaN
         13   -1    0    0    0    0  0.00000000000E+00  0.00000000000E+00  0.74505805969E-08  0.10566000000E+00  0.10566000000E+00 0.  1.
     999900   -1    0    0    0    0 -0.00000000000E+00 -0.00000000000E+00 -0.74505805969E-08  0.93827000000E+00  0.93827000000E+00 0. -1.
     999902    2    1    2    0    0 -0.18301296736E-01 -0.12786543164E-01  0.95285803608E-02  0.10196560017E+01  0.10193670266E+01 0.  0.
     999903    2    3    3    0    0  0.88187645899E-01  0.80542295002E-01 -0.41817696626E-01  0.12685893235E+00  0.89636372107E-02 0.  0.
         14    1    1    2    0    0  0.18301296736E-01  0.12786543164E-01 -0.95285803608E-02  0.24273998270E-01  0.00000000000E+00 0. -1.
     999901    1    3    3    0    0 -0.10648894264E+00 -0.93328838166E-01  0.51346276987E-01  0.89279706938E+00  0.88000000000E+00 0.  1.
        -11    1    4    4    0    0  0.57666451900E-01  0.56239138542E-01 -0.31571193749E-01  0.86517407349E-01  0.51100000000E-03 0.  1.
         11    1    4    4    0    0  0.30521193999E-01  0.24303156460E-01 -0.10246502877E-01  0.40341524999E-01  0.51100000000E-03 0. -1.
</event>
<event>
 8    1  0.1123191E+005  0.1043930E+01  0.7957747E-01            NaN
         13   -1    0    0    0    0  0.00000000000E+00  0.00000000000E+00  0.74505805969E-08  0.10566000000E+00  0.10566000000E+00 0. -1.
     999900   -1    0    0    0    0 -0.00000000000E+00 -0.00000000000E+00 -0.74505805969E-08  0.93827000000E+00  0.93827000000E+00 0.  1.
     999902    2    1    2    0    0  0.19644691549E-01 -0.42067188240E-02  0.75923984547E-02  0.10224531542E+01  0.10222275665E+01 0.  0.
     999903    2    3    3    0    0  0.96550521055E-01 -0.91370070329E-01  0.85776804806E-02  0.13480855913E+00  0.20719028549E-01 0.  0.
         14    1    1    2    0    0 -0.19644691549E-01  0.42067188240E-02 -0.75923984547E-02  0.21476845755E-01  0.00000000000E+00 0. -1.
     999901    1    3    3    0    0 -0.76905829507E-01  0.87163351505E-01 -0.98528202589E-03  0.88764459512E+00  0.88000000000E+00 0.  1.
        -11    1    4    4    0    0  0.26498524578E-01 -0.30591915079E-01  0.11301780828E-01  0.42024141204E-01  0.51100000000E-03 0. -1.
         11    1    4    4    0    0  0.70051996477E-01 -0.60778155249E-01 -0.27241003475E-02  0.92784417925E-01  0.51100000000E-03 0.  1.
</event>
<event>
 8    1  0.1123191E+005  0.1043930E+01  0.7957747E-01            NaN
         13   -1    0    0    0    0  0.00000000000E+00  0.00000000000E+00  0.74505805969E-08  0.10566000000E+00  0.10566000000E+00 0.  1.
     999900   -1    0    0    0    0 -0.00000000000E+00 -0.00000000000E+00 -0.74505805969E-08  0.93827000000E+00  0.93827000000E+00 0.  1.
     999902    2    1    2    0    0 -0.12029820806E-01  0.38684184153E-02  0.18243771176E-01  0.10217372887E+01  0.10214962411E+01 0.  0.
     999903    2    3    3    0    0 -0.42939797623E-01 -0.48281925722E-01 -0.10823750884E+00  0.13062977593E+00  0.34260902898E-01 0.  0.
         14    1    1    2    0    0  0.12029820806E-01 -0.38684184153E-02 -0.18243771176E-01  0.22192711334E-01  0.00000000000E+00 0. -1.
     999901    1    3    3    0    0  0.30909976817E-01  0.52150344138E-01  0.12648128002E+00  0.89110751274E+00  0.88000000000E+00 0. -1.
        -11    1    4    4    0    0 -0.26025038349E-01 -0.31992649765E-01 -0.95235108552E-01  0.10378255770E+00  0.51100000000E-03 0. -1.
         11    1    4    4    0    0 -0.16914759274E-01 -0.16289275957E-01 -0.13002400291E-01  0.26847218233E-01  0.51100000000E-03 0.  1.
</event>
<event>
 8    1  0.1123191E+005  0.1043930E+01  0.7957747E-01            NaN
         13   -1    0    0    0    0  0.00000000000E+00  0.00000000000E+00  0.74505805969E-08  0.10566000000E+00  0.10566000000E+00 0.  1.
     999900   -1    0    0    0    0 -0.00000000000E+00 -0.00000000000E+00 -0.74505805969E-08  0.93827000000E+00  0.93827000000E+00 0.  1.
     999902    2    1    2    0    0 -0.16706016712E-01 -0.12485637729E-01  0.12782020554E-01  0.10194685570E+01  0.10191750471E+01 0.  0.
     999903    2    3    3    0    0 -0.12746879456E+00  0.25641030759E-01 -0.18979288498E-02  0.13158481646E+00  0.20129722896E-01 0.  0.
         14    1    1    2    0    0  0.16706016712E-01  0.12485637729E-01 -0.12782020554E-01  0.24461442994E-01  0.00000000000E+00 0. -1.
     999901    1    3    3    0    0  0.11076277785E+00 -0.38126668488E-01  0.14679949404E-01  0.88788374054E+00  0.88000000000E+00 0. -1.
        -11    1    4    4    0    0 -0.59410528084E-01  0.20139288136E-01 -0.69440409975E-02  0.63116421003E-01  0.51100000000E-03 0. -1.
         11    1    4    4    0    0 -0.68058266479E-01  0.55017426230E-02  0.50461121477E-02  0.68468395460E-01  0.51100000000E-03 0.  1.
</event>
<event>
 8    1  0.1123191E+005  0.1043930E+01  0.7957747E-01            NaN
         13   -1    0    0    0    0  0.00000000000E+00  0.00000000000E+00  0.74505805969E-08  0.10566000000E+00  0.10566000000E+00 0. -1.
     999900   -1    0    0    0    0 -0.00000000000E+00 -0.00000000000E+00 -0.74505805969E-08  0.93827000000E+00  0.93827000000E+00 0. -1.
     999902    2    1    2    0    0  0.13084392056E-01 -0.19973703003E-01  0.19867120897E-02  0.10199696755E+01  0.10196882081E+01 0.  0.
     999903    2    3    3    0    0  0.63415185518E-01  0.37174278074E-01  0.10473172083E+00  0.13072526736E+00  0.26775912213E-01 0.  0.
         14    1    1    2    0    0 -0.13084392056E-01  0.19973703003E-01 -0.19867120897E-02  0.23960324540E-01  0.00000000000E+00 0.  1.
     999901    1    3    3    0    0 -0.50330793461E-01 -0.57147981078E-01 -0.10274500874E+00  0.88924440810E+00  0.88000000000E+00 0. -1.
        -11    1    4    4    0    0  0.36552182254E-01  0.62317810991E-02  0.45460785590E-01  0.58667207797E-01  0.51100000000E-03 0.  1.
         11    1    4    4    0    0  0.26863003263E-01  0.30942496975E-01  0.59270935238E-01  0.72058059566E-01  0.51100000000E-03 0. -1.
</event>
<event>
 8    1  0.1123191E+005  0.1043930E+01  0.7957747E-01            NaN
         13   -1    0    0    0    0  0.00000000000E+00  0.00000000000E+00  0.74505805969E-08  0.10566000000E+00  0.10566000000E+00 0. -1.
     999900   -1    0    0    0    0 -0.00000000000E+00 -0.00000000000E+00 -0.74505805969E-08  0.93827000000E+00  0.93827000000E+00 0.  1.
     999902    2    1    2    0    0 -0.82770558800E-02  0.12812341645E-01  0.17653693236E-01  0.10205993627E+01  0.10203326617E+01 0.  0.
     999903    2    3    3    0    0  0.11151606212E-01 -0.12699686006E+00  0.70147077094E-02  0.12928725472E+00  0.20332912356E-01 0.  0.
         14    1    1    2    0    0  0.82770558800E-02 -0.12812341645E-01 -0.17653693236E-01  0.23330637311E-01  0.00000000000E+00 0.  1.
     999901    1    3    3    0    0 -0.19428662092E-01  0.13980920170E+00  0.10638985526E-01  0.89131210796E+00  0.88000000000E+00 0.  1.
        -11    1    4    4    0    0  0.14325387120E-01 -0.69568913254E-01 -0.20476276037E-02  0.71059864250E-01  0.51100000000E-03 0.  1.
         11    1    4    4    0    0 -0.31737809080E-02 -0.57427946802E-01  0.90623353131E-02  0.58227390474E-01  0.51100000000E-03 0. -1.
</event>
<event>
 8    1  0.1123191E+005  0.1043930E+01  0.7957747E-01            NaN
         13   -1    0    0    0    0  0.00000000000E+00  0.00000000000E+00  0.74505805969E-08  0.10566000000E+00  0.10566000000E+00 0. -1.
     999900   -1    0    0    0    0 -0.00000000000E+00 -0.00000000000E+00 -0.74505805969E-08  0.93827000000E+00  0.93827000000E+00 0.  1.
     999902    2    1    2    0    0  0.12926465003E-01  0.15712770801E-01 -0.11212669379E-01  0.10206983703E+01  0.10204339540E+01 0.  0.
     999903    2    3    3    0    0 -0.72692116082E-01  0.95607292430E-01 -0.51071895486E-01  0.13204633834E+00  0.20074831346E-01 0.  0.
         14    1    1    2    0    0 -0.12926465003E-01 -0.15712770801E-01  0.11212669379E-01  0.23231629696E-01  0.00000000000E+00 0. -1.
     999901    1    3    3    0    0  0.85618581084E-01 -0.79894521628E-01  0.39859226107E-01  0.88865203197E+00  0.88000000000E+00 0. -1.
        -11    1    4    4    0    0 -0.32107848981E-01  0.33969705068E-01 -0.29023454321E-01  0.55022512214E-01  0.51100000000E-03 0.  1.
         11    1    4    4    0    0 -0.40584267100E-01  0.61637587362E-01 -0.22048441165E-01  0.77023826123E-01  0.51100000000E-03 0. -1.
</event>
<event>
 8    1  0.1123191E+005  0.1043930E+01  0.7957747E-01            NaN
         13   -1    0    0    0    0  0.00000000000E+00  0.00000000000E+00  0.74505805969E-08  0.10566000000E+00  0.10566000000E+00 0. -1.
     999900   -1    0    0    0    0 -0.00000000000E+00 -0.00000000000E+00 -0.74505805969E-08  0.93827000000E+00  0.93827000000E+00 0.  1.
     999902    2    1    2    0    0  0.13533733424E-01 -0.46693966703E-03 -0.18295818022E-01  0.10211678180E+01  0.10209140980E+01 0.  0.
     999903    2    3    3    0    0  0.39691143781E-01 -0.25936089750E-01 -0.12371542749E+00  0.13412431185E+00  0.20874778614E-01 0.  0.
         14    1    1    2    0    0 -0.13533733424E-01  0.46693966703E-03  0.18295818022E-01  0.22762182016E-01  0.00000000000E+00 0. -1.
     999901    1    3    3    0    0 -0.26157410357E-01  0.25469150083E-01  0.10541960947E+00  0.88704350614E+00  0.88000000000E+00 0. -1.
        -11    1    4    4    0    0  0.20610159616E-01 -0.24832471111E-01 -0.85592590646E-01  0.91475586882E-01  0.51100000000E-03 0. -1.
         11    1    4    4    0    0  0.19080984164E-01 -0.11036186392E-02 -0.38122836846E-01  0.42648724963E-01  0.51100000000E-03 0.  1.
</event>
<event>
 7    1  0.1123191E+005  0.1043930E+01  0.7957747E-01            NaN
         13   -1    0    0    0    0  0.00000000000E+00  0.00000000000E+00  0.74505805969E-08  0.10566000000E+00  0.10566000000E+00 0. -1.
     999900   -1    0    0    0    0 -0.00000000000E+00 -0.00000000000E+00 -0.74505805969E-08  0.93827000000E+00  0.93827000000E+00 0.  1.
     999903    2    1    2    0    0 -0.34909745817E-01  0.59360342917E-01 -0.85072499501E-01  0.11124618511E+00  0.19900825749E-01 0.  0.
         14    1    1    2    0    0 -0.15085376739E-01 -0.37485333665E-01  0.27976227838E-01  0.49146598615E-01  0.00000000000E+00 0. -1.
     999901    1    1    2    0    0  0.49995122556E-01 -0.21875009252E-01  0.57096271663E-01  0.88353721628E+00  0.88000000000E+00 0. -1.
        -11    1    3    3    0    0 -0.12677171678E-01  0.14520993186E-01 -0.12122488822E-01  0.22776869432E-01  0.51100000000E-03 0. -1.
         11    1    3    3    0    0 -0.22232574139E-01  0.44839349731E-01 -0.72950010680E-01  0.88469315677E-01  0.51100000000E-03 0.  1.
</event>
<event>
 8    1  0.1123191E+005  0.1043930E+01  0.7957747E-01            NaN
         13   -1    0    0    0    0  0.00000000000E+00  0.00000000000E+00  0.74505805969E-08  0.10566000000E+00  0.10566000000E+00 0.  1.
     999900   -1    0    0    0    0 -0.00000000000E+00 -0.00000000000E+00 -0.74505805969E-08  0.93827000000E+00  0.93827000000E+00 0. -1.
     999902    2    1    2    0    0 -0.43328732018E-02  0.22652039831E-01  0.34185263142E-02  0.10206153046E+01  0.10203489722E+01 0.  0.
     999903    2    3    3    0    0 -0.32638365654E-01  0.12726791207E+00 -0.14471357942E-01  0.13378627398E+00  0.20663072126E-01 0.  0.
         14    1    1    2    0    0  0.43328732018E-02 -0.22652039831E-01 -0.34185263142E-02  0.23314695384E-01  0.00000000000E+00 0. -1.
     999901    1    3    3    0    0  0.28305492452E-01 -0.10461587223E+00  0.17889884257E-01  0.88682903064E+00  0.88000000000E+00 0. -1.
        -11    1    4    4    0    0  0.15655613723E-02  0.14800900132E-01  0.22066524924E-02  0.15054835215E-01  0.51100000000E-03 0.  1.
         11    1    4    4    0    0 -0.34203927026E-01  0.11246701193E+00 -0.16678010435E-01  0.11873143876E+00  0.51100000000E-03 0. -1.
</event>
<event>
 8    1  0.1123191E+005  0.1043930E+01  0.7957747E-01            NaN
         13   -1    0    0    0    0  0.00000000000E+00  0.00000000000E+00  0.74505805969E-08  0.10566000000E+00  0.10566000000E+00 0. -1.
     999900   -1    0    0    0    0 -0.00000000000E+00 -0.00000000000E+00 -0.74505805969E-08  0.93827000000E+00  0.93827000000E+00 0.  1.
     999902    2    1    2    0    0  0.21684479586E-01 -0.70972080018E-02 -0.63020038327E-02  0.10202592951E+01  0.10199846700E+01 0.  0.
     999903    2    3    3    0    0 -0.14495077447E-01  0.23477964672E-02  0.12705059369E+00  0.12942761422E+00  0.19850303496E-01 0.  0.
         14    1    1    2    0    0 -0.21684479586E-01  0.70972080018E-02  0.63020038327E-02  0.23670704862E-01  0.00000000000E+00 0. -1.
     999901    1    3    3    0    0  0.36179557034E-01 -0.94450044690E-02 -0.13335259752E+00  0.89083168091E+00  0.88000000000E+00 0.  1.
        -11    1    4    4    0    0 -0.12349995080E-01 -0.27767920808E-02  0.35245430759E-01  0.37453096843E-01  0.51100000000E-03 0. -1.
         11    1    4    4    0    0 -0.21450823677E-02  0.51245885479E-02  0.91805162927E-01  0.91974517380E-01  0.51100000000E-03 0.  1.
</event>
<event>
 8    1  0.1123191E+005  0.1043930E+01  0.7957747E-01            NaN
         13   -1    0    0    0    0  0.00000000000E+00  0.00000000000E+00  0.74505805969E-08  0.10566000000E+00  0.10566000000E+00 0. -1.
     999900   -1    0    0    0    0 -0.00000000000E+00 -0.00000000000E+00 -0.74505805969E-08  0.93827000000E+00  0.93827000000E+00 0. -1.
     999902    2    1    2    0    0  0.55042128849E-02 -0.18472137187E-01 -0.13759602523E-01  0.10202478786E+01  0.10199729854E+01 0.  0.
     999903    2    3    3    0    0  0.11711224765E+00 -0.36162136168E-01 -0.45855719135E-01  0.13244190308E+00  0.20374790123E-01 0.  0.
         14    1    1    2    0    0 -0.55042128849E-02  0.18472137187E-01  0.13759602523E-01  0.23682121386E-01  0.00000000000E+00 0. -1.
     999901    1    3    3    0    0 -0.11160803477E+00  0.17689998981E-01  0.32096116612E-01  0.88780597553E+00  0.88000000000E+00 0.  1.
        -11    1    4    4    0    0  0.65934992539E-01 -0.29843988678E-01 -0.22183232321E-01  0.75699694970E-01  0.51100000000E-03 0. -1.
         11    1    4    4    0    0  0.51177255113E-01 -0.63181474899E-02 -0.23672486814E-01  0.56742208113E-01  0.51100000000E-03 0.  1.
</event>
<event>
 8    1  0.1123191E+005  0.1043930E+01  0.7957747E-01            NaN
         13   -1    0    0    0    0  0.00000000000E+00  0.00000000000E+00  0.74505805969E-08  0.10566000000E+00  0.10566000000E+00 0. -1.
     999900   -1    0    0    0    0 -0.00000000000E+00 -0.00000000000E+00 -0.74505805969E-08  0.93827000000E+00  0.93827000000E+00 0.  1.
     999902    2    1    2    0    0 -0.43792097140E-03  0.22569812087E-01  0.49518308329E-02  0.10208192055E+01  0.10205575641E+01 0.  0.
     999903    2    3    3    0    0 -0.86799794595E-01 -0.89455535056E-01  0.27145382993E-01  0.12924722000E+00  0.20771975517E-01 0.  0.
         14    1    1    2    0    0  0.43792097140E-03 -0.22569812087E-01 -0.49518308329E-02  0.23110794470E-01  0.00000000000E+00 0. -1.
     999901    1    3    3    0    0  0.86361873623E-01  0.11202534714E+00 -0.22193552160E-01  0.89157198553E+00  0.88000000000E+00 0.  1.
        -11    1    4    4    0    0 -0.48681783031E-01 -0.61641460492E-01  0.23149671519E-01  0.81888668710E-01  0.51100000000E-03 0.  1.
         11    1    4    4    0    0 -0.38118011564E-01 -0.27814074565E-01  0.39957114743E-02  0.47358551294E-01  0.51100000000E-03 0. -1.
</event>
<event>
 8    1  0.1123191E+005  0.1043930E+01  0.7957747E-01            NaN
         13   -1    0    0    0    0  0.00000000000E+00  0.00000000000E+00  0.74505805969E-08  0.10566000000E+00  0.10566000000E+00 0.  1.
     999900   -1    0    0    0    0 -0.00000000000E+00 -0.00000000000E+00 -0.74505805969E-08  0.93827000000E+00  0.93827000000E+00 0.  1.
     999902    2    1    2    0    0  0.78795002978E-02  0.18576624292E-01  0.86834921683E-02  0.10219622843E+01  0.10217261522E+01 0.  0.
     999903    2    3    3    0    0 -0.10914412385E-01  0.88481314420E-01  0.97967846081E-01  0.13448745500E+00  0.23261755911E-01 0.  0.
         14    1    1    2    0    0 -0.78795002978E-02 -0.18576624292E-01 -0.86834921683E-02  0.21967715659E-01  0.00000000000E+00 0. -1.
     999901    1    3    3    0    0  0.18793912683E-01 -0.69904690127E-01 -0.89284353913E-01  0.88747482934E+00  0.88000000000E+00 0. -1.
        -11    1    4    4    0    0 -0.17781664369E-01  0.61968970585E-01  0.63903807346E-01  0.90776090560E-01  0.51100000000E-03 0. -1.
         11    1    4    4    0    0  0.68672519841E-02  0.26512343834E-01  0.34064038736E-01  0.43711364442E-01  0.51100000000E-03 0.  1.
</event>
<event>
 8    1  0.1123191E+005  0.1043930E+01  0.7957747E-01            NaN
         13   -1    0    0    0    0  0.00000000000E+00  0.00000000000E+00  0.74505805969E-08  0.10566000000E+00  0.10566000000E+00 0.  1.
     999900   -1    0    0    0    0 -0.00000000000E+00 -0.00000000000E+00 -0.74505805969E-08  0.93827000000E+00  0.93827000000E+00 0.  1.
     999902    2    1    2    0    0  0.20128081877E-01 -0.38346631078E-03 -0.12912476625E-01  0.10200130859E+01  0.10197326496E+01 0.  0.
     999903    2    3    3    0    0 -0.38499169200E-01  0.12180055245E+00 -0.39993731749E-02  0.12959434599E+00  0.21474145393E-01 0.  0.
         14    1    1    2    0    0 -0.20128081877E-01  0.38346631078E-03  0.12912476625E-01  0.23916914079E-01  0.00000000000E+00 0. -1.
     999901    1    3    3    0    0  0.58627251077E-01 -0.12218401876E+00 -0.89131034505E-02  0.89041873993E+00  0.88000000000E+00 0.  1.
        -11    1    4    4    0    0 -0.26558714213E-01  0.94196501627E-01  0.55698193144E-02  0.98028721442E-01  0.51100000000E-03 0.  1.
         11    1    4    4    0    0 -0.11940454987E-01  0.27604050823E-01 -0.95691924893E-02  0.31565624547E-01  0.51100000000E-03 0. -1.
</event>
<event>
 8    1  0.1123191E+005  0.1043930E+01  0.7957747E-01            NaN
         13   -1    0    0    0    0  0.00000000000E+00  0.00000000000E+00  0.74505805969E-08  0.10566000000E+00  0.10566000000E+00 0.  1.
     999900   -1    0    0    0    0 -0.00000000000E+00 -0.00000000000E+00 -0.74505805969E-08  0.93827000000E+00  0.93827000000E+00 0. -1.
     999902    2    1    2    0    0 -0.14985913431E-01 -0.13903583793E-01 -0.11736911065E-01  0.10203579334E+01  0.10200856189E+01 0.  0.
     999903    2    3    3    0    0  0.41715561778E-01  0.28938588729E-01 -0.11910727025E+00  0.13098798613E+00  0.19841387802E-01 0.  0.
         14    1    1    2    0    0  0.14985913431E-01  0.13903583793E-01  0.11736911065E-01  0.23572066626E-01  0.00000000000E+00 0.  1.
     999901    1    3    3    0    0 -0.56701475209E-01 -0.42842172522E-01  0.10737035919E+00  0.88936994725E+00  0.88000000000E+00 0.  1.
        -11    1    4    4    0    0  0.87625329619E-02  0.59291946612E-02 -0.49396601219E-01  0.50519527574E-01  0.51100000000E-03 0.  1.
         11    1    4    4    0    0  0.32953028816E-01  0.23009394068E-01 -0.69710669034E-01  0.80468458552E-01  0.51100000000E-03 0. -1.
</event>
<event>
 8    1  0.1123191E+005  0.1043930E+01  0.7957747E-01            NaN
         13   -1    0    0    0    0  0.00000000000E+00  0.00000000000E+00  0.74505805969E-08  0.10566000000E+00  0.10566000000E+00 0.  1.
     999900   -1    0    0    0    0 -0.00000000000E+00 -0.00000000000E+00 -0.74505805969E-08  0.93827000000E+00  0.93827000000E+00 0.  1.
     999902    2    1    2    0    0 -0.47639165340E-03 -0.36305340578E-02 -0.22829775755E-01  0.10208084432E+01  0.10205465552E+01 0.  0.
     999903    2    3    3    0    0  0.59265564019E-01 -0.60862126573E-01 -0.10117663262E+00  0.13346252059E+00  0.18945392158E-01 0.  0.
         14    1    1    2    0    0  0.47639165340E-03  0.36305340578E-02  0.22829775755E-01  0.23121556773E-01  0.00000000000E+00 0.  1.
     999901    1    3    3    0    0 -0.59741955673E-01  0.57231592516E-01  0.78346856860E-01  0.88734592264E+00  0.88000000000E+00 0. -1.
        -11    1    4    4    0    0  0.48941344411E-01 -0.54853129152E-01 -0.76813166556E-01  0.10632330247E+00  0.51100000000E-03 0.  1.
         11    1    4    4    0    0  0.10324219609E-01 -0.60089974210E-02 -0.24363466060E-01  0.27139218117E-01  0.51100000000E-03 0. -1.
</event>
<event>
 8    1  0.1123191E+005  0.1043930E+01  0.7957747E-01            NaN
         13   -1    0    0    0    0  0.00000000000E+00  0.00000000000E+00  0.74505805969E-08  0.10566000000E+00  0.10566000000E+00 0. -1.
     999900   -1    0    0    0    0 -0.00000000000E+00 -0.00000000000E+00 -0.74505805969E-08  0.93827000000E+00  0.93827000000E+00 0.  1.
     999902    2    1    2    0    0 -0.10547764638E-01  0.15136405061E-01 -0.14376475991E-01  0.10205409180E+01  0.10202728635E+01 0.  0.
     999903    2    3    3    0    0 -0.11376060169E+00 -0.61544166343E-01  0.36963032090E-02  0.13101327639E+00  0.20534289027E-01 0.  0.
         14    1    1    2    0    0  0.10547764638E-01 -0.15136405061E-01  0.14376475991E-01  0.23389082046E-01  0.00000000000E+00 0. -1.
     999901    1    3    3    0    0  0.10321283705E+00  0.76680571404E-01 -0.18072779200E-01  0.88952764157E+00  0.88000000000E+00 0. -1.
        -11    1    4    4    0    0 -0.71699593801E-01 -0.29476984240E-01 -0.36627133547E-02  0.77610572355E-01  0.51100000000E-03 0. -1.
         11    1    4    4    0    0 -0.42061007884E-01 -0.32067182103E-01  0.73590165637E-02  0.53402704033E-01  0.51100000000E-03 0.  1.
</event>
<event>
 8    1  0.1123191E+005  0.1043930E+01  0.7957747E-01            NaN
         13   -1    0    0    0    0  0.00000000000E+00  0.00000000000E+00  0.74505805969E-08  0.10566000000E+00  0.10566000000E+00 0. -1.
     999900   -1    0    0    0    0 -0.00000000000E+00 -0.00000000000E+00 -0.74505805969E-08  0.93827000000E+00  0.93827000000E+00 0.  1.
     999902    2    1    2    0    0  0.67057284962E-02 -0.20773376990E-01  0.96129751584E-02  0.10200781808E+01  0.10197992870E+01 0.  0.
     999903    2    3    3    0    0 -0.74420466756E-01  0.23079180418E-01  0.10263187521E+00  0.13038327688E+00  0.19885739609E-01 0.  0.
         14    1    1    2    0    0 -0.67057284962E-02  0.20773376990E-01 -0.96129751584E-02  0.23851819168E-01  0.00000000000E+00 0.  1.
     999901    1    3    3    0    0  0.81126195252E-01 -0.43852557408E-01 -0.93018900054E-01  0.88969490395E+00  0.88000000000E+00 0.  1.
        -11    1    4    4    0    0 -0.52519024069E-01  0.20163908474E-01  0.85813493894E-01  0.10261114925E+00  0.51100000000E-03 0. -1.
         11    1    4    4    0    0 -0.21901442687E-01  0.29152719444E-02  0.16818381318E-01  0.27772127637E-01  0.51100000000E-03 0.  1.
</event>
<event>
 8    1  0.1123191E+005  0.1043930E+01  0.7957747E-01            NaN
         13   -1    0    0    0    0  0.00000000000E+00  0.00000000000E+00  0.74505805969E-08  0.10566000000E+00  0.10566000000E+00 0.  1.
     999900   -1    0    0    0    0 -0.00000000000E+00 -0.00000000000E+00 -0.74505805969E-08  0.93827000000E+00  0.93827000000E+00 0. -1.
     999902    2    1    2    0    0  0.16367806622E-02 -0.73167723855E-02 -0.20568916767E-01  0.10220372033E+01  0.10218026964E+01 0.  0.
     999903    2    3    3    0    0  0.69239526090E-01 -0.67332821691E-01  0.86121174993E-01  0.13099577161E+00  0.20376813960E-01 0.  0.
         14    1    1    2    0    0 -0.16367806622E-02  0.73167723855E-02  0.20568916767E-01  0.21892796670E-01  0.00000000000E+00 0.  1.
     999901    1    3    3    0    0 -0.67602745427E-01  0.60016049306E-01 -0.10669009176E+00  0.89104143172E+00  0.88000000000E+00 0.  1.
        -11    1    4    4    0    0  0.53014062757E-01 -0.40148215013E-01  0.64584703091E-01  0.92702831743E-01  0.51100000000E-03 0.  1.
         11    1    4    4    0    0  0.16225463333E-01 -0.27184606678E-01  0.21536471901E-01  0.38292939866E-01  0.51100000000E-03 0. -1.
</event>
<event>
 8    1  0.1123191E+005  0.1043930E+01  0.7957747E-01            NaN
         13   -1    0    0    0    0  0.00000000000E+00  0.00000000000E+00  0.74505805969E-08  0.10566000000E+00  0.10566000000E+00 0.  1.
     999900   -1    0    0    0    0 -0.00000000000E+00 -0.00000000000E+00 -0.74505805969E-08  0.93827000000E+00  0.93827000000E+00 0. -1.
     999902    2    1    2    0    0 -0.13410678157E-01  0.16547429133E-01  0.10069197576E-01  0.10203704491E+01  0.10200984271E+01 0.  0.
     999903    2    3    3    0    0  0.16351521766E-01  0.88665793772E-02  0.12904424801E+00  0.13183241016E+00  0.19528899875E-01 0.  0.
         14    1    1    2    0    0  0.13410678157E-01 -0.16547429133E-01 -0.10069197576E-01  0.23559550916E-01  0.00000000000E+00 0. -1.
     999901    1    3    3    0    0 -0.29762199923E-01  0.76808497557E-02 -0.11897505043E+00  0.88853803893E+00  0.88000000000E+00 0. -1.
        -11    1    4    4    0    0  0.13336976773E-01 -0.38044235715E-02  0.70804785608E-01  0.72152112749E-01  0.51100000000E-03 0.  1.
         11    1    4    4    0    0  0.30145449931E-02  0.12671002949E-01  0.58239462398E-01  0.59680297407E-01  0.51100000000E-03 0. -1.
</event>
<event>
 8    1  0.1123191E+005  0.1043930E+01  0.7957747E-01            NaN
         13   -1    0    0    0    0  0.00000000000E+00  0.00000000000E+00  0.74505805969E-08  0.10566000000E+00  0.10566000000E+00 0.  1.
     999900   -1    0    0    0    0 -0.00000000000E+00 -0.00000000000E+00 -0.74505805969E-08  0.93827000000E+00  0.93827000000E+00 0. -1.
     999902    2    1    2    0    0  0.15377773564E-01 -0.15033035012E-01  0.14435833751E-01  0.10180290086E+01  0.10176994649E+01 0.  0.
     999903    2    3    3    0    0  0.11496806058E+00  0.55562914413E-01 -0.68755731458E-02  0.12934673159E+00  0.19452790381E-01 0.  0.
         14    1    1    2    0    0 -0.15377773564E-01  0.15033035012E-01 -0.14435833751E-01  0.25900991440E-01  0.00000000000E+00 0. -1.
     999901    1    3    3    0    0 -0.99590287019E-01 -0.70595949425E-01  0.21311406897E-01  0.88868227697E+00  0.88000000000E+00 0. -1.
        -11    1    4    4    0    0  0.36847928819E-01  0.25940836052E-01 -0.81009207651E-02  0.45788457842E-01  0.51100000000E-03 0.  1.
         11    1    4    4    0    0  0.78120131764E-01  0.29622078361E-01  0.12253476193E-02  0.83558273744E-01  0.51100000000E-03 0. -1.
</event>
<event>
 8    1  0.1123191E+005  0.1043930E+01  0.7957747E-01            NaN
         13   -1    0    0    0    0  0.00000000000E+00  0.00000000000E+00  0.74505805969E-08  0.10566000000E+00  0.10566000000E+00 0.  1.
     999900   -1    0    0    0    0 -0.00000000000E+00 -0.00000000000E+00 -0.74505805969E-08  0.93827000000E+00  0.93827000000E+00 0.  1.
     999902    2    1    2    0    0 -0.10937087300E-01 -0.17430699353E-01  0.95823323560E-02  0.10212304350E+01  0.10209781247E+01 0.  0.
     999903    2    3    3    0    0 -0.68979214785E-01 -0.11674352716E-01 -0.10941457370E+00  0.13130780478E+00  0.19384738242E-01 0.  0.
         14    1    1    2    0    0  0.10937087300E-01  0.17430699353E-01 -0.95823323560E-02  0.22699565017E-01  0.00000000000E+00 0.  1.
     999901    1    3    3    0    0  0.58042127484E-01 -0.57563466378E-02  0.11899690605E+00  0.88992263020E+00  0.88000000000E+00 0. -1.
        -11    1    4    4    0    0 -0.45603464238E-01 -0.12011052760E-02 -0.81632511795E-01  0.93516023800E-01  0.51100000000E-03 0. -1.
         11    1    4    4    0    0 -0.23375750546E-01 -0.10473247440E-01 -0.27782061901E-01  0.37791780985E-01  0.51100000000E-03 0.  1.
</event>
<event>
 8    1  0.1123191E+005  0.1043930E+01  0.7957747E-01            NaN
         13   -1    0    0    0    0  0.00000000000E+00  0.00000000000E+00  0.74505805969E-08  0.10566000000E+00  0.10566000000E+00 0. -1.
     999900   -1    0    0    0    0 -0.00000000000E+00 -0.00000000000E+00 -0.74505805969E-08  0.93827000000E+00  0.93827000000E+00 0.  1.
     999902    2    1    2    0    0 -0.21643028296E-01  0.81996364521E-02 -0.21553147358E-02  0.10206856438E+01  0.10204209344E+01 0.  0.
     999903    2    3    3    0    0 -0.71432254569E-01  0.92847509976E-02 -0.10970896664E+00  0.13273973751E+00  0.19874782022E-01 0.  0.
         14    1    1    2    0    0  0.21643028296E-01 -0.81996364521E-02  0.21553147358E-02  0.23244356162E-01  0.00000000000E+00 0.  1.
     999901    1    3    3    0    0  0.49789226273E-01 -0.10851145456E-02  0.10755365190E+00  0.88794590633E+00  0.88000000000E+00 0.  1.
        -11    1    4    4    0    0 -0.41239626002E-01  0.14876275722E-01 -0.60059722101E-01  0.74360215653E-01  0.51100000000E-03 0. -1.
         11    1    4    4    0    0 -0.30192628567E-01 -0.55915247240E-02 -0.49649244535E-01  0.58379521858E-01  0.51100000000E-03 0.  1.
</event>
<event>
 8    1  0.1123191E+005  0.1043930E+01  0.7957747E-01            NaN
         13   -1    0    0    0    0  0.00000000000E+00  0.00000000000E+00  0.74505805969E-08  0.10566000000E+00  0.10566000000E+00 0. -1.
     999900   -1    0    0    0    0 -0.00000000000E+00 -0.00000000000E+00 -0.74505805969E-08  0.93827000000E+00  0.93827000000E+00 0.  1.
     999902    2    1    2    0    0  0.71659493845E-02  0.18764533019E-01 -0.13045068017E-01  0.10199793773E+01  0.10196981405E+01 0.  0.
     999903    2    3    3    0    0  0.83068057480E-01 -0.88516768663E-01  0.38013899668E-01  0.12875694381E+00  0.19944259919E-01 0.  0.
         14    1    1    2    0    0 -0.71659493845E-02 -0.18764533019E-01  0.13045068017E-01  0.23950622738E-01  0.00000000000E+00 0.  1.
     999901    1    3    3    0    0 -0.75902108095E-01  0.10728130168E+00 -0.51058967685E-01  0.89122243345E+00  0.88000000000E+00 0.  1.
        -11    1    4    4    0    0  0.55817355229E-01 -0.69660831618E-01  0.33328511833E-01  0.95285147996E-01  0.51100000000E-03 0. -1.
         11    1    4    4    0    0  0.27250702250E-01 -0.18855937044E-01  0.46853878352E-02  0.33471795816E-01  0.51100000000E-03 0.  1.
</event>
<event>
 8    1  0.1123191E+005  0.1043930E+01  0.7957747E-01            NaN
         13   -1    0    0    0    0  0.00000000000E+00  0.00000000000E+00  0.74505805969E-08  0.10566000000E+00  0.10566000000E+00 0.  1.
     999900   -1    0    0    0    0 -0.00000000000E+00 -0.00000000000E+00 -0.74505805969E-08  0.93827000000E+00  0.93827000000E+00 0. -1.
     999902    2    1    2    0    0 -0.20266522674E-01 -0.11032777052E-01 -0.34405026620E-02  0.10205999514E+01  0.10203332640E+01 0.  0.
     999903    2    3    3    0    0 -0.15507412707E-01 -0.10416354065E+00 -0.77964249385E-01  0.13254039419E+00  0.19950159413E-01 0.  0.
         14    1    1    2    0    0  0.20266522674E-01  0.11032777052E-01  0.34405026620E-02  0.23330048636E-01  0.00000000000E+00 0. -1.
     999901    1    3    3    0    0 -0.47591099674E-02  0.93130763600E-01  0.74523746724E-01  0.88805955717E+00  0.88000000000E+00 0.  1.
        -11    1    4    4    0    0 -0.11096285644E-01 -0.94401277137E-01 -0.62641954326E-01  0.11383762227E+00  0.51100000000E-03 0. -1.
         11    1    4    4    0    0 -0.44111270625E-02 -0.97622635154E-02 -0.15322295060E-01  0.18702771928E-01  0.51100000000E-03 0.  1.
</event>
<event>
 8    1  0.1123191E+005  0.1043930E+01  0.7957747E-01            NaN
         13   -1    0    0    0    0  0.00000000000E+00  0.00000000000E+00  0.74505805969E-08  0.10566000000E+00  0.10566000000E+00 0.  1.
     999900   -1    0    0    0    0 -0.00000000000E+00 -0.00000000000E+00 -0.74505805969E-08  0.93827000000E+00  0.93827000000E+00 0. -1.
     999902    2    1    2    0    0 -0.18914487744E-01  0.34275745477E-02 -0.12181786570E-01  0.10211725389E+01  0.10209189253E+01 0.  0.
     999903    2    3    3    0    0  0.11171002496E+00  0.18364908770E-01 -0.60958855629E-01  0.13006923971E+00  0.19637349352E-01 0.  0.
         14    1    1    2    0    0  0.18914487744E-01 -0.34275745477E-02  0.12181786570E-01  0.22757461149E-01  0.00000000000E+00 0. -1.
     999901    1    3    3    0    0 -0.13062451270E+00 -0.14937334222E-01  0.48777069059E-01  0.89110329914E+00  0.88000000000E+00 0.  1.
        -11    1    4    4    0    0  0.30905784447E-01  0.58003672639E-02 -0.73811542700E-02  0.32304091568E-01  0.51100000000E-03 0.  1.
         11    1    4    4    0    0  0.80804240510E-01  0.12564541506E-01 -0.53577701359E-01  0.97765148144E-01  0.51100000000E-03 0. -1.
</event>
<event>
 8    1  0.1164294E+005  0.1043930E+01  0.7957747E-01            NaN
         13   -1    0    0    0    0  0.00000000000E+00  0.00000000000E+00  0.74505805969E-08  0.10566000000E+00  0.10566000000E+00 0.  1.
     999900   -1    0    0    0    0 -0.00000000000E+00 -0.00000000000E+00 -0.74505805969E-08  0.93827000000E+00  0.93827000000E+00 0.  1.
     999902    2    1    2    0    0  0.30148766458E-02  0.12437181202E-01 -0.15813281216E-01  0.10235871187E+01  0.10233849504E+01 0.  0.
     999903    2    3    3    0    0 -0.86341621289E-01  0.59680749485E-02  0.96625989896E-01  0.13192068848E+00  0.23999846685E-01 0.  0.
         14    1    1    2    0    0 -0.30148766458E-02 -0.12437181202E-01  0.15813281216E-01  0.20342881316E-01  0.00000000000E+00 0.  1.
     999901    1    3    3    0    0  0.89356497935E-01  0.64691062538E-02 -0.11243927111E+00  0.89166643020E+00  0.88000000000E+00 0.  1.
        -11    1    4    4    0    0 -0.32476587754E-01  0.12231955514E-01  0.46882241158E-01  0.58331425020E-01  0.51100000000E-03 0. -1.
         11    1    4    4    0    0 -0.53865033535E-01 -0.62638805657E-02  0.49743748739E-01  0.73589263463E-01  0.51100000000E-03 0.  1.
</event>
<event>
 8    1  0.1294331E+005  0.1043930E+01  0.7957747E-01            NaN
         13   -1    0    0    0    0  0.00000000000E+00  0.00000000000E+00  0.74505805969E-08  0.10566000000E+00  0.10566000000E+00 0.  1.
     999900   -1    0    0    0    0 -0.00000000000E+00 -0.00000000000E+00 -0.74505805969E-08  0.93827000000E+00  0.93827000000E+00 0.  1.
     999902    2    1    2    0    0 -0.14362988540E-01  0.87151073013E-04 -0.18869708543E-01  0.10202156808E+01  0.10199400308E+01 0.  0.
     999903    2    3    3    0    0  0.48380358983E-01 -0.10333813046E+00 -0.56904754391E-01  0.13112615705E+00  0.30602118326E-01 0.  0.
         14    1    1    2    0    0  0.14362988540E-01 -0.87151073013E-04  0.18869708543E-01  0.23714319210E-01  0.00000000000E+00 0.  1.
     999901    1    3    3    0    0 -0.62743347523E-01  0.10342528154E+00  0.38035045848E-01  0.88908952374E+00  0.88000000000E+00 0. -1.
        -11    1    4    4    0    0  0.34260391498E-01 -0.48066071497E-01 -0.16740627286E-01  0.61356591965E-01  0.51100000000E-03 0. -1.
         11    1    4    4    0    0  0.14119967485E-01 -0.55272058967E-01 -0.40164127106E-01  0.69769565080E-01  0.51100000000E-03 0.  1.
</event>
<event>
 8    1  0.1123191E+005  0.1043930E+01  0.7957747E-01            NaN
         13   -1    0    0    0    0  0.00000000000E+00  0.00000000000E+00  0.74505805969E-08  0.10566000000E+00  0.10566000000E+00 0. -1.
     999900   -1    0    0    0    0 -0.00000000000E+00 -0.00000000000E+00 -0.74505805969E-08  0.93827000000E+00  0.93827000000E+00 0. -1.
     999902    2    1    2    0    0 -0.14047184933E-02 -0.25694963043E-02  0.23136524870E-01  0.10206088866E+01  0.10203424058E+01 0.  0.
     999903    2    3    3    0    0 -0.10162922665E+00 -0.10722410172E-01  0.82646850036E-01  0.13288544950E+00  0.19610483935E-01 0.  0.
         14    1    1    2    0    0  0.14047184933E-02  0.25694963043E-02 -0.23136524870E-01  0.23321113361E-01  0.00000000000E+00 0.  1.
     999901    1    3    3    0    0  0.10022450815E+00  0.81529138678E-02 -0.59510325166E-01  0.88772343714E+00  0.88000000000E+00 0. -1.
        -11    1    4    4    0    0 -0.58288046816E-01  0.33096950063E-02  0.49506491315E-01  0.76548052137E-01  0.51100000000E-03 0.  1.
         11    1    4    4    0    0 -0.43341179831E-01 -0.14032105178E-01  0.33140358721E-01  0.56337397367E-01  0.51100000000E-03 0. -1.
</event>
<event>
 8    1  0.1123191E+005  0.1043930E+01  0.7957747E-01            NaN
         13   -1    0    0    0    0  0.00000000000E+00  0.00000000000E+00  0.74505805969E-08  0.10566000000E+00  0.10566000000E+00 0. -1.
     999900   -1    0    0    0    0 -0.00000000000E+00 -0.00000000000E+00 -0.74505805969E-08  0.93827000000E+00  0.93827000000E+00 0. -1.
     999902    2    1    2    0    0  0.11598332049E-01 -0.13781796155E-01  0.13533506071E-01  0.10213996871E+01  0.10211511670E+01 0.  0.
     999903    2    3    3    0    0  0.10734053606E+00  0.48303375250E-01 -0.55029436280E-01  0.13138731912E+00  0.19472596810E-01 0.  0.
         14    1    1    2    0    0 -0.11598332049E-01  0.13781796155E-01 -0.13533506071E-01  0.22530312873E-01  0.00000000000E+00 0.  1.
     999901    1    3    3    0    0 -0.95742204011E-01 -0.62085171405E-01  0.68562942351E-01  0.89001236800E+00  0.88000000000E+00 0. -1.
        -11    1    4    4    0    0  0.76415917704E-01  0.24462467202E-01 -0.35900340816E-01  0.87902789330E-01  0.51100000000E-03 0. -1.
         11    1    4    4    0    0  0.30924618356E-01  0.23840908048E-01 -0.19129095464E-01  0.43484529793E-01  0.51100000000E-03 0.  1.
</event>
<event>
 8    1  0.1123191E+005  0.1043930E+01  0.7957747E-01            NaN
         13   -1    0    0    0    0  0.00000000000E+00  0.00000000000E+00  0.74505805969E-08  0.10566000000E+00  0.10566000000E+00 0.  1.
     999900   -1    0    0    0    0 -0.00000000000E+00 -0.00000000000E+00 -0.74505805969E-08  0.93827000000E+00  0.93827000000E+00 0.  1.
     999902    2    1    2    0    0  0.22076010146E-01  0.68130381913E-02  0.55126516719E-02  0.10201780097E+01  0.10199014729E+01 0.  0.
     999903    2    3    3    0    0  0.11211612565E+00 -0.47799444042E-01  0.49805620688E-01  0.13279330583E+00  0.17281485404E-01 0.  0.
         14    1    1    2    0    0 -0.22076010146E-01 -0.68130381913E-02 -0.55126516719E-02  0.23751990271E-01  0.00000000000E+00 0.  1.
     999901    1    3    3    0    0 -0.90040115508E-01  0.54612482233E-01 -0.44292969016E-01  0.88738470390E+00  0.88000000000E+00 0. -1.
        -11    1    4    4    0    0  0.96774543586E-01 -0.44183939528E-01  0.37538062961E-01  0.11281356341E+00  0.51100000000E-03 0.  1.
         11    1    4    4    0    0  0.15341582068E-01 -0.36155045141E-02  0.12267557727E-01  0.19979742412E-01  0.51100000000E-03 0. -1.
</event>
<event>
 8    1  0.1123191E+005  0.1043930E+01  0.7957747E-01            NaN
         13   -1    0    0    0    0  0.00000000000E+00  0.00000000000E+00  0.74505805969E-08  0.10566000000E+00  0.10566000000E+00 0. -1.
     999900   -1    0    0    0    0 -0.00000000000E+00 -0.00000000000E+00 -0.74505805969E-08  0.93827000000E+00  0.93827000000E+00 0.  1.
     999902    2    1    2    0    0 -0.14219237640E-01  0.18610487462E-01 -0.12989215245E-03  0.10205087738E+01  0.10202399736E+01 0.  0.
     999903    2    3    3    0    0 -0.29590026680E-01  0.39311109284E-02  0.12600530311E+00  0.13126087099E+00  0.21472226935E-01 0.  0.
         14    1    1    2    0    0  0.14219237640E-01 -0.18610487462E-01  0.12989215245E-03  0.23421226155E-01  0.00000000000E+00 0. -1.
     999901    1    3    3    0    0  0.15370789040E-01  0.14679376534E-01 -0.12613519526E+00  0.88924790286E+00  0.88000000000E+00 0.  1.
        -11    1    4    4    0    0  0.45588172135E-03  0.40207427467E-02  0.38991027440E-01  0.39203769490E-01  0.51100000000E-03 0. -1.
         11    1    4    4    0    0 -0.30045908402E-01 -0.89631818297E-04  0.87014275667E-01  0.92057101499E-01  0.51100000000E-03 0.  1.
</event>
<event>
 8    1  0.1123191E+005  0.1043930E+01  0.7957747E-01            NaN
         13   -1    0    0    0    0  0.00000000000E+00  0.00000000000E+00  0.74505805969E-08  0.10566000000E+00  0.10566000000E+00 0. -1.
     999900   -1    0    0    0    0 -0.00000000000E+00 -0.00000000000E+00 -0.74505805969E-08  0.93827000000E+00  0.93827000000E+00 0. -1.
     999902    2    1    2    0    0 -0.31826758517E-02  0.75953517265E-02 -0.21171287943E-01  0.10212134372E+01  0.10209607446E+01 0.  0.
     999903    2    3    3    0    0  0.23454990844E-01 -0.12468383351E+00 -0.25313790493E-01  0.13091881826E+00  0.20068733229E-01 0.  0.
         14    1    1    2    0    0  0.31826758517E-02 -0.75953517265E-02  0.21171287943E-01  0.22716562825E-01  0.00000000000E+00 0. -1.
     999901    1    3    3    0    0 -0.26637666696E-01  0.13227918523E+00  0.41425025501E-02  0.89029461891E+00  0.88000000000E+00 0.  1.
        -11    1    4    4    0    0  0.48304868056E-02 -0.28573614196E-01 -0.14546225522E-01  0.32428981312E-01  0.51100000000E-03 0.  1.
         11    1    4    4    0    0  0.18624504038E-01 -0.96110219311E-01 -0.10767564971E-01  0.98489836953E-01  0.51100000000E-03 0. -1.
</event>
<event>
 8    1  0.1123191E+005  0.1043930E+01  0.7957747E-01            NaN
         13   -1    0    0    0    0  0.00000000000E+00  0.00000000000E+00  0.74505805969E-08  0.10566000000E+00  0.10566000000E+00 0. -1.
     999900   -1    0    0    0    0 -0.00000000000E+00 -0.00000000000E+00 -0.74505805969E-08  0.93827000000E+00  0.93827000000E+00 0. -1.
     999902    2    1    2    0    0 -0.11799877964E-01  0.23275986936E-02  0.19642408550E-01  0.10208978692E+01  0.10206380261E+01 0.  0.
     999903    2    3    3    0    0  0.55577287224E-01  0.84984926383E-01 -0.77264048678E-01  0.12917886768E+00  0.20153760697E-01 0.  0.
         14    1    1    2    0    0  0.11799877964E-01 -0.23275986936E-02 -0.19642408550E-01  0.23032130802E-01  0.00000000000E+00 0.  1.
     999901    1    3    3    0    0 -0.67377165188E-01 -0.82657327689E-01  0.96906457228E-01  0.89171900151E+00  0.88000000000E+00 0.  1.
        -11    1    4    4    0    0  0.27107786850E-01  0.32166344291E-01 -0.21417054121E-01  0.47206537060E-01  0.51100000000E-03 0. -1.
         11    1    4    4    0    0  0.28469500374E-01  0.52818582092E-01 -0.55846994557E-01  0.81972330623E-01  0.51100000000E-03 0.  1.
</event>
<event>
 8    1  0.1123191E+005  0.1043930E+01  0.7957747E-01            NaN
         13   -1    0    0    0    0  0.00000000000E+00  0.00000000000E+00  0.74505805969E-08  0.10566000000E+00  0.10566000000E+00 0.  1.
     999900   -1    0    0    0    0 -0.00000000000E+00 -0.00000000000E+00 -0.74505805969E-08  0.93827000000E+00  0.93827000000E+00 0.  1.
     999902    2    1    2    0    0  0.16527852750E-01  0.10640193826E-01  0.13450905576E-01  0.10201117192E+01  0.10198336183E+01 0.  0.
     999903    2    3    3    0    0 -0.77071700086E-01  0.23584722282E-01 -0.97417699195E-01  0.12813622363E+00  0.20794172513E-01 0.  0.
         14    1    1    2    0    0 -0.16527852750E-01 -0.10640193826E-01 -0.13450905576E-01  0.23818280836E-01  0.00000000000E+00 0. -1.
     999901    1    3    3    0    0  0.93599552836E-01 -0.12944528457E-01  0.11086860477E+00  0.89197549553E+00  0.88000000000E+00 0.  1.
        -11    1    4    4    0    0 -0.35058258444E-01  0.32302993322E-02 -0.30756482660E-01  0.46751884086E-01  0.51100000000E-03 0. -1.
         11    1    4    4    0    0 -0.42013441642E-01  0.20354422950E-01 -0.66661216535E-01  0.81384339545E-01  0.51100000000E-03 0.  1.
</event>
<event>
 8    1  0.1123191E+005  0.1043930E+01  0.7957747E-01            NaN
         13   -1    0    0    0    0  0.00000000000E+00  0.00000000000E+00  0.74505805969E-08  0.10566000000E+00  0.10566000000E+00 0. -1.
     999900   -1    0    0    0    0 -0.00000000000E+00 -0.00000000000E+00 -0.74505805969E-08  0.93827000000E+00  0.93827000000E+00 0.  1.
     999902    2    1    2    0    0  0.20212949564E-01 -0.89240946785E-02 -0.86962020186E-02  0.10201849642E+01  0.10199085912E+01 0.  0.
     999903    2    3    3    0    0  0.88988017133E-01  0.94260891410E-01 -0.18153657134E-01  0.13144057196E+00  0.11961849630E-01 0.  0.
         14    1    1    2    0    0 -0.20212949564E-01  0.89240946785E-02  0.86962020186E-02  0.23745035807E-01  0.00000000000E+00 0. -1.
     999901    1    3    3    0    0 -0.68775067569E-01 -0.10318498609E+00  0.94574551152E-02  0.88874439224E+00  0.88000000000E+00 0.  1.
        -11    1    4    4    0    0  0.19029030845E-01  0.24294029215E-01 -0.10375026187E-03  0.30863826002E-01  0.51100000000E-03 0. -1.
         11    1    4    4    0    0  0.69958986287E-01  0.69966862196E-01 -0.18049906872E-01  0.10057674596E+00  0.51100000000E-03 0.  1.
</event>
<event>
 8    1  0.1123191E+005  0.1043930E+01  0.7957747E-01            NaN
         13   -1    0    0    0    0  0.00000000000E+00  0.00000000000E+00  0.74505805969E-08  0.10566000000E+00  0.10566000000E+00 0. -1.
     999900   -1    0    0    0    0 -0.00000000000E+00 -0.00000000000E+00 -0.74505805969E-08  0.93827000000E+00  0.93827000000E+00 0. -1.
     999902    2    1    2    0    0  0.54769698573E-02  0.22443815692E-01 -0.23067718817E-02  0.10207126949E+01  0.10204486083E+01 0.  0.
     999903    2    3    3    0    0 -0.11208384481E+00 -0.26158829732E-01  0.56316694167E-01  0.12963499170E+00  0.19661851196E-01 0.  0.
         14    1    1    2    0    0 -0.54769698573E-02 -0.22443815692E-01  0.23067718817E-02  0.23217305144E-01  0.00000000000E+00 0.  1.
     999901    1    3    3    0    0  0.11756081466E+00  0.48602645423E-01 -0.58623466049E-01  0.89107770315E+00  0.88000000000E+00 0. -1.
        -11    1    4    4    0    0 -0.43293386706E-01 -0.16961297802E-01  0.14981682715E-01  0.48854016145E-01  0.51100000000E-03 0.  1.
         11    1    4    4    0    0 -0.68790458100E-01 -0.91975319299E-02  0.41335011452E-01  0.80780975557E-01  0.51100000000E-03 0. -1.
</event>
<event>
 8    1  0.1123191E+005  0.1043930E+01  0.7957747E-01            NaN
         13   -1    0    0    0    0  0.00000000000E+00  0.00000000000E+00  0.74505805969E-08  0.10566000000E+00  0.10566000000E+00 0.  1.
     999900   -1    0    0    0    0 -0.00000000000E+00 -0.00000000000E+00 -0.74505805969E-08  0.93827000000E+00  0.93827000000E+00 0. -1.
     999902    2    1    2    0    0 -0.20148567230E-01 -0.11437124096E-01  0.36132668504E-02  0.10204815829E+01  0.10202121508E+01 0.  0.
     999903    2    3    3    0    0  0.10807023000E+00 -0.61729494722E-01  0.32421623731E-01  0.12930297903E+00  0.13356405539E-01 0.  0.
         14    1    1    2    0    0  0.20148567230E-01  0.11437124096E-01 -0.36132668504E-02  0.23448417139E-01  0.00000000000E+00 0. -1.
     999901    1    3    3    0    0 -0.12821879723E+00  0.50292370626E-01 -0.28808356880E-01  0.89117860383E+00  0.88000000000E+00 0.  1.
        -11    1    4    4    0    0  0.69488754769E-01 -0.37299929256E-01  0.14215197309E-01  0.80139283235E-01  0.51100000000E-03 0. -1.
         11    1    4    4    0    0  0.38581475231E-01 -0.24429565465E-01  0.18206426422E-01  0.49163695791E-01  0.51100000000E-03 0.  1.
</event>
<event>
 8    1  0.1123191E+005  0.1043930E+01  0.7957747E-01            NaN
         13   -1    0    0    0    0  0.00000000000E+00  0.00000000000E+00  0.74505805969E-08  0.10566000000E+00  0.10566000000E+00 0. -1.
     999900   -1    0    0    0    0 -0.00000000000E+00 -0.00000000000E+00 -0.74505805969E-08  0.93827000000E+00  0.93827000000E+00 0.  1.
     999902    2    1    2    0    0  0.14453851779E-01  0.15835126936E-01  0.94530857184E-02  0.10204986982E+01  0.10202296639E+01 0.  0.
     999903    2    3    3    0    0  0.82525933258E-01  0.32082667956E-01  0.97766091015E-01  0.13331383706E+00  0.19353122623E-01 0.  0.
         14    1    1    2    0    0 -0.14453851779E-01 -0.15835126936E-01 -0.94530857184E-02  0.23431301840E-01  0.00000000000E+00 0.  1.
     999901    1    3    3    0    0 -0.68072081478E-01 -0.16247541020E-01 -0.88313005296E-01  0.88718486110E+00  0.88000000000E+00 0. -1.
        -11    1    4    4    0    0  0.63896624518E-01  0.25520569266E-01  0.86641328794E-01  0.11063931967E+00  0.51100000000E-03 0. -1.
         11    1    4    4    0    0  0.18629308739E-01  0.65620986902E-02  0.11124762220E-01  0.22674517388E-01  0.51100000000E-03 0.  1.
</event>
<event>
 8    1  0.1123191E+005  0.1043930E+01  0.7957747E-01            NaN
         13   -1    0    0    0    0  0.00000000000E+00  0.00000000000E+00  0.74505805969E-08  0.10566000000E+00  0.10566000000E+00 0.  1.
     999900   -1    0    0    0    0 -0.00000000000E+00 -0.00000000000E+00 -0.74505805969E-08  0.93827000000E+00  0.93827000000E+00 0. -1.
     999902    2    1    2    0    0 -0.73998624813E-02  0.23162801916E-01  0.27709348624E-02  0.10194565156E+01  0.10191627131E+01 0.  0.
     999903    2    3    3    0    0 -0.23316313335E-01  0.11560775024E+00  0.57880344995E-01  0.13275676432E+00  0.19116007752E-01 0.  0.
         14    1    1    2    0    0  0.73998624813E-02 -0.23162801916E-01 -0.27709348624E-02  0.24473484373E-01  0.00000000000E+00 0. -1.
     999901    1    3    3    0    0  0.15916450854E-01 -0.92444948328E-01 -0.55109410132E-01  0.88669975130E+00  0.88000000000E+00 0. -1.
        -11    1    4    4    0    0  0.23115811741E-02  0.25853712079E-01  0.97160049983E-02  0.27720384375E-01  0.51100000000E-03 0. -1.
         11    1    4    4    0    0 -0.25627894509E-01  0.89754038165E-01  0.48164339996E-01  0.10503637995E+00  0.51100000000E-03 0.  1.
</event>
<event>
 8    1  0.1123191E+005  0.1043930E+01  0.7957747E-01            NaN
         13   -1    0    0    0    0  0.00000000000E+00  0.00000000000E+00  0.74505805969E-08  0.10566000000E+00  0.10566000000E+00 0.  1.
     999900   -1    0    0    0    0 -0.00000000000E+00 -0.00000000000E+00 -0.74505805969E-08  0.93827000000E+00  0.93827000000E+00 0.  1.
     999902    2    1    2    0    0  0.15248620023E-01 -0.58266358006E-02  0.15090625932E-01  0.10216994560E+01  0.10214575768E+01 0.  0.
     999903    2    3    3    0    0  0.11535593675E+00  0.37041063749E-01  0.53970383431E-01  0.13413495122E+00  0.20008755694E-01 0.  0.
         14    1    1    2    0    0 -0.15248620023E-01  0.58266358006E-02 -0.15090625932E-01  0.22230544042E-01  0.00000000000E+00 0. -1.
     999901    1    3    3    0    0 -0.10010731673E+00 -0.42867699550E-01 -0.38879757499E-01  0.88756450474E+00  0.88000000000E+00 0.  1.
        -11    1    4    4    0    0  0.88550802618E-01  0.19431933713E-01  0.37963977148E-01  0.98287178076E-01  0.51100000000E-03 0. -1.
         11    1    4    4    0    0  0.26805134131E-01  0.17609130036E-01  0.16006406283E-01  0.35847773145E-01  0.51100000000E-03 0.  1.
</event>
<event>
 8    1  0.1123191E+005  0.1043930E+01  0.7957747E-01            NaN
         13   -1    0    0    0    0  0.00000000000E+00  0.00000000000E+00  0.74505805969E-08  0.10566000000E+00  0.10566000000E+00 0.  1.
     999900   -1    0    0    0    0 -0.00000000000E+00 -0.00000000000E+00 -0.74505805969E-08  0.93827000000E+00  0.93827000000E+00 0.  1.
     999902    2    1    2    0    0 -0.13638508820E-01  0.50674595457E-02 -0.19143301720E-01  0.10198851654E+01  0.10196016853E+01 0.  0.
     999903    2    3    3    0    0  0.97598916202E-01  0.69625505268E-01  0.41763790424E-01  0.12845307050E+00  0.19563172070E-01 0.  0.
         14    1    1    2    0    0  0.13638508820E-01 -0.50674595457E-02  0.19143301720E-01  0.24044834577E-01  0.00000000000E+00 0.  1.
     999901    1    3    3    0    0 -0.11123742502E+00 -0.64558045722E-01 -0.60907092144E-01  0.89143209493E+00  0.88000000000E+00 0. -1.
        -11    1    4    4    0    0  0.38622308114E-01  0.17419091578E-01  0.10082839235E-01  0.43554933171E-01  0.51100000000E-03 0.  1.
         11    1    4    4    0    0  0.58976608088E-01  0.52206413690E-01  0.31680951189E-01  0.84898137325E-01  0.51100000000E-03 0. -1.
</event>
<event>
 8    1  0.1123191E+005  0.1043930E+01  0.7957747E-01            NaN
         13   -1    0    0    0    0  0.00000000000E+00  0.00000000000E+00  0.74505805969E-08  0.10566000000E+00  0.10566000000E+00 0.  1.
     999900   -1    0    0    0    0 -0.00000000000E+00 -0.00000000000E+00 -0.74505805969E-08  0.93827000000E+00  0.93827000000E+00 0. -1.
     999902    2    1    2    0    0 -0.21672827540E-01 -0.33020649907E-02  0.84082534012E-02  0.10204499273E+01  0.10201797589E+01 0.  0.
     999903    2    3    3    0    0 -0.22055107254E-01  0.79080330908E-01  0.10090348795E+00  0.13177542354E+00  0.21050460268E-01 0.  0.
         14    1    1    2    0    0  0.21672827540E-01  0.33020649907E-02 -0.84082534012E-02  0.23480072658E-01  0.00000000000E+00 0. -1.
     999901    1    3    3    0    0  0.38227971449E-03 -0.82382395899E-01 -0.92495234544E-01  0.88867450380E+00  0.88000000000E+00 0. -1.
        -11    1    4    4    0    0 -0.19923655637E-01  0.34131173704E-01  0.52012847407E-01  0.65326001628E-01  0.51100000000E-03 0.  1.
         11    1    4    4    0    0 -0.21314516172E-02  0.44949157204E-01  0.48890640538E-01  0.66449421914E-01  0.51100000000E-03 0. -1.
</event>
<event>
 8    1  0.1123191E+005  0.1043930E+01  0.7957747E-01            NaN
         13   -1    0    0    0    0  0.00000000000E+00  0.00000000000E+00  0.74505805969E-08  0.10566000000E+00  0.10566000000E+00 0.  1.
     999900   -1    0    0    0    0 -0.00000000000E+00 -0.00000000000E+00 -0.74505805969E-08  0.93827000000E+00  0.93827000000E+00 0.  1.
     999902    2    1    2    0    0  0.18358310874E-01  0.49674358278E-02  0.16184946839E-01  0.10189569045E+01  0.10186508321E+01 0.  0.
     999903    2    3    3    0    0 -0.27043927745E-01 -0.92975316035E-01 -0.79833745295E-01  0.12717568961E+00  0.20602080484E-01 0.  0.
         14    1    1    2    0    0 -0.18358310874E-01 -0.49674358278E-02 -0.16184946839E-01  0.24973095543E-01  0.00000000000E+00 0.  1.
     999901    1    3    3    0    0  0.45402238619E-01  0.97942751863E-01  0.96018692134E-01  0.89178121485E+00  0.88000000000E+00 0. -1.
        -11    1    4    4    0    0 -0.29838408069E-01 -0.76503842154E-01 -0.63506674741E-01  0.10381005403E+00  0.51100000000E-03 0.  1.
         11    1    4    4    0    0  0.27944803244E-02 -0.16471473882E-01 -0.16327070554E-01  0.23365635579E-01  0.51100000000E-03 0. -1.
</event>
<event>
 8    1  0.1123191E+005  0.1043930E+01  0.7957747E-01            NaN
         13   -1    0    0    0    0  0.00000000000E+00  0.00000000000E+00  0.74505805969E-08  0.10566000000E+00  0.10566000000E+00 0. -1.
     999900   -1    0    0    0    0 -0.00000000000E+00 -0.00000000000E+00 -0.74505805969E-08  0.93827000000E+00  0.93827000000E+00 0. -1.
     999902    2    1    2    0    0  0.12698628274E-02  0.20971833842E-01 -0.11904048741E-01  0.10197817756E+01  0.10194958230E+01 0.  0.
     999903    2    3    3    0    0  0.80162185437E-01  0.15185285789E-01 -0.10137292324E+00  0.13171524529E+00  0.20392827104E-01 0.  0.
         14    1    1    2    0    0 -0.12698628274E-02 -0.20971833842E-01  0.11904048741E-01  0.24148224422E-01  0.00000000000E+00 0. -1.
     999901    1    3    3    0    0 -0.78892322610E-01  0.57865480532E-02  0.89468874504E-01  0.88806653028E+00  0.88000000000E+00 0.  1.
        -11    1    4    4    0    0  0.57493125181E-01  0.82421806469E-02 -0.84797304265E-01  0.10278247378E+00  0.51100000000E-03 0. -1.
         11    1    4    4    0    0  0.22669060256E-01  0.69431051419E-02 -0.16575618980E-01  0.28932771514E-01  0.51100000000E-03 0.  1.
</event>
<event>
 8    1  0.1123191E+005  0.1043930E+01  0.7957747E-01            NaN
         13   -1    0    0    0    0  0.00000000000E+00  0.00000000000E+00  0.74505805969E-08  0.10566000000E+00  0.10566000000E+00 0.  1.
     999900   -1    0    0    0    0 -0.00000000000E+00 -0.00000000000E+00 -0.74505805969E-08  0.93827000000E+00  0.93827000000E+00 0.  1.
     999902    2    1    2    0    0 -0.17077900893E-01 -0.77770647548E-02  0.13099740266E-01  0.10210446197E+01  0.10207881146E+01 0.  0.
     999903    2    3    3    0    0 -0.75108712318E-01 -0.63267507727E-01 -0.85628697206E-01  0.13189105105E+00  0.20466542475E-01 0.  0.
         14    1    1    2    0    0  0.17077900893E-01  0.77770647548E-02 -0.13099740266E-01  0.22885380271E-01  0.00000000000E+00 0.  1.
     999901    1    3    3    0    0  0.58030811425E-01  0.55490442973E-01  0.98728437471E-01  0.88915356868E+00  0.88000000000E+00 0. -1.
        -11    1    4    4    0    0 -0.60011971639E-01 -0.50367246045E-01 -0.56344357713E-01  0.96505150025E-01  0.51100000000E-03 0. -1.
         11    1    4    4    0    0 -0.15096740679E-01 -0.12900261682E-01 -0.29284339493E-01  0.35385901021E-01  0.51100000000E-03 0.  1.
</event>
<event>
 8    1  0.1123191E+005  0.1043930E+01  0.7957747E-01            NaN
         13   -1    0    0    0    0  0.00000000000E+00  0.00000000000E+00  0.74505805969E-08  0.10566000000E+00  0.10566000000E+00 0. -1.
     999900   -1    0    0    0    0 -0.00000000000E+00 -0.00000000000E+00 -0.74505805969E-08  0.93827000000E+00  0.93827000000E+00 0. -1.
     999902    2    1    2    0    0 -0.21782560561E-01 -0.61520717046E-02  0.71093042286E-02  0.10202051156E+01  0.10199292171E+01 0.  0.
     999903    2    3    3    0    0 -0.76826786821E-01 -0.48843448685E-01 -0.93261588290E-01  0.13176449491E+00  0.19393829329E-01 0.  0.
         14    1    1    2    0    0  0.21782560561E-01  0.61520717046E-02 -0.71093042286E-02  0.23724884351E-01  0.00000000000E+00 0.  1.
     999901    1    3    3    0    0  0.55044226261E-01  0.42691376981E-01  0.10037089252E+00  0.88844062074E+00  0.88000000000E+00 0. -1.
        -11    1    4    4    0    0 -0.65828559706E-01 -0.34764353376E-01 -0.68057605839E-01  0.10086653743E+00  0.51100000000E-03 0.  1.
         11    1    4    4    0    0 -0.10998227115E-01 -0.14079095309E-01 -0.25203982451E-01  0.30897957486E-01  0.51100000000E-03 0. -1.
</event>
<event>
 7    1  0.1123191E+005  0.1043930E+01  0.7957747E-01            NaN
         13   -1    0    0    0    0  0.00000000000E+00  0.00000000000E+00  0.74505805969E-08  0.10566000000E+00  0.10566000000E+00 0.  1.
     999900   -1    0    0    0    0 -0.00000000000E+00 -0.00000000000E+00 -0.74505805969E-08  0.93827000000E+00  0.93827000000E+00 0.  1.
     999902    2    1    2    0    0 -0.12352768879E-01  0.62949166620E-02 -0.19313108212E-01  0.10201557908E+01  0.10198787303E+01 0.  0.
         14    1    1    2    0    0  0.12352768879E-01 -0.62949166620E-02  0.19313108212E-01  0.23774209210E-01  0.00000000000E+00 0.  1.
     999901    1    3    3    0    0  0.29268170570E-01 -0.85139747582E-01  0.58679395722E-01  0.88653746334E+00  0.88000000000E+00 0. -1.
        -11    1    3    3    0    0 -0.99044748664E-02  0.36205953534E-01 -0.53553807116E-01  0.65400619808E-01  0.51100000000E-03 0.  1.
         11    1    3    3    0    0 -0.31716464583E-01  0.55228710710E-01 -0.24438696819E-01  0.68217707639E-01  0.51100000000E-03 0. -1.
</event>
<event>
 8    1  0.1123191E+005  0.1043930E+01  0.7957747E-01            NaN
         13   -1    0    0    0    0  0.00000000000E+00  0.00000000000E+00  0.74505805969E-08  0.10566000000E+00  0.10566000000E+00 0.  1.
     999900   -1    0    0    0    0 -0.00000000000E+00 -0.00000000000E+00 -0.74505805969E-08  0.93827000000E+00  0.93827000000E+00 0.  1.
     999902    2    1    2    0    0 -0.17191933145E-01  0.11240072825E-01  0.11856661149E-01  0.10202132925E+01  0.10199375863E+01 0.  0.
     999903    2    3    3    0    0  0.11988480369E+00  0.43118834174E-01 -0.36111825029E-02  0.12889654664E+00  0.19227040345E-01 0.  0.
         14    1    1    2    0    0  0.17191933145E-01 -0.11240072825E-01 -0.11856661149E-01  0.23716707528E-01  0.00000000000E+00 0. -1.
     999901    1    3    3    0    0 -0.13707673684E+00 -0.31878761349E-01  0.15467843651E-01  0.89131674583E+00  0.88000000000E+00 0. -1.
        -11    1    4    4    0    0  0.13326777543E-01  0.67882933734E-02 -0.64090164761E-02  0.16279451458E-01  0.51100000000E-03 0.  1.
         11    1    4    4    0    0  0.10655802615E+00  0.36330540801E-01  0.27978339732E-02  0.11261709519E+00  0.51100000000E-03 0. -1.
</event>
<event>
 8    1  0.1123191E+005  0.1043930E+01  0.7957747E-01            NaN
         13   -1    0    0    0    0  0.00000000000E+00  0.00000000000E+00  0.74505805969E-08  0.10566000000E+00  0.10566000000E+00 0.  1.
     999900   -1    0    0    0    0 -0.00000000000E+00 -0.00000000000E+00 -0.74505805969E-08  0.93827000000E+00  0.93827000000E+00 0.  1.
     999902    2    1    2    0    0  0.12476026427E-01 -0.87455354254E-02 -0.17574345596E-01  0.10206707384E+01  0.10204056855E+01 0.  0.
     999903    2    3    3    0    0  0.64252008124E-02  0.51045435026E-01  0.11599401600E+00  0.12856531874E+00  0.20676309914E-01 0.  0.
         14    1    1    2    0    0 -0.12476026427E-01  0.87455354254E-02  0.17574345596E-01  0.23259261562E-01  0.00000000000E+00 0.  1.
     999901    1    3    3    0    0  0.60508256149E-02 -0.59790970451E-01 -0.13356836160E+00  0.89210541970E+00  0.88000000000E+00 0.  1.
        -11    1    4    4    0    0 -0.43361703586E-03  0.23935205761E-02  0.25252608367E-01  0.25374639206E-01  0.51100000000E-03 0.  1.
         11    1    4    4    0    0  0.68588178482E-02  0.48651914450E-01  0.90741407634E-01  0.10319067953E+00  0.51100000000E-03 0. -1.
</event>
<event>
 8    1  0.1123191E+005  0.1043930E+01  0.7957747E-01            NaN
         13   -1    0    0    0    0  0.00000000000E+00  0.00000000000E+00  0.74505805969E-08  0.10566000000E+00  0.10566000000E+00 0.  1.
     999900   -1    0    0    0    0 -0.00000000000E+00 -0.00000000000E+00 -0.74505805969E-08  0.93827000000E+00  0.93827000000E+00 0. -1.
     999902    2    1    2    0    0  0.16322400806E-01  0.14691130779E-01  0.11170560405E-01  0.10192919905E+01  0.10189941758E+01 0.  0.
     999903    2    3    3    0    0 -0.63284885491E-01  0.87127299142E-01  0.71470296135E-01  0.13068612926E+00  0.19357638416E-01 0.  0.
         14    1    1    2    0    0 -0.16322400806E-01 -0.14691130779E-01 -0.11170560405E-01  0.24638009485E-01  0.00000000000E+00 0. -1.
     999901    1    3    3    0    0  0.79607286297E-01 -0.72436168363E-01 -0.60299735731E-01  0.88860586125E+00  0.88000000000E+00 0. -1.
        -11    1    4    4    0    0 -0.49285343973E-02  0.19080569976E-01  0.11330453646E-01  0.22737609873E-01  0.51100000000E-03 0.  1.
         11    1    4    4    0    0 -0.58356351094E-01  0.68046729167E-01  0.60139842489E-01  0.10794851939E+00  0.51100000000E-03 0. -1.
</event>
<event>
 8    1  0.1123191E+005  0.1043930E+01  0.7957747E-01            NaN
         13   -1    0    0    0    0  0.00000000000E+00  0.00000000000E+00  0.74505805969E-08  0.10566000000E+00  0.10566000000E+00 0.  1.
     999900   -1    0    0    0    0 -0.00000000000E+00 -0.00000000000E+00 -0.74505805969E-08  0.93827000000E+00  0.93827000000E+00 0. -1.
     999902    2    1    2    0    0 -0.86176358159E-02  0.10672538636E-01  0.21777919929E-01  0.10181920023E+01  0.10178666460E+01 0.  0.
     999903    2    3    3    0    0 -0.10910984730E+00  0.65950212939E-01  0.10130931537E-01  0.13067301200E+00  0.26803188729E-01 0.  0.
         14    1    1    2    0    0  0.86176358159E-02 -0.10672538636E-01 -0.21777919929E-01  0.25737997677E-01  0.00000000000E+00 0. -1.
     999901    1    3    3    0    0  0.10049221149E+00 -0.55277674304E-01  0.11646988392E-01  0.88751899032E+00  0.88000000000E+00 0.  1.
        -11    1    4    4    0    0 -0.52961783566E-01  0.47431001962E-01  0.36186775123E-02  0.71189931967E-01  0.51100000000E-03 0. -1.
         11    1    4    4    0    0 -0.56148063737E-01  0.18519210978E-01  0.65122540250E-02  0.59483080032E-01  0.51100000000E-03 0.  1.
</event>
<event>
 8    1  0.1123191E+005  0.1043930E+01  0.7957747E-01            NaN
         13   -1    0    0    0    0  0.00000000000E+00  0.00000000000E+00  0.74505805969E-08  0.10566000000E+00  0.10566000000E+00 0. -1.
     999900   -1    0    0    0    0 -0.00000000000E+00 -0.00000000000E+00 -0.74505805969E-08  0.93827000000E+00  0.93827000000E+00 0.  1.
     999902    2    1    2    0    0 -0.11160089248E-01  0.25519802180E-02 -0.21881094474E-01  0.10192350108E+01  0.10189358001E+01 0.  0.
     999903    2    3    3    0    0  0.47470555107E-02  0.12487976147E+00 -0.31827443781E-01  0.13057531601E+00  0.20480176101E-01 0.  0.
         14    1    1    2    0    0  0.11160089248E-01 -0.25519802180E-02  0.21881094474E-01  0.24694989177E-01  0.00000000000E+00 0. -1.
     999901    1    3    3    0    0 -0.15907144759E-01 -0.12232778125E+00  0.99463493070E-02  0.88865969481E+00  0.88000000000E+00 0. -1.
        -11    1    4    4    0    0 -0.50588206023E-03  0.23637447659E-01  0.19198105577E-02  0.23726180520E-01  0.51100000000E-03 0. -1.
         11    1    4    4    0    0  0.52529375709E-02  0.10124231381E+00 -0.33747254339E-01  0.10684913549E+00  0.51100000000E-03 0.  1.
</event>
<event>
 8    1  0.1123191E+005  0.1043930E+01  0.7957747E-01            NaN
         13   -1    0    0    0    0  0.00000000000E+00  0.00000000000E+00  0.74505805969E-08  0.10566000000E+00  0.10566000000E+00 0. -1.
     999900   -1    0    0    0    0 -0.00000000000E+00 -0.00000000000E+00 -0.74505805969E-08  0.93827000000E+00  0.93827000000E+00 0.  1.
     999902    2    1    2    0    0 -0.22989887522E-01 -0.16333855375E-02  0.57113893855E-02  0.10201850459E+01  0.10199086748E+01 0.  0.
     999903    2    3    3    0    0  0.11075001227E-01 -0.10747626142E+00 -0.69409004586E-01  0.13001303746E+00  0.20297230613E-01 0.  0.
         14    1    1    2    0    0  0.22989887522E-01  0.16333855375E-02 -0.57113893855E-02  0.23744954102E-01  0.00000000000E+00 0.  1.
     999901    1    3    3    0    0 -0.34064888750E-01  0.10584287588E+00  0.75120393972E-01  0.89017200844E+00  0.88000000000E+00 0.  1.
        -11    1    4    4    0    0  0.46177056985E-02 -0.23213712148E-01 -0.61821640494E-02  0.24467936385E-01  0.51100000000E-03 0.  1.
         11    1    4    4    0    0  0.64572955287E-02 -0.84262549271E-01 -0.63226840537E-01  0.10554510107E+00  0.51100000000E-03 0. -1.
</event>
<event>
 8    1  0.1123191E+005  0.1043930E+01  0.7957747E-01            NaN
         13   -1    0    0    0    0  0.00000000000E+00  0.00000000000E+00  0.74505805969E-08  0.10566000000E+00  0.10566000000E+00 0. -1.
     999900   -1    0    0    0    0 -0.00000000000E+00 -0.00000000000E+00 -0.74505805969E-08  0.93827000000E+00  0.93827000000E+00 0. -1.
     999902    2    1    2    0    0 -0.16566547628E-01 -0.12414079350E-01  0.13311758804E-01  0.10193177512E+01  0.10190205666E+01 0.  0.
     999903    2    3    3    0    0  0.74184514031E-01  0.48427666746E-01 -0.88424521696E-01  0.12674408816E+00  0.19914487634E-01 0.  0.
         14    1    1    2    0    0  0.16566547628E-01  0.12414079350E-01 -0.13311758804E-01  0.24612248757E-01  0.00000000000E+00 0.  1.
     999901    1    3    3    0    0 -0.90751061659E-01 -0.60841746096E-01  0.10173628050E+00  0.89257366308E+00  0.88000000000E+00 0.  1.
        -11    1    4    4    0    0  0.34064918748E-01  0.26109647992E-01 -0.29674775391E-01  0.52182236662E-01  0.51100000000E-03 0. -1.
         11    1    4    4    0    0  0.40119595283E-01  0.22318018754E-01 -0.58749746306E-01  0.74561851497E-01  0.51100000000E-03 0.  1.
</event>
<event>
 8    1  0.1123191E+005  0.1043930E+01  0.7957747E-01            NaN
         13   -1    0    0    0    0  0.00000000000E+00  0.00000000000E+00  0.74505805969E-08  0.10566000000E+00  0.10566000000E+00 0. -1.
     999900   -1    0    0    0    0 -0.00000000000E+00 -0.00000000000E+00 -0.74505805969E-08  0.93827000000E+00  0.93827000000E+00 0.  1.
     999902    2    1    2    0    0  0.23195757856E-01 -0.10519553956E-01  0.21578028513E-02  0.10183690863E+01  0.10180482481E+01 0.  0.
     999903    2    3    3    0    0 -0.70834148144E-01  0.92410404469E-01 -0.44466387899E-01  0.12617515290E+00  0.19640523401E-01 0.  0.
         14    1    1    2    0    0 -0.23195757856E-01  0.10519553956E-01 -0.21578028513E-02  0.25560913737E-01  0.00000000000E+00 0. -1.
     999901    1    3    3    0    0  0.94029906000E-01 -0.10292995843E+00  0.46624190750E-01  0.89219393336E+00  0.88000000000E+00 0.  1.
        -11    1    4    4    0    0 -0.27980490885E-01  0.52129544656E-01 -0.19724352241E-01  0.62367527516E-01  0.51100000000E-03 0. -1.
         11    1    4    4    0    0 -0.42853657259E-01  0.40280859814E-01 -0.24742035658E-01  0.63807625385E-01  0.51100000000E-03 0.  1.
</event>
<event>
 8    1  0.1123191E+005  0.1043930E+01  0.7957747E-01            NaN
         13   -1    0    0    0    0  0.00000000000E+00  0.00000000000E+00  0.74505805969E-08  0.10566000000E+00  0.10566000000E+00 0.  1.
     999900   -1    0    0    0    0 -0.00000000000E+00 -0.00000000000E+00 -0.74505805969E-08  0.93827000000E+00  0.93827000000E+00 0.  1.
     999902    2    1    2    0    0 -0.15088535299E-01 -0.15764088795E-01  0.59431162929E-03  0.10221005795E+01  0.10218674430E+01 0.  0.
     999903    2    3    3    0    0  0.97282254295E-01  0.71929580126E-01 -0.41229566979E-01  0.12965079898E+00  0.21719829332E-01 0.  0.
         14    1    1    2    0    0  0.15088535299E-01  0.15764088795E-01 -0.59431162929E-03  0.21829420499E-01  0.00000000000E+00 0. -1.
     999901    1    3    3    0    0 -0.11237078959E+00 -0.87693668921E-01  0.41823878608E-01  0.89244978052E+00  0.88000000000E+00 0.  1.
        -11    1    4    4    0    0  0.23148067837E-01  0.27096952060E-01 -0.60914565291E-02  0.36158606433E-01  0.51100000000E-03 0. -1.
         11    1    4    4    0    0  0.74134186458E-01  0.44832628066E-01 -0.35138110450E-01  0.93492192552E-01  0.51100000000E-03 0.  1.
</event>
<event>
 8    1  0.1123191E+005  0.1043930E+01  0.7957747E-01            NaN
         13   -1    0    0    0    0  0.00000000000E+00  0.00000000000E+00  0.74505805969E-08  0.10566000000E+00  0.10566000000E+00 0.  1.
     999900   -1    0    0    0    0 -0.00000000000E+00 -0.00000000000E+00 -0.74505805969E-08  0.93827000000E+00  0.93827000000E+00 0. -1.
     999902    2    1    2    0    0 -0.20842345436E-01  0.12587273440E-04 -0.15423084609E-01  0.10180017324E+01  0.10176714854E+01 0.  0.
     999903    2    3    3    0    0 -0.11691823923E+00  0.44666457908E-01 -0.34274327997E-01  0.13144664956E+00  0.20940988421E-01 0.  0.
         14    1    1    2    0    0  0.20842345436E-01 -0.12587273440E-04  0.15423084609E-01  0.25928267596E-01  0.00000000000E+00 0.  1.
     999901    1    3    3    0    0  0.96075893791E-01 -0.44653870635E-01  0.18851243388E-01  0.88655508284E+00  0.88000000000E+00 0.  1.
        -11    1    4    4    0    0 -0.80767809824E-01  0.40690810515E-01 -0.22228746632E-01  0.93131946517E-01  0.51100000000E-03 0. -1.
         11    1    4    4    0    0 -0.36150429403E-01  0.39756473928E-02 -0.12045581364E-01  0.38314703047E-01  0.51100000000E-03 0.  1.
</event>
<event>
 8    1  0.1123191E+005  0.1043930E+01  0.7957747E-01            NaN
         13   -1    0    0    0    0  0.00000000000E+00  0.00000000000E+00  0.74505805969E-08  0.10566000000E+00  0.10566000000E+00 0.  1.
     999900   -1    0    0    0    0 -0.00000000000E+00 -0.00000000000E+00 -0.74505805969E-08  0.93827000000E+00  0.93827000000E+00 0. -1.
     999902    2    1    2    0    0 -0.23042595959E-01  0.59191001358E-02  0.52444143473E-02  0.10195681270E+01  0.10192770304E+01 0.  0.
     999903    2    3    3    0    0  0.64506911299E-01 -0.78467754593E-01  0.76016364404E-01  0.12839209141E+00  0.19690387570E-01 0.  0.
         14    1    1    2    0    0  0.23042595959E-01 -0.59191001358E-02 -0.52444143473E-02  0.24361873015E-01  0.00000000000E+00 0.  1.
     999901    1    3    3    0    0 -0.87549507258E-01  0.84386854729E-01 -0.70771950056E-01  0.89117603558E+00  0.88000000000E+00 0.  1.
        -11    1    4    4    0    0  0.44120667640E-01 -0.60508800685E-01  0.45929003237E-01  0.87850342815E-01  0.51100000000E-03 0. -1.
         11    1    4    4    0    0  0.20386243659E-01 -0.17958953908E-01  0.30087361167E-01  0.40541748593E-01  0.51100000000E-03 0.  1.
</event>
<event>
 8    1  0.1123191E+005  0.1043930E+01  0.7957747E-01            NaN
         13   -1    0    0    0    0  0.00000000000E+00  0.00000000000E+00  0.74505805969E-08  0.10566000000E+00  0.10566000000E+00 0. -1.
     999900   -1    0    0    0    0 -0.00000000000E+00 -0.00000000000E+00 -0.74505805969E-08  0.93827000000E+00  0.93827000000E+00 0.  1.
     999902    2    1    2    0    0  0.21526608297E-01  0.97641189628E-02 -0.57951442361E-02  0.10195924451E+01  0.10193019363E+01 0.  0.
     999903    2    3    3    0    0 -0.10444224054E+00 -0.29545080260E-01 -0.64889693593E-01  0.12779340391E+00  0.18422496386E-01 0.  0.
         14    1    1    2    0    0 -0.21526608297E-01 -0.97641189628E-02  0.57951442361E-02  0.24337554943E-01  0.00000000000E+00 0. -1.
     999901    1    3    3    0    0  0.12596884883E+00  0.39309199223E-01  0.59094549357E-01  0.89179904114E+00  0.88000000000E+00 0. -1.
        -11    1    4    4    0    0 -0.57923343752E-01 -0.25112268630E-01 -0.41313932327E-01  0.75450923868E-01  0.51100000000E-03 0.  1.
         11    1    4    4    0    0 -0.46518896785E-01 -0.44328116306E-02 -0.23575761266E-01  0.52342480046E-01  0.51100000000E-03 0. -1.
</event>
<event>
 8    1  0.1123191E+005  0.1043930E+01  0.7957747E-01            NaN
         13   -1    0    0    0    0  0.00000000000E+00  0.00000000000E+00  0.74505805969E-08  0.10566000000E+00  0.10566000000E+00 0.  1.
     999900   -1    0    0    0    0 -0.00000000000E+00 -0.00000000000E+00 -0.74505805969E-08  0.93827000000E+00  0.93827000000E+00 0.  1.
     999902    2    1    2    0    0 -0.23164548602E-01 -0.74785099037E-02 -0.82672554382E-02  0.10182225704E+01  0.10178979964E+01 0.  0.
     999903    2    3    3    0    0  0.26653783480E-01 -0.12396410543E+00  0.80175178871E-02  0.12900046431E+00  0.22345370664E-01 0.  0.
         14    1    1    2    0    0  0.23164548602E-01  0.74785099037E-02  0.82672554382E-02  0.25707429564E-01  0.00000000000E+00 0.  1.
     999901    1    3    3    0    0 -0.49818332081E-01  0.11648559553E+00 -0.16284773325E-01  0.88922210612E+00  0.88000000000E+00 0.  1.
        -11    1    4    4    0    0  0.16874666269E-01 -0.32992389877E-01  0.55147666906E-02  0.37468999508E-01  0.51100000000E-03 0. -1.
         11    1    4    4    0    0  0.97791172104E-02 -0.90971715556E-01  0.25027511965E-02  0.91531464804E-01  0.51100000000E-03 0.  1.
</event>
<event>
 8    1  0.1123191E+005  0.1043930E+01  0.7957747E-01            NaN
         13   -1    0    0    0    0  0.00000000000E+00  0.00000000000E+00  0.74505805969E-08  0.10566000000E+00  0.10566000000E+00 0.  1.
     999900   -1    0    0    0    0 -0.00000000000E+00 -0.00000000000E+00 -0.74505805969E-08  0.93827000000E+00  0.93827000000E+00 0.  1.
     999902    2    1    2    0    0  0.87075029378E-02  0.59911700755E-02 -0.20151740682E-01  0.10211746187E+01  0.10209210520E+01 0.  0.
     999903    2    3    3    0    0  0.47034125029E-02 -0.92756465650E-01 -0.92770204500E-01  0.13266993688E+00  0.19212425662E-01 0.  0.
         14    1    1    2    0    0 -0.87075029378E-02 -0.59911700755E-02  0.20151740682E-01  0.22755381315E-01  0.00000000000E+00 0.  1.
     999901    1    3    3    0    0  0.40040904349E-02  0.98747635726E-01  0.72618463818E-01  0.88850468180E+00  0.88000000000E+00 0. -1.
        -11    1    4    4    0    0  0.54401825580E-02 -0.30975250039E-01 -0.43298333532E-01  0.53516992712E-01  0.51100000000E-03 0.  1.
         11    1    4    4    0    0 -0.73677005516E-03 -0.61781215611E-01 -0.49471870967E-01  0.79152944168E-01  0.51100000000E-03 0. -1.
</event>
<event>
 8    1  0.1123191E+005  0.1043930E+01  0.7957747E-01            NaN
         13   -1    0    0    0    0  0.00000000000E+00  0.00000000000E+00  0.74505805969E-08  0.10566000000E+00  0.10566000000E+00 0. -1.
     999900   -1    0    0    0    0 -0.00000000000E+00 -0.00000000000E+00 -0.74505805969E-08  0.93827000000E+00  0.93827000000E+00 0. -1.
     999902    2    1    2    0    0  0.23352299317E-01  0.37593824296E-02  0.51910224010E-02  0.10197141054E+01  0.10194265286E+01 0.  0.
     999903    2    3    3    0    0 -0.46460750991E-01  0.18115912491E-01  0.11803332448E+00  0.12965042388E+00  0.19763073097E-01 0.  0.
         14    1    1    2    0    0 -0.23352299317E-01 -0.37593824296E-02 -0.51910224010E-02  0.24215894640E-01  0.00000000000E+00 0.  1.
     999901    1    3    3    0    0  0.69813050307E-01 -0.14356530061E-01 -0.11284230207E+00  0.89006368148E+00  0.88000000000E+00 0. -1.
        -11    1    4    4    0    0 -0.41961641574E-01  0.11926870889E-01  0.82778516006E-01  0.93571221249E-01  0.51100000000E-03 0.  1.
         11    1    4    4    0    0 -0.44991094165E-02  0.61890416014E-02  0.35254808469E-01  0.36079202634E-01  0.51100000000E-03 0. -1.
</event>
<event>
 8    1  0.1123191E+005  0.1043930E+01  0.7957747E-01            NaN
         13   -1    0    0    0    0  0.00000000000E+00  0.00000000000E+00  0.74505805969E-08  0.10566000000E+00  0.10566000000E+00 0.  1.
     999900   -1    0    0    0    0 -0.00000000000E+00 -0.00000000000E+00 -0.74505805969E-08  0.93827000000E+00  0.93827000000E+00 0. -1.
     999902    2    1    2    0    0  0.72913265416E-02  0.21095786018E-01 -0.63453116125E-02  0.10207252891E+01  0.10204614922E+01 0.  0.
     999903    2    3    3    0    0 -0.49864921933E-01  0.34677453309E-02 -0.11984394994E+00  0.13142245793E+00  0.20267077043E-01 0.  0.
         14    1    1    2    0    0 -0.72913265416E-02 -0.21095786018E-01  0.63453116125E-02  0.23204710942E-01  0.00000000000E+00 0. -1.
     999901    1    3    3    0    0  0.57156248475E-01  0.17628040687E-01  0.11349863833E+00  0.88930283113E+00  0.88000000000E+00 0.  1.
        -11    1    4    4    0    0 -0.46489952728E-01  0.27419888348E-02 -0.89634131459E-01  0.10101174610E+00  0.51100000000E-03 0.  1.
         11    1    4    4    0    0 -0.33749692051E-02  0.72575649604E-03 -0.30209818485E-01  0.30410711822E-01  0.51100000000E-03 0. -1.
</event>
<event>
 8    1  0.1262911E+005  0.1043930E+01  0.7957747E-01            NaN
         13   -1    0    0    0    0  0.00000000000E+00  0.00000000000E+00  0.74505805969E-08  0.10566000000E+00  0.10566000000E+00 0. -1.
     999900   -1    0    0    0    0 -0.00000000000E+00 -0.00000000000E+00 -0.74505805969E-08  0.93827000000E+00  0.93827000000E+00 0. -1.
     999902    2    1    2    0    0  0.22587651814E-01  0.90122172882E-02 -0.13365124408E-02  0.10195741313E+01  0.10192831799E+01 0.  0.
     999903    2    3    3    0    0 -0.37210674200E-02 -0.16396929262E-01  0.12686542901E+00  0.12953283381E+00  0.20030285155E-01 0.  0.
         14    1    1    2    0    0 -0.22587651814E-01 -0.90122172882E-02  0.13365124408E-02  0.24355868706E-01  0.00000000000E+00 0.  1.
     999901    1    3    3    0    0  0.26308719234E-01  0.25409146551E-01 -0.12820194146E+00  0.89004129749E+00  0.88000000000E+00 0. -1.
        -11    1    4    4    0    0 -0.11812559161E-01 -0.79619422204E-02  0.61672614209E-01  0.63298511375E-01  0.51100000000E-03 0. -1.
         11    1    4    4    0    0  0.80914917412E-02 -0.84349870420E-02  0.65192814805E-01  0.66234322434E-01  0.51100000000E-03 0.  1.
</event>
<event>
 8    1  0.1123191E+005  0.1043930E+01  0.7957747E-01            NaN
         13   -1    0    0    0    0  0.00000000000E+00  0.00000000000E+00  0.74505805969E-08  0.10566000000E+00  0.10566000000E+00 0. -1.
     999900   -1    0    0    0    0 -0.00000000000E+00 -0.00000000000E+00 -0.74505805969E-08  0.93827000000E+00  0.93827000000E+00 0. -1.
     999902    2    1    2    0    0 -0.81110849228E-03 -0.12539635480E-01 -0.18234162869E-01  0.10217853607E+01  0.10215453677E+01 0.  0.
     999903    2    3    3    0    0  0.26293732661E-01 -0.10223352662E+00  0.76287589923E-01  0.13177747967E+00  0.20061241947E-01 0.  0.
         14    1    1    2    0    0  0.81110849228E-03  0.12539635480E-01  0.18234162869E-01  0.22144639317E-01  0.00000000000E+00 0. -1.
     999901    1    3    3    0    0 -0.27104841153E-01  0.89693891140E-01 -0.94521752791E-01  0.89000788102E+00  0.88000000000E+00 0. -1.
        -11    1    4    4    0    0  0.13875480946E-01 -0.36742395107E-01  0.39209645898E-01  0.55499459656E-01  0.51100000000E-03 0. -1.
         11    1    4    4    0    0  0.12418251715E-01 -0.65491131513E-01  0.37077944025E-01  0.76278020010E-01  0.51100000000E-03 0.  1.
</event>
<event>
 8    1  0.1123191E+005  0.1043930E+01  0.7957747E-01            NaN
         13   -1    0    0    0    0  0.00000000000E+00  0.00000000000E+00  0.74505805969E-08  0.10566000000E+00  0.10566000000E+00 0. -1.
     999900   -1    0    0    0    0 -0.00000000000E+00 -0.00000000000E+00 -0.74505805969E-08  0.93827000000E+00  0.93827000000E+00 0. -1.
     999902    2    1    2    0    0 -0.32129970155E-02 -0.20161519377E-01  0.12371638435E-01  0.10200580991E+01  0.10197787299E+01 0.  0.
     999903    2    3    3    0    0 -0.11223193629E+00  0.39385559618E-01 -0.46477288647E-01  0.12938746419E+00  0.20826610377E-01 0.  0.
         14    1    1    2    0    0  0.32129970155E-02  0.20161519377E-01 -0.12371638435E-01  0.23871900866E-01  0.00000000000E+00 0. -1.
     999901    1    3    3    0    0  0.10901893927E+00 -0.59547078995E-01  0.58848927083E-01  0.89067063495E+00  0.88000000000E+00 0. -1.
        -11    1    4    4    0    0 -0.26785235658E-01  0.18240208835E-01 -0.16714380858E-01  0.36466227061E-01  0.51100000000E-03 0.  1.
         11    1    4    4    0    0 -0.85446700629E-01  0.21145350784E-01 -0.29762907789E-01  0.92921237126E-01  0.51100000000E-03 0. -1.
</event>
<event>
 8    1  0.1123191E+005  0.1043930E+01  0.7957747E-01            NaN
         13   -1    0    0    0    0  0.00000000000E+00  0.00000000000E+00  0.74505805969E-08  0.10566000000E+00  0.10566000000E+00 0.  1.
     999900   -1    0    0    0    0 -0.00000000000E+00 -0.00000000000E+00 -0.74505805969E-08  0.93827000000E+00  0.93827000000E+00 0. -1.
     999902    2    1    2    0    0  0.98112453554E-02 -0.18794876939E-01 -0.10918299353E-01  0.10200822077E+01  0.10198034092E+01 0.  0.
     999903    2    3    3    0    0  0.11422950995E+00 -0.39261990189E-01  0.48498242766E-01  0.13168342219E+00  0.19963950248E-01 0.  0.
         14    1    1    2    0    0 -0.98112453554E-02  0.18794876939E-01  0.10918299353E-01  0.23847792253E-01  0.00000000000E+00 0.  1.
     999901    1    3    3    0    0 -0.10441826460E+00  0.20467113250E-01 -0.59416542118E-01  0.88839878556E+00  0.88000000000E+00 0. -1.
        -11    1    4    4    0    0  0.10205990643E+00 -0.28764607646E-01  0.38843352373E-01  0.11292782783E+00  0.51100000000E-03 0.  1.
         11    1    4    4    0    0  0.12169603520E-01 -0.10497382543E-01  0.96548903933E-02  0.18755594354E-01  0.51100000000E-03 0. -1.
</event>
<event>
 8    1  0.1123191E+005  0.1043930E+01  0.7957747E-01            NaN
         13   -1    0    0    0    0  0.00000000000E+00  0.00000000000E+00  0.74505805969E-08  0.10566000000E+00  0.10566000000E+00 0.  1.
     999900   -1    0    0    0    0 -0.00000000000E+00 -0.00000000000E+00 -0.74505805969E-08  0.93827000000E+00  0.93827000000E+00 0.  1.
     999902    2    1    2    0    0  0.16376526591E-01  0.58145310366E-02  0.16137649528E-01  0.10202145382E+01  0.10199388614E+01 0.  0.
     999903    2    3    3    0    0 -0.10682079277E+00  0.51472525474E-01  0.49037087017E-01  0.12985247428E+00  0.19923014964E-01 0.  0.
         14    1    1    2    0    0 -0.16376526591E-01 -0.58145310366E-02 -0.16137649528E-01  0.23715461763E-01  0.00000000000E+00 0. -1.
     999901    1    3    3    0    0  0.12319731936E+00 -0.45657994437E-01 -0.32899437488E-01  0.89036206396E+00  0.88000000000E+00 0.  1.
        -11    1    4    4    0    0 -0.21043960062E-01  0.11869903742E-01  0.18912886292E-01  0.30687151364E-01  0.51100000000E-03 0.  1.
         11    1    4    4    0    0 -0.85776832710E-01  0.39602621732E-01  0.30124200724E-01  0.99165322912E-01  0.51100000000E-03 0. -1.
</event>
<event>
 8    1  0.1123191E+005  0.1043930E+01  0.7957747E-01            NaN
         13   -1    0    0    0    0  0.00000000000E+00  0.00000000000E+00  0.74505805969E-08  0.10566000000E+00  0.10566000000E+00 0. -1.
     999900   -1    0    0    0    0 -0.00000000000E+00 -0.00000000000E+00 -0.74505805969E-08  0.93827000000E+00  0.93827000000E+00 0. -1.
     999902    2    1    2    0    0  0.12958671489E-01 -0.59365898226E-02  0.18239370744E-01  0.10207816759E+01  0.10205191742E+01 0.  0.
     999903    2    3    3    0    0  0.32403930033E-01 -0.11225354485E+00  0.61023422732E-01  0.13313766607E+00  0.18732511624E-01 0.  0.
         14    1    1    2    0    0 -0.12958671489E-01  0.59365898226E-02 -0.18239370744E-01  0.23148324143E-01  0.00000000000E+00 0.  1.
     999901    1    3    3    0    0 -0.19445258544E-01  0.10631695503E+00 -0.42784051988E-01  0.88764400979E+00  0.88000000000E+00 0. -1.
        -11    1    4    4    0    0  0.14609052983E-01 -0.64132562324E-01  0.43755922725E-01  0.79001594122E-01  0.51100000000E-03 0. -1.
         11    1    4    4    0    0  0.17794877050E-01 -0.48120982526E-01  0.17267500007E-01  0.54136071948E-01  0.51100000000E-03 0.  1.
</event>
<event>
 8    1  0.1123191E+005  0.1043930E+01  0.7957747E-01            NaN
         13   -1    0    0    0    0  0.00000000000E+00  0.00000000000E+00  0.74505805969E-08  0.10566000000E+00  0.10566000000E+00 0. -1.
     999900   -1    0    0    0    0 -0.00000000000E+00 -0.00000000000E+00 -0.74505805969E-08  0.93827000000E+00  0.93827000000E+00 0.  1.
     999902    2    1    2    0    0 -0.54354980149E-02  0.22141719510E-01  0.50999461451E-03  0.10211251655E+01  0.10208704831E+01 0.  0.
     999903    2    3    3    0    0  0.26076033104E-01  0.11076594752E+00 -0.67225297938E-01  0.13352429787E+00  0.18985331304E-01 0.  0.
         14    1    1    2    0    0  0.54354980149E-02 -0.22141719510E-01 -0.50999461451E-03  0.22804834488E-01  0.00000000000E+00 0. -1.
     999901    1    3    3    0    0 -0.31511531119E-01 -0.88624228015E-01  0.67735292553E-01  0.88760086764E+00  0.88000000000E+00 0.  1.
        -11    1    4    4    0    0  0.99403640049E-02  0.60571605216E-01 -0.45905378215E-01  0.76650473352E-01  0.51100000000E-03 0.  1.
         11    1    4    4    0    0  0.16135669099E-01  0.50194342309E-01 -0.21319919724E-01  0.56873824516E-01  0.51100000000E-03 0. -1.
</event>
<event>
 8    1  0.1123191E+005  0.1043930E+01  0.7957747E-01            NaN
         13   -1    0    0    0    0  0.00000000000E+00  0.00000000000E+00  0.74505805969E-08  0.10566000000E+00  0.10566000000E+00 0.  1.
     999900   -1    0    0    0    0 -0.00000000000E+00 -0.00000000000E+00 -0.74505805969E-08  0.93827000000E+00  0.93827000000E+00 0.  1.
     999902    2    1    2    0    0 -0.80009220481E-03 -0.50636568021E-02 -0.22796245860E-01  0.10205644357E+01  0.10202969263E+01 0.  0.
     999903    2    3    3    0    0 -0.15393726119E-01 -0.10900978269E+00  0.65904811171E-01  0.12989859001E+00  0.20250926535E-01 0.  0.
         14    1    1    2    0    0  0.80009220481E-03  0.50636568021E-02  0.22796245860E-01  0.23365564257E-01  0.00000000000E+00 0.  1.
     999901    1    3    3    0    0  0.14593633914E-01  0.10394612589E+00 -0.88701057032E-01  0.89066584573E+00  0.88000000000E+00 0. -1.
        -11    1    4    4    0    0 -0.18271410733E-01 -0.78532528583E-01  0.41144960143E-01  0.90522767091E-01  0.51100000000E-03 0.  1.
         11    1    4    4    0    0  0.28776846138E-02 -0.30477254105E-01  0.24759851029E-01  0.39375822918E-01  0.51100000000E-03 0. -1.
</event>
<event>
 8    1  0.1123191E+005  0.1043930E+01  0.7957747E-01            NaN
         13   -1    0    0    0    0  0.00000000000E+00  0.00000000000E+00  0.74505805969E-08  0.10566000000E+00  0.10566000000E+00 0. -1.
     999900   -1    0    0    0    0 -0.00000000000E+00 -0.00000000000E+00 -0.74505805969E-08  0.93827000000E+00  0.93827000000E+00 0. -1.
     999902    2    1    2    0    0 -0.42931082944E-02  0.22496037213E-01  0.57100887305E-02  0.10203268735E+01  0.10200538325E+01 0.  0.
     999903    2    3    3    0    0 -0.10597179064E+00 -0.15507340092E-01 -0.71629373396E-01  0.13029080479E+00  0.19350159454E-01 0.  0.
         14    1    1    2    0    0  0.42931082944E-02 -0.22496037213E-01 -0.57100887305E-02  0.23603126540E-01  0.00000000000E+00 0.  1.
     999901    1    3    3    0    0  0.10167868235E+00  0.38003377306E-01  0.77339462127E-01  0.89003606867E+00  0.88000000000E+00 0.  1.
        -11    1    4    4    0    0 -0.92650690964E-01 -0.19880064585E-01 -0.61131810702E-01  0.11276846591E+00  0.51100000000E-03 0. -1.
         11    1    4    4    0    0 -0.13321099679E-01  0.43727244931E-02 -0.10497562695E-01  0.17522338876E-01  0.51100000000E-03 0.  1.
</event>
<event>
 8    1  0.1123191E+005  0.1043930E+01  0.7957747E-01            NaN
         13   -1    0    0    0    0  0.00000000000E+00  0.00000000000E+00  0.74505805969E-08  0.10566000000E+00  0.10566000000E+00 0.  1.
     999900   -1    0    0    0    0 -0.00000000000E+00 -0.00000000000E+00 -0.74505805969E-08  0.93827000000E+00  0.93827000000E+00 0.  1.
     999902    2    1    2    0    0 -0.24124213075E-01 -0.52954054633E-02  0.85294535545E-04  0.10192312905E+01  0.10189319886E+01 0.  0.
     999903    2    3    3    0    0  0.88421040723E-01  0.51532771343E-01  0.72827123403E-01  0.12727431312E+00  0.20519598274E-01 0.  0.
         14    1    1    2    0    0  0.24124213075E-01  0.52954054633E-02 -0.85294535545E-04  0.24698709494E-01  0.00000000000E+00 0.  1.
     999901    1    3    3    0    0 -0.11254525380E+00 -0.56828176806E-01 -0.72741828868E-01  0.89195697738E+00  0.88000000000E+00 0.  1.
        -11    1    4    4    0    0  0.21991483150E-01  0.55371730090E-02  0.94064818743E-02  0.24556641430E-01  0.51100000000E-03 0.  1.
         11    1    4    4    0    0  0.66429557573E-01  0.45995598334E-01  0.63420641529E-01  0.10271767169E+00  0.51100000000E-03 0. -1.
</event>
<event>
 8    1  0.1123191E+005  0.1043930E+01  0.7957747E-01            NaN
         13   -1    0    0    0    0  0.00000000000E+00  0.00000000000E+00  0.74505805969E-08  0.10566000000E+00  0.10566000000E+00 0.  1.
     999900   -1    0    0    0    0 -0.00000000000E+00 -0.00000000000E+00 -0.74505805969E-08  0.93827000000E+00  0.93827000000E+00 0.  1.
     999902    2    1    2    0    0 -0.17259320830E-01 -0.78844073371E-03 -0.17189108936E-01  0.10195584744E+01  0.10192671443E+01 0.  0.
     999903    2    3    3    0    0  0.11401413218E+00 -0.54428865089E-01 -0.25871713265E-02  0.12808596715E+00  0.20918839229E-01 0.  0.
         14    1    1    2    0    0  0.17259320830E-01  0.78844073371E-03  0.17189108936E-01  0.24371525605E-01  0.00000000000E+00 0. -1.
     999901    1    3    3    0    0 -0.13127345301E+00  0.53640424356E-01 -0.14601937609E-01  0.89147250724E+00  0.88000000000E+00 0. -1.
        -11    1    4    4    0    0  0.40999989461E-01 -0.29438823079E-01 -0.60270960465E-02  0.50835326770E-01  0.51100000000E-03 0.  1.
         11    1    4    4    0    0  0.73014142717E-01 -0.24990042010E-01  0.34399247200E-02  0.77250640382E-01  0.51100000000E-03 0. -1.
</event>
<event>
 8    1  0.1123191E+005  0.1043930E+01  0.7957747E-01            NaN
         13   -1    0    0    0    0  0.00000000000E+00  0.00000000000E+00  0.74505805969E-08  0.10566000000E+00  0.10566000000E+00 0. -1.
     999900   -1    0    0    0    0 -0.00000000000E+00 -0.00000000000E+00 -0.74505805969E-08  0.93827000000E+00  0.93827000000E+00 0. -1.
     999902    2    1    2    0    0  0.20463226861E-02 -0.55326082699E-02  0.21097365253E-01  0.10220234710E+01  0.10217886667E+01 0.  0.
     999903    2    3    3    0    0 -0.11084170977E+00  0.62650025568E-01  0.30024172721E-01  0.13215141994E+00  0.18751973644E-01 0.  0.
         14    1    1    2    0    0 -0.20463226861E-02  0.55326082699E-02 -0.21097365253E-01  0.21906528968E-01  0.00000000000E+00 0.  1.
     999901    1    3    3    0    0  0.11288803246E+00 -0.68182633838E-01 -0.89268074684E-02  0.88987205110E+00  0.88000000000E+00 0. -1.
        -11    1    4    4    0    0 -0.71271216658E-01  0.32965072302E-01  0.25079196538E-01  0.82434880577E-01  0.51100000000E-03 0. -1.
         11    1    4    4    0    0 -0.39570493111E-01  0.29684953266E-01  0.49449761834E-02  0.49716539360E-01  0.51100000000E-03 0.  1.
</event>
<event>
 8    1  0.1539262E+005  0.1043930E+01  0.7957747E-01            NaN
         13   -1    0    0    0    0  0.00000000000E+00  0.00000000000E+00  0.74505805969E-08  0.10566000000E+00  0.10566000000E+00 0. -1.
     999900   -1    0    0    0    0 -0.00000000000E+00 -0.00000000000E+00 -0.74505805969E-08  0.93827000000E+00  0.93827000000E+00 0.  1.
     999902    2    1    2    0    0  0.11856643703E-02  0.22621626203E-01  0.46462354691E-02  0.10208057427E+01  0.10205437928E+01 0.  0.
     999903    2    3    3    0    0 -0.82572329889E-01  0.12446629767E-01 -0.98621858388E-01  0.13075898473E+00  0.19963288278E-01 0.  0.
         14    1    1    2    0    0 -0.11856643703E-02 -0.22621626203E-01 -0.46462354691E-02  0.23124257309E-01  0.00000000000E+00 0.  1.
     999901    1    3    3    0    0  0.83757994260E-01  0.10174996436E-01  0.10326809386E+00  0.89004675796E+00  0.88000000000E+00 0. -1.
        -11    1    4    4    0    0 -0.30294411436E-01  0.14351903228E-01 -0.39798281564E-01  0.52037417566E-01  0.51100000000E-03 0. -1.
         11    1    4    4    0    0 -0.52277918453E-01 -0.19052734611E-02 -0.58823576824E-01  0.78721567160E-01  0.51100000000E-03 0.  1.
</event>
<event>
 8    1  0.1123191E+005  0.1043930E+01  0.7957747E-01            NaN
         13   -1    0    0    0    0  0.00000000000E+00  0.00000000000E+00  0.74505805969E-08  0.10566000000E+00  0.10566000000E+00 0. -1.
     999900   -1    0    0    0    0 -0.00000000000E+00 -0.00000000000E+00 -0.74505805969E-08  0.93827000000E+00  0.93827000000E+00 0. -1.
     999902    2    1    2    0    0 -0.13714875650E-01  0.15873048410E-01  0.10873091798E-01  0.10203021434E+01  0.10200285233E+01 0.  0.
     999903    2    3    3    0    0 -0.45127882003E-01 -0.10050896921E+00  0.66418128292E-01  0.13034888509E+00  0.20997272486E-01 0.  0.
         14    1    1    2    0    0  0.13714875650E-01 -0.15873048410E-01 -0.10873091798E-01  0.23627856550E-01  0.00000000000E+00 0.  1.
     999901    1    3    3    0    0  0.31413006353E-01  0.11638201762E+00 -0.55545036494E-01  0.88995325836E+00  0.88000000000E+00 0. -1.
        -11    1    4    4    0    0 -0.23172619439E-01 -0.71759948137E-01  0.38616021249E-01  0.84722598322E-01  0.51100000000E-03 0.  1.
         11    1    4    4    0    0 -0.21955262565E-01 -0.28749021071E-01  0.27802107043E-01  0.45626286764E-01  0.51100000000E-03 0. -1.
</event>
<event>
 8    1  0.1123191E+005  0.1043930E+01  0.7957747E-01            NaN
         13   -1    0    0    0    0  0.00000000000E+00  0.00000000000E+00  0.74505805969E-08  0.10566000000E+00  0.10566000000E+00 0.  1.
     999900   -1    0    0    0    0 -0.00000000000E+00 -0.00000000000E+00 -0.74505805969E-08  0.93827000000E+00  0.93827000000E+00 0.  1.
     999902    2    1    2    0    0 -0.34512777186E-02 -0.13042225950E-01  0.20995573175E-01  0.10189735365E+01  0.10186678767E+01 0.  0.
     999903    2    3    3    0    0  0.45173695950E-02  0.60354104041E-01 -0.10931934439E+00  0.12631878898E+00  0.18511966107E-01 0.  0.
         14    1    1    2    0    0  0.34512777186E-02  0.13042225950E-01 -0.20995573175E-01  0.24956463463E-01  0.00000000000E+00 0. -1.
     999901    1    3    3    0    0 -0.79686473136E-02 -0.73396329992E-01  0.13031491756E+00  0.89265474756E+00  0.88000000000E+00 0. -1.
        -11    1    4    4    0    0 -0.13530641661E-02  0.14339629628E-01 -0.12996156069E-01  0.19406621397E-01  0.51100000000E-03 0.  1.
         11    1    4    4    0    0  0.58704337611E-02  0.46014474414E-01 -0.96323188320E-01  0.10691216758E+00  0.51100000000E-03 0. -1.
</event>
<event>
 8    1  0.1123191E+005  0.1043930E+01  0.7957747E-01            NaN
         13   -1    0    0    0    0  0.00000000000E+00  0.00000000000E+00  0.74505805969E-08  0.10566000000E+00  0.10566000000E+00 0.  1.
     999900   -1    0    0    0    0 -0.00000000000E+00 -0.00000000000E+00 -0.74505805969E-08  0.93827000000E+00  0.93827000000E+00 0. -1.
     999902    2    1    2    0    0 -0.14571767807E-02  0.21124235925E-01  0.10584965727E-01  0.10202572687E+01  0.10199825960E+01 0.  0.
     999903    2    3    3    0    0  0.89020571418E-01 -0.78368502212E-01 -0.44651629112E-01  0.12832895921E+00  0.20205680283E-01 0.  0.
         14    1    1    2    0    0  0.14571767807E-02 -0.21124235925E-01 -0.10584965727E-01  0.23672731297E-01  0.00000000000E+00 0.  1.
     999901    1    3    3    0    0 -0.90477748199E-01  0.99492738138E-01  0.55236594839E-01  0.89192830949E+00  0.88000000000E+00 0.  1.
        -11    1    4    4    0    0  0.34219604387E-01 -0.41691549209E-01 -0.14730748342E-01  0.55914422715E-01  0.51100000000E-03 0.  1.
         11    1    4    4    0    0  0.54800967031E-01 -0.36676953003E-01 -0.29920880770E-01  0.72414536498E-01  0.51100000000E-03 0. -1.
</event>
<event>
 8    1  0.1123191E+005  0.1043930E+01  0.7957747E-01            NaN
         13   -1    0    0    0    0  0.00000000000E+00  0.00000000000E+00  0.74505805969E-08  0.10566000000E+00  0.10566000000E+00 0. -1.
     999900   -1    0    0    0    0 -0.00000000000E+00 -0.00000000000E+00 -0.74505805969E-08  0.93827000000E+00  0.93827000000E+00 0. -1.
     999902    2    1    2    0    0  0.18117158803E-01 -0.97684576216E-02 -0.10067062131E-01  0.10210171227E+01  0.10207599938E+01 0.  0.
     999903    2    3    3    0    0 -0.10755201610E+00  0.27582703418E-01 -0.64302565568E-01  0.12965336944E+00  0.18626179739E-01 0.  0.
         14    1    1    2    0    0 -0.18117158803E-01  0.97684576216E-02  0.10067062131E-01  0.22912877326E-01  0.00000000000E+00 0. -1.
     999901    1    3    3    0    0  0.12566917491E+00 -0.37351161040E-01  0.54235503437E-01  0.89136375324E+00  0.88000000000E+00 0.  1.
        -11    1    4    4    0    0 -0.78600891666E-01  0.11439022072E-01 -0.45687429011E-01  0.91632710793E-01  0.51100000000E-03 0.  1.
         11    1    4    4    0    0 -0.28951124438E-01  0.16143681346E-01 -0.18615136557E-01  0.38020658643E-01  0.51100000000E-03 0. -1.
</event>
<event>
 8    1  0.1123191E+005  0.1043930E+01  0.7957747E-01            NaN
         13   -1    0    0    0    0  0.00000000000E+00  0.00000000000E+00  0.74505805969E-08  0.10566000000E+00  0.10566000000E+00 0. -1.
     999900   -1    0    0    0    0 -0.00000000000E+00 -0.00000000000E+00 -0.74505805969E-08  0.93827000000E+00  0.93827000000E+00 0.  1.
     999902    2    1    2    0    0  0.18400637605E-01  0.73968171469E-02 -0.12832627538E-01  0.10203085543E+01  0.10200350843E+01 0.  0.
     999903    2    3    3    0    0 -0.31481277194E-02 -0.99396827915E-01  0.79413202217E-01  0.12880503493E+00  0.19865553841E-01 0.  0.
         14    1    1    2    0    0 -0.18400637605E-01 -0.73968171469E-02  0.12832627538E-01  0.23621445716E-01  0.00000000000E+00 0. -1.
     999901    1    3    3    0    0  0.21548765324E-01  0.10679364506E+00 -0.92245829756E-01  0.89150351935E+00  0.88000000000E+00 0.  1.
        -11    1    4    4    0    0  0.65158346993E-02 -0.17209385434E-01  0.18049509899E-01  0.25781097289E-01  0.51100000000E-03 0.  1.
         11    1    4    4    0    0 -0.96639624187E-02 -0.82187442481E-01  0.61363692318E-01  0.10302393764E+00  0.51100000000E-03 0. -1.
</event>
<event>
 8    1  0.1123191E+005  0.1043930E+01  0.7957747E-01            NaN
         13   -1    0    0    0    0  0.00000000000E+00  0.00000000000E+00  0.74505805969E-08  0.10566000000E+00  0.10566000000E+00 0.  1.
     999900   -1    0    0    0    0 -0.00000000000E+00 -0.00000000000E+00 -0.74505805969E-08  0.93827000000E+00  0.93827000000E+00 0.  1.
     999902    2    1    2    0    0 -0.40852447902E-02  0.19825381444E-01  0.11521255087E-01  0.10206389225E+01  0.10203731355E+01 0.  0.
     999903    2    3    3    0    0 -0.12392143007E+00 -0.11888535600E-01  0.37185740224E-01  0.13158034754E+00  0.20802655460E-01 0.  0.
         14    1    1    2    0    0  0.40852447902E-02 -0.19825381444E-01 -0.11521255087E-01  0.23291077544E-01  0.00000000000E+00 0.  1.
     999901    1    3    3    0    0  0.11983618528E+00  0.31713917044E-01 -0.25664485137E-01  0.88905857492E+00  0.88000000000E+00 0. -1.
        -11    1    4    4    0    0 -0.60944465311E-01  0.17566157276E-02  0.25497886230E-01  0.66088704587E-01  0.51100000000E-03 0. -1.
         11    1    4    4    0    0 -0.62976964755E-01 -0.13645151328E-01  0.11687853994E-01  0.65491642952E-01  0.51100000000E-03 0.  1.
</event>
<event>
 8    1  0.1123191E+005  0.1043930E+01  0.7957747E-01            NaN
         13   -1    0    0    0    0  0.00000000000E+00  0.00000000000E+00  0.74505805969E-08  0.10566000000E+00  0.10566000000E+00 0.  1.
     999900   -1    0    0    0    0 -0.00000000000E+00 -0.00000000000E+00 -0.74505805969E-08  0.93827000000E+00  0.93827000000E+00 0.  1.
     999902    2    1    2    0    0  0.22190148668E-01  0.31529822595E-02 -0.20638832888E-02  0.10214221434E+01  0.10211741239E+01 0.  0.
     999903    2    3    3    0    0  0.14354720232E-02  0.52329543957E-01  0.11897638000E+00  0.13153460209E+00  0.20137795257E-01 0.  0.
         14    1    1    2    0    0 -0.22190148668E-01 -0.31529822595E-02  0.20638832888E-02  0.22507856612E-01  0.00000000000E+00 0. -1.
     999901    1    3    3    0    0  0.20754676645E-01 -0.49176561698E-01 -0.12104026329E+00  0.88988754130E+00  0.88000000000E+00 0.  1.
        -11    1    4    4    0    0  0.58014693943E-02  0.41645318693E-01  0.10664867915E+00  0.11463939769E+00  0.51100000000E-03 0.  1.
         11    1    4    4    0    0 -0.43659973711E-02  0.10684225265E-01  0.12327700848E-01  0.16895204401E-01  0.51100000000E-03 0. -1.
</event>
<event>
 8    1  0.1123191E+005  0.1043930E+01  0.7957747E-01            NaN
         13   -1    0    0    0    0  0.00000000000E+00  0.00000000000E+00  0.74505805969E-08  0.10566000000E+00  0.10566000000E+00 0. -1.
     999900   -1    0    0    0    0 -0.00000000000E+00 -0.00000000000E+00 -0.74505805969E-08  0.93827000000E+00  0.93827000000E+00 0. -1.
     999902    2    1    2    0    0 -0.14707376161E-01  0.18832918770E-01  0.21165877028E-02  0.10199411341E+01  0.10196589878E+01 0.  0.
     999903    2    3    3    0    0  0.11333717109E-01  0.12856474247E+00 -0.21578398261E-01  0.13242737984E+00  0.20347911687E-01 0.  0.
         14    1    1    2    0    0  0.14707376161E-01 -0.18832918770E-01 -0.21165877028E-02  0.23988865885E-01  0.00000000000E+00 0. -1.
     999901    1    3    3    0    0 -0.26041093270E-01 -0.10973182370E+00  0.23694985964E-01  0.88751375428E+00  0.88000000000E+00 0.  1.
        -11    1    4    4    0    0  0.13064125258E-01  0.47758193483E-01 -0.12673760664E-01  0.51111659569E-01  0.51100000000E-03 0.  1.
         11    1    4    4    0    0 -0.17304081490E-02  0.80806548985E-01 -0.89046375974E-02  0.81315720270E-01  0.51100000000E-03 0. -1.
</event>
<event>
 8    1  0.1123191E+005  0.1043930E+01  0.7957747E-01            NaN
         13   -1    0    0    0    0  0.00000000000E+00  0.00000000000E+00  0.74505805969E-08  0.10566000000E+00  0.10566000000E+00 0. -1.
     999900   -1    0    0    0    0 -0.00000000000E+00 -0.00000000000E+00 -0.74505805969E-08  0.93827000000E+00  0.93827000000E+00 0. -1.
     999902    2    1    2    0    0  0.11989294899E-01  0.19520158028E-01  0.58578058096E-02  0.10202848388E+01  0.10200108129E+01 0.  0.
     999903    2    3    3    0    0  0.94318596076E-01 -0.18594038768E-01 -0.86515221188E-01  0.13081107188E+00  0.19619306466E-01 0.  0.
         14    1    1    2    0    0 -0.11989294899E-01 -0.19520158028E-01 -0.58578058096E-02  0.23645161250E-01  0.00000000000E+00 0.  1.
     999901    1    3    3    0    0 -0.82329301177E-01  0.38114196796E-01  0.92373026998E-01  0.88947376687E+00  0.88000000000E+00 0.  1.
        -11    1    4    4    0    0  0.72932699882E-01 -0.22430839947E-01 -0.69442346960E-01  0.10317374649E+00  0.51100000000E-03 0. -1.
         11    1    4    4    0    0  0.21385896194E-01  0.38368011796E-02 -0.17072874228E-01  0.27637325391E-01  0.51100000000E-03 0.  1.
</event>
<event>
 8    1  0.1123191E+005  0.1043930E+01  0.7957747E-01            NaN
         13   -1    0    0    0    0  0.00000000000E+00  0.00000000000E+00  0.74505805969E-08  0.10566000000E+00  0.10566000000E+00 0. -1.
     999900   -1    0    0    0    0 -0.00000000000E+00 -0.00000000000E+00 -0.74505805969E-08  0.93827000000E+00  0.93827000000E+00 0. -1.
     999902    2    1    2    0    0 -0.16203543040E-01  0.57344402854E-03 -0.16248841557E-01  0.10209755125E+01  0.10207174382E+01 0.  0.
     999903    2    3    3    0    0  0.10321843319E+00 -0.73198847141E-01  0.16626961804E-01  0.12924417525E+00  0.20383444375E-01 0.  0.
         14    1    1    2    0    0  0.16203543040E-01 -0.57344402854E-03  0.16248841557E-01  0.22954487515E-01  0.00000000000E+00 0.  1.
     999901    1    3    3    0    0 -0.11942197623E+00  0.73772291170E-01 -0.32875803361E-01  0.89173133723E+00  0.88000000000E+00 0. -1.
        -11    1    4    4    0    0  0.51043586331E-01 -0.28636267968E-01  0.15788702399E-01  0.60622007498E-01  0.51100000000E-03 0.  1.
         11    1    4    4    0    0  0.52174846864E-01 -0.44562579173E-01  0.83825940428E-03  0.68622167757E-01  0.51100000000E-03 0. -1.
</event>
<event>
 8    1  0.1123191E+005  0.1043930E+01  0.7957747E-01            NaN
         13   -1    0    0    0    0  0.00000000000E+00  0.00000000000E+00  0.74505805969E-08  0.10566000000E+00  0.10566000000E+00 0.  1.
     999900   -1    0    0    0    0 -0.00000000000E+00 -0.00000000000E+00 -0.74505805969E-08  0.93827000000E+00  0.93827000000E+00 0. -1.
     999902    2    1    2    0    0  0.23141276405E-01  0.23909659474E-02 -0.67479952588E-02  0.10197066470E+01  0.10194188909E+01 0.  0.
     999903    2    3    3    0    0  0.68252752484E-01 -0.86246819519E-01  0.68322451396E-01  0.13092811762E+00  0.19423246873E-01 0.  0.
         14    1    1    2    0    0 -0.23141276405E-01 -0.23909659474E-02  0.67479952588E-02  0.24223353026E-01  0.00000000000E+00 0.  1.
     999901    1    3    3    0    0 -0.45111476079E-01  0.88637785466E-01 -0.75070446655E-01  0.88877852936E+00  0.88000000000E+00 0.  1.
        -11    1    4    4    0    0  0.31762986945E-01 -0.35716548429E-01  0.40582126897E-01  0.62703503219E-01  0.51100000000E-03 0.  1.
         11    1    4    4    0    0  0.36489765538E-01 -0.50530271089E-01  0.27740324499E-01  0.68224614398E-01  0.51100000000E-03 0. -1.
</event>
<event>
 8    1  0.1123191E+005  0.1043930E+01  0.7957747E-01            NaN
         13   -1    0    0    0    0  0.00000000000E+00  0.00000000000E+00  0.74505805969E-08  0.10566000000E+00  0.10566000000E+00 0. -1.
     999900   -1    0    0    0    0 -0.00000000000E+00 -0.00000000000E+00 -0.74505805969E-08  0.93827000000E+00  0.93827000000E+00 0. -1.
     999902    2    1    2    0    0 -0.24668757434E-01 -0.24216975129E-01  0.16171367672E-01  0.10057655845E+01  0.10050412371E+01 0.  0.
     999903    2    3    3    0    0  0.63677588300E-01 -0.95230038237E-01 -0.19559710639E-01  0.11777648441E+00  0.19108180564E-01 0.  0.
         14    1    1    2    0    0  0.24668757434E-01  0.24216975129E-01 -0.16171367672E-01  0.38164415495E-01  0.00000000000E+00 0.  1.
     999901    1    3    3    0    0 -0.88346345734E-01  0.71013063108E-01  0.35731078311E-01  0.88798910010E+00  0.88000000000E+00 0.  1.
        -11    1    4    4    0    0  0.30988806074E-01 -0.30571683329E-01 -0.10279413826E-01  0.44730989180E-01  0.51100000000E-03 0.  1.
         11    1    4    4    0    0  0.32688782226E-01 -0.64658354908E-01 -0.92802968130E-02  0.73045495226E-01  0.51100000000E-03 0. -1.
</event>
<event>
 8    1  0.1123191E+005  0.1043930E+01  0.7957747E-01            NaN
         13   -1    0    0    0    0  0.00000000000E+00  0.00000000000E+00  0.74505805969E-08  0.10566000000E+00  0.10566000000E+00 0.  1.
     999900   -1    0    0    0    0 -0.00000000000E+00 -0.00000000000E+00 -0.74505805969E-08  0.93827000000E+00  0.93827000000E+00 0. -1.
     999902    2    1    2    0    0  0.20559954010E-01  0.61632227953E-02 -0.37182644256E-02  0.10221464623E+01  0.10219143153E+01 0.  0.
     999903    2    3    3    0    0 -0.46095353929E-02 -0.66082545048E-01  0.11155567322E+00  0.13133726003E+00  0.20412179374E-01 0.  0.
         14    1    1    2    0    0 -0.20559954010E-01 -0.61632227953E-02  0.37182644256E-02  0.21783537694E-01  0.00000000000E+00 0.  1.
     999901    1    3    3    0    0  0.25169489403E-01  0.72245767843E-01 -0.11527393765E+00  0.89080920228E+00  0.88000000000E+00 0. -1.
        -11    1    4    4    0    0  0.81374040109E-02 -0.26027900946E-01  0.43167944799E-01  0.51062721733E-01  0.51100000000E-03 0.  1.
         11    1    4    4    0    0 -0.12746939404E-01 -0.40054644102E-01  0.68387728421E-01  0.80274538292E-01  0.51100000000E-03 0. -1.
</event>
<event>
 8    1  0.1123191E+005  0.1043930E+01  0.7957747E-01            NaN
         13   -1    0    0    0    0  0.00000000000E+00  0.00000000000E+00  0.74505805969E-08  0.10566000000E+00  0.10566000000E+00 0.  1.
     999900   -1    0    0    0    0 -0.00000000000E+00 -0.00000000000E+00 -0.74505805969E-08  0.93827000000E+00  0.93827000000E+00 0. -1.
     999902    2    1    2    0    0 -0.11373446076E-01 -0.16692156113E-01 -0.12103885723E-01  0.10203824438E+01  0.10201107020E+01 0.  0.
     999903    2    3    3    0    0 -0.32731763559E-01 -0.12733840508E+00 -0.75305537480E-02  0.13318478520E+00  0.19875613578E-01 0.  0.
         14    1    1    2    0    0  0.11373446076E-01  0.16692156113E-01  0.12103885723E-01  0.23547556156E-01  0.00000000000E+00 0.  1.
     999901    1    3    3    0    0  0.21358317483E-01  0.11064624897E+00 -0.45733319750E-02  0.88719765864E+00  0.88000000000E+00 0.  1.
        -11    1    4    4    0    0 -0.23403286561E-01 -0.96593670036E-01  0.28090160870E-02  0.99429385019E-01  0.51100000000E-03 0.  1.
         11    1    4    4    0    0 -0.93284769979E-02 -0.30744735045E-01 -0.10339569835E-01  0.33755400182E-01  0.51100000000E-03 0. -1.
</event>
<event>
 8    1  0.1123191E+005  0.1043930E+01  0.7957747E-01            NaN
         13   -1    0    0    0    0  0.00000000000E+00  0.00000000000E+00  0.74505805969E-08  0.10566000000E+00  0.10566000000E+00 0.  1.
     999900   -1    0    0    0    0 -0.00000000000E+00 -0.00000000000E+00 -0.74505805969E-08  0.93827000000E+00  0.93827000000E+00 0.  1.
     999902    2    1    2    0    0 -0.11838260776E-01 -0.10002664013E-01  0.13435007199E-01  0.10234190974E+01  0.10232135417E+01 0.  0.
     999903    2    3    3    0    0  0.12168920665E+00 -0.43866875353E-01  0.21751149855E-01  0.13266350380E+00  0.19847593131E-01 0.  0.
         14    1    1    2    0    0  0.11838260776E-01  0.10002664013E-01 -0.13435007199E-01  0.20510902564E-01  0.00000000000E+00 0. -1.
     999901    1    3    3    0    0 -0.13352746742E+00  0.33864211341E-01 -0.83161426559E-02  0.89075559364E+00  0.88000000000E+00 0. -1.
        -11    1    4    4    0    0  0.42774364368E-01 -0.11726810695E-01 -0.13536062176E-02  0.44376319214E-01  0.51100000000E-03 0.  1.
         11    1    4    4    0    0  0.78914842278E-01 -0.32140064658E-01  0.23104756072E-01  0.88287184586E-01  0.51100000000E-03 0. -1.
</event>
<event>
 8    1  0.1123191E+005  0.1043930E+01  0.7957747E-01            NaN
         13   -1    0    0    0    0  0.00000000000E+00  0.00000000000E+00  0.74505805969E-08  0.10566000000E+00  0.10566000000E+00 0.  1.
     999900   -1    0    0    0    0 -0.00000000000E+00 -0.00000000000E+00 -0.74505805969E-08  0.93827000000E+00  0.93827000000E+00 0.  1.
     999902    2    1    2    0    0  0.19990376259E-01 -0.11147545967E-01 -0.19897601332E-03  0.10210406462E+01  0.10207840510E+01 0.  0.
     999903    2    3    3    0    0 -0.54427343029E-01  0.43526025524E-01  0.10752868617E+00  0.12967515130E+00  0.19909192550E-01 0.  0.
         14    1    1    2    0    0 -0.19990376259E-01  0.11147545967E-01  0.19897601332E-03  0.22889353760E-01  0.00000000000E+00 0. -1.
     999901    1    3    3    0    0  0.74417719289E-01 -0.54673571491E-01 -0.10772766219E+00  0.89136549494E+00  0.88000000000E+00 0.  1.
        -11    1    4    4    0    0 -0.16468104557E-01  0.38901808129E-02  0.33345296816E-01  0.37396549509E-01  0.51100000000E-03 0.  1.
         11    1    4    4    0    0 -0.37959238472E-01  0.39635844711E-01  0.74183389359E-01  0.92278601794E-01  0.51100000000E-03 0. -1.
</event>
<event>
 8    1  0.1123191E+005  0.1043930E+01  0.7957747E-01            NaN
         13   -1    0    0    0    0  0.00000000000E+00  0.00000000000E+00  0.74505805969E-08  0.10566000000E+00  0.10566000000E+00 0. -1.
     999900   -1    0    0    0    0 -0.00000000000E+00 -0.00000000000E+00 -0.74505805969E-08  0.93827000000E+00  0.93827000000E+00 0.  1.
     999902    2    1    2    0    0  0.32479332636E-02 -0.65369603526E-02 -0.22622487989E-01  0.10201590538E+01  0.10198820702E+01 0.  0.
     999903    2    3    3    0    0 -0.12743097850E+00  0.15449823837E-02 -0.17595434983E-01  0.13045822371E+00  0.21649654679E-01 0.  0.
         14    1    1    2    0    0 -0.32479332636E-02  0.65369603526E-02  0.22622487989E-01  0.23770946215E-01  0.00000000000E+00 0. -1.
     999901    1    3    3    0    0  0.13067891177E+00 -0.80819427363E-02 -0.50270530059E-02  0.88970083008E+00  0.88000000000E+00 0.  1.
        -11    1    4    4    0    0 -0.10189275014E+00 -0.43721191594E-02 -0.20662141492E-01  0.10405975768E+00  0.51100000000E-03 0. -1.
         11    1    4    4    0    0 -0.25538228368E-01  0.59171015432E-02  0.30667065095E-02  0.26398466029E-01  0.51100000000E-03 0.  1.
</event>
<event>
 8    1  0.1123191E+005  0.1043930E+01  0.7957747E-01            NaN
         13   -1    0    0    0    0  0.00000000000E+00  0.00000000000E+00  0.74505805969E-08  0.10566000000E+00  0.10566000000E+00 0. -1.
     999900   -1    0    0    0    0 -0.00000000000E+00 -0.00000000000E+00 -0.74505805969E-08  0.93827000000E+00  0.93827000000E+00 0. -1.
     999902    2    1    2    0    0  0.39033577380E-03  0.24352137800E-01 -0.12426551758E-01  0.10165877586E+01  0.10162199923E+01 0.  0.
     999903    2    3    3    0    0  0.45420488002E-01 -0.10220271524E-01 -0.11799413755E+00  0.12846193344E+00  0.20307071848E-01 0.  0.
         14    1    1    2    0    0 -0.39033577380E-03 -0.24352137800E-01  0.12426551758E-01  0.27342241423E-01  0.00000000000E+00 0. -1.
     999901    1    3    3    0    0 -0.45030152228E-01  0.34572409324E-01  0.10556758580E+00  0.88812582513E+00  0.88000000000E+00 0.  1.
        -11    1    4    4    0    0  0.14817826188E-01 -0.13445384674E-01 -0.46171910230E-01  0.50323481172E-01  0.51100000000E-03 0. -1.
         11    1    4    4    0    0  0.30602661814E-01  0.32251131501E-02 -0.71822227323E-01  0.78138452273E-01  0.51100000000E-03 0.  1.
</event>
<event>
 8    1  0.1123191E+005  0.1043930E+01  0.7957747E-01            NaN
         13   -1    0    0    0    0  0.00000000000E+00  0.00000000000E+00  0.74505805969E-08  0.10566000000E+00  0.10566000000E+00 0.  1.
     999900   -1    0    0    0    0 -0.00000000000E+00 -0.00000000000E+00 -0.74505805969E-08  0.93827000000E+00  0.93827000000E+00 0.  1.
     999902    2    1    2    0    0  0.44512833336E-03  0.22314712882E-01 -0.11267038436E-01  0.10189281860E+01  0.10186214004E+01 0.  0.
     999903    2    3    3    0    0 -0.10810894192E+00  0.70816099269E-01  0.29562053076E-02  0.13081858050E+00  0.20057383031E-01 0.  0.
         14    1    1    2    0    0 -0.44512833336E-03 -0.22314712882E-01  0.11267038436E-01  0.25001814041E-01  0.00000000000E+00 0.  1.
     999901    1    3    3    0    0  0.10855407026E+00 -0.48501386386E-01 -0.14223243743E-01  0.88810960546E+00  0.88000000000E+00 0.  1.
        -11    1    4    4    0    0 -0.59546712372E-01  0.30254033650E-01  0.83490809371E-02  0.67313340281E-01  0.51100000000E-03 0. -1.
         11    1    4    4    0    0 -0.48562229552E-01  0.40562065619E-01 -0.53928756295E-02  0.63505240216E-01  0.51100000000E-03 0.  1.
</event>
<event>
 8    1  0.1123191E+005  0.1043930E+01  0.7957747E-01            NaN
         13   -1    0    0    0    0  0.00000000000E+00  0.00000000000E+00  0.74505805969E-08  0.10566000000E+00  0.10566000000E+00 0.  1.
     999900   -1    0    0    0    0 -0.00000000000E+00 -0.00000000000E+00 -0.74505805969E-08  0.93827000000E+00  0.93827000000E+00 0. -1.
     999902    2    1    2    0    0  0.96160959523E-02  0.66017711202E-02 -0.20820831801E-01  0.10200645497E+01  0.10197853332E+01 0.  0.
     999903    2    3    3    0    0  0.25435987899E-01 -0.92696885563E-02  0.12350165313E+00  0.12802690927E+00  0.20132425675E-01 0.  0.
         14    1    1    2    0    0 -0.96160959523E-02 -0.66017711202E-02  0.20820831801E-01  0.23865450345E-01  0.00000000000E+00 0.  1.
     999901    1    3    3    0    0 -0.15819891946E-01  0.15871459677E-01 -0.14432248493E+00  0.89203764039E+00  0.88000000000E+00 0. -1.
        -11    1    4    4    0    0  0.84887551946E-02 -0.11010978974E-01  0.81831562743E-01  0.83005821511E-01  0.51100000000E-03 0. -1.
         11    1    4    4    0    0  0.16947232704E-01  0.17412904176E-02  0.41670090389E-01  0.45021087755E-01  0.51100000000E-03 0.  1.
</event>
<event>
 8    1  0.1123191E+005  0.1043930E+01  0.7957747E-01            NaN
         13   -1    0    0    0    0  0.00000000000E+00  0.00000000000E+00  0.74505805969E-08  0.10566000000E+00  0.10566000000E+00 0. -1.
     999900   -1    0    0    0    0 -0.00000000000E+00 -0.00000000000E+00 -0.74505805969E-08  0.93827000000E+00  0.93827000000E+00 0. -1.
     999902    2    1    2    0    0 -0.48351800954E-03  0.94039843524E-02  0.22033836349E-01  0.10199683920E+01  0.10196868942E+01 0.  0.
     999903    2    3    3    0    0  0.36812656923E-01 -0.84460307408E-02 -0.11990707178E+00  0.12763613941E+00  0.22062889086E-01 0.  0.
         14    1    1    2    0    0  0.48351800954E-03 -0.94039843524E-02 -0.22033836349E-01  0.23961607951E-01  0.00000000000E+00 0.  1.
     999901    1    3    3    0    0 -0.37296174932E-01  0.17850015093E-01  0.14194090813E+00  0.89233225264E+00  0.88000000000E+00 0.  1.
        -11    1    4    4    0    0  0.23843405922E-01 -0.15912556860E-01 -0.82722527711E-01  0.87549958216E-01  0.51100000000E-03 0.  1.
         11    1    4    4    0    0  0.12969251001E-01  0.74665261194E-02 -0.37184544070E-01  0.40086181191E-01  0.51100000000E-03 0. -1.
</event>
<event>
 8    1  0.1123191E+005  0.1043930E+01  0.7957747E-01            NaN
         13   -1    0    0    0    0  0.00000000000E+00  0.00000000000E+00  0.74505805969E-08  0.10566000000E+00  0.10566000000E+00 0.  1.
     999900   -1    0    0    0    0 -0.00000000000E+00 -0.00000000000E+00 -0.74505805969E-08  0.93827000000E+00  0.93827000000E+00 0.  1.
     999902    2    1    2    0    0 -0.59566176727E-03  0.16980514563E-01 -0.23697900889E-01  0.10147703842E+01  0.10143513442E+01 0.  0.
     999903    2    3    3    0    0 -0.44228046697E-01  0.30262335575E-01  0.10979645711E+00  0.12353476136E+00  0.18265984830E-01 0.  0.
         14    1    1    2    0    0  0.59566176727E-03 -0.16980514563E-01  0.23697900889E-01  0.29159615812E-01  0.00000000000E+00 0.  1.
     999901    1    3    3    0    0  0.43632384930E-01 -0.13281821012E-01 -0.13349435799E+00  0.89123562283E+00  0.88000000000E+00 0.  1.
        -11    1    4    4    0    0 -0.33605103019E-01  0.15376167307E-01  0.85280705588E-01  0.92945087749E-01  0.51100000000E-03 0. -1.
         11    1    4    4    0    0 -0.10622943679E-01  0.14886168267E-01  0.24515751517E-01  0.30589673609E-01  0.51100000000E-03 0.  1.
</event>
<event>
 8    1  0.1123191E+005  0.1043930E+01  0.7957747E-01            NaN
         13   -1    0    0    0    0  0.00000000000E+00  0.00000000000E+00  0.74505805969E-08  0.10566000000E+00  0.10566000000E+00 0.  1.
     999900   -1    0    0    0    0 -0.00000000000E+00 -0.00000000000E+00 -0.74505805969E-08  0.93827000000E+00  0.93827000000E+00 0.  1.
     999902    2    1    2    0    0 -0.15281690878E-01 -0.17452780323E-01  0.82390460857E-02  0.10193126992E+01  0.10190153911E+01 0.  0.
     999903    2    3    3    0    0  0.98786469235E-01  0.57219448628E-01 -0.50314787696E-01  0.12689125261E+00  0.23172835875E-01 0.  0.
         14    1    1    2    0    0  0.15281690878E-01  0.17452780323E-01 -0.82390460857E-02  0.24617300776E-01  0.00000000000E+00 0.  1.
     999901    1    3    3    0    0 -0.11406816011E+00 -0.74672228951E-01  0.58553833782E-01  0.89242144662E+00  0.88000000000E+00 0. -1.
        -11    1    4    4    0    0  0.99016131363E-01  0.55698652393E-01 -0.46517697965E-01  0.12276274473E+00  0.51100000000E-03 0.  1.
         11    1    4    4    0    0 -0.22966212844E-03  0.15207962353E-02 -0.37970897314E-02  0.41285078794E-02  0.51100000000E-03 0. -1.
</event>
<event>
 8    1  0.1123191E+005  0.1043930E+01  0.7957747E-01            NaN
         13   -1    0    0    0    0  0.00000000000E+00  0.00000000000E+00  0.74505805969E-08  0.10566000000E+00  0.10566000000E+00 0. -1.
     999900   -1    0    0    0    0 -0.00000000000E+00 -0.00000000000E+00 -0.74505805969E-08  0.93827000000E+00  0.93827000000E+00 0.  1.
     999902    2    1    2    0    0  0.30993489304E-02 -0.23408421617E-01  0.29795868465E-01  0.10059121891E+01  0.10051935029E+01 0.  0.
     999903    2    3    3    0    0 -0.72937210089E-02  0.10267449629E+00  0.50839795508E-01  0.11661597022E+00  0.20478016231E-01 0.  0.
         14    1    1    2    0    0 -0.30993489304E-02  0.23408421617E-01 -0.29795868465E-01  0.38017810878E-01  0.00000000000E+00 0.  1.
     999901    1    3    3    0    0  0.10393069939E-01 -0.12608291790E+00 -0.21043927043E-01  0.88929621890E+00  0.88000000000E+00 0. -1.
        -11    1    4    4    0    0 -0.11242036666E-01  0.33705520375E-01  0.21711360049E-01  0.41642403489E-01  0.51100000000E-03 0.  1.
         11    1    4    4    0    0  0.39483156574E-02  0.68968975912E-01  0.29128435459E-01  0.74973566730E-01  0.51100000000E-03 0. -1.
</event>
<event>
 8    1  0.1123191E+005  0.1043930E+01  0.7957747E-01            NaN
         13   -1    0    0    0    0  0.00000000000E+00  0.00000000000E+00  0.74505805969E-08  0.10566000000E+00  0.10566000000E+00 0. -1.
     999900   -1    0    0    0    0 -0.00000000000E+00 -0.00000000000E+00 -0.74505805969E-08  0.93827000000E+00  0.93827000000E+00 0.  1.
     999902    2    1    2    0    0 -0.17893820053E-02  0.22145278102E-01 -0.10161262507E-01  0.10194991489E+01  0.10192063815E+01 0.  0.
     999903    2    3    3    0    0 -0.14257551925E-02 -0.90615376141E-01 -0.89201545944E-01  0.12879018196E+00  0.20416072075E-01 0.  0.
         14    1    1    2    0    0  0.17893820053E-02 -0.22145278102E-01  0.10161262507E-01  0.24430851109E-01  0.00000000000E+00 0. -1.
     999901    1    3    3    0    0 -0.36362681280E-03  0.11276065424E+00  0.79040283437E-01  0.89070896693E+00  0.88000000000E+00 0. -1.
        -11    1    4    4    0    0 -0.67913950775E-02 -0.71799940140E-01 -0.60984266980E-01  0.94449438279E-01  0.51100000000E-03 0. -1.
         11    1    4    4    0    0  0.53656398851E-02 -0.18815436001E-01 -0.28217278964E-01  0.34340743679E-01  0.51100000000E-03 0.  1.
</event>
<event>
 8    1  0.1123191E+005  0.1043930E+01  0.7957747E-01            NaN
         13   -1    0    0    0    0  0.00000000000E+00  0.00000000000E+00  0.74505805969E-08  0.10566000000E+00  0.10566000000E+00 0.  1.
     999900   -1    0    0    0    0 -0.00000000000E+00 -0.00000000000E+00 -0.74505805969E-08  0.93827000000E+00  0.93827000000E+00 0.  1.
     999902    2    1    2    0    0 -0.84725524638E-02  0.21159853219E-01 -0.78739647996E-02  0.10198152150E+01  0.10195300633E+01 0.  0.
     999903    2    3    3    0    0 -0.12359992078E+00 -0.36779735272E-01 -0.29321663380E-02  0.13041332147E+00  0.19218414972E-01 0.  0.
         14    1    1    2    0    0  0.84725524638E-02 -0.21159853219E-01  0.78739647996E-02  0.24114784991E-01  0.00000000000E+00 0.  1.
     999901    1    3    3    0    0  0.11512736832E+00  0.57939588490E-01 -0.49417984616E-02  0.88940189353E+00  0.88000000000E+00 0.  1.
        -11    1    4    4    0    0 -0.11340703620E+00 -0.33581399630E-01  0.27395884619E-02  0.11830736548E+00  0.51100000000E-03 0.  1.
         11    1    4    4    0    0 -0.10192884580E-01 -0.31983356416E-02 -0.56717548000E-02  0.12105955990E-01  0.51100000000E-03 0. -1.
</event>
<event>
 8    1  0.1123191E+005  0.1043930E+01  0.7957747E-01            NaN
         13   -1    0    0    0    0  0.00000000000E+00  0.00000000000E+00  0.74505805969E-08  0.10566000000E+00  0.10566000000E+00 0.  1.
     999900   -1    0    0    0    0 -0.00000000000E+00 -0.00000000000E+00 -0.74505805969E-08  0.93827000000E+00  0.93827000000E+00 0.  1.
     999902    2    1    2    0    0  0.15564320549E-01  0.29582663542E-02 -0.17127531786E-01  0.10205986529E+01  0.10203319354E+01 0.  0.
     999903    2    3    3    0    0  0.12540350290E+00 -0.38393421202E-01 -0.89217004818E-03  0.13265822975E+00  0.19932802655E-01 0.  0.
         14    1    1    2    0    0 -0.15564320549E-01 -0.29582663542E-02  0.17127531786E-01  0.23331347133E-01  0.00000000000E+00 0.  1.
     999901    1    3    3    0    0 -0.10983918235E+00  0.41351687556E-01 -0.16235361738E-01  0.88794042312E+00  0.88000000000E+00 0.  1.
        -11    1    4    4    0    0  0.10529828123E+00 -0.32770602642E-01 -0.80706563204E-02  0.11057593338E+00  0.51100000000E-03 0.  1.
         11    1    4    4    0    0  0.20105221663E-01 -0.56228185597E-02  0.71784862722E-02  0.22082296367E-01  0.51100000000E-03 0. -1.
</event>
<event>
 8    1  0.1123191E+005  0.1043930E+01  0.7957747E-01            NaN
         13   -1    0    0    0    0  0.00000000000E+00  0.00000000000E+00  0.74505805969E-08  0.10566000000E+00  0.10566000000E+00 0. -1.
     999900   -1    0    0    0    0 -0.00000000000E+00 -0.00000000000E+00 -0.74505805969E-08  0.93827000000E+00  0.93827000000E+00 0.  1.
     999902    2    1    2    0    0  0.98263284749E-02  0.20789542631E-01 -0.16336688985E-02  0.10208772195E+01  0.10206169049E+01 0.  0.
     999903    2    3    3    0    0  0.60857467539E-01 -0.10061399371E+00 -0.50736144728E-01  0.12972400658E+00  0.20672552243E-01 0.  0.
         14    1    1    2    0    0 -0.98263284749E-02 -0.20789542631E-01  0.16336688985E-02  0.23052780487E-01  0.00000000000E+00 0. -1.
     999901    1    3    3    0    0 -0.51031139064E-01  0.12140353634E+00  0.49102475829E-01  0.89115321293E+00  0.88000000000E+00 0.  1.
        -11    1    4    4    0    0  0.38867870369E-01 -0.44403537536E-01 -0.24016817130E-01  0.63713845582E-01  0.51100000000E-03 0. -1.
         11    1    4    4    0    0  0.21989597169E-01 -0.56210456172E-01 -0.26719327598E-01  0.66010160998E-01  0.51100000000E-03 0.  1.
</event>
<event>
 8    1  0.1123191E+005  0.1043930E+01  0.7957747E-01            NaN
         13   -1    0    0    0    0  0.00000000000E+00  0.00000000000E+00  0.74505805969E-08  0.10566000000E+00  0.10566000000E+00 0.  1.
     999900   -1    0    0    0    0 -0.00000000000E+00 -0.00000000000E+00 -0.74505805969E-08  0.93827000000E+00  0.93827000000E+00 0. -1.
     999902    2    1    2    0    0 -0.96855875964E-02 -0.20917672954E-01  0.55515124560E-02  0.10202196871E+01  0.10199441313E+01 0.  0.
     999903    2    3    3    0    0  0.22716023528E-01  0.90863481130E-01 -0.84709113575E-01  0.12797988106E+00  0.20761168201E-01 0.  0.
         14    1    1    2    0    0  0.96855875964E-02  0.20917672954E-01 -0.55515124560E-02  0.23710312935E-01  0.00000000000E+00 0. -1.
     999901    1    3    3    0    0 -0.32401611125E-01 -0.11178115408E+00  0.90260626030E-01  0.89223980601E+00  0.88000000000E+00 0.  1.
        -11    1    4    4    0    0  0.15963821573E-02  0.18930246954E-01 -0.28595635522E-01  0.34334737186E-01  0.51100000000E-03 0. -1.
         11    1    4    4    0    0  0.21119641371E-01  0.71933234176E-01 -0.56113478052E-01  0.93645143872E-01  0.51100000000E-03 0.  1.
</event>
<event>
 8    1  0.1123191E+005  0.1043930E+01  0.7957747E-01            NaN
         13   -1    0    0    0    0  0.00000000000E+00  0.00000000000E+00  0.74505805969E-08  0.10566000000E+00  0.10566000000E+00 0.  1.
     999900   -1    0    0    0    0 -0.00000000000E+00 -0.00000000000E+00 -0.74505805969E-08  0.93827000000E+00  0.93827000000E+00 0. -1.
     999902    2    1    2    0    0  0.19917596346E-01 -0.93867703194E-02  0.67387289454E-02  0.10209032206E+01  0.10206434996E+01 0.  0.
     999903    2    3    3    0    0  0.71353348636E-01 -0.10907447058E+00  0.22140126598E-01  0.13364876035E+00  0.19577166373E-01 0.  0.
         14    1    1    2    0    0 -0.19917596346E-01  0.93867703194E-02 -0.67387289454E-02  0.23026779389E-01  0.00000000000E+00 0.  1.
     999901    1    3    3    0    0 -0.51435752290E-01  0.99687700265E-01 -0.15401397652E-01  0.88725446026E+00  0.88000000000E+00 0. -1.
        -11    1    4    4    0    0  0.44603166739E-01 -0.66418995589E-01  0.23141051796E-01  0.83286822832E-01  0.51100000000E-03 0. -1.
         11    1    4    4    0    0  0.26750181898E-01 -0.42655474995E-01 -0.10009251978E-02  0.50361937521E-01  0.51100000000E-03 0.  1.
</event>
<event>
 8    1  0.1123191E+005  0.1043930E+01  0.7957747E-01            NaN
         13   -1    0    0    0    0  0.00000000000E+00  0.00000000000E+00  0.74505805969E-08  0.10566000000E+00  0.10566000000E+00 0.  1.
     999900   -1    0    0    0    0 -0.00000000000E+00 -0.00000000000E+00 -0.74505805969E-08  0.93827000000E+00  0.93827000000E+00 0. -1.
     999902    2    1    2    0    0 -0.15464486939E-01  0.99052688489E-02 -0.14548807479E-01  0.10205006913E+01  0.10202317033E+01 0.  0.
     999903    2    3    3    0    0  0.31645347393E-01  0.13283837054E-01  0.12237381166E+00  0.12866070854E+00  0.20008493277E-01 0.  0.
         14    1    1    2    0    0  0.15464486939E-01 -0.99052688489E-02  0.14548807479E-01  0.23429308704E-01  0.00000000000E+00 0.  1.
     999901    1    3    3    0    0 -0.47109834332E-01 -0.33785682051E-02 -0.13692261914E+00  0.89183998276E+00  0.88000000000E+00 0. -1.
        -11    1    4    4    0    0  0.10821255179E-01 -0.28754388057E-04  0.15155041644E-01  0.18628923713E-01  0.51100000000E-03 0.  1.
         11    1    4    4    0    0  0.20824092213E-01  0.13312591442E-01  0.10721877001E+00  0.11003178483E+00  0.51100000000E-03 0. -1.
</event>
<event>
 8    1  0.1123191E+005  0.1043930E+01  0.7957747E-01            NaN
         13   -1    0    0    0    0  0.00000000000E+00  0.00000000000E+00  0.74505805969E-08  0.10566000000E+00  0.10566000000E+00 0.  1.
     999900   -1    0    0    0    0 -0.00000000000E+00 -0.00000000000E+00 -0.74505805969E-08  0.93827000000E+00  0.93827000000E+00 0. -1.
     999902    2    1    2    0    0 -0.95610967909E-02 -0.10367472624E-01  0.19278177120E-01  0.10200438707E+01  0.10197641644E+01 0.  0.
     999903    2    3    3    0    0  0.44470822441E-01  0.71263077496E-01  0.98678380701E-01  0.13106277565E+00  0.19594593135E-01 0.  0.
         14    1    1    2    0    0  0.95610967909E-02  0.10367472624E-01 -0.19278177120E-01  0.23886129312E-01  0.00000000000E+00 0. -1.
     999901    1    3    3    0    0 -0.54031919231E-01 -0.81630550120E-01 -0.79400203581E-01  0.88898109504E+00  0.88000000000E+00 0. -1.
        -11    1    4    4    0    0  0.27923440119E-01  0.56572447756E-01  0.81379518831E-01  0.10297110060E+00  0.51100000000E-03 0.  1.
         11    1    4    4    0    0  0.16547382322E-01  0.14690629740E-01  0.17298861870E-01  0.28091675046E-01  0.51100000000E-03 0. -1.
</event>
<event>
 8    1  0.1123191E+005  0.1043930E+01  0.7957747E-01            NaN
         13   -1    0    0    0    0  0.00000000000E+00  0.00000000000E+00  0.74505805969E-08  0.10566000000E+00  0.10566000000E+00 0. -1.
     999900   -1    0    0    0    0 -0.00000000000E+00 -0.00000000000E+00 -0.74505805969E-08  0.93827000000E+00  0.93827000000E+00 0.  1.
     999902    2    1    2    0    0 -0.44322769422E-03  0.86922368546E-02  0.21164014707E-01  0.10210462295E+01  0.10207897609E+01 0.  0.
     999903    2    3    3    0    0  0.87050126356E-02  0.11106569799E+00 -0.65731909578E-01  0.13081316033E+00  0.19494421361E-01 0.  0.
         14    1    1    2    0    0  0.44322769422E-03 -0.86922368546E-02 -0.21164014707E-01  0.22883770468E-01  0.00000000000E+00 0.  1.
     999901    1    3    3    0    0 -0.91482403298E-02 -0.10237346113E+00  0.86895924285E-01  0.89023306920E+00  0.88000000000E+00 0. -1.
        -11    1    4    4    0    0  0.13232173438E-01  0.46319419827E-01 -0.29145780816E-01  0.56305565687E-01  0.51100000000E-03 0.  1.
         11    1    4    4    0    0 -0.45271608023E-02  0.64746278160E-01 -0.36586128762E-01  0.74507594642E-01  0.51100000000E-03 0. -1.
</event>
<event>
 8    1  0.1123191E+005  0.1043930E+01  0.7957747E-01            NaN
         13   -1    0    0    0    0  0.00000000000E+00  0.00000000000E+00  0.74505805969E-08  0.10566000000E+00  0.10566000000E+00 0.  1.
     999900   -1    0    0    0    0 -0.00000000000E+00 -0.00000000000E+00 -0.74505805969E-08  0.93827000000E+00  0.93827000000E+00 0. -1.
     999902    2    1    2    0    0 -0.12559662238E-01  0.14320532111E-02  0.19899881904E-01  0.10203545638E+01  0.10200821706E+01 0.  0.
     999903    2    3    3    0    0  0.13147723357E-01 -0.25816278522E-01  0.12821268662E+00  0.13292287352E+00  0.19764979855E-01 0.  0.
         14    1    1    2    0    0  0.12559662238E-01 -0.14320532111E-02 -0.19899881904E-01  0.23575436194E-01  0.00000000000E+00 0. -1.
     999901    1    3    3    0    0 -0.25707385595E-01  0.27248331733E-01 -0.10831280472E+00  0.88743169028E+00  0.88000000000E+00 0. -1.
        -11    1    4    4    0    0  0.15679268542E-01 -0.26331877952E-01  0.10011079814E+00  0.10469785234E+00  0.51100000000E-03 0.  1.
         11    1    4    4    0    0 -0.25315451849E-02  0.51559943017E-03  0.28101888477E-01  0.28225021183E-01  0.51100000000E-03 0. -1.
</event>
<event>
 8    1  0.1123191E+005  0.1043930E+01  0.7957747E-01            NaN
         13   -1    0    0    0    0  0.00000000000E+00  0.00000000000E+00  0.74505805969E-08  0.10566000000E+00  0.10566000000E+00 0.  1.
     999900   -1    0    0    0    0 -0.00000000000E+00 -0.00000000000E+00 -0.74505805969E-08  0.93827000000E+00  0.93827000000E+00 0.  1.
     999902    2    1    2    0    0 -0.54945426470E-02 -0.21577107591E-02  0.22784607170E-01  0.10203931345E+01  0.10201216422E+01 0.  0.
     999903    2    3    3    0    0  0.53544484279E-01  0.94986122698E-01  0.71228598766E-01  0.13175971658E+00  0.19943277820E-01 0.  0.
         14    1    1    2    0    0  0.54945426470E-02  0.21577107591E-02 -0.22784607170E-01  0.23536865521E-01  0.00000000000E+00 0. -1.
     999901    1    3    3    0    0 -0.59039026926E-01 -0.97143833457E-01 -0.48443991596E-01  0.88863341790E+00  0.88000000000E+00 0. -1.
        -11    1    4    4    0    0  0.27570742591E-01  0.63402750568E-01  0.36924170844E-01  0.78381822766E-01  0.51100000000E-03 0.  1.
         11    1    4    4    0    0  0.25973741688E-01  0.31583372130E-01  0.34304427922E-01  0.53377893817E-01  0.51100000000E-03 0. -1.
</event>
<event>
 8    1  0.1123191E+005  0.1043930E+01  0.7957747E-01            NaN
         13   -1    0    0    0    0  0.00000000000E+00  0.00000000000E+00  0.74505805969E-08  0.10566000000E+00  0.10566000000E+00 0. -1.
     999900   -1    0    0    0    0 -0.00000000000E+00 -0.00000000000E+00 -0.74505805969E-08  0.93827000000E+00  0.93827000000E+00 0. -1.
     999902    2    1    2    0    0 -0.17121676132E-01  0.14064168168E-01  0.81496062939E-02  0.10203213426E+01  0.10200481722E+01 0.  0.
     999903    2    3    3    0    0 -0.11773029256E+00 -0.14261544310E-01  0.56384495075E-01  0.13282427550E+00  0.19981577625E-01 0.  0.
         14    1    1    2    0    0  0.17121676132E-01 -0.14064168168E-01 -0.81496062939E-02  0.23608657365E-01  0.00000000000E+00 0.  1.
     999901    1    3    3    0    0  0.10060861643E+00  0.28325712477E-01 -0.48234888781E-01  0.88749706714E+00  0.88000000000E+00 0. -1.
        -11    1    4    4    0    0 -0.21503776857E-01 -0.10088190362E-01  0.14154457815E-01  0.27654905549E-01  0.51100000000E-03 0. -1.
         11    1    4    4    0    0 -0.96226515700E-01 -0.41733539477E-02  0.42230037260E-01  0.10516936995E+00  0.51100000000E-03 0.  1.
</event>
<event>
 8    1  0.1123191E+005  0.1043930E+01  0.7957747E-01            NaN
         13   -1    0    0    0    0  0.00000000000E+00  0.00000000000E+00  0.74505805969E-08  0.10566000000E+00  0.10566000000E+00 0.  1.
     999900   -1    0    0    0    0 -0.00000000000E+00 -0.00000000000E+00 -0.74505805969E-08  0.93827000000E+00  0.93827000000E+00 0. -1.
     999902    2    1    2    0    0 -0.18920526796E-01 -0.14231445804E-01  0.27707749638E-01  0.10074849760E+01  0.10068255743E+01 0.  0.
     999903    2    3    3    0    0 -0.63371147668E-01  0.56202511796E-01  0.85669084408E-01  0.12165411382E+00  0.16908775715E-01 0.  0.
         14    1    1    2    0    0  0.18920526796E-01  0.14231445804E-01 -0.27707749638E-01  0.36445023994E-01  0.00000000000E+00 0. -1.
     999901    1    3    3    0    0  0.44450620872E-01 -0.70433957601E-01 -0.57961334770E-01  0.88583086219E+00  0.88000000000E+00 0. -1.
        -11    1    4    4    0    0 -0.43103796809E-01  0.27225767864E-01  0.49147125528E-01  0.70815823117E-01  0.51100000000E-03 0.  1.
         11    1    4    4    0    0 -0.20267350859E-01  0.28976743932E-01  0.36521958881E-01  0.50838290699E-01  0.51100000000E-03 0. -1.
</event>
<event>
 8    1  0.1123191E+005  0.1043930E+01  0.7957747E-01            NaN
         13   -1    0    0    0    0  0.00000000000E+00  0.00000000000E+00  0.74505805969E-08  0.10566000000E+00  0.10566000000E+00 0.  1.
     999900   -1    0    0    0    0 -0.00000000000E+00 -0.00000000000E+00 -0.74505805969E-08  0.93827000000E+00  0.93827000000E+00 0. -1.
     999902    2    1    2    0    0 -0.21677870865E-01  0.55579702101E-02  0.17928890004E-02  0.10214792635E+01  0.10212325153E+01 0.  0.
     999903    2    3    3    0    0  0.94753174409E-01  0.50056609055E-01  0.70856195167E-01  0.13001638855E+00  0.19995817770E-01 0.  0.
         14    1    1    2    0    0  0.21677870865E-01 -0.55579702101E-02 -0.17928890004E-02  0.22450736492E-01  0.00000000000E+00 0. -1.
     999901    1    3    3    0    0 -0.11643104527E+00 -0.44498638845E-01 -0.69063306167E-01  0.89146287495E+00  0.88000000000E+00 0. -1.
        -11    1    4    4    0    0  0.31168898375E-01  0.15120449995E-01  0.34386722543E-01  0.48814301615E-01  0.51100000000E-03 0. -1.
         11    1    4    4    0    0  0.63584276034E-01  0.34936159060E-01  0.36469472625E-01  0.81202086939E-01  0.51100000000E-03 0.  1.
</event>
<event>
 8    1  0.1123191E+005  0.1043930E+01  0.7957747E-01            NaN
         13   -1    0    0    0    0  0.00000000000E+00  0.00000000000E+00  0.74505805969E-08  0.10566000000E+00  0.10566000000E+00 0. -1.
     999900   -1    0    0    0    0 -0.00000000000E+00 -0.00000000000E+00 -0.74505805969E-08  0.93827000000E+00  0.93827000000E+00 0. -1.
     999902    2    1    2    0    0  0.18993673675E-01 -0.44169132357E-02 -0.11518557420E-01  0.10212816904E+01  0.10210305310E+01 0.  0.
     999903    2    3    3    0    0  0.21834131408E-01  0.51151453224E-01 -0.11902582326E+00  0.13299473016E+00  0.20670055272E-01 0.  0.
         14    1    1    2    0    0 -0.18993673675E-01  0.44169132357E-02  0.11518557420E-01  0.22648309589E-01  0.00000000000E+00 0. -1.
     999901    1    3    3    0    0 -0.28404577328E-02 -0.55568366460E-01  0.10750726584E+00  0.88828696026E+00  0.88000000000E+00 0.  1.
        -11    1    4    4    0    0  0.23707549795E-01  0.30970606821E-01 -0.80953477156E-01  0.89860742200E-01  0.51100000000E-03 0. -1.
         11    1    4    4    0    0 -0.18734183873E-02  0.20180846403E-01 -0.38072346105E-01  0.43133987955E-01  0.51100000000E-03 0.  1.
</event>
<event>
 8    1  0.1123191E+005  0.1043930E+01  0.7957747E-01            NaN
         13   -1    0    0    0    0  0.00000000000E+00  0.00000000000E+00  0.74505805969E-08  0.10566000000E+00  0.10566000000E+00 0. -1.
     999900   -1    0    0    0    0 -0.00000000000E+00 -0.00000000000E+00 -0.74505805969E-08  0.93827000000E+00  0.93827000000E+00 0.  1.
     999902    2    1    2    0    0 -0.11811997185E-01  0.22414794278E-02  0.20426229974E-01  0.10202281355E+01  0.10199527784E+01 0.  0.
     999903    2    3    3    0    0 -0.10214011091E+00 -0.43850452969E-01 -0.64912861548E-01  0.13030319776E+00  0.20243005456E-01 0.  0.
         14    1    1    2    0    0  0.11811997185E-01 -0.22414794278E-02 -0.20426229974E-01  0.23701864451E-01  0.00000000000E+00 0.  1.
     999901    1    3    3    0    0  0.90328113722E-01  0.46091932397E-01  0.85339091521E-01  0.88992493779E+00  0.88000000000E+00 0. -1.
        -11    1    4    4    0    0 -0.29971782144E-01 -0.13250659888E-01 -0.89085226775E-02  0.33963371588E-01  0.51100000000E-03 0.  1.
         11    1    4    4    0    0 -0.72168328763E-01 -0.30599793082E-01 -0.56004338870E-01  0.96339826170E-01  0.51100000000E-03 0. -1.
</event>
<event>
 8    1  0.1123191E+005  0.1043930E+01  0.7957747E-01            NaN
         13   -1    0    0    0    0  0.00000000000E+00  0.00000000000E+00  0.74505805969E-08  0.10566000000E+00  0.10566000000E+00 0.  1.
     999900   -1    0    0    0    0 -0.00000000000E+00 -0.00000000000E+00 -0.74505805969E-08  0.93827000000E+00  0.93827000000E+00 0. -1.
     999902    2    1    2    0    0  0.10092812170E-01  0.18035115390E-01  0.11484465476E-01  0.10202863287E+01  0.10200123379E+01 0.  0.
     999903    2    3    3    0    0 -0.81277423730E-01 -0.92414694325E-01  0.29734353543E-01  0.12850118705E+00  0.21952857617E-01 0.  0.
         14    1    1    2    0    0 -0.10092812170E-01 -0.18035115390E-01 -0.11484465476E-01  0.23643671287E-01  0.00000000000E+00 0.  1.
     999901    1    3    3    0    0  0.91370235901E-01  0.11044980972E+00 -0.18249888067E-01  0.89178514166E+00  0.88000000000E+00 0. -1.
        -11    1    4    4    0    0 -0.15065249306E-01 -0.81468178993E-02  0.89618255735E-02  0.19336696128E-01  0.51100000000E-03 0. -1.
         11    1    4    4    0    0 -0.66212174424E-01 -0.84267876426E-01  0.20772527970E-01  0.10916449092E+00  0.51100000000E-03 0.  1.
</event>
<event>
 8    1  0.1123191E+005  0.1043930E+01  0.7957747E-01            NaN
         13   -1    0    0    0    0  0.00000000000E+00  0.00000000000E+00  0.74505805969E-08  0.10566000000E+00  0.10566000000E+00 0. -1.
     999900   -1    0    0    0    0 -0.00000000000E+00 -0.00000000000E+00 -0.74505805969E-08  0.93827000000E+00  0.93827000000E+00 0. -1.
     999902    2    1    2    0    0 -0.14982331605E-02 -0.52298147156E-02  0.23816290416E-01  0.10195002772E+01  0.10192075372E+01 0.  0.
     999903    2    3    3    0    0 -0.76492262511E-01  0.38867661590E-01 -0.92310554796E-01  0.12761792176E+00  0.20083179170E-01 0.  0.
         14    1    1    2    0    0  0.14982331605E-02  0.52298147156E-02 -0.23816290416E-01  0.24429722752E-01  0.00000000000E+00 0.  1.
     999901    1    3    3    0    0  0.74994029351E-01 -0.44097476306E-01  0.11612684521E+00  0.89188235549E+00  0.88000000000E+00 0. -1.
        -11    1    4    4    0    0 -0.27249241213E-01  0.35094213997E-02 -0.29928791835E-01  0.40630418248E-01  0.51100000000E-03 0.  1.
         11    1    4    4    0    0 -0.49243021298E-01  0.35358240190E-01 -0.62381762961E-01  0.86987503511E-01  0.51100000000E-03 0. -1.
</event>
<event>
 8    1  0.1123191E+005  0.1043930E+01  0.7957747E-01            NaN
         13   -1    0    0    0    0  0.00000000000E+00  0.00000000000E+00  0.74505805969E-08  0.10566000000E+00  0.10566000000E+00 0.  1.
     999900   -1    0    0    0    0 -0.00000000000E+00 -0.00000000000E+00 -0.74505805969E-08  0.93827000000E+00  0.93827000000E+00 0.  1.
     999902    2    1    2    0    0 -0.59980935055E-02  0.15880480028E-01 -0.17373086402E-01  0.10196402717E+01  0.10193509173E+01 0.  0.
     999903    2    3    3    0    0 -0.49661113482E-01  0.52857839821E-01 -0.10953038831E+00  0.13297982214E+00  0.20653079923E-01 0.  0.
         14    1    1    2    0    0  0.59980935055E-02 -0.15880480028E-01  0.17373086402E-01  0.24289728339E-01  0.00000000000E+00 0.  1.
     999901    1    3    3    0    0  0.43663019976E-01 -0.36977359793E-01  0.92157301907E-01  0.88666044952E+00  0.88000000000E+00 0. -1.
        -11    1    4    4    0    0 -0.31457359588E-01  0.46447866099E-01 -0.80879134947E-01  0.98431018120E-01  0.51100000000E-03 0. -1.
         11    1    4    4    0    0 -0.18203753894E-01  0.64099737222E-02 -0.28651253362E-01  0.34548804020E-01  0.51100000000E-03 0.  1.
</event>
<event>
 8    1  0.1123191E+005  0.1043930E+01  0.7957747E-01            NaN
         13   -1    0    0    0    0  0.00000000000E+00  0.00000000000E+00  0.74505805969E-08  0.10566000000E+00  0.10566000000E+00 0. -1.
     999900   -1    0    0    0    0 -0.00000000000E+00 -0.00000000000E+00 -0.74505805969E-08  0.93827000000E+00  0.93827000000E+00 0.  1.
     999902    2    1    2    0    0 -0.21955508438E-01 -0.14689763702E-02  0.10846608768E-01  0.10193973449E+01  0.10191021027E+01 0.  0.
     999903    2    3    3    0    0 -0.38092983776E-01  0.68717139199E-01 -0.10093860329E+00  0.12940720873E+00  0.19608758351E-01 0.  0.
         14    1    1    2    0    0  0.21955508438E-01  0.14689763702E-02 -0.10846608768E-01  0.24532655056E-01  0.00000000000E+00 0.  1.
     999901    1    3    3    0    0  0.16137475338E-01 -0.70186115569E-01  0.11178521206E+00  0.88999013622E+00  0.88000000000E+00 0. -1.
        -11    1    4    4    0    0 -0.13165213537E-01  0.21389264341E-01 -0.47838858194E-01  0.54033701990E-01  0.51100000000E-03 0. -1.
         11    1    4    4    0    0 -0.24927770239E-01  0.47327874857E-01 -0.53099745095E-01  0.75373506737E-01  0.51100000000E-03 0.  1.
</event>
<event>
 8    1  0.1123191E+005  0.1043930E+01  0.7957747E-01            NaN
         13   -1    0    0    0    0  0.00000000000E+00  0.00000000000E+00  0.74505805969E-08  0.10566000000E+00  0.10566000000E+00 0. -1.
     999900   -1    0    0    0    0 -0.00000000000E+00 -0.00000000000E+00 -0.74505805969E-08  0.93827000000E+00  0.93827000000E+00 0.  1.
     999902    2    1    2    0    0 -0.11775763276E-01  0.19722009766E-01 -0.40092350584E-02  0.10206126195E+01  0.10203462249E+01 0.  0.
     999903    2    3    3    0    0 -0.63320469852E-01 -0.10977184970E+00  0.14750787423E-01  0.12944627423E+00  0.21895462843E-01 0.  0.
         14    1    1    2    0    0  0.11775763276E-01 -0.19722009766E-01  0.40092350584E-02  0.23317380550E-01  0.00000000000E+00 0. -1.
     999901    1    3    3    0    0  0.51544706575E-01  0.12949385946E+00 -0.18760022482E-01  0.89116634522E+00  0.88000000000E+00 0.  1.
        -11    1    4    4    0    0 -0.17394241107E-01 -0.50329740693E-01  0.23024334621E-02  0.53302952477E-01  0.51100000000E-03 0.  1.
         11    1    4    4    0    0 -0.45926228745E-01 -0.59442109006E-01  0.12448353961E-01  0.76143321750E-01  0.51100000000E-03 0. -1.
</event>
<event>
 8    1  0.1172264E+005  0.1043930E+01  0.7957747E-01            NaN
         13   -1    0    0    0    0  0.00000000000E+00  0.00000000000E+00  0.74505805969E-08  0.10566000000E+00  0.10566000000E+00 0.  1.
     999900   -1    0    0    0    0 -0.00000000000E+00 -0.00000000000E+00 -0.74505805969E-08  0.93827000000E+00  0.93827000000E+00 0.  1.
     999902    2    1    2    0    0  0.10871139561E-01 -0.20576489391E-01  0.66907013896E-02  0.10197155606E+01  0.10194280188E+01 0.  0.
     999903    2    3    3    0    0  0.15286310673E-01  0.86929086137E-01  0.92272598493E-01  0.12904098274E+00  0.18628083204E-01 0.  0.
         14    1    1    2    0    0 -0.10871139561E-01  0.20576489391E-01 -0.66907013896E-02  0.24214439413E-01  0.00000000000E+00 0. -1.
     999901    1    3    3    0    0 -0.44151711122E-02 -0.10750557553E+00 -0.85581897103E-01  0.89067457784E+00  0.88000000000E+00 0. -1.
        -11    1    4    4    0    0 -0.21286484332E-02  0.37148418537E-01  0.42972793430E-01  0.56845916653E-01  0.51100000000E-03 0.  1.
         11    1    4    4    0    0  0.17414959107E-01  0.49780667601E-01  0.49299805063E-01  0.72195066090E-01  0.51100000000E-03 0. -1.
</event>
<event>
 8    1  0.1123191E+005  0.1043930E+01  0.7957747E-01            NaN
         13   -1    0    0    0    0  0.00000000000E+00  0.00000000000E+00  0.74505805969E-08  0.10566000000E+00  0.10566000000E+00 0.  1.
     999900   -1    0    0    0    0 -0.00000000000E+00 -0.00000000000E+00 -0.74505805969E-08  0.93827000000E+00  0.93827000000E+00 0. -1.
     999902    2    1    2    0    0  0.31204179374E-02 -0.22687344372E-01  0.62095600596E-02  0.10202021421E+01  0.10199261736E+01 0.  0.
     999903    2    3    3    0    0  0.30665823365E-01  0.15916731155E-02  0.12580862851E+00  0.13135336016E+00  0.21976534537E-01 0.  0.
         14    1    1    2    0    0 -0.31204179374E-02  0.22687344372E-01 -0.62095600596E-02  0.23727857866E-01  0.00000000000E+00 0. -1.
     999901    1    3    3    0    0 -0.27545405427E-01 -0.24279017488E-01 -0.11959906845E+00  0.88884878198E+00  0.88000000000E+00 0. -1.
        -11    1    4    4    0    0  0.16563997491E-01  0.24209910709E-02  0.10416444700E+00  0.10550222912E+00  0.51100000000E-03 0. -1.
         11    1    4    4    0    0  0.14101825874E-01 -0.82931795543E-03  0.21644181514E-01  0.25851131032E-01  0.51100000000E-03 0.  1.
</event>
<event>
 7    1  0.1123191E+005  0.1043930E+01  0.7957747E-01            NaN
         13   -1    0    0    0    0  0.00000000000E+00  0.00000000000E+00  0.74505805969E-08  0.10566000000E+00  0.10566000000E+00 0. -1.
     999900   -1    0    0    0    0 -0.00000000000E+00 -0.00000000000E+00 -0.74505805969E-08  0.93827000000E+00  0.93827000000E+00 0. -1.
     999902    2    1    2    0    0 -0.11167764774E-01  0.10971324486E-01  0.17444168122E-01  0.10204909742E+01  0.10202217604E+01 0.  0.
         14    1    1    2    0    0  0.11167764774E-01 -0.10971324486E-01 -0.17444168122E-01  0.23439025844E-01  0.00000000000E+00 0.  1.
     999901    1    3    3    0    0 -0.55150624430E-01 -0.45622734518E-01  0.12446893178E+00  0.89163643951E+00  0.88000000000E+00 0.  1.
        -11    1    3    3    0    0  0.17612510071E-01  0.23373243120E-01 -0.40934196344E-01  0.50322743926E-01  0.51100000000E-03 0.  1.
         11    1    3    3    0    0  0.26370349585E-01  0.33220815884E-01 -0.66090567314E-01  0.78531790723E-01  0.51100000000E-03 0. -1.
</event>
<event>
 8    1  0.1123191E+005  0.1043930E+01  0.7957747E-01            NaN
         13   -1    0    0    0    0  0.00000000000E+00  0.00000000000E+00  0.74505805969E-08  0.10566000000E+00  0.10566000000E+00 0.  1.
     999900   -1    0    0    0    0 -0.00000000000E+00 -0.00000000000E+00 -0.74505805969E-08  0.93827000000E+00  0.93827000000E+00 0. -1.
     999902    2    1    2    0    0  0.18429734590E-01  0.14236307980E-01 -0.45930929435E-02  0.10201934441E+01  0.10199172708E+01 0.  0.
     999903    2    3    3    0    0  0.10206300356E+00 -0.71387255395E-01 -0.37187716709E-01  0.13149308530E+00  0.19862232451E-01 0.  0.
         14    1    1    2    0    0 -0.18429734590E-01 -0.14236307980E-01  0.45930929435E-02  0.23736555874E-01  0.00000000000E+00 0.  1.
     999901    1    3    3    0    0 -0.83633268973E-01  0.85623563375E-01  0.32594623766E-01  0.88870035883E+00  0.88000000000E+00 0.  1.
        -11    1    4    4    0    0  0.69720640665E-01 -0.40993846063E-01 -0.16605871737E-01  0.82568027995E-01  0.51100000000E-03 0. -1.
         11    1    4    4    0    0  0.32342362898E-01 -0.30393409332E-01 -0.20581844972E-01  0.48925057303E-01  0.51100000000E-03 0.  1.
</event>
<event>
 8    1  0.1123191E+005  0.1043930E+01  0.7957747E-01            NaN
         13   -1    0    0    0    0  0.00000000000E+00  0.00000000000E+00  0.74505805969E-08  0.10566000000E+00  0.10566000000E+00 0. -1.
     999900   -1    0    0    0    0 -0.00000000000E+00 -0.00000000000E+00 -0.74505805969E-08  0.93827000000E+00  0.93827000000E+00 0.  1.
     999902    2    1    2    0    0 -0.10991167380E-01 -0.19107581800E-01  0.89218055006E-02  0.10201496708E+01  0.10198724660E+01 0.  0.
     999903    2    3    3    0    0 -0.17358018985E-01  0.96926758272E-01  0.83146296722E-01  0.12941189797E+00  0.11748846164E-01 0.  0.
         14    1    1    2    0    0  0.10991167380E-01  0.19107581800E-01 -0.89218055006E-02  0.23780329182E-01  0.00000000000E+00 0.  1.
     999901    1    3    3    0    0  0.63668516045E-02 -0.11603434007E+00 -0.74224491221E-01  0.89073777284E+00  0.88000000000E+00 0.  1.
        -11    1    4    4    0    0 -0.52167287459E-02  0.46086164593E-01  0.45666752466E-01  0.65091183946E-01  0.51100000000E-03 0. -1.
         11    1    4    4    0    0 -0.12141290239E-01  0.50840593679E-01  0.37479544256E-01  0.64320714027E-01  0.51100000000E-03 0.  1.
</event>
<event>
 8    1  0.1123191E+005  0.1043930E+01  0.7957747E-01            NaN
         13   -1    0    0    0    0  0.00000000000E+00  0.00000000000E+00  0.74505805969E-08  0.10566000000E+00  0.10566000000E+00 0.  1.
     999900   -1    0    0    0    0 -0.00000000000E+00 -0.00000000000E+00 -0.74505805969E-08  0.93827000000E+00  0.93827000000E+00 0.  1.
     999902    2    1    2    0    0 -0.57100305887E-02 -0.68885182771E-02 -0.19873101116E-01  0.10221355906E+01  0.10219032093E+01 0.  0.
     999903    2    3    3    0    0  0.98020572596E-01 -0.84633648562E-01  0.12666464933E-01  0.13204392864E+00  0.22456015588E-01 0.  0.
         14    1    1    2    0    0  0.57100305887E-02  0.68885182771E-02  0.19873101116E-01  0.21794409406E-01  0.00000000000E+00 0.  1.
     999901    1    3    3    0    0 -0.10373060318E+00  0.77745130285E-01 -0.32539566049E-01  0.89009166195E+00  0.88000000000E+00 0. -1.
        -11    1    4    4    0    0  0.73594344852E-02 -0.54117341643E-02 -0.48867274118E-02  0.10372529508E-01  0.51100000000E-03 0.  1.
         11    1    4    4    0    0  0.90661138111E-01 -0.79221914398E-01  0.17553192345E-01  0.12167139913E+00  0.51100000000E-03 0. -1.
</event>
<event>
 8    1  0.1123191E+005  0.1043930E+01  0.7957747E-01            NaN
         13   -1    0    0    0    0  0.00000000000E+00  0.00000000000E+00  0.74505805969E-08  0.10566000000E+00  0.10566000000E+00 0. -1.
     999900   -1    0    0    0    0 -0.00000000000E+00 -0.00000000000E+00 -0.74505805969E-08  0.93827000000E+00  0.93827000000E+00 0. -1.
     999902    2    1    2    0    0 -0.41416320945E-02 -0.27125491824E-01  0.14797851257E-02  0.10164502768E+01  0.10160787519E+01 0.  0.
     999903    2    3    3    0    0 -0.58107264533E-01 -0.37395253720E-02 -0.11126097909E+00  0.12731042682E+00  0.20940417081E-01 0.  0.
         14    1    1    2    0    0  0.41416320945E-02  0.27125491824E-01 -0.14797851257E-02  0.27479723200E-01  0.00000000000E+00 0.  1.
     999901    1    3    3    0    0  0.53965632438E-01 -0.23385966452E-01  0.11274076421E+00  0.88913984998E+00  0.88000000000E+00 0.  1.
        -11    1    4    4    0    0 -0.32517672203E-01 -0.27404403827E-02 -0.40238890586E-01  0.51810601768E-01  0.51100000000E-03 0. -1.
         11    1    4    4    0    0 -0.25589592330E-01 -0.99908498927E-03 -0.71022088501E-01  0.75499825050E-01  0.51100000000E-03 0.  1.
</event>
<event>
 8    1  0.1123191E+005  0.1043930E+01  0.7957747E-01            NaN
         13   -1    0    0    0    0  0.00000000000E+00  0.00000000000E+00  0.74505805969E-08  0.10566000000E+00  0.10566000000E+00 0.  1.
     999900   -1    0    0    0    0 -0.00000000000E+00 -0.00000000000E+00 -0.74505805969E-08  0.93827000000E+00  0.93827000000E+00 0. -1.
     999902    2    1    2    0    0 -0.12044713436E-01 -0.38330245300E-02  0.19597436077E-01  0.10206099078E+01  0.10203434506E+01 0.  0.
     999903    2    3    3    0    0 -0.75849041275E-02 -0.24757466977E-01 -0.12447965987E+00  0.12863685230E+00  0.19539475606E-01 0.  0.
         14    1    1    2    0    0  0.12044713436E-01  0.38330245300E-02 -0.19597436077E-01  0.23320092186E-01  0.00000000000E+00 0. -1.
     999901    1    3    3    0    0 -0.44598093081E-02  0.20924442447E-01  0.14407709594E+00  0.89197305552E+00  0.88000000000E+00 0.  1.
        -11    1    4    4    0    0 -0.44128382918E-02 -0.58341447031E-02 -0.91738630273E-02  0.11744414419E-01  0.51100000000E-03 0.  1.
         11    1    4    4    0    0 -0.31720658357E-02 -0.18923322274E-01 -0.11530579684E+00  0.11689243788E+00  0.51100000000E-03 0. -1.
</event>
<event>
 8    1  0.1123191E+005  0.1043930E+01  0.7957747E-01            NaN
         13   -1    0    0    0    0  0.00000000000E+00  0.00000000000E+00  0.74505805969E-08  0.10566000000E+00  0.10566000000E+00 0.  1.
     999900   -1    0    0    0    0 -0.00000000000E+00 -0.00000000000E+00 -0.74505805969E-08  0.93827000000E+00  0.93827000000E+00 0. -1.
     999902    2    1    2    0    0 -0.23719103580E-02 -0.18954910068E-01 -0.13630968267E-01  0.10204626211E+01  0.10201927481E+01 0.  0.
     999903    2    3    3    0    0 -0.11739440572E+00 -0.56994690639E-01  0.97743214383E-03  0.13204233507E+00  0.20109242186E-01 0.  0.
         14    1    1    2    0    0  0.23719103580E-02  0.18954910068E-01  0.13630968267E-01  0.23467378855E-01  0.00000000000E+00 0.  1.
     999901    1    3    3    0    0  0.11502249537E+00  0.38039780571E-01 -0.14608400411E-01  0.88842028607E+00  0.88000000000E+00 0. -1.
        -11    1    4    4    0    0 -0.30438409844E-01 -0.95240122253E-02  0.74633276346E-02  0.32759212187E-01  0.51100000000E-03 0. -1.
         11    1    4    4    0    0 -0.86955995879E-01 -0.47470678413E-01 -0.64858954908E-02  0.99283122884E-01  0.51100000000E-03 0.  1.
</event>
<event>
 8    1  0.1123191E+005  0.1043930E+01  0.7957747E-01            NaN
         13   -1    0    0    0    0  0.00000000000E+00  0.00000000000E+00  0.74505805969E-08  0.10566000000E+00  0.10566000000E+00 0.  1.
     999900   -1    0    0    0    0 -0.00000000000E+00 -0.00000000000E+00 -0.74505805969E-08  0.93827000000E+00  0.93827000000E+00 0.  1.
     999902    2    1    2    0    0  0.10727161169E-01 -0.18480128036E-01  0.26379809717E-01  0.10099817824E+01  0.10094110755E+01 0.  0.
     999903    2    3    3    0    0  0.96286847602E-01  0.69543000371E-01 -0.10484838273E-01  0.12069693861E+00  0.18719862058E-01 0.  0.
         14    1    1    2    0    0 -0.10727161169E-01  0.18480128036E-01 -0.26379809717E-01  0.33948217622E-01  0.00000000000E+00 0. -1.
     999901    1    3    3    0    0 -0.85559686433E-01 -0.88023128407E-01  0.36864647990E-01  0.88928484376E+00  0.88000000000E+00 0. -1.
        -11    1    4    4    0    0  0.56179191180E-01  0.36996019866E-01  0.29180514690E-02  0.67331888084E-01  0.51100000000E-03 0.  1.
         11    1    4    4    0    0  0.40107656422E-01  0.32546980505E-01 -0.13402889742E-01  0.53365050530E-01  0.51100000000E-03 0. -1.
</event>
<event>
 8    1  0.1123191E+005  0.1043930E+01  0.7957747E-01            NaN
         13   -1    0    0    0    0  0.00000000000E+00  0.00000000000E+00  0.74505805969E-08  0.10566000000E+00  0.10566000000E+00 0.  1.
     999900   -1    0    0    0    0 -0.00000000000E+00 -0.00000000000E+00 -0.74505805969E-08  0.93827000000E+00  0.93827000000E+00 0.  1.
     999902    2    1    2    0    0  0.52485119962E-02 -0.13945674899E-01  0.18484236346E-01  0.10201877229E+01  0.10199114149E+01 0.  0.
     999903    2    3    3    0    0 -0.97208571512E-01  0.26462950242E-01  0.81755098137E-01  0.13106820741E+00  0.18579149923E-01 0.  0.
         14    1    1    2    0    0 -0.52485119962E-02  0.13945674899E-01 -0.18484236346E-01  0.23742277057E-01  0.00000000000E+00 0. -1.
     999901    1    3    3    0    0  0.10245708351E+00 -0.40408625141E-01 -0.63270861791E-01  0.88911951553E+00  0.88000000000E+00 0.  1.
        -11    1    4    4    0    0 -0.87376325929E-01  0.28872060679E-01  0.70528155099E-01  0.11594265826E+00  0.51100000000E-03 0.  1.
         11    1    4    4    0    0 -0.98322455827E-02 -0.24091104369E-02  0.11226943038E-01  0.15125549156E-01  0.51100000000E-03 0. -1.
</event>
<event>
 8    1  0.1123191E+005  0.1043930E+01  0.7957747E-01            NaN
         13   -1    0    0    0    0  0.00000000000E+00  0.00000000000E+00  0.74505805969E-08  0.10566000000E+00  0.10566000000E+00 0.  1.
     999900   -1    0    0    0    0 -0.00000000000E+00 -0.00000000000E+00 -0.74505805969E-08  0.93827000000E+00  0.93827000000E+00 0.  1.
     999902    2    1    2    0    0  0.24323079147E-01  0.50843154027E-02  0.17816643404E-02  0.10190174174E+01  0.10187128449E+01 0.  0.
     999903    2    3    3    0    0 -0.60611326429E-01  0.10741591867E+00  0.30574791346E-01  0.12855986401E+00  0.19516872058E-01 0.  0.
         14    1    1    2    0    0 -0.24323079147E-01 -0.50843154027E-02 -0.17816643404E-02  0.24912582566E-01  0.00000000000E+00 0.  1.
     999901    1    3    3    0    0  0.84934405576E-01 -0.10233160327E+00 -0.28793127006E-01  0.89045755342E+00  0.88000000000E+00 0.  1.
        -11    1    4    4    0    0 -0.18357121259E-01  0.51698114943E-01  0.11179319658E-01  0.55990332189E-01  0.51100000000E-03 0. -1.
         11    1    4    4    0    0 -0.42254205170E-01  0.55717803725E-01  0.19395471688E-01  0.72569531826E-01  0.51100000000E-03 0.  1.
</event>
<event>
 8    1  0.1123191E+005  0.1043930E+01  0.7957747E-01            NaN
         13   -1    0    0    0    0  0.00000000000E+00  0.00000000000E+00  0.74505805969E-08  0.10566000000E+00  0.10566000000E+00 0.  1.
     999900   -1    0    0    0    0 -0.00000000000E+00 -0.00000000000E+00 -0.74505805969E-08  0.93827000000E+00  0.93827000000E+00 0.  1.
     999902    2    1    2    0    0  0.25049105554E-01  0.42198931126E-03  0.35999951921E-02  0.10186200073E+01  0.10183055158E+01 0.  0.
     999903    2    3    3    0    0  0.10433517068E+00  0.76468079601E-01 -0.73654064689E-02  0.13172118107E+00  0.23728153982E-01 0.  0.
         14    1    1    2    0    0 -0.25049105554E-01 -0.42198931126E-03 -0.35999951921E-02  0.25309992679E-01  0.00000000000E+00 0. -1.
     999901    1    3    3    0    0 -0.79286065126E-01 -0.76046090290E-01  0.10965401661E-01  0.88689882625E+00  0.88000000000E+00 0.  1.
        -11    1    4    4    0    0  0.41723977073E-01  0.39537893030E-01 -0.12570017443E-01  0.58842176264E-01  0.51100000000E-03 0.  1.
         11    1    4    4    0    0  0.62611193607E-01  0.36930186571E-01  0.52046109741E-02  0.72879004806E-01  0.51100000000E-03 0. -1.
</event>
<event>
 8    1  0.1123191E+005  0.1043930E+01  0.7957747E-01            NaN
         13   -1    0    0    0    0  0.00000000000E+00  0.00000000000E+00  0.74505805969E-08  0.10566000000E+00  0.10566000000E+00 0. -1.
     999900   -1    0    0    0    0 -0.00000000000E+00 -0.00000000000E+00 -0.74505805969E-08  0.93827000000E+00  0.93827000000E+00 0.  1.
     999902    2    1    2    0    0 -0.27920362525E-02 -0.25727072703E-01  0.16780407382E-02  0.10179975193E+01  0.10176671635E+01 0.  0.
     999903    2    3    3    0    0 -0.96669952016E-01  0.32014704747E-01 -0.75258672461E-01  0.12779168140E+00  0.17228613170E-01 0.  0.
         14    1    1    2    0    0  0.27920362525E-02  0.25727072703E-01 -0.16780407382E-02  0.25932480734E-01  0.00000000000E+00 0. -1.
     999901    1    3    3    0    0  0.93877915764E-01 -0.57741777450E-01  0.76936713199E-01  0.89020583787E+00  0.88000000000E+00 0. -1.
        -11    1    4    4    0    0 -0.38522272707E-01  0.21000384879E-01 -0.36177146644E-01  0.56868521345E-01  0.51100000000E-03 0.  1.
         11    1    4    4    0    0 -0.58147679309E-01  0.11014319868E-01 -0.39081525817E-01  0.70923160056E-01  0.51100000000E-03 0. -1.
</event>
<event>
 8    1  0.1123191E+005  0.1043930E+01  0.7957747E-01            NaN
         13   -1    0    0    0    0  0.00000000000E+00  0.00000000000E+00  0.74505805969E-08  0.10566000000E+00  0.10566000000E+00 0.  1.
     999900   -1    0    0    0    0 -0.00000000000E+00 -0.00000000000E+00 -0.74505805969E-08  0.93827000000E+00  0.93827000000E+00 0.  1.
     999902    2    1    2    0    0  0.42236668092E-02  0.11161364059E-01 -0.20668714225E-01  0.10200634720E+01  0.10197842300E+01 0.  0.
     999903    2    3    3    0    0 -0.19886212504E-01 -0.12534167858E+00  0.79641426415E-02  0.12875308423E+00  0.20197309098E-01 0.  0.
         14    1    1    2    0    0 -0.42236668092E-02 -0.11161364059E-01  0.20668714225E-01  0.23866527956E-01  0.00000000000E+00 0.  1.
     999901    1    3    3    0    0  0.24109879313E-01  0.13650304264E+00 -0.28632856866E-01  0.89131038781E+00  0.88000000000E+00 0.  1.
        -11    1    4    4    0    0 -0.96514753513E-02 -0.68036023928E-01 -0.57038646894E-02  0.68955396611E-01  0.51100000000E-03 0. -1.
         11    1    4    4    0    0 -0.10234737152E-01 -0.57305654650E-01  0.13668007331E-01  0.59797687621E-01  0.51100000000E-03 0.  1.
</event>
<event>
 8    1  0.1123191E+005  0.1043930E+01  0.7957747E-01            NaN
         13   -1    0    0    0    0  0.00000000000E+00  0.00000000000E+00  0.74505805969E-08  0.10566000000E+00  0.10566000000E+00 0. -1.
     999900   -1    0    0    0    0 -0.00000000000E+00 -0.00000000000E+00 -0.74505805969E-08  0.93827000000E+00  0.93827000000E+00 0. -1.
     999902    2    1    2    0    0 -0.22140879285E-03  0.69201814686E-03 -0.23653208912E-01  0.10202656343E+01  0.10199911580E+01 0.  0.
     999903    2    3    3    0    0 -0.15193442399E-01 -0.12776684309E+00  0.55801901652E-02  0.13033280965E+00  0.20007395230E-01 0.  0.
         14    1    1    2    0    0  0.22140879285E-03 -0.69201814686E-03  0.23653208912E-01  0.23664365676E-01  0.00000000000E+00 0. -1.
     999901    1    3    3    0    0  0.14972033606E-01  0.12845886123E+00 -0.29233399078E-01  0.88993282468E+00  0.88000000000E+00 0. -1.
        -11    1    4    4    0    0 -0.48378131896E-02 -0.80606933085E-01 -0.49739386967E-02  0.80906633134E-01  0.51100000000E-03 0. -1.
         11    1    4    4    0    0 -0.10355629209E-01 -0.47159910000E-01  0.10554128862E-01  0.49426176512E-01  0.51100000000E-03 0.  1.
</event>
<event>
 8    1  0.1123191E+005  0.1043930E+01  0.7957747E-01            NaN
         13   -1    0    0    0    0  0.00000000000E+00  0.00000000000E+00  0.74505805969E-08  0.10566000000E+00  0.10566000000E+00 0. -1.
     999900   -1    0    0    0    0 -0.00000000000E+00 -0.00000000000E+00 -0.74505805969E-08  0.93827000000E+00  0.93827000000E+00 0. -1.
     999902    2    1    2    0    0 -0.23359434944E-01  0.78121864344E-03  0.26366231629E-02  0.10204092584E+01  0.10201381423E+01 0.  0.
     999903    2    3    3    0    0 -0.51410317994E-01 -0.54046402146E-01 -0.10584097941E+00  0.13161214415E+00  0.23567120835E-01 0.  0.
         14    1    1    2    0    0  0.23359434944E-01 -0.78121864344E-03 -0.26366231629E-02  0.23520741595E-01  0.00000000000E+00 0. -1.
     999901    1    3    3    0    0  0.28050883050E-01  0.54827620790E-01  0.10847760258E+00  0.88879711425E+00  0.88000000000E+00 0.  1.
        -11    1    4    4    0    0 -0.36745710127E-01 -0.22742170509E-01 -0.65640653284E-01  0.78590139437E-01  0.51100000000E-03 0. -1.
         11    1    4    4    0    0 -0.14664607868E-01 -0.31304231637E-01 -0.40200326128E-01  0.53022004716E-01  0.51100000000E-03 0.  1.
</event>
<event>
 8    1  0.1123191E+005  0.1043930E+01  0.7957747E-01            NaN
         13   -1    0    0    0    0  0.00000000000E+00  0.00000000000E+00  0.74505805969E-08  0.10566000000E+00  0.10566000000E+00 0.  1.
     999900   -1    0    0    0    0 -0.00000000000E+00 -0.00000000000E+00 -0.74505805969E-08  0.93827000000E+00  0.93827000000E+00 0.  1.
     999902    2    1    2    0    0  0.48098550598E-02  0.21840980965E-01  0.72644855182E-02  0.10204154108E+01  0.10201444382E+01 0.  0.
     999903    2    3    3    0    0 -0.10904749834E+00 -0.11534135910E-01  0.67521080987E-01  0.13041077450E+00  0.20578642877E-01 0.  0.
         14    1    1    2    0    0 -0.48098550598E-02 -0.21840980965E-01 -0.72644855182E-02  0.23514589196E-01  0.00000000000E+00 0.  1.
     999901    1    3    3    0    0  0.11385735340E+00  0.33375116875E-01 -0.60256595469E-01  0.89000463631E+00  0.88000000000E+00 0. -1.
        -11    1    4    4    0    0 -0.19995023785E-01 -0.93303972590E-02  0.18068550441E-01  0.28523515302E-01  0.51100000000E-03 0.  1.
         11    1    4    4    0    0 -0.89052474552E-01 -0.22037386510E-02  0.49452530546E-01  0.10188725920E+00  0.51100000000E-03 0. -1.
</event>
<event>
 8    1  0.1123191E+005  0.1043930E+01  0.7957747E-01            NaN
         13   -1    0    0    0    0  0.00000000000E+00  0.00000000000E+00  0.74505805969E-08  0.10566000000E+00  0.10566000000E+00 0.  1.
     999900   -1    0    0    0    0 -0.00000000000E+00 -0.00000000000E+00 -0.74505805969E-08  0.93827000000E+00  0.93827000000E+00 0.  1.
     999902    2    1    2    0    0  0.12902443291E-01 -0.17276677006E-01  0.99199908626E-02  0.10201947345E+01  0.10199185916E+01 0.  0.
     999903    2    3    3    0    0 -0.12102833922E-01 -0.84724757313E-01  0.99161842530E-01  0.13276100989E+00  0.21625254732E-01 0.  0.
         14    1    1    2    0    0 -0.12902443291E-01  0.17276677006E-01 -0.99199908626E-02  0.23735265534E-01  0.00000000000E+00 0. -1.
     999901    1    3    3    0    0  0.25005277213E-01  0.67448080307E-01 -0.89241851668E-01  0.88743372458E+00  0.88000000000E+00 0.  1.
        -11    1    4    4    0    0 -0.22222503424E-02 -0.45692273565E-02  0.16171512358E-01  0.16958631081E-01  0.51100000000E-03 0. -1.
         11    1    4    4    0    0 -0.98805835791E-02 -0.80155529957E-01  0.82990330173E-01  0.11580237881E+00  0.51100000000E-03 0.  1.
</event>
<event>
 8    1  0.1123191E+005  0.1043930E+01  0.7957747E-01            NaN
         13   -1    0    0    0    0  0.00000000000E+00  0.00000000000E+00  0.74505805969E-08  0.10566000000E+00  0.10566000000E+00 0. -1.
     999900   -1    0    0    0    0 -0.00000000000E+00 -0.00000000000E+00 -0.74505805969E-08  0.93827000000E+00  0.93827000000E+00 0. -1.
     999902    2    1    2    0    0  0.21627809142E-01 -0.16986326321E-02 -0.36667334275E-02  0.10219278998E+01  0.10216910198E+01 0.  0.
     999903    2    3    3    0    0  0.50555240088E-01  0.64227650954E-01  0.10224122568E+00  0.13265878024E+00  0.21542058829E-01 0.  0.
         14    1    1    2    0    0 -0.21627809142E-01  0.16986326321E-02  0.36667334275E-02  0.22002100244E-01  0.00000000000E+00 0. -1.
     999901    1    3    3    0    0 -0.28927430946E-01 -0.65926283586E-01 -0.10590795910E+00  0.88926911952E+00  0.88000000000E+00 0. -1.
        -11    1    4    4    0    0  0.64908129418E-02  0.80932037946E-02  0.27129513537E-01  0.29049995285E-01  0.51100000000E-03 0.  1.
         11    1    4    4    0    0  0.44064427146E-01  0.56134447159E-01  0.75111712140E-01  0.10360878495E+00  0.51100000000E-03 0. -1.
</event>
<event>
 8    1  0.1123191E+005  0.1043930E+01  0.7957747E-01            NaN
         13   -1    0    0    0    0  0.00000000000E+00  0.00000000000E+00  0.74505805969E-08  0.10566000000E+00  0.10566000000E+00 0. -1.
     999900   -1    0    0    0    0 -0.00000000000E+00 -0.00000000000E+00 -0.74505805969E-08  0.93827000000E+00  0.93827000000E+00 0. -1.
     999902    2    1    2    0    0 -0.84101548806E-02  0.18152270350E-01  0.59189817168E-02  0.10230668754E+01  0.10228541253E+01 0.  0.
     999903    2    3    3    0    0  0.29056597823E-01 -0.97447649057E-01  0.80410996570E-01  0.13159833461E+00  0.22624392111E-01 0.  0.
         14    1    1    2    0    0  0.84101548806E-02 -0.18152270350E-01 -0.59189817168E-02  0.20863124611E-01  0.00000000000E+00 0.  1.
     999901    1    3    3    0    0 -0.37466752703E-01  0.11559991941E+00 -0.74492014854E-01  0.89146854078E+00  0.88000000000E+00 0. -1.
        -11    1    4    4    0    0  0.26410954298E-01 -0.68746601075E-01  0.46535973455E-01  0.87117688289E-01  0.51100000000E-03 0. -1.
         11    1    4    4    0    0  0.26456435241E-02 -0.28701047982E-01  0.33875023116E-01  0.44480646320E-01  0.51100000000E-03 0.  1.
</event>
<event>
 8    1  0.1123191E+005  0.1043930E+01  0.7957747E-01            NaN
         13   -1    0    0    0    0  0.00000000000E+00  0.00000000000E+00  0.74505805969E-08  0.10566000000E+00  0.10566000000E+00 0. -1.
     999900   -1    0    0    0    0 -0.00000000000E+00 -0.00000000000E+00 -0.74505805969E-08  0.93827000000E+00  0.93827000000E+00 0.  1.
     999902    2    1    2    0    0  0.12085525148E-01  0.16666270218E-01 -0.10608912328E-01  0.10207702612E+01  0.10205074976E+01 0.  0.
     999903    2    3    3    0    0 -0.12214517505E+00 -0.85905657512E-02 -0.40252614271E-01  0.12974021809E+00  0.14798973866E-01 0.  0.
         14    1    1    2    0    0 -0.12085525148E-01 -0.16666270218E-01  0.10608912328E-01  0.23159738812E-01  0.00000000000E+00 0. -1.
     999901    1    3    3    0    0  0.13423070019E+00  0.25256835969E-01  0.29643701943E-01  0.89103004310E+00  0.88000000000E+00 0.  1.
        -11    1    4    4    0    0 -0.70629608051E-01 -0.10901268050E-01 -0.18900557914E-01  0.73924768441E-01  0.51100000000E-03 0.  1.
         11    1    4    4    0    0 -0.51515566995E-01  0.23107022984E-02 -0.21352056356E-01  0.55815449649E-01  0.51100000000E-03 0. -1.
</event>
<event>
 8    1  0.1123191E+005  0.1043930E+01  0.7957747E-01            NaN
         13   -1    0    0    0    0  0.00000000000E+00  0.00000000000E+00  0.74505805969E-08  0.10566000000E+00  0.10566000000E+00 0.  1.
     999900   -1    0    0    0    0 -0.00000000000E+00 -0.00000000000E+00 -0.74505805969E-08  0.93827000000E+00  0.93827000000E+00 0.  1.
     999902    2    1    2    0    0 -0.20828840053E-01 -0.71726651664E-04 -0.82077081635E-02  0.10215422311E+01  0.10212968803E+01 0.  0.
     999903    2    3    3    0    0  0.11214144853E+00  0.60406632348E-01 -0.11585809624E-01  0.12949394703E+00  0.20243162370E-01 0.  0.
         14    1    1    2    0    0  0.20828840053E-01  0.71726651664E-04  0.82077081635E-02  0.22387768892E-01  0.00000000000E+00 0. -1.
     999901    1    3    3    0    0 -0.13297028859E+00 -0.60478359000E-01  0.33781014601E-02  0.89204828408E+00  0.88000000000E+00 0. -1.
        -11    1    4    4    0    0  0.74622122789E-01  0.50197257592E-01 -0.52002260035E-02  0.90086232860E-01  0.51100000000E-03 0. -1.
         11    1    4    4    0    0  0.37519325743E-01  0.10209374756E-01 -0.63855836201E-02  0.39407714172E-01  0.51100000000E-03 0.  1.
</event>
<event>
 8    1  0.1123191E+005  0.1043930E+01  0.7957747E-01            NaN
         13   -1    0    0    0    0  0.00000000000E+00  0.00000000000E+00  0.74505805969E-08  0.10566000000E+00  0.10566000000E+00 0. -1.
     999900   -1    0    0    0    0 -0.00000000000E+00 -0.00000000000E+00 -0.74505805969E-08  0.93827000000E+00  0.93827000000E+00 0. -1.
     999902    2    1    2    0    0  0.21115355029E-01  0.70864942155E-02 -0.46595225413E-02  0.10211750496E+01  0.10209214926E+01 0.  0.
     999903    2    3    3    0    0  0.51825417556E-01 -0.76352374385E-01 -0.92816332405E-01  0.13231241910E+00  0.19394476246E-01 0.  0.
         14    1    1    2    0    0 -0.21115355029E-01 -0.70864942155E-02  0.46595225413E-02  0.22754950419E-01  0.00000000000E+00 0.  1.
     999901    1    3    3    0    0 -0.30710062527E-01  0.83438868601E-01  0.88156809863E-01  0.88886263048E+00  0.88000000000E+00 0. -1.
        -11    1    4    4    0    0  0.13516376029E-01 -0.36894408602E-01 -0.38235103083E-01  0.54827675820E-01  0.51100000000E-03 0. -1.
         11    1    4    4    0    0  0.38309041527E-01 -0.39457965784E-01 -0.54581229321E-01  0.77484743284E-01  0.51100000000E-03 0.  1.
</event>
<event>
 8    1  0.1123191E+005  0.1043930E+01  0.7957747E-01            NaN
         13   -1    0    0    0    0  0.00000000000E+00  0.00000000000E+00  0.74505805969E-08  0.10566000000E+00  0.10566000000E+00 0. -1.
     999900   -1    0    0    0    0 -0.00000000000E+00 -0.00000000000E+00 -0.74505805969E-08  0.93827000000E+00  0.93827000000E+00 0.  1.
     999902    2    1    2    0    0  0.83463934955E-02  0.17420690729E-01 -0.12229863410E-01  0.10210670975E+01  0.10208111017E+01 0.  0.
     999903    2    3    3    0    0  0.39201053731E-01 -0.10669500573E+00  0.57770444400E-01  0.12907115626E+00  0.20034776556E-01 0.  0.
         14    1    1    2    0    0 -0.83463934955E-02 -0.17420690729E-01  0.12229863410E-01  0.22862902460E-01  0.00000000000E+00 0. -1.
     999901    1    3    3    0    0 -0.30854660236E-01  0.12411569646E+00 -0.70000307810E-01  0.89199594128E+00  0.88000000000E+00 0.  1.
        -11    1    4    4    0    0  0.20752996907E-01 -0.64024492615E-01  0.44633159826E-01  0.80760154856E-01  0.51100000000E-03 0.  1.
         11    1    4    4    0    0  0.18448056824E-01 -0.42670513112E-01  0.13137284574E-01  0.48311001405E-01  0.51100000000E-03 0. -1.
</event>
<event>
 8    1  0.1123191E+005  0.1043930E+01  0.7957747E-01            NaN
         13   -1    0    0    0    0  0.00000000000E+00  0.00000000000E+00  0.74505805969E-08  0.10566000000E+00  0.10566000000E+00 0. -1.
     999900   -1    0    0    0    0 -0.00000000000E+00 -0.00000000000E+00 -0.74505805969E-08  0.93827000000E+00  0.93827000000E+00 0.  1.
     999902    2    1    2    0    0 -0.69734607432E-02 -0.19307828742E-01 -0.19311389786E-01  0.10157457636E+01  0.10153546696E+01 0.  0.
     999903    2    3    3    0    0 -0.35468524500E-01 -0.13470938309E-02  0.11758493124E+00  0.12452460174E+00  0.20501938745E-01 0.  0.
         14    1    1    2    0    0  0.69734607432E-02  0.19307828742E-01  0.19311389786E-01  0.28184236391E-01  0.00000000000E+00 0. -1.
     999901    1    3    3    0    0  0.28495063757E-01 -0.17960734911E-01 -0.13689632102E+00  0.89122116187E+00  0.88000000000E+00 0.  1.
        -11    1    4    4    0    0 -0.10109778479E-01  0.34258292564E-03  0.68531141525E-01  0.69275561807E-01  0.51100000000E-03 0.  1.
         11    1    4    4    0    0 -0.25358746022E-01 -0.16896767565E-02  0.49053789711E-01  0.55249039931E-01  0.51100000000E-03 0. -1.
</event>
<event>
 8    1  0.1123191E+005  0.1043930E+01  0.7957747E-01            NaN
         13   -1    0    0    0    0  0.00000000000E+00  0.00000000000E+00  0.74505805969E-08  0.10566000000E+00  0.10566000000E+00 0. -1.
     999900   -1    0    0    0    0 -0.00000000000E+00 -0.00000000000E+00 -0.74505805969E-08  0.93827000000E+00  0.93827000000E+00 0. -1.
     999902    2    1    2    0    0 -0.90761608137E-02  0.24949584324E-01  0.22431287790E-02  0.10172862375E+01  0.10169372640E+01 0.  0.
     999903    2    3    3    0    0 -0.60195294084E-01  0.99671535854E-01 -0.56015575154E-01  0.13072512150E+00  0.19834924824E-01 0.  0.
         14    1    1    2    0    0  0.90761608137E-02 -0.24949584324E-01 -0.22431287790E-02  0.26643762492E-01  0.00000000000E+00 0. -1.
     999901    1    3    3    0    0  0.51119133270E-01 -0.74721951531E-01  0.58258703933E-01  0.88656111600E+00  0.88000000000E+00 0.  1.
        -11    1    4    4    0    0 -0.39569331212E-01  0.55600312860E-01 -0.23405411646E-01  0.72147080177E-01  0.51100000000E-03 0.  1.
         11    1    4    4    0    0 -0.20625962871E-01  0.44071222995E-01 -0.32610163509E-01  0.58578041327E-01  0.51100000000E-03 0. -1.
</event>
<event>
 8    1  0.1123191E+005  0.1043930E+01  0.7957747E-01            NaN
         13   -1    0    0    0    0  0.00000000000E+00  0.00000000000E+00  0.74505805969E-08  0.10566000000E+00  0.10566000000E+00 0.  1.
     999900   -1    0    0    0    0 -0.00000000000E+00 -0.00000000000E+00 -0.74505805969E-08  0.93827000000E+00  0.93827000000E+00 0. -1.
     999902    2    1    2    0    0 -0.73052917967E-03 -0.92741175257E-02  0.21084842784E-01  0.10208840996E+01  0.10206239422E+01 0.  0.
     999903    2    3    3    0    0  0.57526744901E-01  0.11481467355E+00 -0.26548680108E-02  0.12995452221E+00  0.19733065556E-01 0.  0.
         14    1    1    2    0    0  0.73052917967E-03  0.92741175257E-02 -0.21084842784E-01  0.23045900373E-01  0.00000000000E+00 0. -1.
     999901    1    3    3    0    0 -0.58257274080E-01 -0.12408879108E+00  0.23739710795E-01  0.89092957742E+00  0.88000000000E+00 0.  1.
        -11    1    4    4    0    0  0.29466872689E-01  0.39070488397E-01 -0.45983706281E-02  0.49154916164E-01  0.51100000000E-03 0. -1.
         11    1    4    4    0    0  0.28059872211E-01  0.75744185154E-01  0.19435026172E-02  0.80799606042E-01  0.51100000000E-03 0.  1.
</event>
<event>
 8    1  0.1123191E+005  0.1043930E+01  0.7957747E-01            NaN
         13   -1    0    0    0    0  0.00000000000E+00  0.00000000000E+00  0.74505805969E-08  0.10566000000E+00  0.10566000000E+00 0.  1.
     999900   -1    0    0    0    0 -0.00000000000E+00 -0.00000000000E+00 -0.74505805969E-08  0.93827000000E+00  0.93827000000E+00 0. -1.
     999902    2    1    2    0    0 -0.42906221950E-02 -0.23224123671E-01  0.24919945260E-02  0.10201817496E+01  0.10199053009E+01 0.  0.
     999903    2    3    3    0    0 -0.90118380477E-01  0.89497991483E-01 -0.86876378410E-02  0.12877967227E+00  0.19429769917E-01 0.  0.
         14    1    1    2    0    0  0.42906221950E-02  0.23224123671E-01 -0.24919945260E-02  0.23748250374E-01  0.00000000000E+00 0.  1.
     999901    1    3    3    0    0  0.85827758282E-01 -0.11272211515E+00  0.11179632367E-01  0.89140207736E+00  0.88000000000E+00 0.  1.
        -11    1    4    4    0    0 -0.32361931638E-01  0.30208706976E-01  0.61162776929E-02  0.44693741959E-01  0.51100000000E-03 0.  1.
         11    1    4    4    0    0 -0.57756448839E-01  0.59289284507E-01 -0.14803915534E-01  0.84085930310E-01  0.51100000000E-03 0. -1.
</event>
<event>
 8    1  0.1123191E+005  0.1043930E+01  0.7957747E-01            NaN
         13   -1    0    0    0    0  0.00000000000E+00  0.00000000000E+00  0.74505805969E-08  0.10566000000E+00  0.10566000000E+00 0. -1.
     999900   -1    0    0    0    0 -0.00000000000E+00 -0.00000000000E+00 -0.74505805969E-08  0.93827000000E+00  0.93827000000E+00 0.  1.
     999902    2    1    2    0    0 -0.80587657363E-02 -0.20233025211E-01  0.87613686415E-02  0.10204548941E+01  0.10201848413E+01 0.  0.
     999903    2    3    3    0    0  0.30817598079E-01  0.48517351663E-01  0.11548071482E+00  0.13049590361E+00  0.19741519687E-01 0.  0.
         14    1    1    2    0    0  0.80587657363E-02  0.20233025211E-01 -0.87613686415E-02  0.23475105854E-01  0.00000000000E+00 0.  1.
     999901    1    3    3    0    0 -0.38876363815E-01 -0.68750376873E-01 -0.10671934618E+00  0.88995899053E+00  0.88000000000E+00 0.  1.
        -11    1    4    4    0    0  0.15916329967E-01  0.98835811231E-02  0.45046573915E-01  0.48790057162E-01  0.51100000000E-03 0.  1.
         11    1    4    4    0    0  0.14901268112E-01  0.38633770540E-01  0.70434140909E-01  0.81705846449E-01  0.51100000000E-03 0. -1.
</event>
<event>
 8    1  0.1123191E+005  0.1043930E+01  0.7957747E-01            NaN
         13   -1    0    0    0    0  0.00000000000E+00  0.00000000000E+00  0.74505805969E-08  0.10566000000E+00  0.10566000000E+00 0.  1.
     999900   -1    0    0    0    0 -0.00000000000E+00 -0.00000000000E+00 -0.74505805969E-08  0.93827000000E+00  0.93827000000E+00 0.  1.
     999902    2    1    2    0    0 -0.22101537466E-01  0.55900518567E-02  0.16134264225E-01  0.10160007838E+01  0.10156168330E+01 0.  0.
     999903    2    3    3    0    0 -0.46764790741E-01 -0.11518374798E+00  0.19160574755E-01  0.12740428064E+00  0.20260346707E-01 0.  0.
         14    1    1    2    0    0  0.22101537466E-01 -0.55900518567E-02 -0.16134264225E-01  0.27929216248E-01  0.00000000000E+00 0. -1.
     999901    1    3    3    0    0  0.24663253275E-01  0.12077379984E+00 -0.30263105299E-02  0.88859650311E+00  0.88000000000E+00 0. -1.
        -11    1    4    4    0    0 -0.24747298316E-01 -0.55848431450E-01 -0.63116270141E-03  0.61091206869E-01  0.51100000000E-03 0.  1.
         11    1    4    4    0    0 -0.22017492425E-01 -0.59335316530E-01  0.19791737457E-01  0.66313073771E-01  0.51100000000E-03 0. -1.
</event>
<event>
 8    1  0.1123191E+005  0.1043930E+01  0.7957747E-01            NaN
         13   -1    0    0    0    0  0.00000000000E+00  0.00000000000E+00  0.74505805969E-08  0.10566000000E+00  0.10566000000E+00 0.  1.
     999900   -1    0    0    0    0 -0.00000000000E+00 -0.00000000000E+00 -0.74505805969E-08  0.93827000000E+00  0.93827000000E+00 0.  1.
     999902    2    1    2    0    0  0.18141458888E-01 -0.11157938646E-01  0.11957883822E-01  0.10195045397E+01  0.10192119031E+01 0.  0.
     999903    2    3    3    0    0  0.18470547138E-01  0.11698549048E+00 -0.45136874837E-01  0.12839250511E+00  0.20506872098E-01 0.  0.
         14    1    1    2    0    0 -0.18141458888E-01  0.11157938646E-01 -0.11957883822E-01  0.24425460301E-01  0.00000000000E+00 0. -1.
     999901    1    3    3    0    0 -0.32908825038E-03 -0.12814342913E+00  0.57094758658E-01  0.89111203459E+00  0.88000000000E+00 0.  1.
        -11    1    4    4    0    0  0.18192308884E-01  0.54759529114E-01 -0.17474810286E-01  0.60292588656E-01  0.51100000000E-03 0.  1.
         11    1    4    4    0    0  0.27823825455E-03  0.62225961367E-01 -0.27662064551E-01  0.68099916452E-01  0.51100000000E-03 0. -1.
</event>
<event>
 8    1  0.1123191E+005  0.1043930E+01  0.7957747E-01            NaN
         13   -1    0    0    0    0  0.00000000000E+00  0.00000000000E+00  0.74505805969E-08  0.10566000000E+00  0.10566000000E+00 0. -1.
     999900   -1    0    0    0    0 -0.00000000000E+00 -0.00000000000E+00 -0.74505805969E-08  0.93827000000E+00  0.93827000000E+00 0. -1.
     999902    2    1    2    0    0 -0.21205595621E-01  0.10981466094E-01 -0.10673968467E-02  0.10200258326E+01  0.10197456987E+01 0.  0.
     999903    2    3    3    0    0 -0.54789303940E-01 -0.93936472499E-01 -0.69453839763E-01  0.13052465504E+00  0.19670308166E-01 0.  0.
         14    1    1    2    0    0  0.21205595621E-01 -0.10981466094E-01  0.10673968467E-02  0.23904167403E-01  0.00000000000E+00 0.  1.
     999901    1    3    3    0    0  0.33583708319E-01  0.10491793859E+00  0.68386442916E-01  0.88950117756E+00  0.88000000000E+00 0.  1.
        -11    1    4    4    0    0 -0.37146065666E-01 -0.46604941734E-01 -0.43076859557E-01  0.73537254088E-01  0.51100000000E-03 0. -1.
         11    1    4    4    0    0 -0.17643238274E-01 -0.47331530764E-01 -0.26376980205E-01  0.56987400950E-01  0.51100000000E-03 0.  1.
</event>
<event>
 8    1  0.1123191E+005  0.1043930E+01  0.7957747E-01            NaN
         13   -1    0    0    0    0  0.00000000000E+00  0.00000000000E+00  0.74505805969E-08  0.10566000000E+00  0.10566000000E+00 0. -1.
     999900   -1    0    0    0    0 -0.00000000000E+00 -0.00000000000E+00 -0.74505805969E-08  0.93827000000E+00  0.93827000000E+00 0.  1.
     999902    2    1    2    0    0  0.15133687901E-01 -0.17497202674E-01 -0.21477497867E-02  0.10206965448E+01  0.10204320865E+01 0.  0.
     999903    2    3    3    0    0 -0.78491312284E-01  0.74776806295E-01 -0.66253763659E-01  0.12862607988E+00  0.20066149654E-01 0.  0.
         14    1    1    2    0    0 -0.15133687901E-01  0.17497202674E-01  0.21477497867E-02  0.23233455189E-01  0.00000000000E+00 0. -1.
     999901    1    3    3    0    0  0.93625000185E-01 -0.92274008970E-01  0.64106013872E-01  0.89207046493E+00  0.88000000000E+00 0.  1.
        -11    1    4    4    0    0 -0.40075707075E-01  0.39869666617E-01 -0.22901130234E-01  0.60994880939E-01  0.51100000000E-03 0.  1.
         11    1    4    4    0    0 -0.38415605209E-01  0.34907139679E-01 -0.43352633424E-01  0.67631198939E-01  0.51100000000E-03 0. -1.
</event>
<event>
 8    1  0.1293145E+005  0.1043930E+01  0.7957747E-01            NaN
         13   -1    0    0    0    0  0.00000000000E+00  0.00000000000E+00  0.74505805969E-08  0.10566000000E+00  0.10566000000E+00 0.  1.
     999900   -1    0    0    0    0 -0.00000000000E+00 -0.00000000000E+00 -0.74505805969E-08  0.93827000000E+00  0.93827000000E+00 0. -1.
     999902    2    1    2    0    0  0.33376885368E-02 -0.23324855601E-01  0.43275899337E-02  0.10199734333E+01  0.10196920553E+01 0.  0.
     999903    2    3    3    0    0 -0.11231259100E+00  0.24572380845E-02 -0.61460171662E-01  0.12959838137E+00  0.19955742005E-01 0.  0.
         14    1    1    2    0    0 -0.33376885368E-02  0.23324855601E-01 -0.43275899337E-02  0.23956566703E-01  0.00000000000E+00 0. -1.
     999901    1    3    3    0    0  0.11565027953E+00 -0.25782093685E-01  0.65787761596E-01  0.89037505192E+00  0.88000000000E+00 0.  1.
        -11    1    4    4    0    0 -0.78056430701E-01 -0.34786720083E-02 -0.33645903195E-01  0.85071825274E-01  0.51100000000E-03 0. -1.
         11    1    4    4    0    0 -0.34256160295E-01  0.59359100928E-02 -0.27814268467E-01  0.44526556100E-01  0.51100000000E-03 0.  1.
</event>
<event>
 8    1  0.1123191E+005  0.1043930E+01  0.7957747E-01            NaN
         13   -1    0    0    0    0  0.00000000000E+00  0.00000000000E+00  0.74505805969E-08  0.10566000000E+00  0.10566000000E+00 0. -1.
     999900   -1    0    0    0    0 -0.00000000000E+00 -0.00000000000E+00 -0.74505805969E-08  0.93827000000E+00  0.93827000000E+00 0. -1.
     999902    2    1    2    0    0  0.21491821341E-01 -0.23054381176E-02  0.94435364718E-02  0.10203419986E+01  0.10200693115E+01 0.  0.
     999903    2    3    3    0    0  0.11072406165E+00  0.37809164939E-01  0.62443804774E-01  0.13333545829E+00  0.13775518159E-01 0.  0.
         14    1    1    2    0    0 -0.21491821341E-01  0.23054381176E-02 -0.94435364718E-02  0.23588001411E-01  0.00000000000E+00 0.  1.
     999901    1    3    3    0    0 -0.89232240313E-01 -0.40114603056E-01 -0.53000268303E-01  0.88700654030E+00  0.88000000000E+00 0. -1.
        -11    1    4    4    0    0  0.43909340124E-01  0.14016216336E-01  0.17159253924E-01  0.49185217156E-01  0.51100000000E-03 0.  1.
         11    1    4    4    0    0  0.66814721530E-01  0.23792948603E-01  0.45284550850E-01  0.84150241135E-01  0.51100000000E-03 0. -1.
</event>
<event>
 8    1  0.1123191E+005  0.1043930E+01  0.7957747E-01            NaN
         13   -1    0    0    0    0  0.00000000000E+00  0.00000000000E+00  0.74505805969E-08  0.10566000000E+00  0.10566000000E+00 0.  1.
     999900   -1    0    0    0    0 -0.00000000000E+00 -0.00000000000E+00 -0.74505805969E-08  0.93827000000E+00  0.93827000000E+00 0.  1.
     999902    2    1    2    0    0  0.14268201493E-01  0.71453509013E-02  0.18270599708E-01  0.10196719616E+01  0.10193833709E+01 0.  0.
     999903    2    3    3    0    0 -0.12396661569E-01  0.94274920911E-01 -0.84560961851E-01  0.12901102334E+00  0.21256762283E-01 0.  0.
         14    1    1    2    0    0 -0.14268201493E-01 -0.71453509013E-02 -0.18270599708E-01  0.24258038400E-01  0.00000000000E+00 0. -1.
     999901    1    3    3    0    0  0.26664863062E-01 -0.87129570010E-01  0.10283156156E+00  0.89066093826E+00  0.88000000000E+00 0. -1.
        -11    1    4    4    0    0  0.19436290487E-02  0.35971991049E-01 -0.42423934371E-01  0.55658001782E-01  0.51100000000E-03 0. -1.
         11    1    4    4    0    0 -0.14340290618E-01  0.58302929862E-01 -0.42137027480E-01  0.73353021556E-01  0.51100000000E-03 0.  1.
</event>
<event>
 8    1  0.1123191E+005  0.1043930E+01  0.7957747E-01            NaN
         13   -1    0    0    0    0  0.00000000000E+00  0.00000000000E+00  0.74505805969E-08  0.10566000000E+00  0.10566000000E+00 0.  1.
     999900   -1    0    0    0    0 -0.00000000000E+00 -0.00000000000E+00 -0.74505805969E-08  0.93827000000E+00  0.93827000000E+00 0. -1.
     999902    2    1    2    0    0  0.77111331652E-02  0.18254205744E-01  0.11866063337E-01  0.10208327911E+01  0.10205714606E+01 0.  0.
     999903    2    3    3    0    0 -0.10798651698E+00  0.90257208887E-02 -0.68182940415E-01  0.12960950019E+00  0.20178148755E-01 0.  0.
         14    1    1    2    0    0 -0.77111331652E-02 -0.18254205744E-01 -0.11866063337E-01  0.23097208948E-01  0.00000000000E+00 0.  1.
     999901    1    3    3    0    0  0.11569765015E+00  0.92284848558E-02  0.80049003752E-01  0.89122329087E+00  0.88000000000E+00 0.  1.
        -11    1    4    4    0    0 -0.47216116413E-01  0.34029558093E-02 -0.18189435967E-01  0.50715465680E-01  0.51100000000E-03 0. -1.
         11    1    4    4    0    0 -0.60770400569E-01  0.56227650794E-02 -0.49993504448E-01  0.78894034505E-01  0.51100000000E-03 0.  1.
</event>
<event>
 8    1  0.1123191E+005  0.1043930E+01  0.7957747E-01            NaN
         13   -1    0    0    0    0  0.00000000000E+00  0.00000000000E+00  0.74505805969E-08  0.10566000000E+00  0.10566000000E+00 0. -1.
     999900   -1    0    0    0    0 -0.00000000000E+00 -0.00000000000E+00 -0.74505805969E-08  0.93827000000E+00  0.93827000000E+00 0. -1.
     999902    2    1    2    0    0  0.12990004153E-01  0.19952633307E-01  0.29644761160E-04  0.10201214162E+01  0.10198435444E+01 0.  0.
     999903    2    3    3    0    0  0.52202505560E-01  0.62234804152E-01  0.10261830224E+00  0.13228706516E+00  0.19263416594E-01 0.  0.
         14    1    1    2    0    0 -0.12990004153E-01 -0.19952633307E-01 -0.29644761160E-04  0.23808583801E-01  0.00000000000E+00 0. -1.
     999901    1    3    3    0    0 -0.39212501407E-01 -0.42282170845E-01 -0.10258865748E+00  0.88783435104E+00  0.88000000000E+00 0. -1.
        -11    1    4    4    0    0  0.38066009975E-01  0.51731791592E-01  0.68591273067E-01  0.93969267522E-01  0.51100000000E-03 0. -1.
         11    1    4    4    0    0  0.14136495586E-01  0.10503012560E-01  0.34027029178E-01  0.38317797640E-01  0.51100000000E-03 0.  1.
</event>
<event>
 8    1  0.1123191E+005  0.1043930E+01  0.7957747E-01            NaN
         13   -1    0    0    0    0  0.00000000000E+00  0.00000000000E+00  0.74505805969E-08  0.10566000000E+00  0.10566000000E+00 0. -1.
     999900   -1    0    0    0    0 -0.00000000000E+00 -0.00000000000E+00 -0.74505805969E-08  0.93827000000E+00  0.93827000000E+00 0.  1.
     999902    2    1    2    0    0  0.40144877652E-02 -0.13175154580E-01 -0.21539608193E-01  0.10183633121E+01  0.10180423271E+01 0.  0.
     999903    2    3    3    0    0  0.10495474223E+00 -0.24987592058E-01  0.66294431575E-01  0.12817047499E+00  0.19820225248E-01 0.  0.
         14    1    1    2    0    0 -0.40144877652E-02  0.13175154580E-01  0.21539608193E-01  0.25566687923E-01  0.00000000000E+00 0. -1.
     999901    1    3    3    0    0 -0.10094025447E+00  0.11812437477E-01 -0.87834039768E-01  0.89019283708E+00  0.88000000000E+00 0.  1.
        -11    1    4    4    0    0  0.27578549549E-01  0.44308796731E-03  0.10866535566E-01  0.29649880917E-01  0.51100000000E-03 0. -1.
         11    1    4    4    0    0  0.77376192682E-01 -0.25430680025E-01  0.55427896009E-01  0.98520594078E-01  0.51100000000E-03 0.  1.
</event>
<event>
 8    1  0.1123191E+005  0.1043930E+01  0.7957747E-01            NaN
         13   -1    0    0    0    0  0.00000000000E+00  0.00000000000E+00  0.74505805969E-08  0.10566000000E+00  0.10566000000E+00 0.  1.
     999900   -1    0    0    0    0 -0.00000000000E+00 -0.00000000000E+00 -0.74505805969E-08  0.93827000000E+00  0.93827000000E+00 0.  1.
     999902    2    1    2    0    0 -0.27467027059E-02  0.17081532548E-03  0.23852566742E-01  0.10199192005E+01  0.10196365318E+01 0.  0.
     999903    2    3    3    0    0  0.53385907057E-01  0.11431804053E+00 -0.21665708932E-01  0.12960893303E+00  0.20258408464E-01 0.  0.
         14    1    1    2    0    0  0.27467027059E-02 -0.17081532548E-03 -0.23852566742E-01  0.24010799525E-01  0.00000000000E+00 0. -1.
     999901    1    3    3    0    0 -0.56132609762E-01 -0.11414722521E+00  0.45518275675E-01  0.89031026745E+00  0.88000000000E+00 0. -1.
        -11    1    4    4    0    0  0.33263863958E-01  0.49301222927E-01 -0.14134839596E-01  0.61132234042E-01  0.51100000000E-03 0. -1.
         11    1    4    4    0    0  0.20122043098E-01  0.65016817606E-01 -0.75308693366E-02  0.68476698986E-01  0.51100000000E-03 0.  1.
</event>
<event>
 8    1  0.1123191E+005  0.1043930E+01  0.7957747E-01            NaN
         13   -1    0    0    0    0  0.00000000000E+00  0.00000000000E+00  0.74505805969E-08  0.10566000000E+00  0.10566000000E+00 0.  1.
     999900   -1    0    0    0    0 -0.00000000000E+00 -0.00000000000E+00 -0.74505805969E-08  0.93827000000E+00  0.93827000000E+00 0. -1.
     999902    2    1    2    0    0  0.10772244229E-01 -0.24860255142E-02  0.18915838844E-01  0.10220204010E+01  0.10217855301E+01 0.  0.
     999903    2    3    3    0    0  0.45475201576E-02  0.12804110790E+00 -0.21815764384E-01  0.13143904973E+00  0.19623734763E-01 0.  0.
         14    1    1    2    0    0 -0.10772244229E-01  0.24860255142E-02 -0.18915838844E-01  0.21909598986E-01  0.00000000000E+00 0. -1.
     999901    1    3    3    0    0  0.62247240715E-02 -0.13052713342E+00  0.40731603227E-01  0.89058135128E+00  0.88000000000E+00 0. -1.
        -11    1    4    4    0    0  0.22496354379E-02  0.80909841661E-01 -0.41441634451E-02  0.81048741809E-01  0.51100000000E-03 0. -1.
         11    1    4    4    0    0  0.22978847196E-02  0.47131266243E-01 -0.17671600939E-01  0.50390307923E-01  0.51100000000E-03 0.  1.
</event>
<event>
 8    1  0.1123191E+005  0.1043930E+01  0.7957747E-01            NaN
         13   -1    0    0    0    0  0.00000000000E+00  0.00000000000E+00  0.74505805969E-08  0.10566000000E+00  0.10566000000E+00 0.  1.
     999900   -1    0    0    0    0 -0.00000000000E+00 -0.00000000000E+00 -0.74505805969E-08  0.93827000000E+00  0.93827000000E+00 0.  1.
     999902    2    1    2    0    0 -0.11456102646E-01 -0.33331010521E-02  0.32412606422E-01  0.10093911971E+01  0.10088001090E+01 0.  0.
     999903    2    3    3    0    0 -0.11719740912E+00  0.27395886830E-02 -0.23676490314E-01  0.12126728220E+00  0.20060894474E-01 0.  0.
         14    1    1    2    0    0  0.11456102646E-01  0.33331010521E-02 -0.32412606422E-01  0.34538802897E-01  0.00000000000E+00 0. -1.
     999901    1    3    3    0    0  0.10574130648E+00 -0.60726897350E-02  0.56089096736E-01  0.88812391491E+00  0.88000000000E+00 0. -1.
        -11    1    4    4    0    0 -0.68350773694E-01  0.10323758299E-01 -0.90727288830E-02  0.69720755736E-01  0.51100000000E-03 0. -1.
         11    1    4    4    0    0 -0.48846635427E-01 -0.75841696161E-02 -0.14603761431E-01  0.51546526461E-01  0.51100000000E-03 0.  1.
</event>
<event>
 8    1  0.1123191E+005  0.1043930E+01  0.7957747E-01            NaN
         13   -1    0    0    0    0  0.00000000000E+00  0.00000000000E+00  0.74505805969E-08  0.10566000000E+00  0.10566000000E+00 0.  1.
     999900   -1    0    0    0    0 -0.00000000000E+00 -0.00000000000E+00 -0.74505805969E-08  0.93827000000E+00  0.93827000000E+00 0. -1.
     999902    2    1    2    0    0 -0.22537646554E-01 -0.84754895957E-02  0.24375033213E-02  0.10197283294E+01  0.10194410944E+01 0.  0.
     999903    2    3    3    0    0  0.95957226951E-02  0.65723763101E-01 -0.10888144665E+00  0.12903759121E+00  0.19591824620E-01 0.  0.
         14    1    1    2    0    0  0.22537646554E-01  0.84754895957E-02 -0.24375033213E-02  0.24201670573E-01  0.00000000000E+00 0. -1.
     999901    1    3    3    0    0 -0.32133369249E-01 -0.74199252696E-01  0.11131894997E+00  0.89069073821E+00  0.88000000000E+00 0.  1.
        -11    1    4    4    0    0  0.63737381707E-02  0.35050639106E-01 -0.40013569692E-01  0.53577222031E-01  0.51100000000E-03 0.  1.
         11    1    4    4    0    0  0.32219845244E-02  0.30673123994E-01 -0.68867876954E-01  0.75460369181E-01  0.51100000000E-03 0. -1.
</event>
<event>
 7    1  0.1123191E+005  0.1043930E+01  0.7957747E-01            NaN
         13   -1    0    0    0    0  0.00000000000E+00  0.00000000000E+00  0.74505805969E-08  0.10566000000E+00  0.10566000000E+00 0.  1.
     999900   -1    0    0    0    0 -0.00000000000E+00 -0.00000000000E+00 -0.74505805969E-08  0.93827000000E+00  0.93827000000E+00 0.  1.
     999903    2    1    2    0    0 -0.19231056314E-01 -0.74333433974E-01  0.25374549687E-01  0.83306004373E-01  0.20018233176E-01 0.  0.
         14    1    1    2    0    0 -0.66935468318E-01  0.65122960176E-02 -0.30401777366E-01  0.73804030956E-01  0.00000000000E+00 0. -1.
     999901    1    1    2    0    0  0.86166524632E-01  0.67821137956E-01  0.50272276790E-02  0.88681996467E+00  0.88000000000E+00 0. -1.
        -11    1    3    3    0    0 -0.21591665301E-01 -0.52973699678E-01  0.13620387720E-01  0.58806368284E-01  0.51100000000E-03 0. -1.
         11    1    3    3    0    0  0.23606089871E-02 -0.21359734296E-01  0.11754161966E-01  0.24499636089E-01  0.51100000000E-03 0.  1.
</event>
<event>
 8    1  0.1123191E+005  0.1043930E+01  0.7957747E-01            NaN
         13   -1    0    0    0    0  0.00000000000E+00  0.00000000000E+00  0.74505805969E-08  0.10566000000E+00  0.10566000000E+00 0. -1.
     999900   -1    0    0    0    0 -0.00000000000E+00 -0.00000000000E+00 -0.74505805969E-08  0.93827000000E+00  0.93827000000E+00 0.  1.
     999902    2    1    2    0    0 -0.11814538986E-01 -0.18173618848E-01  0.94630013605E-02  0.10202781048E+01  0.10200039210E+01 0.  0.
     999903    2    3    3    0    0  0.55112499775E-01  0.98933803150E-01 -0.55492581294E-01  0.12763450034E+00  0.19643168303E-01 0.  0.
         14    1    1    2    0    0  0.11814538986E-01  0.18173618848E-01 -0.94630013605E-02  0.23651895236E-01  0.00000000000E+00 0.  1.
     999901    1    3    3    0    0 -0.66927038761E-01 -0.11710742200E+00  0.64955582654E-01  0.89264360443E+00  0.88000000000E+00 0.  1.
        -11    1    4    4    0    0  0.45603268569E-01  0.74770925520E-01 -0.50780765497E-01  0.10123881011E+00  0.51100000000E-03 0. -1.
         11    1    4    4    0    0  0.95092312060E-02  0.24162877630E-01 -0.47118157966E-02  0.26395690227E-01  0.51100000000E-03 0.  1.
</event>
<event>
 8    1  0.1123191E+005  0.1043930E+01  0.7957747E-01            NaN
         13   -1    0    0    0    0  0.00000000000E+00  0.00000000000E+00  0.74505805969E-08  0.10566000000E+00  0.10566000000E+00 0.  1.
     999900   -1    0    0    0    0 -0.00000000000E+00 -0.00000000000E+00 -0.74505805969E-08  0.93827000000E+00  0.93827000000E+00 0.  1.
     999902    2    1    2    0    0  0.25788849227E-02  0.22867144227E-01 -0.59390347516E-02  0.10201638672E+01  0.10198869972E+01 0.  0.
     999903    2    3    3    0    0 -0.57191686901E-01 -0.41231212924E-01  0.10611172603E+00  0.12874000979E+00  0.18530778448E-01 0.  0.
         14    1    1    2    0    0 -0.25788849227E-02 -0.22867144227E-01  0.59390347516E-02  0.23766132759E-01  0.00000000000E+00 0. -1.
     999901    1    3    3    0    0  0.59770571824E-01  0.64098357151E-01 -0.11205076078E+00  0.89142385745E+00  0.88000000000E+00 0. -1.
        -11    1    4    4    0    0 -0.34858023525E-01 -0.14219580779E-01  0.59660288437E-01  0.70547072363E-01  0.51100000000E-03 0.  1.
         11    1    4    4    0    0 -0.22333663377E-01 -0.27011632145E-01  0.46451437590E-01  0.58192937425E-01  0.51100000000E-03 0. -1.
</event>
<event>
 8    1  0.1123191E+005  0.1043930E+01  0.7957747E-01            NaN
         13   -1    0    0    0    0  0.00000000000E+00  0.00000000000E+00  0.74505805969E-08  0.10566000000E+00  0.10566000000E+00 0. -1.
     999900   -1    0    0    0    0 -0.00000000000E+00 -0.00000000000E+00 -0.74505805969E-08  0.93827000000E+00  0.93827000000E+00 0.  1.
     999902    2    1    2    0    0 -0.21370399627E-01  0.20476539600E-02 -0.86693362390E-02  0.10207773704E+01  0.10205147699E+01 0.  0.
     999903    2    3    3    0    0 -0.77088577871E-01  0.70195309559E-01  0.78593662153E-01  0.13209100882E+00  0.20025997074E-01 0.  0.
         14    1    1    2    0    0  0.21370399627E-01 -0.20476539600E-02  0.86693362390E-02  0.23152629609E-01  0.00000000000E+00 0.  1.
     999901    1    3    3    0    0  0.55718178243E-01 -0.68147655599E-01 -0.87262998392E-01  0.88868636157E+00  0.88000000000E+00 0.  1.
        -11    1    4    4    0    0 -0.53781273767E-01  0.35884572067E-01  0.46396826144E-01  0.79580490811E-01  0.51100000000E-03 0. -1.
         11    1    4    4    0    0 -0.23307304104E-01  0.34310737492E-01  0.32196836009E-01  0.52510518011E-01  0.51100000000E-03 0.  1.
</event>
<event>
 8    1  0.1123191E+005  0.1043930E+01  0.7957747E-01            NaN
         13   -1    0    0    0    0  0.00000000000E+00  0.00000000000E+00  0.74505805969E-08  0.10566000000E+00  0.10566000000E+00 0. -1.
     999900   -1    0    0    0    0 -0.00000000000E+00 -0.00000000000E+00 -0.74505805969E-08  0.93827000000E+00  0.93827000000E+00 0.  1.
     999902    2    1    2    0    0 -0.20741578506E-01 -0.94382584089E-02  0.90777284497E-02  0.10194004473E+01  0.10191052807E+01 0.  0.
     999903    2    3    3    0    0  0.11779514682E+00 -0.45029905709E-02 -0.43047405079E-01  0.12702507189E+00  0.19654929831E-01 0.  0.
         14    1    1    2    0    0  0.20741578506E-01  0.94382584089E-02 -0.90777284497E-02  0.24529552676E-01  0.00000000000E+00 0. -1.
     999901    1    3    3    0    0 -0.13853672533E+00 -0.49352678380E-02  0.52125133528E-01  0.89237537543E+00  0.88000000000E+00 0. -1.
        -11    1    4    4    0    0  0.70667470880E-01 -0.11298104210E-01 -0.21246387485E-01  0.74653926230E-01  0.51100000000E-03 0.  1.
         11    1    4    4    0    0  0.47127675939E-01  0.67951136386E-02 -0.21801017594E-01  0.52371145662E-01  0.51100000000E-03 0. -1.
</event>
<event>
 8    1  0.1123191E+005  0.1043930E+01  0.7957747E-01            NaN
         13   -1    0    0    0    0  0.00000000000E+00  0.00000000000E+00  0.74505805969E-08  0.10566000000E+00  0.10566000000E+00 0. -1.
     999900   -1    0    0    0    0 -0.00000000000E+00 -0.00000000000E+00 -0.74505805969E-08  0.93827000000E+00  0.93827000000E+00 0. -1.
     999902    2    1    2    0    0 -0.20993357553E-01 -0.37534548996E-02 -0.96197258847E-02  0.10205345173E+01  0.10202663144E+01 0.  0.
     999903    2    3    3    0    0 -0.62848809748E-01 -0.46416431699E-01  0.10233772674E+00  0.13143020414E+00  0.26389964532E-01 0.  0.
         14    1    1    2    0    0  0.20993357553E-01  0.37534548996E-02  0.96197258847E-02  0.23395482708E-01  0.00000000000E+00 0. -1.
     999901    1    3    3    0    0  0.41855452194E-01  0.42662976800E-01 -0.11195745262E+00  0.88910431315E+00  0.88000000000E+00 0. -1.
        -11    1    4    4    0    0 -0.27301007662E-01 -0.35019327553E-01  0.46843768729E-01  0.64546867557E-01  0.51100000000E-03 0. -1.
         11    1    4    4    0    0 -0.35547802086E-01 -0.11397104146E-01  0.55493958008E-01  0.66883336583E-01  0.51100000000E-03 0.  1.
</event>
<event>
 8    1  0.1123191E+005  0.1043930E+01  0.7957747E-01            NaN
         13   -1    0    0    0    0  0.00000000000E+00  0.00000000000E+00  0.74505805969E-08  0.10566000000E+00  0.10566000000E+00 0.  1.
     999900   -1    0    0    0    0 -0.00000000000E+00 -0.00000000000E+00 -0.74505805969E-08  0.93827000000E+00  0.93827000000E+00 0. -1.
     999902    2    1    2    0    0 -0.89024752757E-02 -0.22384093745E-01 -0.11028205626E-02  0.10198153171E+01  0.10195301678E+01 0.  0.
     999903    2    3    3    0    0  0.11730465537E+00 -0.57599687856E-02  0.50041675999E-01  0.12918612327E+00  0.19781953821E-01 0.  0.
         14    1    1    2    0    0  0.89024752757E-02  0.22384093745E-01  0.11028205626E-02  0.24114682914E-01  0.00000000000E+00 0.  1.
     999901    1    3    3    0    0 -0.12620713064E+00 -0.16624124960E-01 -0.51144496562E-01  0.89062919382E+00  0.88000000000E+00 0.  1.
        -11    1    4    4    0    0  0.44474648129E-01  0.54273033641E-02  0.12667084471E-01  0.46563570503E-01  0.51100000000E-03 0.  1.
         11    1    4    4    0    0  0.72830007237E-01 -0.11187272150E-01  0.37374591528E-01  0.82622552764E-01  0.51100000000E-03 0. -1.
</event>
<event>
 8    1  0.1123191E+005  0.1043930E+01  0.7957747E-01            NaN
         13   -1    0    0    0    0  0.00000000000E+00  0.00000000000E+00  0.74505805969E-08  0.10566000000E+00  0.10566000000E+00 0.  1.
     999900   -1    0    0    0    0 -0.00000000000E+00 -0.00000000000E+00 -0.74505805969E-08  0.93827000000E+00  0.93827000000E+00 0.  1.
     999902    2    1    2    0    0 -0.48526083947E-02 -0.22972838820E-01 -0.23200753319E-02  0.10203358931E+01  0.10200630632E+01 0.  0.
     999903    2    3    3    0    0 -0.87163782322E-01 -0.88091842065E-01  0.43599943527E-01  0.13291025560E+00  0.20161432980E-01 0.  0.
         14    1    1    2    0    0  0.48526083947E-02  0.22972838820E-01  0.23200753319E-02  0.23594106918E-01  0.00000000000E+00 0.  1.
     999901    1    3    3    0    0  0.82311173927E-01  0.65119003245E-01 -0.45920018858E-01  0.88742563749E+00  0.88000000000E+00 0.  1.
        -11    1    4    4    0    0 -0.86103026959E-01 -0.80751700555E-01  0.39902501188E-01  0.12460754037E+00  0.51100000000E-03 0. -1.
         11    1    4    4    0    0 -0.10607553628E-02 -0.73401415107E-02  0.36974423386E-02  0.83027152296E-02  0.51100000000E-03 0.  1.
</event>
<event>
 8    1  0.1123191E+005  0.1043930E+01  0.7957747E-01            NaN
         13   -1    0    0    0    0  0.00000000000E+00  0.00000000000E+00  0.74505805969E-08  0.10566000000E+00  0.10566000000E+00 0. -1.
     999900   -1    0    0    0    0 -0.00000000000E+00 -0.00000000000E+00 -0.74505805969E-08  0.93827000000E+00  0.93827000000E+00 0. -1.
     999902    2    1    2    0    0 -0.72311401435E-02  0.13807830466E-01  0.16286885285E-01  0.10213865264E+01  0.10211377126E+01 0.  0.
     999903    2    3    3    0    0 -0.90566842280E-01  0.70327410451E-01  0.66532123459E-01  0.13422031529E+00  0.20982659563E-01 0.  0.
         14    1    1    2    0    0  0.72311401435E-02 -0.13807830466E-01 -0.16286885285E-01  0.22543473606E-01  0.00000000000E+00 0.  1.
     999901    1    3    3    0    0  0.83335702136E-01 -0.56519579985E-01 -0.50245238175E-01  0.88716621111E+00  0.88000000000E+00 0.  1.
        -11    1    4    4    0    0 -0.47572929594E-01  0.49875917816E-01  0.40821639871E-01  0.80109039508E-01  0.51100000000E-03 0. -1.
         11    1    4    4    0    0 -0.42993912686E-01  0.20451492634E-01  0.25710483588E-01  0.54111275778E-01  0.51100000000E-03 0.  1.
</event>
<event>
 8    1  0.1123191E+005  0.1043930E+01  0.7957747E-01            NaN
         13   -1    0    0    0    0  0.00000000000E+00  0.00000000000E+00  0.74505805969E-08  0.10566000000E+00  0.10566000000E+00 0.  1.
     999900   -1    0    0    0    0 -0.00000000000E+00 -0.00000000000E+00 -0.74505805969E-08  0.93827000000E+00  0.93827000000E+00 0.  1.
     999902    2    1    2    0    0  0.10373998498E-01  0.21134986511E-01  0.56086000375E-02  0.10197274403E+01  0.10194401840E+01 0.  0.
     999903    2    3    3    0    0  0.12114950883E+00  0.44425020623E-01 -0.20383540937E-01  0.13209619327E+00  0.19573696357E-01 0.  0.
         14    1    1    2    0    0 -0.10373998498E-01 -0.21134986511E-01 -0.56086000375E-02  0.24202559658E-01  0.00000000000E+00 0. -1.
     999901    1    3    3    0    0 -0.11077551033E+00 -0.23290034112E-01  0.25992140975E-01  0.88763124707E+00  0.88000000000E+00 0. -1.
        -11    1    4    4    0    0  0.38969974143E-01  0.11621387914E-01 -0.15341149405E-01  0.43466395386E-01  0.51100000000E-03 0.  1.
         11    1    4    4    0    0  0.82179534688E-01  0.32803632709E-01 -0.50423915325E-02  0.88629797888E-01  0.51100000000E-03 0. -1.
</event>
<event>
 8    1  0.1123191E+005  0.1043930E+01  0.7957747E-01            NaN
         13   -1    0    0    0    0  0.00000000000E+00  0.00000000000E+00  0.74505805969E-08  0.10566000000E+00  0.10566000000E+00 0. -1.
     999900   -1    0    0    0    0 -0.00000000000E+00 -0.00000000000E+00 -0.74505805969E-08  0.93827000000E+00  0.93827000000E+00 0.  1.
     999902    2    1    2    0    0  0.58705020197E-03 -0.17180109394E-01  0.15245834632E-01  0.10209531364E+01  0.10206945530E+01 0.  0.
     999903    2    3    3    0    0 -0.50992731031E-01 -0.73315565944E-01 -0.93764538941E-01  0.13095598762E+00  0.19551242990E-01 0.  0.
         14    1    1    2    0    0 -0.58705020197E-03  0.17180109394E-01 -0.15245834632E-01  0.22976863588E-01  0.00000000000E+00 0. -1.
     999901    1    3    3    0    0  0.51579781233E-01  0.56135456550E-01  0.10901037357E+00  0.88999714879E+00  0.88000000000E+00 0.  1.
        -11    1    4    4    0    0 -0.27810658249E-01 -0.54253228396E-01 -0.56676353456E-01  0.83242511169E-01  0.51100000000E-03 0.  1.
         11    1    4    4    0    0 -0.23182072783E-01 -0.19062337548E-01 -0.37088185485E-01  0.47713476449E-01  0.51100000000E-03 0. -1.
</event>
<event>
 8    1  0.1123191E+005  0.1043930E+01  0.7957747E-01            NaN
         13   -1    0    0    0    0  0.00000000000E+00  0.00000000000E+00  0.74505805969E-08  0.10566000000E+00  0.10566000000E+00 0. -1.
     999900   -1    0    0    0    0 -0.00000000000E+00 -0.00000000000E+00 -0.74505805969E-08  0.93827000000E+00  0.93827000000E+00 0.  1.
     999902    2    1    2    0    0  0.12483196913E-01  0.97548138844E-02  0.18124136683E-01  0.10198577976E+01  0.10195736640E+01 0.  0.
     999903    2    3    3    0    0 -0.77008065807E-01  0.19509777559E-01 -0.97913789899E-01  0.12768704832E+00  0.20149402888E-01 0.  0.
         14    1    1    2    0    0 -0.12483196913E-01 -0.97548138844E-02 -0.18124136683E-01  0.24072202425E-01  0.00000000000E+00 0.  1.
     999901    1    3    3    0    0  0.89491262720E-01 -0.97549636746E-02  0.11603792658E+00  0.89217074925E+00  0.88000000000E+00 0. -1.
        -11    1    4    4    0    0 -0.39488169674E-01  0.81660018868E-02 -0.34183046077E-01  0.52865308957E-01  0.51100000000E-03 0. -1.
         11    1    4    4    0    0 -0.37519896133E-01  0.11343775672E-01 -0.63730743822E-01  0.74821739363E-01  0.51100000000E-03 0.  1.
</event>
<event>
 8    1  0.1123191E+005  0.1043930E+01  0.7957747E-01            NaN
         13   -1    0    0    0    0  0.00000000000E+00  0.00000000000E+00  0.74505805969E-08  0.10566000000E+00  0.10566000000E+00 0.  1.
     999900   -1    0    0    0    0 -0.00000000000E+00 -0.00000000000E+00 -0.74505805969E-08  0.93827000000E+00  0.93827000000E+00 0.  1.
     999902    2    1    2    0    0  0.61539067674E-02  0.23067801893E-01  0.40553407465E-02  0.10197134800E+01  0.10194258882E+01 0.  0.
     999903    2    3    3    0    0 -0.54435469632E-01  0.64450887602E-01 -0.98067722248E-01  0.13077436379E+00  0.19170780156E-01 0.  0.
         14    1    1    2    0    0 -0.61539067674E-02 -0.23067801893E-01 -0.40553407465E-02  0.24216520007E-01  0.00000000000E+00 0. -1.
     999901    1    3    3    0    0  0.60589376399E-01 -0.41383085709E-01  0.10212306299E+00  0.88893911620E+00  0.88000000000E+00 0. -1.
        -11    1    4    4    0    0 -0.39998044072E-01  0.58324845420E-01 -0.82592248353E-01  0.10873532881E+00  0.51100000000E-03 0.  1.
         11    1    4    4    0    0 -0.14437425560E-01  0.61260421821E-02 -0.15475473895E-01  0.22039034981E-01  0.51100000000E-03 0. -1.
</event>
<event>
 8    1  0.1123191E+005  0.1043930E+01  0.7957747E-01            NaN
         13   -1    0    0    0    0  0.00000000000E+00  0.00000000000E+00  0.74505805969E-08  0.10566000000E+00  0.10566000000E+00 0. -1.
     999900   -1    0    0    0    0 -0.00000000000E+00 -0.00000000000E+00 -0.74505805969E-08  0.93827000000E+00  0.93827000000E+00 0. -1.
     999902    2    1    2    0    0 -0.14718091136E-01 -0.72386679991E-02 -0.18494672590E-01  0.10192101004E+01  0.10189102784E+01 0.  0.
     999903    2    3    3    0    0  0.81334619575E-01  0.81463404008E-01  0.49263857070E-01  0.12697392140E+00  0.21067571471E-01 0.  0.
         14    1    1    2    0    0  0.14718091136E-01  0.72386679991E-02  0.18494672590E-01  0.24719899581E-01  0.00000000000E+00 0. -1.
     999901    1    3    3    0    0 -0.96052710711E-01 -0.88702072008E-01 -0.67758529660E-01  0.89223617902E+00  0.88000000000E+00 0. -1.
        -11    1    4    4    0    0  0.98425557227E-02  0.20810549066E-01  0.13049641979E-01  0.26467133059E-01  0.51100000000E-03 0.  1.
         11    1    4    4    0    0  0.71492063852E-01  0.60652854943E-01  0.36214215090E-01  0.10050678834E+00  0.51100000000E-03 0. -1.
</event>
<event>
 8    1  0.1123191E+005  0.1043930E+01  0.7957747E-01            NaN
         13   -1    0    0    0    0  0.00000000000E+00  0.00000000000E+00  0.74505805969E-08  0.10566000000E+00  0.10566000000E+00 0. -1.
     999900   -1    0    0    0    0 -0.00000000000E+00 -0.00000000000E+00 -0.74505805969E-08  0.93827000000E+00  0.93827000000E+00 0.  1.
     999902    2    1    2    0    0 -0.75318074744E-02 -0.17252613391E-01  0.99438274181E-02  0.10226400846E+01  0.10224184477E+01 0.  0.
     999903    2    3    3    0    0  0.16741930897E-01  0.12659436156E+00  0.19737474240E-01  0.13057670006E+00  0.18822382459E-01 0.  0.
         14    1    1    2    0    0  0.75318074744E-02  0.17252613391E-01 -0.99438274181E-02  0.21289915368E-01  0.00000000000E+00 0.  1.
     999901    1    3    3    0    0 -0.24273738371E-01 -0.14384697495E+00 -0.97936468220E-02  0.89206338457E+00  0.88000000000E+00 0.  1.
        -11    1    4    4    0    0  0.17033252373E-01  0.11193118406E+00  0.11644724326E-01  0.11381819879E+00  0.51100000000E-03 0.  1.
         11    1    4    4    0    0 -0.29132147596E-03  0.14663177498E-01  0.80927499142E-02  0.16758501267E-01  0.51100000000E-03 0. -1.
</event>
<event>
 8    1  0.1123191E+005  0.1043930E+01  0.7957747E-01            NaN
         13   -1    0    0    0    0  0.00000000000E+00  0.00000000000E+00  0.74505805969E-08  0.10566000000E+00  0.10566000000E+00 0.  1.
     999900   -1    0    0    0    0 -0.00000000000E+00 -0.00000000000E+00 -0.74505805969E-08  0.93827000000E+00  0.93827000000E+00 0. -1.
     999902    2    1    2    0    0  0.16029735743E-01 -0.15224377032E-01 -0.98279731056E-02  0.10197365476E+01  0.10194495100E+01 0.  0.
     999903    2    3    3    0    0  0.12708972707E+00 -0.16596298966E-01  0.23313317369E-01  0.13213610315E+00  0.22117936638E-01 0.  0.
         14    1    1    2    0    0 -0.16029735743E-01  0.15224377032E-01  0.98279731056E-02  0.24193452407E-01  0.00000000000E+00 0.  1.
     999901    1    3    3    0    0 -0.11105999133E+00  0.13719219331E-02 -0.33141290474E-01  0.88760044444E+00  0.88000000000E+00 0.  1.
        -11    1    4    4    0    0  0.50525388843E-01 -0.10484732082E-01 -0.86303326140E-03  0.51611534292E-01  0.51100000000E-03 0.  1.
         11    1    4    4    0    0  0.76564338232E-01 -0.61115668831E-02  0.24176350630E-01  0.80524568856E-01  0.51100000000E-03 0. -1.
</event>
<event>
 8    1  0.1123191E+005  0.1043930E+01  0.7957747E-01            NaN
         13   -1    0    0    0    0  0.00000000000E+00  0.00000000000E+00  0.74505805969E-08  0.10566000000E+00  0.10566000000E+00 0.  1.
     999900   -1    0    0    0    0 -0.00000000000E+00 -0.00000000000E+00 -0.74505805969E-08  0.93827000000E+00  0.93827000000E+00 0.  1.
     999902    2    1    2    0    0  0.14513462585E-01  0.15373801683E-01 -0.94858419979E-02  0.10207572666E+01  0.10204942047E+01 0.  0.
     999903    2    3    3    0    0  0.45623854951E-01 -0.11855407906E+00 -0.19578492057E-01  0.13002363901E+00  0.19652570994E-01 0.  0.
         14    1    1    2    0    0 -0.14513462585E-01 -0.15373801683E-01  0.94858419979E-02  0.23172733391E-01  0.00000000000E+00 0. -1.
     999901    1    3    3    0    0 -0.31110392366E-01  0.13392788075E+00  0.10092650059E-01  0.89073362760E+00  0.88000000000E+00 0.  1.
        -11    1    4    4    0    0  0.30936861898E-01 -0.98593851286E-01 -0.11597001145E-01  0.10398359723E+00  0.51100000000E-03 0.  1.
         11    1    4    4    0    0  0.14686993053E-01 -0.19960227777E-01 -0.79814909121E-02  0.26040041782E-01  0.51100000000E-03 0. -1.
</event>
<event>
 8    1  0.1123191E+005  0.1043930E+01  0.7957747E-01            NaN
         13   -1    0    0    0    0  0.00000000000E+00  0.00000000000E+00  0.74505805969E-08  0.10566000000E+00  0.10566000000E+00 0.  1.
     999900   -1    0    0    0    0 -0.00000000000E+00 -0.00000000000E+00 -0.74505805969E-08  0.93827000000E+00  0.93827000000E+00 0.  1.
     999902    2    1    2    0    0  0.75423475803E-02  0.21762046580E-01 -0.29441013090E-02  0.10207105812E+01  0.10204464460E+01 0.  0.
     999903    2    3    3    0    0  0.41414561509E-01 -0.62403384011E-02 -0.12312424742E+00  0.13145542771E+00  0.19153105305E-01 0.  0.
         14    1    1    2    0    0 -0.75423475803E-02 -0.21762046580E-01  0.29441013090E-02  0.23219418832E-01  0.00000000000E+00 0.  1.
     999901    1    3    3    0    0 -0.33872213929E-01  0.28002384981E-01  0.12018014611E+00  0.88925515346E+00  0.88000000000E+00 0. -1.
        -11    1    4    4    0    0  0.14185683613E-01 -0.10297145428E-01 -0.35296372258E-01  0.39412686271E-01  0.51100000000E-03 0. -1.
         11    1    4    4    0    0  0.27228877896E-01  0.40568070272E-02 -0.87827875160E-01  0.92042741435E-01  0.51100000000E-03 0.  1.
</event>
<event>
 8    1  0.1123191E+005  0.1043930E+01  0.7957747E-01            NaN
         13   -1    0    0    0    0  0.00000000000E+00  0.00000000000E+00  0.74505805969E-08  0.10566000000E+00  0.10566000000E+00 0. -1.
     999900   -1    0    0    0    0 -0.00000000000E+00 -0.00000000000E+00 -0.74505805969E-08  0.93827000000E+00  0.93827000000E+00 0. -1.
     999902    2    1    2    0    0 -0.19356063508E-01  0.12563973852E-01 -0.22359588226E-02  0.10207457350E+01  0.10204824081E+01 0.  0.
     999903    2    3    3    0    0 -0.43779214827E-01 -0.10026639486E+00 -0.68938690353E-01  0.13070279397E+00  0.18992307223E-01 0.  0.
         14    1    1    2    0    0  0.19356063508E-01 -0.12563973852E-01  0.22359588226E-02  0.23184265037E-01  0.00000000000E+00 0. -1.
     999901    1    3    3    0    0  0.24423151320E-01  0.11283036871E+00  0.66702731530E-01  0.89004294100E+00  0.88000000000E+00 0.  1.
        -11    1    4    4    0    0 -0.32402421121E-01 -0.83170112943E-01 -0.63215300168E-01  0.10937833368E+00  0.51100000000E-03 0. -1.
         11    1    4    4    0    0 -0.11376793706E-01 -0.17096281918E-01 -0.57233901854E-02  0.21324460290E-01  0.51100000000E-03 0.  1.
</event>
<event>
 8    1  0.1123191E+005  0.1043930E+01  0.7957747E-01            NaN
         13   -1    0    0    0    0  0.00000000000E+00  0.00000000000E+00  0.74505805969E-08  0.10566000000E+00  0.10566000000E+00 0. -1.
     999900   -1    0    0    0    0 -0.00000000000E+00 -0.00000000000E+00 -0.74505805969E-08  0.93827000000E+00  0.93827000000E+00 0.  1.
     999902    2    1    2    0    0 -0.13606310392E-02 -0.10975326263E-01 -0.18863353899E-01  0.10220636966E+01  0.10218297631E+01 0.  0.
     999903    2    3    3    0    0  0.88060508320E-01  0.27000277739E-01 -0.94830261410E-01  0.13346409179E+00  0.18336226270E-01 0.  0.
         14    1    1    2    0    0  0.13606310392E-02  0.10975326263E-01  0.18863353899E-01  0.21866303385E-01  0.00000000000E+00 0. -1.
     999901    1    3    3    0    0 -0.89421139359E-01 -0.37975604002E-01  0.75966907511E-01  0.88859960483E+00  0.88000000000E+00 0. -1.
        -11    1    4    4    0    0  0.59124214606E-01  0.26193344610E-01 -0.70267685224E-01  0.95496454187E-01  0.51100000000E-03 0. -1.
         11    1    4    4    0    0  0.28936293714E-01  0.80693312864E-03 -0.24562576187E-01  0.37967637600E-01  0.51100000000E-03 0.  1.
</event>
<event>
 8    1  0.1123191E+005  0.1043930E+01  0.7957747E-01            NaN
         13   -1    0    0    0    0  0.00000000000E+00  0.00000000000E+00  0.74505805969E-08  0.10566000000E+00  0.10566000000E+00 0.  1.
     999900   -1    0    0    0    0 -0.00000000000E+00 -0.00000000000E+00 -0.74505805969E-08  0.93827000000E+00  0.93827000000E+00 0.  1.
     999902    2    1    2    0    0 -0.11527354674E-01  0.20156799789E-02 -0.92655315617E-02  0.10290037497E+01  0.10288954874E+01 0.  0.
     999903    2    3    3    0    0 -0.60066937663E-02  0.53663991394E-01  0.12563792175E+00  0.13720950919E+00  0.11209714086E-01 0.  0.
         14    1    1    2    0    0  0.11527354674E-01 -0.20156799789E-02  0.92655315617E-02  0.14926250255E-01  0.00000000000E+00 0. -1.
     999901    1    3    3    0    0 -0.55206609081E-02 -0.51648311415E-01 -0.13490345331E+00  0.89179424055E+00  0.88000000000E+00 0.  1.
        -11    1    4    4    0    0  0.17859803786E-02  0.85202100059E-02  0.13473934603E-01  0.16049664768E-01  0.51100000000E-03 0. -1.
         11    1    4    4    0    0 -0.77926741449E-02  0.45143781388E-01  0.11216398714E+00  0.12115984442E+00  0.51100000000E-03 0.  1.
</event>
<event>
 8    1  0.1123191E+005  0.1043930E+01  0.7957747E-01            NaN
         13   -1    0    0    0    0  0.00000000000E+00  0.00000000000E+00  0.74505805969E-08  0.10566000000E+00  0.10566000000E+00 0. -1.
     999900   -1    0    0    0    0 -0.00000000000E+00 -0.00000000000E+00 -0.74505805969E-08  0.93827000000E+00  0.93827000000E+00 0. -1.
     999902    2    1    2    0    0 -0.22160315778E-01  0.42232035626E-02 -0.77335722924E-02  0.10200820822E+01  0.10198032806E+01 0.  0.
     999903    2    3    3    0    0 -0.15688241785E-01 -0.10969432870E+00  0.64219548172E-01  0.12980328122E+00  0.21113378949E-01 0.  0.
         14    1    1    2    0    0  0.22160315778E-01 -0.42232035626E-02  0.77335722924E-02  0.23847917815E-01  0.00000000000E+00 0.  1.
     999901    1    3    3    0    0 -0.64720739927E-02  0.11391753226E+00 -0.71953120464E-01  0.89027880096E+00  0.88000000000E+00 0. -1.
        -11    1    4    4    0    0 -0.19204961497E-01 -0.60881939142E-01  0.35103164264E-01  0.72855571661E-01  0.51100000000E-03 0.  1.
         11    1    4    4    0    0  0.35167197116E-02 -0.48812389554E-01  0.29116383908E-01  0.56947709562E-01  0.51100000000E-03 0. -1.
</event>
<event>
 8    1  0.1123191E+005  0.1043930E+01  0.7957747E-01            NaN
         13   -1    0    0    0    0  0.00000000000E+00  0.00000000000E+00  0.74505805969E-08  0.10566000000E+00  0.10566000000E+00 0.  1.
     999900   -1    0    0    0    0 -0.00000000000E+00 -0.00000000000E+00 -0.74505805969E-08  0.93827000000E+00  0.93827000000E+00 0.  1.
     999902    2    1    2    0    0 -0.97664800610E-02  0.17435482506E-01 -0.17342620080E-01  0.10174697155E+01  0.10171255947E+01 0.  0.
     999903    2    3    3    0    0 -0.53914821271E-01  0.11189417543E+00 -0.36917091702E-01  0.13109807754E+00  0.19917826838E-01 0.  0.
         14    1    1    2    0    0  0.97664800610E-02 -0.17435482506E-01  0.17342620080E-01  0.26460284470E-01  0.00000000000E+00 0.  1.
     999901    1    3    3    0    0  0.44148341210E-01 -0.94458692924E-01  0.19574471622E-01  0.88637163799E+00  0.88000000000E+00 0. -1.
        -11    1    4    4    0    0 -0.39312088581E-01  0.59101489471E-01 -0.22294404733E-01  0.74402472873E-01  0.51100000000E-03 0. -1.
         11    1    4    4    0    0 -0.14602732689E-01  0.52792685960E-01 -0.14622686969E-01  0.56695604662E-01  0.51100000000E-03 0.  1.
</event>
<event>
 8    1  0.1123191E+005  0.1043930E+01  0.7957747E-01            NaN
         13   -1    0    0    0    0  0.00000000000E+00  0.00000000000E+00  0.74505805969E-08  0.10566000000E+00  0.10566000000E+00 0.  1.
     999900   -1    0    0    0    0 -0.00000000000E+00 -0.00000000000E+00 -0.74505805969E-08  0.93827000000E+00  0.93827000000E+00 0.  1.
     999902    2    1    2    0    0  0.22370581796E-01 -0.69671106803E-02  0.70961326529E-02  0.10194486058E+01  0.10191546111E+01 0.  0.
     999903    2    3    3    0    0 -0.13507895555E-02  0.12665041424E+00  0.14553138949E-01  0.12901502979E+00  0.19772000409E-01 0.  0.
         14    1    1    2    0    0 -0.22370581796E-01  0.69671106803E-02 -0.70961326529E-02  0.24481394154E-01  0.00000000000E+00 0. -1.
     999901    1    3    3    0    0  0.23721371351E-01 -0.13361752492E+00 -0.74570062957E-02  0.89043357606E+00  0.88000000000E+00 0.  1.
        -11    1    4    4    0    0 -0.52197490558E-02  0.98691102250E-02 -0.58806641588E-03  0.11191606674E-01  0.51100000000E-03 0. -1.
         11    1    4    4    0    0  0.38689595003E-02  0.11678130401E+00  0.15141205364E-01  0.11782342312E+00  0.51100000000E-03 0.  1.
</event>
<event>
 8    1  0.1123191E+005  0.1043930E+01  0.7957747E-01            NaN
         13   -1    0    0    0    0  0.00000000000E+00  0.00000000000E+00  0.74505805969E-08  0.10566000000E+00  0.10566000000E+00 0.  1.
     999900   -1    0    0    0    0 -0.00000000000E+00 -0.00000000000E+00 -0.74505805969E-08  0.93827000000E+00  0.93827000000E+00 0. -1.
     999902    2    1    2    0    0 -0.97811282029E-03 -0.65885213646E-02 -0.22767182160E-01  0.10202084928E+01  0.10199326737E+01 0.  0.
     999903    2    3    3    0    0  0.60616615351E-01  0.16253179777E-01 -0.11514187998E+00  0.13293810640E+00  0.21825391154E-01 0.  0.
         14    1    1    2    0    0  0.97811282029E-03  0.65885213646E-02  0.22767182160E-01  0.23721507160E-01  0.00000000000E+00 0.  1.
     999901    1    3    3    0    0 -0.61594728171E-01 -0.22841701141E-01  0.92374697821E-01  0.88727038644E+00  0.88000000000E+00 0.  1.
        -11    1    4    4    0    0  0.29059841364E-01  0.41871639676E-02 -0.33312114536E-01  0.44406810492E-01  0.51100000000E-03 0. -1.
         11    1    4    4    0    0  0.31556773987E-01  0.12066015809E-01 -0.81829765445E-01  0.88531295912E-01  0.51100000000E-03 0.  1.
</event>
<event>
 8    1  0.1123191E+005  0.1043930E+01  0.7957747E-01            NaN
         13   -1    0    0    0    0  0.00000000000E+00  0.00000000000E+00  0.74505805969E-08  0.10566000000E+00  0.10566000000E+00 0. -1.
     999900   -1    0    0    0    0 -0.00000000000E+00 -0.00000000000E+00 -0.74505805969E-08  0.93827000000E+00  0.93827000000E+00 0. -1.
     999902    2    1    2    0    0 -0.83477247806E-02 -0.80287292237E-02 -0.35472200098E-01  0.10066148291E+01  0.10059229554E+01 0.  0.
     999903    2    3    3    0    0  0.52137170116E-01 -0.10353721040E+00 -0.19931918123E-01  0.11924692743E+00  0.19603823554E-01 0.  0.
         14    1    1    2    0    0  0.83477247806E-02  0.80287292237E-02  0.35472200098E-01  0.37315170933E-01  0.00000000000E+00 0. -1.
     999901    1    3    3    0    0 -0.60484894897E-01  0.95508481172E-01 -0.15540281975E-01  0.88736790163E+00  0.88000000000E+00 0.  1.
        -11    1    4    4    0    0  0.18490560671E-01 -0.19379858813E-01 -0.20917790219E-02  0.26872223987E-01  0.51100000000E-03 0.  1.
         11    1    4    4    0    0  0.33646609445E-01 -0.84157351583E-01 -0.17840139101E-01  0.92374703446E-01  0.51100000000E-03 0. -1.
</event>
<event>
 8    1  0.1123191E+005  0.1043930E+01  0.7957747E-01            NaN
         13   -1    0    0    0    0  0.00000000000E+00  0.00000000000E+00  0.74505805969E-08  0.10566000000E+00  0.10566000000E+00 0.  1.
     999900   -1    0    0    0    0 -0.00000000000E+00 -0.00000000000E+00 -0.74505805969E-08  0.93827000000E+00  0.93827000000E+00 0. -1.
     999902    2    1    2    0    0  0.69557620288E-02  0.22445296899E-01  0.22436414146E-02  0.10203247484E+01  0.10200516576E+01 0.  0.
     999903    2    3    3    0    0  0.52465460027E-01 -0.11092132816E+00  0.32954444683E-01  0.12858434738E+00  0.19793267298E-01 0.  0.
         14    1    1    2    0    0 -0.69557620288E-02 -0.22445296899E-01 -0.22436414146E-02  0.23605251642E-01  0.00000000000E+00 0. -1.
     999901    1    3    3    0    0 -0.45509697998E-01  0.13336662506E+00 -0.30710803268E-01  0.89174040097E+00  0.88000000000E+00 0.  1.
        -11    1    4    4    0    0  0.17796457373E-01 -0.25277553283E-01  0.15377630623E-01  0.34531163310E-01  0.51100000000E-03 0. -1.
         11    1    4    4    0    0  0.34669002654E-01 -0.85643774880E-01  0.17576814060E-01  0.94053184073E-01  0.51100000000E-03 0.  1.
</event>
<event>
 8    1  0.1123191E+005  0.1043930E+01  0.7957747E-01            NaN
         13   -1    0    0    0    0  0.00000000000E+00  0.00000000000E+00  0.74505805969E-08  0.10566000000E+00  0.10566000000E+00 0.  1.
     999900   -1    0    0    0    0 -0.00000000000E+00 -0.00000000000E+00 -0.74505805969E-08  0.93827000000E+00  0.93827000000E+00 0. -1.
     999902    2    1    2    0    0 -0.24396555909E-01  0.29819876655E-02  0.42146830324E-03  0.10193482623E+01  0.10190518231E+01 0.  0.
     999903    2    3    3    0    0  0.11892276921E+00 -0.32835294454E-01 -0.21567183815E-01  0.12676392041E+00  0.19574639203E-01 0.  0.
         14    1    1    2    0    0  0.24396555909E-01 -0.29819876655E-02 -0.42146830324E-03  0.24581737656E-01  0.00000000000E+00 0.  1.
     999901    1    3    3    0    0 -0.14331932512E+00  0.35817282120E-01  0.21988652118E-01  0.89258434194E+00  0.88000000000E+00 0. -1.
        -11    1    4    4    0    0  0.69480504555E-01 -0.24183012176E-01 -0.21208405721E-01  0.76566416824E-01  0.51100000000E-03 0.  1.
         11    1    4    4    0    0  0.49442264657E-01 -0.86522822780E-02 -0.35877809409E-03  0.50197503581E-01  0.51100000000E-03 0. -1.
</event>
<event>
 8    1  0.1123191E+005  0.1043930E+01  0.7957747E-01            NaN
         13   -1    0    0    0    0  0.00000000000E+00  0.00000000000E+00  0.74505805969E-08  0.10566000000E+00  0.10566000000E+00 0. -1.
     999900   -1    0    0    0    0 -0.00000000000E+00 -0.00000000000E+00 -0.74505805969E-08  0.93827000000E+00  0.93827000000E+00 0. -1.
     999902    2    1    2    0    0  0.17799459086E-01 -0.16661330880E-01  0.30285972863E-02  0.10193618684E+01  0.10190657612E+01 0.  0.
     999903    2    3    3    0    0 -0.85268706716E-01 -0.57140932095E-01 -0.75307119885E-01  0.12896974716E+00  0.20644488667E-01 0.  0.
         14    1    1    2    0    0 -0.17799459086E-01  0.16661330880E-01 -0.30285972863E-02  0.24568131633E-01  0.00000000000E+00 0.  1.
     999901    1    3    3    0    0  0.10306816580E+00  0.40479601215E-01  0.78335717171E-01  0.89039212120E+00  0.88000000000E+00 0.  1.
        -11    1    4    4    0    0 -0.40354602517E-01 -0.38323583634E-01 -0.34923247827E-01  0.65704530792E-01  0.51100000000E-03 0.  1.
         11    1    4    4    0    0 -0.44914104199E-01 -0.18817348461E-01 -0.40383872057E-01  0.63265216371E-01  0.51100000000E-03 0. -1.
</event>
<event>
 8    1  0.1386923E+005  0.1043930E+01  0.7957747E-01            NaN
         13   -1    0    0    0    0  0.00000000000E+00  0.00000000000E+00  0.74505805969E-08  0.10566000000E+00  0.10566000000E+00 0. -1.
     999900   -1    0    0    0    0 -0.00000000000E+00 -0.00000000000E+00 -0.74505805969E-08  0.93827000000E+00  0.93827000000E+00 0. -1.
     999902    2    1    2    0    0 -0.21201768222E-01  0.26664584395E-02 -0.11515213516E-01  0.10196560403E+01  0.10193670661E+01 0.  0.
     999903    2    3    3    0    0  0.82930445056E-01 -0.10562640566E-01 -0.96486356030E-01  0.12935349513E+00  0.20825026052E-01 0.  0.
         14    1    1    2    0    0  0.21201768222E-01 -0.26664584395E-02  0.11515213516E-01  0.24273959683E-01  0.00000000000E+00 0.  1.
     999901    1    3    3    0    0 -0.10413221328E+00  0.13229099006E-01  0.84971142514E-01  0.89030254518E+00  0.88000000000E+00 0.  1.
        -11    1    4    4    0    0  0.38874148573E-01 -0.15384022801E-01 -0.48306141036E-01  0.63887494610E-01  0.51100000000E-03 0.  1.
         11    1    4    4    0    0  0.44056296483E-01  0.48213822347E-02 -0.48180214995E-01  0.65466000522E-01  0.51100000000E-03 0. -1.
</event>
<event>
 8    1  0.1123191E+005  0.1043930E+01  0.7957747E-01            NaN
         13   -1    0    0    0    0  0.00000000000E+00  0.00000000000E+00  0.74505805969E-08  0.10566000000E+00  0.10566000000E+00 0.  1.
     999900   -1    0    0    0    0 -0.00000000000E+00 -0.00000000000E+00 -0.74505805969E-08  0.93827000000E+00  0.93827000000E+00 0. -1.
     999902    2    1    2    0    0 -0.13750418363E-01 -0.37854648248E-02  0.17762810323E-01  0.10211501585E+01  0.10208960402E+01 0.  0.
     999903    2    3    3    0    0  0.66706833552E-01  0.82235883988E-01  0.75301427199E-01  0.13144024268E+00  0.19841627969E-01 0.  0.
         14    1    1    2    0    0  0.13750418363E-01  0.37854648248E-02 -0.17762810323E-01  0.22779841520E-01  0.00000000000E+00 0. -1.
     999901    1    3    3    0    0 -0.80457251914E-01 -0.86021348813E-01 -0.57538616876E-01  0.88970991580E+00  0.88000000000E+00 0. -1.
        -11    1    4    4    0    0  0.34968752990E-01  0.51918503056E-01  0.34324228728E-01  0.71391585247E-01  0.51100000000E-03 0.  1.
         11    1    4    4    0    0  0.31738080561E-01  0.30317380932E-01  0.40977198471E-01  0.60048657435E-01  0.51100000000E-03 0. -1.
</event>
<event>
 8    1  0.1123191E+005  0.1043930E+01  0.7957747E-01            NaN
         13   -1    0    0    0    0  0.00000000000E+00  0.00000000000E+00  0.74505805969E-08  0.10566000000E+00  0.10566000000E+00 0. -1.
     999900   -1    0    0    0    0 -0.00000000000E+00 -0.00000000000E+00 -0.74505805969E-08  0.93827000000E+00  0.93827000000E+00 0. -1.
     999902    2    1    2    0    0 -0.11195352959E-01  0.21776786568E-01  0.26905332325E-02  0.10192966216E+01  0.10189989203E+01 0.  0.
     999903    2    3    3    0    0 -0.11842271653E+00 -0.23828164271E-02 -0.52180366019E-01  0.13076288028E+00  0.18615119049E-01 0.  0.
         14    1    1    2    0    0  0.11195352959E-01 -0.21776786568E-01 -0.26905332325E-02  0.24633378375E-01  0.00000000000E+00 0.  1.
     999901    1    3    3    0    0  0.10722736357E+00  0.24159602995E-01  0.54870899252E-01  0.88853374134E+00  0.88000000000E+00 0.  1.
        -11    1    4    4    0    0 -0.95714691437E-01 -0.43340912360E-02 -0.49391512612E-01  0.10779549686E+00  0.51100000000E-03 0. -1.
         11    1    4    4    0    0 -0.22708025096E-01  0.19512748089E-02 -0.27888534074E-02  0.22967383427E-01  0.51100000000E-03 0.  1.
</event>
<event>
 8    1  0.1123191E+005  0.1043930E+01  0.7957747E-01            NaN
         13   -1    0    0    0    0  0.00000000000E+00  0.00000000000E+00  0.74505805969E-08  0.10566000000E+00  0.10566000000E+00 0. -1.
     999900   -1    0    0    0    0 -0.00000000000E+00 -0.00000000000E+00 -0.74505805969E-08  0.93827000000E+00  0.93827000000E+00 0.  1.
     999902    2    1    2    0    0 -0.18474330611E-02 -0.34424652582E-02 -0.22656278440E-01  0.10209393382E+01  0.10206804406E+01 0.  0.
     999903    2    3    3    0    0  0.10482779835E+00 -0.67235834807E-01 -0.39974695368E-01  0.13203601021E+00  0.18055662087E-01 0.  0.
         14    1    1    2    0    0  0.18474330611E-02  0.34424652582E-02  0.22656278440E-01  0.22990661772E-01  0.00000000000E+00 0. -1.
     999901    1    3    3    0    0 -0.10667523141E+00  0.63793369549E-01  0.17318416928E-01  0.88890332802E+00  0.88000000000E+00 0.  1.
        -11    1    4    4    0    0  0.90936070202E-01 -0.64942916123E-01 -0.35836347017E-01  0.11735184748E+00  0.51100000000E-03 0.  1.
         11    1    4    4    0    0  0.13891728149E-01 -0.22929186843E-02 -0.41383483506E-02  0.14684162731E-01  0.51100000000E-03 0. -1.
</event>
<event>
 8    1  0.1123191E+005  0.1043930E+01  0.7957747E-01            NaN
         13   -1    0    0    0    0  0.00000000000E+00  0.00000000000E+00  0.74505805969E-08  0.10566000000E+00  0.10566000000E+00 0. -1.
     999900   -1    0    0    0    0 -0.00000000000E+00 -0.00000000000E+00 -0.74505805969E-08  0.93827000000E+00  0.93827000000E+00 0.  1.
     999902    2    1    2    0    0 -0.42399641942E-02  0.80175963039E-02  0.21480190739E-01  0.10206135307E+01  0.10203471572E+01 0.  0.
     999903    2    3    3    0    0  0.78297409436E-01  0.10264617072E+00  0.16678199449E-01  0.13168718714E+00  0.19915627829E-01 0.  0.
         14    1    1    2    0    0  0.42399641942E-02 -0.80175963039E-02 -0.21480190739E-01  0.23316469309E-01  0.00000000000E+00 0.  1.
     999901    1    3    3    0    0 -0.82537373630E-01 -0.94628574416E-01  0.48019912900E-02  0.88892634355E+00  0.88000000000E+00 0. -1.
        -11    1    4    4    0    0  0.52584426266E-01  0.69537308082E-01  0.17992392167E-02  0.87201247031E-01  0.51100000000E-03 0. -1.
         11    1    4    4    0    0  0.25712983170E-01  0.33108862638E-01  0.14878960232E-01  0.44485940108E-01  0.51100000000E-03 0.  1.
</event>
<event>
 8    1  0.1123191E+005  0.1043930E+01  0.7957747E-01            NaN
         13   -1    0    0    0    0  0.00000000000E+00  0.00000000000E+00  0.74505805969E-08  0.10566000000E+00  0.10566000000E+00 0. -1.
     999900   -1    0    0    0    0 -0.00000000000E+00 -0.00000000000E+00 -0.74505805969E-08  0.93827000000E+00  0.93827000000E+00 0. -1.
     999902    2    1    2    0    0  0.20646840299E-01  0.40149442314E-02 -0.11903654943E-01  0.10197616572E+01  0.10194752222E+01 0.  0.
     999903    2    3    3    0    0  0.78282861465E-01 -0.46637445273E-01  0.91005521554E-01  0.13044850984E+00  0.20773807212E-01 0.  0.
         14    1    1    2    0    0 -0.20646840299E-01 -0.40149442314E-02  0.11903654943E-01  0.24168342775E-01  0.00000000000E+00 0.  1.
     999901    1    3    3    0    0 -0.57636021166E-01  0.50652389505E-01 -0.10290917650E+00  0.88931314738E+00  0.88000000000E+00 0. -1.
        -11    1    4    4    0    0  0.37249906027E-01 -0.30783129382E-01  0.37434017182E-01  0.61128743787E-01  0.51100000000E-03 0. -1.
         11    1    4    4    0    0  0.41032955438E-01 -0.15854315891E-01  0.53571504372E-01  0.69319766056E-01  0.51100000000E-03 0.  1.
</event>
<event>
 8    1  0.1123191E+005  0.1043930E+01  0.7957747E-01            NaN
         13   -1    0    0    0    0  0.00000000000E+00  0.00000000000E+00  0.74505805969E-08  0.10566000000E+00  0.10566000000E+00 0. -1.
     999900   -1    0    0    0    0 -0.00000000000E+00 -0.00000000000E+00 -0.74505805969E-08  0.93827000000E+00  0.93827000000E+00 0. -1.
     999902    2    1    2    0    0  0.21370392109E-01  0.50419791907E-02 -0.94362781856E-02  0.10200310762E+01  0.10197510666E+01 0.  0.
     999903    2    3    3    0    0  0.24416303074E-01 -0.97921083614E-01  0.78744783509E-01  0.12964544653E+00  0.20554960564E-01 0.  0.
         14    1    1    2    0    0 -0.21370392109E-01 -0.50419791907E-02  0.94362781856E-02  0.23898923805E-01  0.00000000000E+00 0. -1.
     999901    1    3    3    0    0 -0.30459109653E-02  0.10296306280E+00 -0.88181061695E-01  0.89038562967E+00  0.88000000000E+00 0. -1.
        -11    1    4    4    0    0  0.71655692671E-02 -0.60595419794E-01  0.38766195065E-01  0.72292664108E-01  0.51100000000E-03 0.  1.
         11    1    4    4    0    0  0.17250733807E-01 -0.37325663819E-01  0.39978588444E-01  0.57352782420E-01  0.51100000000E-03 0. -1.
</event>
<event>
 8    1  0.1123191E+005  0.1043930E+01  0.7957747E-01            NaN
         13   -1    0    0    0    0  0.00000000000E+00  0.00000000000E+00  0.74505805969E-08  0.10566000000E+00  0.10566000000E+00 0.  1.
     999900   -1    0    0    0    0 -0.00000000000E+00 -0.00000000000E+00 -0.74505805969E-08  0.93827000000E+00  0.93827000000E+00 0. -1.
     999902    2    1    2    0    0 -0.19751128690E-01  0.11221883672E-01  0.53465968607E-02  0.10205928225E+01  0.10203259702E+01 0.  0.
     999903    2    3    3    0    0  0.62134614272E-01 -0.99592992855E-01 -0.47831871536E-01  0.12828504973E+00  0.19740606227E-01 0.  0.
         14    1    1    2    0    0  0.19751128690E-01 -0.11221883672E-01 -0.53465968607E-02  0.23337177543E-01  0.00000000000E+00 0.  1.
     999901    1    3    3    0    0 -0.81885742962E-01  0.11081487653E+00  0.53178468397E-01  0.89230777272E+00  0.88000000000E+00 0.  1.
        -11    1    4    4    0    0  0.43653463441E-01 -0.54973907097E-01 -0.22316398624E-01  0.73661646062E-01  0.51100000000E-03 0.  1.
         11    1    4    4    0    0  0.18481150830E-01 -0.44619085757E-01 -0.25515472912E-01  0.54623403673E-01  0.51100000000E-03 0. -1.
</event>
<event>
 8    1  0.1123191E+005  0.1043930E+01  0.7957747E-01            NaN
         13   -1    0    0    0    0  0.00000000000E+00  0.00000000000E+00  0.74505805969E-08  0.10566000000E+00  0.10566000000E+00 0.  1.
     999900   -1    0    0    0    0 -0.00000000000E+00 -0.00000000000E+00 -0.74505805969E-08  0.93827000000E+00  0.93827000000E+00 0.  1.
     999902    2    1    2    0    0  0.28664029277E-02  0.30364461332E-02  0.23055156721E-01  0.10204997520E+01  0.10202307422E+01 0.  0.
     999903    2    3    3    0    0  0.25833315231E-01 -0.39942998569E-01  0.12315709057E+00  0.13348503458E+00  0.19692185988E-01 0.  0.
         14    1    1    2    0    0 -0.28664029277E-02 -0.30364461332E-02 -0.23055156721E-01  0.23430248020E-01  0.00000000000E+00 0. -1.
     999901    1    3    3    0    0 -0.22966912303E-01  0.42979444703E-01 -0.10010193385E+00  0.88701471740E+00  0.88000000000E+00 0.  1.
        -11    1    4    4    0    0 -0.34091208648E-03 -0.76301156332E-02  0.37412276557E-01  0.38187359738E-01  0.51100000000E-03 0. -1.
         11    1    4    4    0    0  0.26174227318E-01 -0.32312882936E-01  0.85744814009E-01  0.95297674840E-01  0.51100000000E-03 0.  1.
</event>
<event>
 8    1  0.1123191E+005  0.1043930E+01  0.7957747E-01            NaN
         13   -1    0    0    0    0  0.00000000000E+00  0.00000000000E+00  0.74505805969E-08  0.10566000000E+00  0.10566000000E+00 0.  1.
     999900   -1    0    0    0    0 -0.00000000000E+00 -0.00000000000E+00 -0.74505805969E-08  0.93827000000E+00  0.93827000000E+00 0. -1.
     999902    2    1    2    0    0  0.12709527039E-01 -0.20598257897E-01 -0.79009820685E-02  0.10184693279E+01  0.10181510330E+01 0.  0.
     999903    2    3    3    0    0 -0.11713390310E+00  0.43604099456E-01 -0.12590621379E-02  0.12660309682E+00  0.20126851290E-01 0.  0.
         14    1    1    2    0    0 -0.12709527039E-01  0.20598257897E-01  0.79009820685E-02  0.25460672097E-01  0.00000000000E+00 0.  1.
     999901    1    3    3    0    0  0.12984343014E+00 -0.64202357354E-01 -0.66419199306E-02  0.89186623108E+00  0.88000000000E+00 0. -1.
        -11    1    4    4    0    0 -0.19116691830E-01  0.66135166470E-02  0.72442154179E-02  0.21492470472E-01  0.51100000000E-03 0.  1.
         11    1    4    4    0    0 -0.98017211271E-01  0.36990582809E-01 -0.85032775558E-02  0.10511062635E+00  0.51100000000E-03 0. -1.
</event>
<event>
 8    1  0.1123191E+005  0.1043930E+01  0.7957747E-01            NaN
         13   -1    0    0    0    0  0.00000000000E+00  0.00000000000E+00  0.74505805969E-08  0.10566000000E+00  0.10566000000E+00 0. -1.
     999900   -1    0    0    0    0 -0.00000000000E+00 -0.00000000000E+00 -0.74505805969E-08  0.93827000000E+00  0.93827000000E+00 0. -1.
     999902    2    1    2    0    0 -0.35635653339E-02  0.92477630575E-02  0.21972532818E-01  0.10198258029E+01  0.10195409045E+01 0.  0.
     999903    2    3    3    0    0 -0.67725342703E-01  0.94218350309E-01 -0.54870547520E-01  0.13008337198E+00  0.21144434314E-01 0.  0.
         14    1    1    2    0    0  0.35635653339E-02 -0.92477630575E-02 -0.21972532818E-01  0.24104197102E-01  0.00000000000E+00 0.  1.
     999901    1    3    3    0    0  0.64161777369E-01 -0.84970587252E-01  0.76843080338E-01  0.88974243091E+00  0.88000000000E+00 0.  1.
        -11    1    4    4    0    0 -0.10535932235E-01  0.28523228765E-01 -0.19170429653E-01  0.35949227270E-01  0.51100000000E-03 0.  1.
         11    1    4    4    0    0 -0.57189410467E-01  0.65695121545E-01 -0.35700117867E-01  0.94134144714E-01  0.51100000000E-03 0. -1.
</event>
<event>
 8    1  0.1123191E+005  0.1043930E+01  0.7957747E-01            NaN
         13   -1    0    0    0    0  0.00000000000E+00  0.00000000000E+00  0.74505805969E-08  0.10566000000E+00  0.10566000000E+00 0.  1.
     999900   -1    0    0    0    0 -0.00000000000E+00 -0.00000000000E+00 -0.74505805969E-08  0.93827000000E+00  0.93827000000E+00 0. -1.
     999902    2    1    2    0    0  0.74684275010E-02 -0.29106821243E-02 -0.22648216767E-01  0.10199051961E+01  0.10196221937E+01 0.  0.
     999903    2    3    3    0    0  0.81369269950E-01  0.95963710813E-01 -0.31046744167E-01  0.13125002374E+00  0.20800877956E-01 0.  0.
         14    1    1    2    0    0 -0.74684275010E-02  0.29106821243E-02  0.22648216767E-01  0.24024803901E-01  0.00000000000E+00 0.  1.
     999901    1    3    3    0    0 -0.73900842449E-01 -0.98874392937E-01  0.83985274006E-02  0.88865517236E+00  0.88000000000E+00 0.  1.
        -11    1    4    4    0    0  0.38480617365E-01  0.56236190245E-01 -0.88546062214E-02  0.68716316682E-01  0.51100000000E-03 0.  1.
         11    1    4    4    0    0  0.42888652585E-01  0.39727520568E-01 -0.22192137946E-01  0.62533707060E-01  0.51100000000E-03 0. -1.
</event>
<event>
 8    1  0.1123191E+005  0.1043930E+01  0.7957747E-01            NaN
         13   -1    0    0    0    0  0.00000000000E+00  0.00000000000E+00  0.74505805969E-08  0.10566000000E+00  0.10566000000E+00 0.  1.
     999900   -1    0    0    0    0 -0.00000000000E+00 -0.00000000000E+00 -0.74505805969E-08  0.93827000000E+00  0.93827000000E+00 0.  1.
     999902    2    1    2    0    0  0.82772441364E-02  0.14005057401E-01 -0.17577059610E-01  0.10199798971E+01  0.10196986727E+01 0.  0.
     999903    2    3    3    0    0  0.10352354456E+00 -0.21006645609E-01 -0.76857105085E-01  0.13216696588E+00  0.20067108171E-01 0.  0.
         14    1    1    2    0    0 -0.82772441364E-02 -0.14005057401E-01  0.17577059610E-01  0.23950102878E-01  0.00000000000E+00 0.  1.
     999901    1    3    3    0    0 -0.95246300420E-01  0.35011703010E-01  0.59280045474E-01  0.88781293124E+00  0.88000000000E+00 0. -1.
        -11    1    4    4    0    0  0.59923315723E-02  0.15613486265E-02 -0.44829157358E-03  0.62296013950E-02  0.51100000000E-03 0.  1.
         11    1    4    4    0    0  0.97531212984E-01 -0.22567994236E-01 -0.76408813511E-01  0.12593736448E+00  0.51100000000E-03 0. -1.
</event>
<event>
 8    1  0.1123191E+005  0.1043930E+01  0.7957747E-01            NaN
         13   -1    0    0    0    0  0.00000000000E+00  0.00000000000E+00  0.74505805969E-08  0.10566000000E+00  0.10566000000E+00 0.  1.
     999900   -1    0    0    0    0 -0.00000000000E+00 -0.00000000000E+00 -0.74505805969E-08  0.93827000000E+00  0.93827000000E+00 0.  1.
     999902    2    1    2    0    0  0.22696684216E-02  0.15839026837E-01  0.17187493607E-01  0.10204473234E+01  0.10201770943E+01 0.  0.
     999903    2    3    3    0    0  0.16387711035E-02  0.11845314996E+00  0.58307365286E-01  0.13353081086E+00  0.19922206070E-01 0.  0.
         14    1    1    2    0    0 -0.22696684216E-02 -0.15839026837E-01 -0.17187493607E-01  0.23482676644E-01  0.00000000000E+00 0. -1.
     999901    1    3    3    0    0  0.63089731808E-03 -0.10261412313E+00 -0.41119871680E-01  0.88691651250E+00  0.88000000000E+00 0.  1.
        -11    1    4    4    0    0 -0.36166179861E-02  0.10909300336E+00  0.50637516409E-01  0.12032781265E+00  0.51100000000E-03 0.  1.
         11    1    4    4    0    0  0.52553890896E-02  0.93601466067E-02  0.76698488771E-02  0.13202998212E-01  0.51100000000E-03 0. -1.
</event>
<event>
 8    1  0.1123191E+005  0.1043930E+01  0.7957747E-01            NaN
         13   -1    0    0    0    0  0.00000000000E+00  0.00000000000E+00  0.74505805969E-08  0.10566000000E+00  0.10566000000E+00 0.  1.
     999900   -1    0    0    0    0 -0.00000000000E+00 -0.00000000000E+00 -0.74505805969E-08  0.93827000000E+00  0.93827000000E+00 0.  1.
     999902    2    1    2    0    0  0.25728786226E-01 -0.32210437810E-02  0.15104523128E-01  0.10139217981E+01  0.10134776369E+01 0.  0.
     999903    2    3    3    0    0 -0.24635633834E-01 -0.71627430899E-01  0.98179244827E-01  0.12593676555E+00  0.21988667331E-01 0.  0.
         14    1    1    2    0    0 -0.25728786226E-01  0.32210437810E-02 -0.15104523128E-01  0.30008201922E-01  0.00000000000E+00 0. -1.
     999901    1    3    3    0    0  0.50364420060E-01  0.68406387118E-01 -0.83074721700E-01  0.88798503253E+00  0.88000000000E+00 0.  1.
        -11    1    4    4    0    0 -0.97642052837E-02 -0.47189767143E-01  0.74836552445E-01  0.89011148350E-01  0.51100000000E-03 0. -1.
         11    1    4    4    0    0 -0.14871428551E-01 -0.24437663755E-01  0.23342692383E-01  0.36925617201E-01  0.51100000000E-03 0.  1.
</event>
<event>
 8    1  0.1123191E+005  0.1043930E+01  0.7957747E-01            NaN
         13   -1    0    0    0    0  0.00000000000E+00  0.00000000000E+00  0.74505805969E-08  0.10566000000E+00  0.10566000000E+00 0.  1.
     999900   -1    0    0    0    0 -0.00000000000E+00 -0.00000000000E+00 -0.74505805969E-08  0.93827000000E+00  0.93827000000E+00 0. -1.
     999902    2    1    2    0    0  0.89193950500E-03  0.23696687916E-01  0.14444099956E-02  0.10201725823E+01  0.10198959176E+01 0.  0.
     999903    2    3    3    0    0  0.33829993201E-01 -0.10790139590E+00  0.56860431080E-01  0.12805492953E+00  0.19436477969E-01 0.  0.
         14    1    1    2    0    0 -0.89193950500E-03 -0.23696687916E-01 -0.14444099956E-02  0.23757417673E-01  0.00000000000E+00 0.  1.
     999901    1    3    3    0    0 -0.32938053696E-01  0.13159808382E+00 -0.55416021084E-01  0.89211765280E+00  0.88000000000E+00 0. -1.
        -11    1    4    4    0    0  0.30355890423E-01 -0.65530092290E-01  0.35580941147E-01  0.80510481136E-01  0.51100000000E-03 0.  1.
         11    1    4    4    0    0  0.34741027777E-02 -0.42371303612E-01  0.21279489933E-01  0.47544448390E-01  0.51100000000E-03 0. -1.
</event>
<event>
 8    1  0.1123191E+005  0.1043930E+01  0.7957747E-01            NaN
         13   -1    0    0    0    0  0.00000000000E+00  0.00000000000E+00  0.74505805969E-08  0.10566000000E+00  0.10566000000E+00 0. -1.
     999900   -1    0    0    0    0 -0.00000000000E+00 -0.00000000000E+00 -0.74505805969E-08  0.93827000000E+00  0.93827000000E+00 0.  1.
     999902    2    1    2    0    0  0.35225220867E-02  0.24142929051E-01  0.20806547995E-02  0.10194428950E+01  0.10191487614E+01 0.  0.
     999903    2    3    3    0    0 -0.12533131726E+00 -0.18997939559E-02 -0.24516935804E-01  0.12928056874E+00  0.20020914273E-01 0.  0.
         14    1    1    2    0    0 -0.35225220867E-02 -0.24142929051E-01 -0.20806547995E-02  0.24487104962E-01  0.00000000000E+00 0.  1.
     999901    1    3    3    0    0  0.12885383935E+00  0.26042723007E-01  0.26597590603E-01  0.89016232630E+00  0.88000000000E+00 0.  1.
        -11    1    4    4    0    0 -0.39045503937E-01  0.39541890554E-02  0.49184260181E-03  0.39251624412E-01  0.51100000000E-03 0. -1.
         11    1    4    4    0    0 -0.86285813326E-01 -0.58539830113E-02 -0.25008778406E-01  0.90028944327E-01  0.51100000000E-03 0.  1.
</event>
<event>
 8    1  0.1123191E+005  0.1043930E+01  0.7957747E-01            NaN
         13   -1    0    0    0    0  0.00000000000E+00  0.00000000000E+00  0.74505805969E-08  0.10566000000E+00  0.10566000000E+00 0.  1.
     999900   -1    0    0    0    0 -0.00000000000E+00 -0.00000000000E+00 -0.74505805969E-08  0.93827000000E+00  0.93827000000E+00 0. -1.
     999902    2    1    2    0    0 -0.20609296041E-01 -0.10229515008E-01 -0.64443005332E-02  0.10200361709E+01  0.10197562821E+01 0.  0.
     999903    2    3    3    0    0  0.23993134017E-01 -0.12355125241E+00 -0.31603862358E-01  0.13129312788E+00  0.19962436220E-01 0.  0.
         14    1    1    2    0    0  0.20609296041E-01  0.10229515008E-01  0.64443005332E-02  0.23893829119E-01  0.00000000000E+00 0. -1.
     999901    1    3    3    0    0 -0.44602430058E-01  0.11332173740E+00  0.25159561825E-01  0.88874304300E+00  0.88000000000E+00 0. -1.
        -11    1    4    4    0    0  0.88128973637E-02 -0.81452006923E-01 -0.13589896957E-01  0.83048437746E-01  0.51100000000E-03 0. -1.
         11    1    4    4    0    0  0.15180236653E-01 -0.42099245488E-01 -0.18013965401E-01  0.48244690132E-01  0.51100000000E-03 0.  1.
</event>
<event>
 8    1  0.1123191E+005  0.1043930E+01  0.7957747E-01            NaN
         13   -1    0    0    0    0  0.00000000000E+00  0.00000000000E+00  0.74505805969E-08  0.10566000000E+00  0.10566000000E+00 0.  1.
     999900   -1    0    0    0    0 -0.00000000000E+00 -0.00000000000E+00 -0.74505805969E-08  0.93827000000E+00  0.93827000000E+00 0.  1.
     999902    2    1    2    0    0 -0.17310426424E-01  0.14440757426E-01 -0.15886321642E-02  0.10213311042E+01  0.10210810518E+01 0.  0.
     999903    2    3    3    0    0 -0.82231443790E-01  0.10318042664E+00 -0.15838060252E-01  0.13437422050E+00  0.19934296896E-01 0.  0.
         14    1    1    2    0    0  0.17310426424E-01 -0.14440757426E-01  0.15886321642E-02  0.22598895773E-01  0.00000000000E+00 0. -1.
     999901    1    3    3    0    0  0.64921017366E-01 -0.88739669217E-01  0.14249428088E-01  0.88695688373E+00  0.88000000000E+00 0.  1.
        -11    1    4    4    0    0 -0.41882416361E-01  0.44398387532E-01  0.12692495832E-02  0.61051009256E-01  0.51100000000E-03 0.  1.
         11    1    4    4    0    0 -0.40349027429E-01  0.58782039110E-01 -0.17107309835E-01  0.73323211245E-01  0.51100000000E-03 0. -1.
</event>
<event>
 8    1  0.1123191E+005  0.1043930E+01  0.7957747E-01            NaN
         13   -1    0    0    0    0  0.00000000000E+00  0.00000000000E+00  0.74505805969E-08  0.10566000000E+00  0.10566000000E+00 0.  1.
     999900   -1    0    0    0    0 -0.00000000000E+00 -0.00000000000E+00 -0.74505805969E-08  0.93827000000E+00  0.93827000000E+00 0. -1.
     999902    2    1    2    0    0  0.15441968334E-01  0.13015610703E-01  0.12422889084E-01  0.10202194816E+01  0.10199439210E+01 0.  0.
     999903    2    3    3    0    0 -0.17081005725E-01  0.12257477348E+00  0.42348096425E-01  0.13232507799E+00  0.20005727767E-01 0.  0.
         14    1    1    2    0    0 -0.15441968334E-01 -0.13015610703E-01 -0.12422889084E-01  0.23710518366E-01  0.00000000000E+00 0. -1.
     999901    1    3    3    0    0  0.32522974058E-01 -0.10955916278E+00 -0.29925207341E-01  0.88789440365E+00  0.88000000000E+00 0.  1.
        -11    1    4    4    0    0 -0.80747161391E-02  0.85160956074E-01  0.37964280469E-01  0.93590262275E-01  0.51100000000E-03 0.  1.
         11    1    4    4    0    0 -0.90062895854E-02  0.37413817406E-01  0.43838159556E-02  0.38734815713E-01  0.51100000000E-03 0. -1.
</event>
<event>
 8    1  0.1123191E+005  0.1043930E+01  0.7957747E-01            NaN
         13   -1    0    0    0    0  0.00000000000E+00  0.00000000000E+00  0.74505805969E-08  0.10566000000E+00  0.10566000000E+00 0.  1.
     999900   -1    0    0    0    0 -0.00000000000E+00 -0.00000000000E+00 -0.74505805969E-08  0.93827000000E+00  0.93827000000E+00 0. -1.
     999902    2    1    2    0    0  0.18751009468E-01 -0.30075120218E-04  0.16753517012E-01  0.10187847899E+01  0.10184744309E+01 0.  0.
     999903    2    3    3    0    0  0.54378753873E-01  0.10760506276E+00 -0.42810090014E-01  0.12951403112E+00  0.20131618036E-01 0.  0.
         14    1    1    2    0    0 -0.18751009468E-01  0.30075120218E-04 -0.16753517012E-01  0.25145210138E-01  0.00000000000E+00 0.  1.
     999901    1    3    3    0    0 -0.35627744405E-01 -0.10763513788E+00  0.59563607027E-01  0.88927075875E+00  0.88000000000E+00 0. -1.
        -11    1    4    4    0    0  0.23103555315E-01  0.65466206991E-01 -0.29070677989E-01  0.75265954891E-01  0.51100000000E-03 0.  1.
         11    1    4    4    0    0  0.31275198558E-01  0.42138855769E-01 -0.13739412025E-01  0.54248076225E-01  0.51100000000E-03 0. -1.
</event>
<event>
 8    1  0.1123191E+005  0.1043930E+01  0.7957747E-01            NaN
         13   -1    0    0    0    0  0.00000000000E+00  0.00000000000E+00  0.74505805969E-08  0.10566000000E+00  0.10566000000E+00 0.  1.
     999900   -1    0    0    0    0 -0.00000000000E+00 -0.00000000000E+00 -0.74505805969E-08  0.93827000000E+00  0.93827000000E+00 0. -1.
     999902    2    1    2    0    0  0.42100851414E-02 -0.22173145547E-01  0.74184214429E-02  0.10201727658E+01  0.10198961054E+01 0.  0.
     999903    2    3    3    0    0 -0.95656725134E-01 -0.41487034234E-01 -0.75909231277E-01  0.13040318675E+00  0.19271654001E-01 0.  0.
         14    1    1    2    0    0 -0.42100851414E-02  0.22173145547E-01 -0.74184214429E-02  0.23757234205E-01  0.00000000000E+00 0.  1.
     999901    1    3    3    0    0  0.99866810275E-01  0.19313888687E-01  0.83327652720E-01  0.88976957905E+00  0.88000000000E+00 0.  1.
        -11    1    4    4    0    0 -0.24716912000E-01 -0.84078424308E-02 -0.29530942057E-01  0.39420238621E-01  0.51100000000E-03 0.  1.
         11    1    4    4    0    0 -0.70939813134E-01 -0.33079191803E-01 -0.46378289220E-01  0.90982948127E-01  0.51100000000E-03 0. -1.
</event>
<event>
 8    1  0.1123191E+005  0.1043930E+01  0.7957747E-01            NaN
         13   -1    0    0    0    0  0.00000000000E+00  0.00000000000E+00  0.74505805969E-08  0.10566000000E+00  0.10566000000E+00 0. -1.
     999900   -1    0    0    0    0 -0.00000000000E+00 -0.00000000000E+00 -0.74505805969E-08  0.93827000000E+00  0.93827000000E+00 0.  1.
     999902    2    1    2    0    0 -0.20585926301E-01  0.35656758739E-02 -0.11768711620E-01  0.10199509054E+01  0.10196689916E+01 0.  0.
     999903    2    3    3    0    0  0.56282382834E-02  0.31279485833E-01 -0.12619509473E+00  0.13172309966E+00  0.20388470956E-01 0.  0.
         14    1    1    2    0    0  0.20585926301E-01 -0.35656758739E-02  0.11768711620E-01  0.23979094631E-01  0.00000000000E+00 0. -1.
     999901    1    3    3    0    0 -0.26214164585E-01 -0.27713809959E-01  0.11442638311E+00  0.88822780571E+00  0.88000000000E+00 0. -1.
        -11    1    4    4    0    0 -0.47859728075E-02  0.20462403406E-02 -0.35059860306E-01  0.35447814614E-01  0.51100000000E-03 0.  1.
         11    1    4    4    0    0  0.10414211091E-01  0.29233245492E-01 -0.91135234429E-01  0.96275285043E-01  0.51100000000E-03 0. -1.
</event>
<event>
 8    1  0.1123191E+005  0.1043930E+01  0.7957747E-01            NaN
         13   -1    0    0    0    0  0.00000000000E+00  0.00000000000E+00  0.74505805969E-08  0.10566000000E+00  0.10566000000E+00 0.  1.
     999900   -1    0    0    0    0 -0.00000000000E+00 -0.00000000000E+00 -0.74505805969E-08  0.93827000000E+00  0.93827000000E+00 0.  1.
     999902    2    1    2    0    0  0.23656457866E-02 -0.68825123399E-02  0.21299323686E-01  0.10214216361E+01  0.10211736053E+01 0.  0.
     999903    2    3    3    0    0  0.10811773721E+00 -0.42904716197E-01 -0.56617125149E-01  0.13094306981E+00  0.20256576743E-01 0.  0.
         14    1    1    2    0    0 -0.23656457866E-02  0.68825123399E-02 -0.21299323686E-01  0.22508363903E-01  0.00000000000E+00 0. -1.
     999901    1    3    3    0    0 -0.10575209142E+00  0.36022203858E-01  0.77916448835E-01  0.89047856628E+00  0.88000000000E+00 0. -1.
        -11    1    4    4    0    0  0.54484399902E-01 -0.31743116093E-01 -0.34331608367E-01  0.71798995160E-01  0.51100000000E-03 0. -1.
         11    1    4    4    0    0  0.53633337305E-01 -0.11161600105E-01 -0.22285516781E-01  0.59144074654E-01  0.51100000000E-03 0.  1.
</event>
<event>
 8    1  0.1123191E+005  0.1043930E+01  0.7957747E-01            NaN
         13   -1    0    0    0    0  0.00000000000E+00  0.00000000000E+00  0.74505805969E-08  0.10566000000E+00  0.10566000000E+00 0. -1.
     999900   -1    0    0    0    0 -0.00000000000E+00 -0.00000000000E+00 -0.74505805969E-08  0.93827000000E+00  0.93827000000E+00 0.  1.
     999902    2    1    2    0    0  0.79712897080E-03 -0.13137614179E-01 -0.11713303577E-01  0.10263108683E+01  0.10261596195E+01 0.  0.
     999903    2    3    3    0    0  0.34842917785E-01  0.10944814928E+00 -0.68454120847E-01  0.13535300989E+00  0.21012956098E-01 0.  0.
         14    1    1    2    0    0 -0.79712897080E-03  0.13137614179E-01  0.11713303577E-01  0.17619131692E-01  0.00000000000E+00 0. -1.
     999901    1    3    3    0    0 -0.34045788815E-01 -0.12258576346E+00  0.56740817270E-01  0.89095785842E+00  0.88000000000E+00 0. -1.
        -11    1    4    4    0    0  0.18625987513E-01  0.51006814726E-01 -0.44251660094E-01  0.70050646688E-01  0.51100000000E-03 0.  1.
         11    1    4    4    0    0  0.16216930272E-01  0.58441334553E-01 -0.24202460753E-01  0.65302363198E-01  0.51100000000E-03 0. -1.
</event>
<event>
 8    1  0.1123191E+005  0.1043930E+01  0.7957747E-01            NaN
         13   -1    0    0    0    0  0.00000000000E+00  0.00000000000E+00  0.74505805969E-08  0.10566000000E+00  0.10566000000E+00 0.  1.
     999900   -1    0    0    0    0 -0.00000000000E+00 -0.00000000000E+00 -0.74505805969E-08  0.93827000000E+00  0.93827000000E+00 0.  1.
     999902    2    1    2    0    0 -0.20084585826E-01  0.46513660354E-02  0.12125681962E-01  0.10200122669E+01  0.10197318111E+01 0.  0.
     999903    2    3    3    0    0 -0.10462962136E+00 -0.52095310762E-01 -0.56814602480E-01  0.13146243083E+00  0.19829084561E-01 0.  0.
         14    1    1    2    0    0  0.20084585826E-01 -0.46513660354E-02 -0.12125681962E-01  0.23917733104E-01  0.00000000000E+00 0. -1.
     999901    1    3    3    0    0  0.84545035533E-01  0.56746676798E-01  0.68940284442E-01  0.88854983607E+00  0.88000000000E+00 0. -1.
        -11    1    4    4    0    0 -0.48029734999E-01 -0.13560354780E-01 -0.20518576770E-01  0.53963059397E-01  0.51100000000E-03 0.  1.
         11    1    4    4    0    0 -0.56599886360E-01 -0.38534955982E-01 -0.36296025710E-01  0.77499371429E-01  0.51100000000E-03 0. -1.
</event>
<event>
 8    1  0.1123191E+005  0.1043930E+01  0.7957747E-01            NaN
         13   -1    0    0    0    0  0.00000000000E+00  0.00000000000E+00  0.74505805969E-08  0.10566000000E+00  0.10566000000E+00 0.  1.
     999900   -1    0    0    0    0 -0.00000000000E+00 -0.00000000000E+00 -0.74505805969E-08  0.93827000000E+00  0.93827000000E+00 0. -1.
     999902    2    1    2    0    0  0.23818162794E-01 -0.34912739368E-02  0.49975849261E-02  0.10193440339E+01  0.10190474914E+01 0.  0.
     999903    2    3    3    0    0  0.11671314736E+00  0.11966345994E-01  0.58891096856E-01  0.13268010278E+00  0.19253471960E-01 0.  0.
         14    1    1    2    0    0 -0.23818162794E-01  0.34912739368E-02 -0.49975849261E-02  0.24585966071E-01  0.00000000000E+00 0. -1.
     999901    1    3    3    0    0 -0.92894984564E-01 -0.15457619931E-01 -0.53893511930E-01  0.88666393115E+00  0.88000000000E+00 0. -1.
        -11    1    4    4    0    0  0.81671295552E-01  0.31912013611E-02  0.48695719420E-01  0.95141570799E-01  0.51100000000E-03 0. -1.
         11    1    4    4    0    0  0.35041851805E-01  0.87751446329E-02  0.10195377436E-01  0.37538531981E-01  0.51100000000E-03 0.  1.
</event>
<event>
 8    1  0.1123191E+005  0.1043930E+01  0.7957747E-01            NaN
         13   -1    0    0    0    0  0.00000000000E+00  0.00000000000E+00  0.74505805969E-08  0.10566000000E+00  0.10566000000E+00 0.  1.
     999900   -1    0    0    0    0 -0.00000000000E+00 -0.00000000000E+00 -0.74505805969E-08  0.93827000000E+00  0.93827000000E+00 0. -1.
     999902    2    1    2    0    0 -0.94210748674E-02 -0.17471882891E-01  0.12525842047E-01  0.10204583136E+01  0.10201883403E+01 0.  0.
     999903    2    3    3    0    0  0.11189642116E+00 -0.33639387824E-01 -0.52305598782E-01  0.12962587213E+00  0.20361080018E-01 0.  0.
         14    1    1    2    0    0  0.94210748674E-02  0.17471882891E-01 -0.12525842047E-01  0.23471686399E-01  0.00000000000E+00 0. -1.
     999901    1    3    3    0    0 -0.12131749603E+00  0.16167504933E-01  0.64831440829E-01  0.89083244147E+00  0.88000000000E+00 0.  1.
        -11    1    4    4    0    0  0.32822156725E-01 -0.28620655537E-02 -0.80300489404E-02  0.33915014349E-01  0.51100000000E-03 0. -1.
         11    1    4    4    0    0  0.79074264437E-01 -0.30777322270E-01 -0.44275549841E-01  0.95710857781E-01  0.51100000000E-03 0.  1.
</event>
<event>
 8    1  0.1123191E+005  0.1043930E+01  0.7957747E-01            NaN
         13   -1    0    0    0    0  0.00000000000E+00  0.00000000000E+00  0.74505805969E-08  0.10566000000E+00  0.10566000000E+00 0.  1.
     999900   -1    0    0    0    0 -0.00000000000E+00 -0.00000000000E+00 -0.74505805969E-08  0.93827000000E+00  0.93827000000E+00 0.  1.
     999902    2    1    2    0    0  0.10940507453E-01  0.13295721384E-01 -0.16253305399E-01  0.10202521444E+01  0.10199773513E+01 0.  0.
     999903    2    3    3    0    0 -0.12603081816E+00 -0.37497146669E-02 -0.21888807710E-01  0.12947526445E+00  0.19669690268E-01 0.  0.
         14    1    1    2    0    0 -0.10940507453E-01 -0.13295721384E-01  0.16253305399E-01  0.23677855621E-01  0.00000000000E+00 0. -1.
     999901    1    3    3    0    0  0.13697132561E+00  0.17045436051E-01  0.56355023114E-02  0.89077687993E+00  0.88000000000E+00 0. -1.
        -11    1    4    4    0    0 -0.26421971498E-01 -0.62765414494E-02  0.12165104698E-02  0.27189273053E-01  0.51100000000E-03 0.  1.
         11    1    4    4    0    0 -0.99608846662E-01  0.25268267825E-02 -0.23105318180E-01  0.10228599140E+00  0.51100000000E-03 0. -1.
</event>
<event>
 8    1  0.1123191E+005  0.1043930E+01  0.7957747E-01            NaN
         13   -1    0    0    0    0  0.00000000000E+00  0.00000000000E+00  0.74505805969E-08  0.10566000000E+00  0.10566000000E+00 0.  1.
     999900   -1    0    0    0    0 -0.00000000000E+00 -0.00000000000E+00 -0.74505805969E-08  0.93827000000E+00  0.93827000000E+00 0. -1.
     999902    2    1    2    0    0 -0.15349423080E-01 -0.13890096347E-01  0.10921341411E-01  0.10205245463E+01  0.10202561121E+01 0.  0.
     999903    2    3    3    0    0  0.99062896817E-01 -0.61053484844E-01 -0.53802491476E-01  0.12951178616E+00  0.18374142931E-01 0.  0.
         14    1    1    2    0    0  0.15349423080E-01  0.13890096347E-01 -0.10921341411E-01  0.23405453715E-01  0.00000000000E+00 0.  1.
     999901    1    3    3    0    0 -0.11441231990E+00  0.47163388498E-01  0.64723832887E-01  0.89101276012E+00  0.88000000000E+00 0.  1.
        -11    1    4    4    0    0  0.86550384490E-01 -0.50064868759E-01 -0.52145292891E-01  0.11276902425E+00  0.51100000000E-03 0.  1.
         11    1    4    4    0    0  0.12512512327E-01 -0.10988616085E-01 -0.16571985851E-02  0.16742761909E-01  0.51100000000E-03 0. -1.
</event>
<event>
 8    1  0.1123191E+005  0.1043930E+01  0.7957747E-01            NaN
         13   -1    0    0    0    0  0.00000000000E+00  0.00000000000E+00  0.74505805969E-08  0.10566000000E+00  0.10566000000E+00 0. -1.
     999900   -1    0    0    0    0 -0.00000000000E+00 -0.00000000000E+00 -0.74505805969E-08  0.93827000000E+00  0.93827000000E+00 0.  1.
     999902    2    1    2    0    0  0.43793904136E-02  0.17014482891E-01 -0.11277832076E-01  0.10230527113E+01  0.10228396692E+01 0.  0.
     999903    2    3    3    0    0  0.79190937535E-01  0.10766602661E+00  0.46134087886E-02  0.13509606734E+00  0.19143823942E-01 0.  0.
         14    1    1    2    0    0 -0.43793904136E-02 -0.17014482891E-01  0.11277832076E-01  0.20877288732E-01  0.00000000000E+00 0. -1.
     999901    1    3    3    0    0 -0.74811547122E-01 -0.90651543723E-01 -0.15891240865E-01  0.88795664393E+00  0.88000000000E+00 0. -1.
        -11    1    4    4    0    0  0.47227988903E-01  0.58978177352E-01 -0.63630900523E-02  0.75826501802E-01  0.51100000000E-03 0.  1.
         11    1    4    4    0    0  0.31962948632E-01  0.48687849263E-01  0.10976498841E-01  0.59269565537E-01  0.51100000000E-03 0. -1.
</event>
<event>
 7    1  0.1123191E+005  0.1043930E+01  0.7957747E-01            NaN
         13   -1    0    0    0    0  0.00000000000E+00  0.00000000000E+00  0.74505805969E-08  0.10566000000E+00  0.10566000000E+00 0.  1.
     999900   -1    0    0    0    0 -0.00000000000E+00 -0.00000000000E+00 -0.74505805969E-08  0.93827000000E+00  0.93827000000E+00 0. -1.
     999902    2    1    2    0    0 -0.16018312239E-03 -0.21154097121E-01  0.43831753510E-02  0.10223259793E+01  0.10220976833E+01 0.  0.
         14    1    1    2    0    0  0.16018312239E-03  0.21154097121E-01 -0.43831753510E-02  0.21604020686E-01  0.00000000000E+00 0. -1.
     999901    1    3    3    0    0  0.15210650636E-01  0.93915071943E-01 -0.47817157008E-01  0.88641857220E+00  0.88000000000E+00 0.  1.
        -11    1    3    3    0    0  0.16729665684E-01 -0.42648085398E-01  0.24718592787E-01  0.52057764574E-01  0.51100000000E-03 0. -1.
         11    1    3    3    0    0 -0.32100499442E-01 -0.72421083666E-01  0.27481739572E-01  0.83849642544E-01  0.51100000000E-03 0.  1.
</event>
<event>
 8    1  0.1123191E+005  0.1043930E+01  0.7957747E-01            NaN
         13   -1    0    0    0    0  0.00000000000E+00  0.00000000000E+00  0.74505805969E-08  0.10566000000E+00  0.10566000000E+00 0.  1.
     999900   -1    0    0    0    0 -0.00000000000E+00 -0.00000000000E+00 -0.74505805969E-08  0.93827000000E+00  0.93827000000E+00 0.  1.
     999902    2    1    2    0    0  0.21212855753E-01 -0.39395569178E-02  0.64828777274E-02  0.10214015056E+01  0.10211530260E+01 0.  0.
     999903    2    3    3    0    0  0.21539179172E-01  0.26814736496E-01 -0.12496100731E+00  0.13110749347E+00  0.19772586173E-01 0.  0.
         14    1    1    2    0    0 -0.21212855753E-01  0.39395569178E-02 -0.64828777274E-02  0.22528494436E-01  0.00000000000E+00 0. -1.
     999901    1    3    3    0    0 -0.32632341880E-03 -0.30754293414E-01  0.13144388504E+00  0.89029401209E+00  0.88000000000E+00 0. -1.
        -11    1    4    4    0    0  0.10382768124E-01  0.25974261106E-01 -0.79211530878E-01  0.84007094099E-01  0.51100000000E-03 0. -1.
         11    1    4    4    0    0  0.11156411048E-01  0.84047539046E-03 -0.45749476433E-01  0.47100399375E-01  0.51100000000E-03 0.  1.
</event>
<event>
 8    1  0.1123191E+005  0.1043930E+01  0.7957747E-01            NaN
         13   -1    0    0    0    0  0.00000000000E+00  0.00000000000E+00  0.74505805969E-08  0.10566000000E+00  0.10566000000E+00 0.  1.
     999900   -1    0    0    0    0 -0.00000000000E+00 -0.00000000000E+00 -0.74505805969E-08  0.93827000000E+00  0.93827000000E+00 0.  1.
     999902    2    1    2    0    0 -0.13939797375E-01 -0.18786083402E-01 -0.14356323184E-02  0.10204929370E+01  0.10202237689E+01 0.  0.
     999903    2    3    3    0    0 -0.78957161883E-01  0.76951871479E-01  0.66748036586E-01  0.13030080811E+00  0.19161844084E-01 0.  0.
         14    1    1    2    0    0  0.13939797375E-01  0.18786083402E-01  0.14356323184E-02  0.23437062969E-01  0.00000000000E+00 0. -1.
     999901    1    3    3    0    0  0.65017364508E-01 -0.95737954881E-01 -0.68183668904E-01  0.89019212892E+00  0.88000000000E+00 0.  1.
        -11    1    4    4    0    0 -0.41270979554E-01  0.41429121068E-01  0.46413947586E-01  0.74660441181E-01  0.51100000000E-03 0.  1.
         11    1    4    4    0    0 -0.37686182329E-01  0.35522750411E-01  0.20334089000E-01  0.55640366927E-01  0.51100000000E-03 0. -1.
</event>
<event>
 8    1  0.1123191E+005  0.1043930E+01  0.7957747E-01            NaN
         13   -1    0    0    0    0  0.00000000000E+00  0.00000000000E+00  0.74505805969E-08  0.10566000000E+00  0.10566000000E+00 0. -1.
     999900   -1    0    0    0    0 -0.00000000000E+00 -0.00000000000E+00 -0.74505805969E-08  0.93827000000E+00  0.93827000000E+00 0. -1.
     999902    2    1    2    0    0 -0.19613290196E-01  0.11466445789E-01 -0.57659209140E-02  0.10204905807E+01  0.10202213578E+01 0.  0.
     999903    2    3    3    0    0 -0.11125115843E+00  0.16589924185E-01  0.67645304082E-01  0.13267699846E+00  0.19371445959E-01 0.  0.
         14    1    1    2    0    0  0.19613290196E-01 -0.11466445789E-01  0.57659209140E-02  0.23439419262E-01  0.00000000000E+00 0. -1.
     999901    1    3    3    0    0  0.91637868236E-01 -0.51234783965E-02 -0.73411224996E-01  0.88781358228E+00  0.88000000000E+00 0. -1.
        -11    1    4    4    0    0 -0.42806135321E-01  0.99926130801E-02  0.16405595836E-01  0.46921447474E-01  0.51100000000E-03 0.  1.
         11    1    4    4    0    0 -0.68445023110E-01  0.65973111051E-02  0.51239708246E-01  0.85755550984E-01  0.51100000000E-03 0. -1.
</event>
<event>
 8    1  0.1123191E+005  0.1043930E+01  0.7957747E-01            NaN
         13   -1    0    0    0    0  0.00000000000E+00  0.00000000000E+00  0.74505805969E-08  0.10566000000E+00  0.10566000000E+00 0. -1.
     999900   -1    0    0    0    0 -0.00000000000E+00 -0.00000000000E+00 -0.74505805969E-08  0.93827000000E+00  0.93827000000E+00 0.  1.
     999902    2    1    2    0    0  0.34423085053E-02 -0.19936811522E-01  0.10921566010E-01  0.10209385549E+01  0.10206796395E+01 0.  0.
     999903    2    3    3    0    0  0.99730295661E-01  0.51162049318E-01 -0.62234318114E-01  0.12982789523E+00  0.20456902628E-01 0.  0.
         14    1    1    2    0    0 -0.34423085053E-02  0.19936811522E-01 -0.10921566010E-01  0.22991445053E-01  0.00000000000E+00 0.  1.
     999901    1    3    3    0    0 -0.96287987155E-01 -0.71098860839E-01  0.73155884125E-01  0.89111065972E+00  0.88000000000E+00 0. -1.
        -11    1    4    4    0    0  0.94624159154E-01  0.50179623491E-01 -0.53685075941E-01  0.11980849139E+00  0.51100000000E-03 0. -1.
         11    1    4    4    0    0  0.51061365069E-02  0.98242582624E-03 -0.85492421730E-02  0.10019403838E-01  0.51100000000E-03 0.  1.
</event>
<event>
 8    1  0.1123191E+005  0.1043930E+01  0.7957747E-01            NaN
         13   -1    0    0    0    0  0.00000000000E+00  0.00000000000E+00  0.74505805969E-08  0.10566000000E+00  0.10566000000E+00 0.  1.
     999900   -1    0    0    0    0 -0.00000000000E+00 -0.00000000000E+00 -0.74505805969E-08  0.93827000000E+00  0.93827000000E+00 0.  1.
     999902    2    1    2    0    0  0.23338117495E-01 -0.83674777304E-02  0.75593117378E-03  0.10191256890E+01  0.10188237905E+01 0.  0.
     999903    2    3    3    0    0 -0.12190438019E-01  0.18635241548E-01 -0.12548262485E+00  0.12899783407E+00  0.19966798700E-01 0.  0.
         14    1    1    2    0    0 -0.23338117495E-01  0.83674777304E-02 -0.75593117378E-03  0.24804310991E-01  0.00000000000E+00 0. -1.
     999901    1    3    3    0    0  0.35528555514E-01 -0.27002719279E-01  0.12623855602E+00  0.89012785494E+00  0.88000000000E+00 0. -1.
        -11    1    4    4    0    0 -0.70469130573E-02  0.12310598534E-01 -0.30239110790E-01  0.33404711678E-01  0.51100000000E-03 0.  1.
         11    1    4    4    0    0 -0.51435249617E-02  0.63246430139E-02 -0.95243514058E-01  0.95593122396E-01  0.51100000000E-03 0. -1.
</event>
<event>
 8    1  0.1123191E+005  0.1043930E+01  0.7957747E-01            NaN
         13   -1    0    0    0    0  0.00000000000E+00  0.00000000000E+00  0.74505805969E-08  0.10566000000E+00  0.10566000000E+00 0. -1.
     999900   -1    0    0    0    0 -0.00000000000E+00 -0.00000000000E+00 -0.74505805969E-08  0.93827000000E+00  0.93827000000E+00 0. -1.
     999902    2    1    2    0    0  0.12320969867E-01  0.10477055476E-01  0.16586242841E-01  0.10207636787E+01  0.10205007640E+01 0.  0.
     999903    2    3    3    0    0  0.31193771737E-01 -0.12105227120E+00  0.32309201319E-01  0.13064944007E+00  0.19967171638E-01 0.  0.
         14    1    1    2    0    0 -0.12320969867E-01 -0.10477055476E-01 -0.16586242841E-01  0.23166321276E-01  0.00000000000E+00 0. -1.
     999901    1    3    3    0    0 -0.18872801870E-01  0.13152932668E+00 -0.15722958478E-01  0.89011423865E+00  0.88000000000E+00 0.  1.
        -11    1    4    4    0    0  0.18946878092E-01 -0.36927714153E-01  0.12656130992E-01  0.43394458571E-01  0.51100000000E-03 0.  1.
         11    1    4    4    0    0  0.12246893645E-01 -0.84124557048E-01  0.19653070327E-01  0.87254981501E-01  0.51100000000E-03 0. -1.
</event>
<event>
 8    1  0.1123191E+005  0.1043930E+01  0.7957747E-01            NaN
         13   -1    0    0    0    0  0.00000000000E+00  0.00000000000E+00  0.74505805969E-08  0.10566000000E+00  0.10566000000E+00 0. -1.
     999900   -1    0    0    0    0 -0.00000000000E+00 -0.00000000000E+00 -0.74505805969E-08  0.93827000000E+00  0.93827000000E+00 0. -1.
     999902    2    1    2    0    0 -0.10626344220E-01 -0.14697557819E-01  0.17120078285E-01  0.10189893810E+01  0.10186841140E+01 0.  0.
     999903    2    3    3    0    0  0.65024946104E-02 -0.12928342314E+00 -0.31630237218E-02  0.13116354113E+00  0.20913724427E-01 0.  0.
         14    1    1    2    0    0  0.10626344220E-01  0.14697557819E-01 -0.17120078285E-01  0.24940619034E-01  0.00000000000E+00 0.  1.
     999901    1    3    3    0    0 -0.17128838830E-01  0.11458586532E+00  0.20283102007E-01  0.88782583983E+00  0.88000000000E+00 0.  1.
        -11    1    4    4    0    0 -0.34028995602E-02 -0.26019163986E-01  0.63063862647E-02  0.26992744371E-01  0.51100000000E-03 0.  1.
         11    1    4    4    0    0  0.99053941706E-02 -0.10326425915E+00 -0.94694099865E-02  0.10417079676E+00  0.51100000000E-03 0. -1.
</event>
<event>
 8    1  0.1123191E+005  0.1043930E+01  0.7957747E-01            NaN
         13   -1    0    0    0    0  0.00000000000E+00  0.00000000000E+00  0.74505805969E-08  0.10566000000E+00  0.10566000000E+00 0. -1.
     999900   -1    0    0    0    0 -0.00000000000E+00 -0.00000000000E+00 -0.74505805969E-08  0.93827000000E+00  0.93827000000E+00 0. -1.
     999902    2    1    2    0    0  0.17458052277E-01 -0.12386233450E-01 -0.10976651048E-01  0.10198740395E+01  0.10195902938E+01 0.  0.
     999903    2    3    3    0    0  0.77264621857E-02 -0.18677924499E-01  0.12601000852E+00  0.12920034271E+00  0.20140586551E-01 0.  0.
         14    1    1    2    0    0 -0.17458052277E-01  0.12386233450E-01  0.10976651048E-01  0.24055960521E-01  0.00000000000E+00 0. -1.
     999901    1    3    3    0    0  0.97315900917E-02  0.62916910491E-02 -0.13698665957E+00  0.89067369677E+00  0.88000000000E+00 0. -1.
        -11    1    4    4    0    0 -0.49237469856E-02 -0.13832891456E-01  0.56365313799E-01  0.58248621366E-01  0.51100000000E-03 0. -1.
         11    1    4    4    0    0  0.12650209171E-01 -0.48450330428E-02  0.69644694722E-01  0.70951721340E-01  0.51100000000E-03 0.  1.
</event>
<event>
 8    1  0.1123191E+005  0.1043930E+01  0.7957747E-01            NaN
         13   -1    0    0    0    0  0.00000000000E+00  0.00000000000E+00  0.74505805969E-08  0.10566000000E+00  0.10566000000E+00 0. -1.
     999900   -1    0    0    0    0 -0.00000000000E+00 -0.00000000000E+00 -0.74505805969E-08  0.93827000000E+00  0.93827000000E+00 0.  1.
     999902    2    1    2    0    0  0.18456775160E-01  0.21114864215E-02  0.14635686111E-01  0.10202801748E+01  0.10200060396E+01 0.  0.
     999903    2    3    3    0    0  0.35773009758E-01  0.93592658013E-01 -0.77575088888E-01  0.13057714358E+00  0.31515109828E-01 0.  0.
         14    1    1    2    0    0 -0.18456775160E-01 -0.21114864215E-02 -0.14635686111E-01  0.23649825204E-01  0.00000000000E+00 0.  1.
     999901    1    3    3    0    0 -0.17316234598E-01 -0.91481171591E-01  0.92210774999E-01  0.88970303122E+00  0.88000000000E+00 0. -1.
        -11    1    4    4    0    0  0.28568048828E-01  0.36115847362E-01 -0.43617578929E-01  0.63429032447E-01  0.51100000000E-03 0.  1.
         11    1    4    4    0    0  0.72049609298E-02  0.57476810651E-01 -0.33957509959E-01  0.67148111129E-01  0.51100000000E-03 0. -1.
</event>
<event>
 8    1  0.1123191E+005  0.1043930E+01  0.7957747E-01            NaN
         13   -1    0    0    0    0  0.00000000000E+00  0.00000000000E+00  0.74505805969E-08  0.10566000000E+00  0.10566000000E+00 0. -1.
     999900   -1    0    0    0    0 -0.00000000000E+00 -0.00000000000E+00 -0.74505805969E-08  0.93827000000E+00  0.93827000000E+00 0. -1.
     999902    2    1    2    0    0  0.34868070825E-02 -0.22845675900E-01  0.42928408129E-02  0.10204244429E+01  0.10201536808E+01 0.  0.
     999903    2    3    3    0    0 -0.14337971706E-01  0.12167122801E+00 -0.30282274446E-01  0.12778885275E+00  0.20087548017E-01 0.  0.
         14    1    1    2    0    0 -0.34868070825E-02  0.22845675900E-01 -0.42928408129E-02  0.23505557071E-01  0.00000000000E+00 0.  1.
     999901    1    3    3    0    0  0.17824778789E-01 -0.14451690391E+00  0.34575115259E-01  0.89263559018E+00  0.88000000000E+00 0.  1.
        -11    1    4    4    0    0 -0.10048826798E-01  0.44916559850E-01 -0.26802502178E-02  0.46107712273E-01  0.51100000000E-03 0.  1.
         11    1    4    4    0    0 -0.42891449080E-02  0.76754668155E-01 -0.27602024228E-01  0.81681140480E-01  0.51100000000E-03 0. -1.
</event>
<event>
 8    1  0.1123191E+005  0.1043930E+01  0.7957747E-01            NaN
         13   -1    0    0    0    0  0.00000000000E+00  0.00000000000E+00  0.74505805969E-08  0.10566000000E+00  0.10566000000E+00 0.  1.
     999900   -1    0    0    0    0 -0.00000000000E+00 -0.00000000000E+00 -0.74505805969E-08  0.93827000000E+00  0.93827000000E+00 0.  1.
     999902    2    1    2    0    0  0.64262082771E-02  0.22015567383E-01  0.42388481386E-02  0.10206072816E+01  0.10203407637E+01 0.  0.
     999903    2    3    3    0    0  0.63303668915E-01  0.10137465902E+00 -0.55504401629E-01  0.13319409326E+00  0.19384320698E-01 0.  0.
         14    1    1    2    0    0 -0.64262082771E-02 -0.22015567383E-01 -0.42388481386E-02  0.23322718400E-01  0.00000000000E+00 0. -1.
     999901    1    3    3    0    0 -0.56877460638E-01 -0.79359091636E-01  0.59743249767E-01  0.88741318834E+00  0.88000000000E+00 0. -1.
        -11    1    4    4    0    0  0.31882333466E-02  0.16267818940E-01 -0.45145188013E-02  0.17188623155E-01  0.51100000000E-03 0. -1.
         11    1    4    4    0    0  0.60115435568E-01  0.85106840079E-01 -0.50989882827E-01  0.11600547010E+00  0.51100000000E-03 0.  1.
</event>
<event>
 8    1  0.1123191E+005  0.1043930E+01  0.7957747E-01            NaN
         13   -1    0    0    0    0  0.00000000000E+00  0.00000000000E+00  0.74505805969E-08  0.10566000000E+00  0.10566000000E+00 0. -1.
     999900   -1    0    0    0    0 -0.00000000000E+00 -0.00000000000E+00 -0.74505805969E-08  0.93827000000E+00  0.93827000000E+00 0.  1.
     999902    2    1    2    0    0 -0.38301202784E-02 -0.22617039593E-01 -0.13715651227E-01  0.10172032458E+01  0.10168520659E+01 0.  0.
     999903    2    3    3    0    0  0.42160519170E-01  0.11613229035E+00 -0.95987204662E-02  0.12513628386E+00  0.17399306414E-01 0.  0.
         14    1    1    2    0    0  0.38301202784E-02  0.22617039593E-01  0.13715651227E-01  0.26726754196E-01  0.00000000000E+00 0. -1.
     999901    1    3    3    0    0 -0.45990639449E-01 -0.13874932995E+00 -0.41169307607E-02  0.89206696195E+00  0.88000000000E+00 0. -1.
        -11    1    4    4    0    0  0.11446084640E-01  0.25105507693E-01  0.47440355259E-02  0.28001185050E-01  0.51100000000E-03 0. -1.
         11    1    4    4    0    0  0.30714434530E-01  0.91026782660E-01 -0.14342755992E-01  0.97135098807E-01  0.51100000000E-03 0.  1.
</event>
<event>
 8    1  0.1123191E+005  0.1043930E+01  0.7957747E-01            NaN
         13   -1    0    0    0    0  0.00000000000E+00  0.00000000000E+00  0.74505805969E-08  0.10566000000E+00  0.10566000000E+00 0.  1.
     999900   -1    0    0    0    0 -0.00000000000E+00 -0.00000000000E+00 -0.74505805969E-08  0.93827000000E+00  0.93827000000E+00 0.  1.
     999902    2    1    2    0    0  0.99492390673E-02 -0.90030403147E-02  0.19516048643E-01  0.10202462873E+01  0.10199713567E+01 0.  0.
     999903    2    3    3    0    0  0.21265508064E-01 -0.59715822415E-01  0.11547313836E+00  0.13350641152E+00  0.21718999867E-01 0.  0.
         14    1    1    2    0    0 -0.99492390673E-02  0.90030403147E-02 -0.19516048643E-01  0.23683712706E-01  0.00000000000E+00 0. -1.
     999901    1    3    3    0    0 -0.11316268997E-01  0.50712782100E-01 -0.95957089718E-01  0.88673987577E+00  0.88000000000E+00 0.  1.
        -11    1    4    4    0    0  0.16760238424E-01 -0.21681571573E-01  0.61413239679E-01  0.67252087453E-01  0.51100000000E-03 0. -1.
         11    1    4    4    0    0  0.45052696401E-02 -0.38034250842E-01  0.54059898682E-01  0.66254324071E-01  0.51100000000E-03 0.  1.
</event>
<event>
 8    1  0.1123191E+005  0.1043930E+01  0.7957747E-01            NaN
         13   -1    0    0    0    0  0.00000000000E+00  0.00000000000E+00  0.74505805969E-08  0.10566000000E+00  0.10566000000E+00 0.  1.
     999900   -1    0    0    0    0 -0.00000000000E+00 -0.00000000000E+00 -0.74505805969E-08  0.93827000000E+00  0.93827000000E+00 0.  1.
     999902    2    1    2    0    0  0.86725946062E-02 -0.14227856975E-01  0.15954000965E-01  0.10208610608E+01  0.10206003769E+01 0.  0.
     999903    2    3    3    0    0 -0.64096613115E-01  0.45644319151E-01  0.10337312334E+00  0.13152302714E+00  0.20506690508E-01 0.  0.
         14    1    1    2    0    0 -0.86725946062E-02  0.14227856975E-01 -0.15954000965E-01  0.23068939250E-01  0.00000000000E+00 0. -1.
     999901    1    3    3    0    0  0.72769207721E-01 -0.59872176126E-01 -0.87419122376E-01  0.88933803361E+00  0.88000000000E+00 0.  1.
        -11    1    4    4    0    0 -0.12509132745E-01  0.19720886792E-01  0.34274425193E-01  0.41477573715E-01  0.51100000000E-03 0.  1.
         11    1    4    4    0    0 -0.51587480369E-01  0.25923432359E-01  0.69098698148E-01  0.90045453427E-01  0.51100000000E-03 0. -1.
</event>
<event>
 8    1  0.1123191E+005  0.1043930E+01  0.7957747E-01            NaN
         13   -1    0    0    0    0  0.00000000000E+00  0.00000000000E+00  0.74505805969E-08  0.10566000000E+00  0.10566000000E+00 0. -1.
     999900   -1    0    0    0    0 -0.00000000000E+00 -0.00000000000E+00 -0.74505805969E-08  0.93827000000E+00  0.93827000000E+00 0. -1.
     999902    2    1    2    0    0 -0.38456438102E-02 -0.29101002883E-02  0.21762366626E-01  0.10216396823E+01  0.10213964863E+01 0.  0.
     999903    2    3    3    0    0 -0.86717227340E-01  0.14096828100E-01  0.98552221763E-01  0.13425384923E+00  0.24350719440E-01 0.  0.
         14    1    1    2    0    0  0.38456438102E-02  0.29101002883E-02 -0.21762366626E-01  0.22290317655E-01  0.00000000000E+00 0.  1.
     999901    1    3    3    0    0  0.82871583530E-01 -0.17006928388E-01 -0.76789855137E-01  0.88738583312E+00  0.88000000000E+00 0.  1.
        -11    1    4    4    0    0 -0.30692852270E-01 -0.61955103880E-02  0.38885921410E-01  0.49928063596E-01  0.51100000000E-03 0. -1.
         11    1    4    4    0    0 -0.56024375070E-01  0.20292338488E-01  0.59666300353E-01  0.84325785630E-01  0.51100000000E-03 0.  1.
</event>
<event>
 8    1  0.1123191E+005  0.1043930E+01  0.7957747E-01            NaN
         13   -1    0    0    0    0  0.00000000000E+00  0.00000000000E+00  0.74505805969E-08  0.10566000000E+00  0.10566000000E+00 0.  1.
     999900   -1    0    0    0    0 -0.00000000000E+00 -0.00000000000E+00 -0.74505805969E-08  0.93827000000E+00  0.93827000000E+00 0.  1.
     999902    2    1    2    0    0 -0.77955529032E-02 -0.71485476451E-02 -0.21199435800E-01  0.10202384729E+01  0.10199633587E+01 0.  0.
     999903    2    3    3    0    0  0.33591452673E-01  0.21043757117E-02 -0.12696375839E+00  0.13289153243E+00  0.20187851680E-01 0.  0.
         14    1    1    2    0    0  0.77955529032E-02  0.71485476451E-02  0.21199435800E-01  0.23691527108E-01  0.00000000000E+00 0.  1.
     999901    1    3    3    0    0 -0.41387005577E-01 -0.92529233569E-02  0.10576432259E+00  0.88734694047E+00  0.88000000000E+00 0. -1.
        -11    1    4    4    0    0  0.13470903201E-01  0.33434583876E-02 -0.22066805608E-01  0.26073913741E-01  0.51100000000E-03 0. -1.
         11    1    4    4    0    0  0.20120549472E-01 -0.12390826759E-02 -0.10489695278E+00  0.10681761868E+00  0.51100000000E-03 0.  1.
</event>
<event>
 8    1  0.1123191E+005  0.1043930E+01  0.7957747E-01            NaN
         13   -1    0    0    0    0  0.00000000000E+00  0.00000000000E+00  0.74505805969E-08  0.10566000000E+00  0.10566000000E+00 0.  1.
     999900   -1    0    0    0    0 -0.00000000000E+00 -0.00000000000E+00 -0.74505805969E-08  0.93827000000E+00  0.93827000000E+00 0.  1.
     999902    2    1    2    0    0 -0.10027078853E-01  0.19770297468E-01  0.27683624937E-04  0.10217622816E+01  0.10215217826E+01 0.  0.
     999903    2    3    3    0    0 -0.10002201381E+00  0.71715017639E-01  0.49581026156E-01  0.13426418244E+00  0.20521830552E-01 0.  0.
         14    1    1    2    0    0  0.10027078853E-01 -0.19770297468E-01 -0.27683624937E-04  0.22167718391E-01  0.00000000000E+00 0.  1.
     999901    1    3    3    0    0  0.89994934961E-01 -0.51944720170E-01 -0.49553342532E-01  0.88749809917E+00  0.88000000000E+00 0.  1.
        -11    1    4    4    0    0 -0.36400726400E-01  0.14521947568E-01  0.14232606644E-01  0.41698058186E-01  0.51100000000E-03 0. -1.
         11    1    4    4    0    0 -0.63621287414E-01  0.57193070071E-01  0.35348419512E-01  0.92566124254E-01  0.51100000000E-03 0.  1.
</event>
<event>
 8    1  0.1123191E+005  0.1043930E+01  0.7957747E-01            NaN
         13   -1    0    0    0    0  0.00000000000E+00  0.00000000000E+00  0.74505805969E-08  0.10566000000E+00  0.10566000000E+00 0.  1.
     999900   -1    0    0    0    0 -0.00000000000E+00 -0.00000000000E+00 -0.74505805969E-08  0.93827000000E+00  0.93827000000E+00 0. -1.
     999902    2    1    2    0    0  0.74198394206E-02  0.96419575761E-02 -0.18665693442E-01  0.10216493026E+01  0.10214063188E+01 0.  0.
     999903    2    3    3    0    0 -0.15001513694E-01 -0.47553133892E-01  0.11739176302E+00  0.12907682546E+00  0.19840738165E-01 0.  0.
         14    1    1    2    0    0 -0.74198394206E-02 -0.96419575761E-02  0.18665693442E-01  0.22280697355E-01  0.00000000000E+00 0.  1.
     999901    1    3    3    0    0  0.22421353115E-01  0.57195091468E-01 -0.13605745646E+00  0.89257247718E+00  0.88000000000E+00 0. -1.
        -11    1    4    4    0    0 -0.62780213519E-02 -0.18051140378E-01  0.23630613393E-01  0.30396121979E-01  0.51100000000E-03 0. -1.
         11    1    4    4    0    0 -0.87234923421E-02 -0.29501993514E-01  0.93761149626E-01  0.98680703485E-01  0.51100000000E-03 0.  1.
</event>
<event>
 8    1  0.1123191E+005  0.1043930E+01  0.7957747E-01            NaN
         13   -1    0    0    0    0  0.00000000000E+00  0.00000000000E+00  0.74505805969E-08  0.10566000000E+00  0.10566000000E+00 0.  1.
     999900   -1    0    0    0    0 -0.00000000000E+00 -0.00000000000E+00 -0.74505805969E-08  0.93827000000E+00  0.93827000000E+00 0. -1.
     999902    2    1    2    0    0  0.22121289190E-01 -0.10265309183E-01 -0.80192060031E-02  0.10182583099E+01  0.10179346492E+01 0.  0.
     999903    2    3    3    0    0 -0.67927000647E-01  0.54011846866E-02 -0.10652235607E+00  0.12805776838E+00  0.20212112396E-01 0.  0.
         14    1    1    2    0    0 -0.22121289190E-01  0.10265309183E-01  0.80192060031E-02  0.25671690108E-01  0.00000000000E+00 0. -1.
     999901    1    3    3    0    0  0.90048289837E-01 -0.15666493869E-01  0.98503150066E-01  0.89020054151E+00  0.88000000000E+00 0.  1.
        -11    1    4    4    0    0 -0.43652737729E-01 -0.14388084120E-02 -0.81835937024E-01  0.92763211406E-01  0.51100000000E-03 0.  1.
         11    1    4    4    0    0 -0.24274262918E-01  0.68399930986E-02 -0.24686419046E-01  0.35294556976E-01  0.51100000000E-03 0. -1.
</event>
<event>
 8    1  0.1123191E+005  0.1043930E+01  0.7957747E-01            NaN
         13   -1    0    0    0    0  0.00000000000E+00  0.00000000000E+00  0.74505805969E-08  0.10566000000E+00  0.10566000000E+00 0. -1.
     999900   -1    0    0    0    0 -0.00000000000E+00 -0.00000000000E+00 -0.74505805969E-08  0.93827000000E+00  0.93827000000E+00 0.  1.
     999902    2    1    2    0    0  0.34050761109E-02 -0.54386723871E-02  0.23579139084E-01  0.10194933574E+01  0.10192004495E+01 0.  0.
     999903    2    3    3    0    0 -0.87842273597E-01  0.92324462741E-01 -0.45791438991E-03  0.12906565718E+00  0.20436798332E-01 0.  0.
         14    1    1    2    0    0 -0.34050761109E-02  0.54386723871E-02 -0.23579139084E-01  0.24436642580E-01  0.00000000000E+00 0.  1.
     999901    1    3    3    0    0  0.91247349708E-01 -0.97763135128E-01  0.24037053473E-01  0.89042770024E+00  0.88000000000E+00 0. -1.
        -11    1    4    4    0    0 -0.48337651936E-01  0.36144859634E-01  0.10529546603E-02  0.60368446288E-01  0.51100000000E-03 0. -1.
         11    1    4    4    0    0 -0.39504621661E-01  0.56179603107E-01 -0.15108690502E-02  0.68697210890E-01  0.51100000000E-03 0.  1.
</event>
<event>
 8    1  0.1123191E+005  0.1043930E+01  0.7957747E-01            NaN
         13   -1    0    0    0    0  0.00000000000E+00  0.00000000000E+00  0.74505805969E-08  0.10566000000E+00  0.10566000000E+00 0. -1.
     999900   -1    0    0    0    0 -0.00000000000E+00 -0.00000000000E+00 -0.74505805969E-08  0.93827000000E+00  0.93827000000E+00 0. -1.
     999902    2    1    2    0    0  0.15870619835E-01 -0.17748190124E-01  0.39442800907E-02  0.10197963684E+01  0.10195107655E+01 0.  0.
     999903    2    3    3    0    0  0.95055831057E-02 -0.12841997773E+00 -0.24053575513E-01  0.13239981775E+00  0.19211727031E-01 0.  0.
         14    1    1    2    0    0 -0.15870619835E-01  0.17748190124E-01 -0.39442800907E-02  0.24133631556E-01  0.00000000000E+00 0. -1.
     999901    1    3    3    0    0  0.63650367298E-02  0.11067178760E+00  0.27997855604E-01  0.88739655069E+00  0.88000000000E+00 0.  1.
        -11    1    4    4    0    0  0.42690810486E-03 -0.75654727366E-01 -0.60005406470E-02  0.75895241171E-01  0.51100000000E-03 0. -1.
         11    1    4    4    0    0  0.90786750008E-02 -0.52765250363E-01 -0.18053034866E-01  0.56504576580E-01  0.51100000000E-03 0.  1.
</event>
<event>
 8    1  0.1123191E+005  0.1043930E+01  0.7957747E-01            NaN
         13   -1    0    0    0    0  0.00000000000E+00  0.00000000000E+00  0.74505805969E-08  0.10566000000E+00  0.10566000000E+00 0. -1.
     999900   -1    0    0    0    0 -0.00000000000E+00 -0.00000000000E+00 -0.74505805969E-08  0.93827000000E+00  0.93827000000E+00 0. -1.
     999902    2    1    2    0    0  0.14563875453E-01  0.73643350320E-02 -0.17308211226E-01  0.10201410514E+01  0.10198636432E+01 0.  0.
     999903    2    3    3    0    0 -0.86805209465E-01  0.65503931560E-01 -0.69923269137E-01  0.13085805463E+00  0.20215277751E-01 0.  0.
         14    1    1    2    0    0 -0.14563875453E-01 -0.73643350320E-02  0.17308211226E-01  0.23788948580E-01  0.00000000000E+00 0. -1.
     999901    1    3    3    0    0  0.10136908492E+00 -0.58139596528E-01  0.52615057911E-01  0.88928299679E+00  0.88000000000E+00 0.  1.
        -11    1    4    4    0    0 -0.49460503175E-01  0.27605482016E-01 -0.28407041548E-01  0.63368960400E-01  0.51100000000E-03 0. -1.
         11    1    4    4    0    0 -0.37344706290E-01  0.37898449544E-01 -0.41516227589E-01  0.67489094230E-01  0.51100000000E-03 0.  1.
</event>
<event>
 8    1  0.1123191E+005  0.1043930E+01  0.7957747E-01            NaN
         13   -1    0    0    0    0  0.00000000000E+00  0.00000000000E+00  0.74505805969E-08  0.10566000000E+00  0.10566000000E+00 0.  1.
     999900   -1    0    0    0    0 -0.00000000000E+00 -0.00000000000E+00 -0.74505805969E-08  0.93827000000E+00  0.93827000000E+00 0.  1.
     999902    2    1    2    0    0 -0.10185574071E-01 -0.12203335616E-01  0.30451661352E-01  0.10095792941E+01  0.10089947374E+01 0.  0.
     999903    2    3    3    0    0 -0.87332754342E-01 -0.26136469740E-01 -0.75190541507E-01  0.11980061671E+00  0.19709013166E-01 0.  0.
         14    1    1    2    0    0  0.10185574071E-01  0.12203335616E-01 -0.30451661352E-01  0.34350705937E-01  0.00000000000E+00 0. -1.
     999901    1    3    3    0    0  0.77147180271E-01  0.13933134125E-01  0.10564220286E+00  0.88977867735E+00  0.88000000000E+00 0. -1.
        -11    1    4    4    0    0 -0.39558655361E-01 -0.14565799996E-01 -0.22682288366E-01  0.47872717387E-01  0.51100000000E-03 0.  1.
         11    1    4    4    0    0 -0.47774098981E-01 -0.11570669744E-01 -0.52508253141E-01  0.71927899321E-01  0.51100000000E-03 0. -1.
</event>
<event>
 8    1  0.1123191E+005  0.1043930E+01  0.7957747E-01            NaN
         13   -1    0    0    0    0  0.00000000000E+00  0.00000000000E+00  0.74505805969E-08  0.10566000000E+00  0.10566000000E+00 0.  1.
     999900   -1    0    0    0    0 -0.00000000000E+00 -0.00000000000E+00 -0.74505805969E-08  0.93827000000E+00  0.93827000000E+00 0.  1.
     999902    2    1    2    0    0 -0.23181859108E-01  0.53412730697E-02  0.14081121638E-02  0.10200991257E+01  0.10198207272E+01 0.  0.
     999903    2    3    3    0    0  0.23740919043E-01  0.10139932017E+00 -0.76013649796E-01  0.13025474339E+00  0.18514044725E-01 0.  0.
         14    1    1    2    0    0  0.23181859108E-01 -0.53412730697E-02 -0.14081121638E-02  0.23830874293E-01  0.00000000000E+00 0.  1.
     999901    1    3    3    0    0 -0.46922778151E-01 -0.96058047098E-01  0.77421761960E-01  0.88984438232E+00  0.88000000000E+00 0. -1.
        -11    1    4    4    0    0  0.10444541458E-01  0.45314525938E-01 -0.45383819076E-01  0.64980357511E-01  0.51100000000E-03 0.  1.
         11    1    4    4    0    0  0.13296377585E-01  0.56084794229E-01 -0.30629830720E-01  0.65274385876E-01  0.51100000000E-03 0. -1.
</event>
<event>
 8    1  0.1123191E+005  0.1043930E+01  0.7957747E-01            NaN
         13   -1    0    0    0    0  0.00000000000E+00  0.00000000000E+00  0.74505805969E-08  0.10566000000E+00  0.10566000000E+00 0.  1.
     999900   -1    0    0    0    0 -0.00000000000E+00 -0.00000000000E+00 -0.74505805969E-08  0.93827000000E+00  0.93827000000E+00 0.  1.
     999902    2    1    2    0    0 -0.11742724402E-01  0.49907579453E-02  0.22086434127E-01  0.10184229458E+01  0.10181034755E+01 0.  0.
     999903    2    3    3    0    0 -0.85525917580E-01  0.84415429653E-01 -0.44296376205E-01  0.12928914509E+00  0.17688039779E-01 0.  0.
         14    1    1    2    0    0  0.11742724402E-01 -0.49907579453E-02 -0.22086434127E-01  0.25507054195E-01  0.00000000000E+00 0. -1.
     999901    1    3    3    0    0  0.73783193178E-01 -0.79424671708E-01  0.66382810331E-01  0.88913380072E+00  0.88000000000E+00 0.  1.
        -11    1    4    4    0    0 -0.59750233996E-01  0.51485466317E-01 -0.35776756343E-01  0.86608782002E-01  0.51100000000E-03 0.  1.
         11    1    4    4    0    0 -0.25775683584E-01  0.32929963336E-01 -0.85196198617E-02  0.42680363086E-01  0.51100000000E-03 0. -1.
</event>
<event>
 8    1  0.1123191E+005  0.1043930E+01  0.7957747E-01            NaN
         13   -1    0    0    0    0  0.00000000000E+00  0.00000000000E+00  0.74505805969E-08  0.10566000000E+00  0.10566000000E+00 0.  1.
     999900   -1    0    0    0    0 -0.00000000000E+00 -0.00000000000E+00 -0.74505805969E-08  0.93827000000E+00  0.93827000000E+00 0. -1.
     999902    2    1    2    0    0  0.11455191845E-01  0.13835236084E-01 -0.14249893439E-01  0.10210019682E+01  0.10207444952E+01 0.  0.
     999903    2    3    3    0    0  0.43580499532E-01  0.12227749999E+00 -0.24551455160E-01  0.13370388857E+00  0.20564749599E-01 0.  0.
         14    1    1    2    0    0 -0.11455191845E-01 -0.13835236084E-01  0.14249893439E-01  0.22928031767E-01  0.00000000000E+00 0.  1.
     999901    1    3    3    0    0 -0.32125307688E-01 -0.10844226390E+00  0.10301561721E-01  0.88729807966E+00  0.88000000000E+00 0.  1.
        -11    1    4    4    0    0  0.41638297514E-01  0.92505537145E-01 -0.16325394591E-01  0.10275116472E+00  0.51100000000E-03 0.  1.
         11    1    4    4    0    0  0.19422020179E-02  0.29771962844E-01 -0.82260605688E-02  0.30952723850E-01  0.51100000000E-03 0. -1.
</event>
<event>
 8    1  0.1123191E+005  0.1043930E+01  0.7957747E-01            NaN
         13   -1    0    0    0    0  0.00000000000E+00  0.00000000000E+00  0.74505805969E-08  0.10566000000E+00  0.10566000000E+00 0.  1.
     999900   -1    0    0    0    0 -0.00000000000E+00 -0.00000000000E+00 -0.74505805969E-08  0.93827000000E+00  0.93827000000E+00 0. -1.
     999902    2    1    2    0    0  0.94060877472E-02  0.20820576972E-01  0.51206383940E-02  0.10205165028E+01  0.10202478820E+01 0.  0.
     999903    2    3    3    0    0  0.32340349330E-01 -0.10165958078E+00  0.70212440606E-01  0.12935753154E+00  0.20567342830E-01 0.  0.
         14    1    1    2    0    0 -0.94060877472E-02 -0.20820576972E-01 -0.51206383940E-02  0.23413497170E-01  0.00000000000E+00 0. -1.
     999901    1    3    3    0    0 -0.22934261583E-01  0.12248015775E+00 -0.65091802212E-01  0.89115897129E+00  0.88000000000E+00 0. -1.
        -11    1    4    4    0    0  0.32996878052E-01 -0.77587664601E-01  0.50920416678E-01  0.98497662993E-01  0.51100000000E-03 0. -1.
         11    1    4    4    0    0 -0.65652872211E-03 -0.24071916178E-01  0.19292023928E-01  0.30859868547E-01  0.51100000000E-03 0.  1.
</event>
<event>
 8    1  0.1123191E+005  0.1043930E+01  0.7957747E-01            NaN
         13   -1    0    0    0    0  0.00000000000E+00  0.00000000000E+00  0.74505805969E-08  0.10566000000E+00  0.10566000000E+00 0. -1.
     999900   -1    0    0    0    0 -0.00000000000E+00 -0.00000000000E+00 -0.74505805969E-08  0.93827000000E+00  0.93827000000E+00 0. -1.
     999902    2    1    2    0    0 -0.15276298994E-01 -0.17226981673E-02 -0.16018967839E-01  0.10217277404E+01  0.10214864831E+01 0.  0.
     999903    2    3    3    0    0  0.10654951938E+00 -0.50177181022E-01 -0.54595231026E-01  0.13117875523E+00  0.18885894177E-01 0.  0.
         14    1    1    2    0    0  0.15276298994E-01  0.17226981673E-02  0.16018967839E-01  0.22202259582E-01  0.00000000000E+00 0. -1.
     999901    1    3    3    0    0 -0.12182581837E+00  0.48454482854E-01  0.38576263186E-01  0.89054898518E+00  0.88000000000E+00 0.  1.
        -11    1    4    4    0    0  0.68990777547E-01 -0.42170584297E-01 -0.37875795801E-01  0.89291223506E-01  0.51100000000E-03 0.  1.
         11    1    4    4    0    0  0.37558741831E-01 -0.80065967242E-02 -0.16719435225E-01  0.41887531728E-01  0.51100000000E-03 0. -1.
</event>
<event>
 8    1  0.1123191E+005  0.1043930E+01  0.7957747E-01            NaN
         13   -1    0    0    0    0  0.00000000000E+00  0.00000000000E+00  0.74505805969E-08  0.10566000000E+00  0.10566000000E+00 0. -1.
     999900   -1    0    0    0    0 -0.00000000000E+00 -0.00000000000E+00 -0.74505805969E-08  0.93827000000E+00  0.93827000000E+00 0.  1.
     999902    2    1    2    0    0  0.13579874430E-01 -0.17411260502E-01  0.78663384713E-02  0.10204897726E+01  0.10202205309E+01 0.  0.
     999903    2    3    3    0    0 -0.72564274358E-01 -0.10005001473E+00 -0.37709066562E-01  0.13126140165E+00  0.23065179454E-01 0.  0.
         14    1    1    2    0    0 -0.13579874430E-01  0.17411260502E-01 -0.78663384713E-02  0.23440227447E-01  0.00000000000E+00 0.  1.
     999901    1    3    3    0    0  0.86144148788E-01  0.82638754223E-01  0.45575405034E-01  0.88922837090E+00  0.88000000000E+00 0.  1.
        -11    1    4    4    0    0 -0.27784029868E-01 -0.39464626429E-01 -0.26587141425E-01  0.55104866074E-01  0.51100000000E-03 0. -1.
         11    1    4    4    0    0 -0.44780244490E-01 -0.60585388297E-01 -0.11121925137E-01  0.76156535579E-01  0.51100000000E-03 0.  1.
</event>
<event>
 8    1  0.1123191E+005  0.1043930E+01  0.7957747E-01            NaN
         13   -1    0    0    0    0  0.00000000000E+00  0.00000000000E+00  0.74505805969E-08  0.10566000000E+00  0.10566000000E+00 0. -1.
     999900   -1    0    0    0    0 -0.00000000000E+00 -0.00000000000E+00 -0.74505805969E-08  0.93827000000E+00  0.93827000000E+00 0. -1.
     999902    2    1    2    0    0  0.22082978727E-01  0.10323684587E-01  0.78392558948E-02  0.10183235487E+01  0.10180015519E+01 0.  0.
     999903    2    3    3    0    0 -0.93176712850E-01  0.24009618349E-01 -0.78993227875E-01  0.12646482589E+00  0.22249956125E-01 0.  0.
         14    1    1    2    0    0 -0.22082978727E-01 -0.10323684587E-01 -0.78392558948E-02  0.25606451256E-01  0.00000000000E+00 0. -1.
     999901    1    3    3    0    0  0.11525969158E+00 -0.13685933763E-01  0.86832483770E-01  0.89185872285E+00  0.88000000000E+00 0.  1.
        -11    1    4    4    0    0 -0.82632175544E-01  0.20079352966E-01 -0.58949505525E-01  0.10347251893E+00  0.51100000000E-03 0. -1.
         11    1    4    4    0    0 -0.10544537306E-01  0.39302653828E-02 -0.20043722350E-01  0.22992306966E-01  0.51100000000E-03 0.  1.
</event>
<event>
 8    1  0.1123191E+005  0.1043930E+01  0.7957747E-01            NaN
         13   -1    0    0    0    0  0.00000000000E+00  0.00000000000E+00  0.74505805969E-08  0.10566000000E+00  0.10566000000E+00 0.  1.
     999900   -1    0    0    0    0 -0.00000000000E+00 -0.00000000000E+00 -0.74505805969E-08  0.93827000000E+00  0.93827000000E+00 0.  1.
     999902    2    1    2    0    0 -0.88188847455E-02  0.17417048922E-01  0.13361007334E-01  0.10202732285E+01  0.10199989304E+01 0.  0.
     999903    2    3    3    0    0 -0.12598025604E+00  0.16577965191E-01  0.31101547828E-01  0.13233054016E+00  0.19955243378E-01 0.  0.
         14    1    1    2    0    0  0.88188847455E-02 -0.17417048922E-01 -0.13361007334E-01  0.23656771511E-01  0.00000000000E+00 0. -1.
     999901    1    3    3    0    0  0.11716137130E+00  0.83908373122E-03 -0.17740540494E-01  0.88794268833E+00  0.88000000000E+00 0.  1.
        -11    1    4    4    0    0 -0.28330800277E-01 -0.45578603308E-02  0.61852058128E-02  0.29358580127E-01  0.51100000000E-03 0. -1.
         11    1    4    4    0    0 -0.97649455766E-01  0.21135825522E-01  0.24916342015E-01  0.10297196003E+00  0.51100000000E-03 0.  1.
</event>
<event>
 8    1  0.1123191E+005  0.1043930E+01  0.7957747E-01            NaN
         13   -1    0    0    0    0  0.00000000000E+00  0.00000000000E+00  0.74505805969E-08  0.10566000000E+00  0.10566000000E+00 0.  1.
     999900   -1    0    0    0    0 -0.00000000000E+00 -0.00000000000E+00 -0.74505805969E-08  0.93827000000E+00  0.93827000000E+00 0.  1.
     999902    2    1    2    0    0  0.20574026517E-01  0.18307371408E-01 -0.54291342655E-03  0.10163846706E+01  0.10160113452E+01 0.  0.
     999903    2    3    3    0    0  0.53608033700E-02 -0.97489568940E-01 -0.74654540663E-01  0.12558003052E+00  0.25769931303E-01 0.  0.
         14    1    1    2    0    0 -0.20574026517E-01 -0.18307371408E-01  0.54291342655E-03  0.27545329367E-01  0.00000000000E+00 0. -1.
     999901    1    3    3    0    0  0.15213223147E-01  0.11579694035E+00  0.74111627236E-01  0.89080464011E+00  0.88000000000E+00 0.  1.
        -11    1    4    4    0    0  0.31764604685E-02 -0.78302284710E-01 -0.45539530741E-01  0.90639106753E-01  0.51100000000E-03 0. -1.
         11    1    4    4    0    0  0.21843429015E-02 -0.19187284230E-01 -0.29115009922E-01  0.34940923768E-01  0.51100000000E-03 0.  1.
</event>
<event>
 8    1  0.1123191E+005  0.1043930E+01  0.7957747E-01            NaN
         13   -1    0    0    0    0  0.00000000000E+00  0.00000000000E+00  0.74505805969E-08  0.10566000000E+00  0.10566000000E+00 0. -1.
     999900   -1    0    0    0    0 -0.00000000000E+00 -0.00000000000E+00 -0.74505805969E-08  0.93827000000E+00  0.93827000000E+00 0. -1.
     999902    2    1    2    0    0 -0.12658278740E-01 -0.19901251679E-01 -0.23103635563E-02  0.10202312739E+01  0.10199559905E+01 0.  0.
     999903    2    3    3    0    0  0.78845319436E-01 -0.10283413346E+00  0.10344007698E-01  0.13151821308E+00  0.19964931151E-01 0.  0.
         14    1    1    2    0    0  0.12658278740E-01  0.19901251679E-01  0.23103635563E-02  0.23698726101E-01  0.00000000000E+00 0. -1.
     999901    1    3    3    0    0 -0.91503598175E-01  0.82932881778E-01 -0.12654371254E-01  0.88871306082E+00  0.88000000000E+00 0. -1.
        -11    1    4    4    0    0  0.73401136431E-01 -0.98098968915E-01  0.14165884370E-01  0.12333721228E+00  0.51100000000E-03 0. -1.
         11    1    4    4    0    0  0.54441830046E-02 -0.47351645412E-02 -0.38218766723E-02  0.81810008017E-02  0.51100000000E-03 0.  1.
</event>
<event>
 8    1  0.1123191E+005  0.1043930E+01  0.7957747E-01            NaN
         13   -1    0    0    0    0  0.00000000000E+00  0.00000000000E+00  0.74505805969E-08  0.10566000000E+00  0.10566000000E+00 0. -1.
     999900   -1    0    0    0    0 -0.00000000000E+00 -0.00000000000E+00 -0.74505805969E-08  0.93827000000E+00  0.93827000000E+00 0.  1.
     999902    2    1    2    0    0 -0.73624849741E-02 -0.85741591319E-02  0.20310097941E-01  0.10206873137E+01  0.10204226427E+01 0.  0.
     999903    2    3    3    0    0  0.36271029690E-01  0.98718616961E-01  0.76649917205E-01  0.13131124099E+00  0.17506549462E-01 0.  0.
         14    1    1    2    0    0  0.73624849741E-02  0.85741591319E-02 -0.20310097941E-01  0.23242686337E-01  0.00000000000E+00 0. -1.
     999901    1    3    3    0    0 -0.43633514664E-01 -0.10729277609E+00 -0.56339819264E-01  0.88937607267E+00  0.88000000000E+00 0. -1.
        -11    1    4    4    0    0  0.39988024125E-02  0.49077151729E-02  0.74221592145E-03  0.63943799095E-02  0.51100000000E-03 0.  1.
         11    1    4    4    0    0  0.32272227277E-01  0.93810901788E-01  0.75907701283E-01  0.12491686108E+00  0.51100000000E-03 0. -1.
</event>
<event>
 8    1  0.1123191E+005  0.1043930E+01  0.7957747E-01            NaN
         13   -1    0    0    0    0  0.00000000000E+00  0.00000000000E+00  0.74505805969E-08  0.10566000000E+00  0.10566000000E+00 0.  1.
     999900   -1    0    0    0    0 -0.00000000000E+00 -0.00000000000E+00 -0.74505805969E-08  0.93827000000E+00  0.93827000000E+00 0. -1.
     999902    2    1    2    0    0  0.12356293531E-01  0.16911410664E-01 -0.10757110926E-01  0.10203845283E+01  0.10201128351E+01 0.  0.
     999903    2    3    3    0    0  0.99567518573E-01 -0.43041311658E-01  0.69494363320E-01  0.13041799761E+00  0.20325902290E-01 0.  0.
         14    1    1    2    0    0 -0.12356293531E-01 -0.16911410664E-01  0.10757110926E-01  0.23545471666E-01  0.00000000000E+00 0.  1.
     999901    1    3    3    0    0 -0.87211225042E-01  0.59952722322E-01 -0.80251474246E-01  0.88996653072E+00  0.88000000000E+00 0.  1.
        -11    1    4    4    0    0  0.66260160102E-01 -0.36798563697E-01  0.41200066540E-01  0.86268474605E-01  0.51100000000E-03 0.  1.
         11    1    4    4    0    0  0.33307358471E-01 -0.62427479609E-02  0.28294296780E-01  0.44149523007E-01  0.51100000000E-03 0. -1.
</event>
<event>
 8    1  0.1123191E+005  0.1043930E+01  0.7957747E-01            NaN
         13   -1    0    0    0    0  0.00000000000E+00  0.00000000000E+00  0.74505805969E-08  0.10566000000E+00  0.10566000000E+00 0. -1.
     999900   -1    0    0    0    0 -0.00000000000E+00 -0.00000000000E+00 -0.74505805969E-08  0.93827000000E+00  0.93827000000E+00 0. -1.
     999902    2    1    2    0    0  0.16831471119E-01 -0.16817809828E-01 -0.17548761747E-02  0.10200717365E+01  0.10197926901E+01 0.  0.
     999903    2    3    3    0    0  0.28650241746E-01  0.36497582168E-01  0.11981885139E+00  0.13003668909E+00  0.20001837505E-01 0.  0.
         14    1    1    2    0    0 -0.16831471119E-01  0.16817809828E-01  0.17548761747E-02  0.23858263512E-01  0.00000000000E+00 0.  1.
     999901    1    3    3    0    0 -0.11818770628E-01 -0.53315391996E-01 -0.12157372757E+00  0.89003504740E+00  0.88000000000E+00 0. -1.
        -11    1    4    4    0    0  0.28482671918E-01  0.38286790364E-01  0.10803604330E+00  0.11810668351E+00  0.51100000000E-03 0.  1.
         11    1    4    4    0    0  0.16756982796E-03 -0.17892081961E-02  0.11782808092E-01  0.11930005581E-01  0.51100000000E-03 0. -1.
</event>
<event>
 8    1  0.1123191E+005  0.1043930E+01  0.7957747E-01            NaN
         13   -1    0    0    0    0  0.00000000000E+00  0.00000000000E+00  0.74505805969E-08  0.10566000000E+00  0.10566000000E+00 0.  1.
     999900   -1    0    0    0    0 -0.00000000000E+00 -0.00000000000E+00 -0.74505805969E-08  0.93827000000E+00  0.93827000000E+00 0.  1.
     999902    2    1    2    0    0 -0.47018439743E-03 -0.58595105659E-02  0.22581858475E-01  0.10205955776E+01  0.10203287890E+01 0.  0.
     999903    2    3    3    0    0 -0.42856522393E-01  0.11613805196E+00  0.38091626577E-01  0.13103357310E+00  0.19851867400E-01 0.  0.
         14    1    1    2    0    0  0.47018439743E-03  0.58595105659E-02 -0.22581858475E-01  0.23334422419E-01  0.00000000000E+00 0. -1.
     999901    1    3    3    0    0  0.42386337995E-01 -0.12199756253E+00 -0.15509768101E-01  0.88956200448E+00  0.88000000000E+00 0.  1.
        -11    1    4    4    0    0 -0.26518585168E-01  0.63914340482E-01  0.11339112166E-01  0.70122142468E-01  0.51100000000E-03 0. -1.
         11    1    4    4    0    0 -0.16337937225E-01  0.52223711478E-01  0.26752514410E-01  0.60911430631E-01  0.51100000000E-03 0.  1.
</event>
<event>
 8    1  0.1123191E+005  0.1043930E+01  0.7957747E-01            NaN
         13   -1    0    0    0    0  0.00000000000E+00  0.00000000000E+00  0.74505805969E-08  0.10566000000E+00  0.10566000000E+00 0.  1.
     999900   -1    0    0    0    0 -0.00000000000E+00 -0.00000000000E+00 -0.74505805969E-08  0.93827000000E+00  0.93827000000E+00 0. -1.
     999902    2    1    2    0    0 -0.42745276694E-02  0.14560479570E-01  0.69100833240E-02  0.10272558163E+01  0.10271204816E+01 0.  0.
     999903    2    3    3    0    0 -0.22495381241E-01 -0.44365227886E-01 -0.12420224417E+00  0.13540679264E+00  0.20844337661E-01 0.  0.
         14    1    1    2    0    0  0.42745276694E-02 -0.14560479570E-01 -0.69100833240E-02  0.16674183748E-01  0.00000000000E+00 0. -1.
     999901    1    3    3    0    0  0.18220853571E-01  0.58925707456E-01  0.13111232749E+00  0.89184902362E+00  0.88000000000E+00 0.  1.
        -11    1    4    4    0    0 -0.46058969571E-02 -0.31107183659E-01 -0.78512135529E-01  0.84577111019E-01  0.51100000000E-03 0. -1.
         11    1    4    4    0    0 -0.17889484284E-01 -0.13258044226E-01 -0.45690108641E-01  0.50829681617E-01  0.51100000000E-03 0.  1.
</event>
<event>
 8    1  0.1123191E+005  0.1043930E+01  0.7957747E-01            NaN
         13   -1    0    0    0    0  0.00000000000E+00  0.00000000000E+00  0.74505805969E-08  0.10566000000E+00  0.10566000000E+00 0. -1.
     999900   -1    0    0    0    0 -0.00000000000E+00 -0.00000000000E+00 -0.74505805969E-08  0.93827000000E+00  0.93827000000E+00 0. -1.
     999902    2    1    2    0    0  0.14043909642E-01 -0.48909386262E-02 -0.15404669123E-01  0.10225184025E+01  0.10222941978E+01 0.  0.
     999903    2    3    3    0    0 -0.34067586009E-01  0.96670421466E-01  0.78187326213E-01  0.13044840101E+00  0.19943834734E-01 0.  0.
         14    1    1    2    0    0 -0.14043909642E-01  0.48909386262E-02  0.15404669123E-01  0.21411597546E-01  0.00000000000E+00 0. -1.
     999901    1    3    3    0    0  0.48111495652E-01 -0.10156136009E+00 -0.93591995336E-01  0.89207000144E+00  0.88000000000E+00 0. -1.
        -11    1    4    4    0    0 -0.41550497923E-02  0.23372493834E-01  0.28001556401E-01  0.36713569544E-01  0.51100000000E-03 0.  1.
         11    1    4    4    0    0 -0.29912536217E-01  0.73297927632E-01  0.50185769812E-01  0.93734831470E-01  0.51100000000E-03 0. -1.
</event>
<event>
 8    1  0.1123191E+005  0.1043930E+01  0.7957747E-01            NaN
         13   -1    0    0    0    0  0.00000000000E+00  0.00000000000E+00  0.74505805969E-08  0.10566000000E+00  0.10566000000E+00 0.  1.
     999900   -1    0    0    0    0 -0.00000000000E+00 -0.00000000000E+00 -0.74505805969E-08  0.93827000000E+00  0.93827000000E+00 0. -1.
     999902    2    1    2    0    0  0.10814612356E-01  0.26389141479E-02 -0.19485193673E-01  0.10214891337E+01  0.10212426048E+01 0.  0.
     999903    2    3    3    0    0 -0.87277291861E-01 -0.80541044149E-03 -0.97668593848E-01  0.13258726672E+00  0.20548837208E-01 0.  0.
         14    1    1    2    0    0 -0.10814612356E-01 -0.26389141479E-02  0.19485193673E-01  0.22440866311E-01  0.00000000000E+00 0.  1.
     999901    1    3    3    0    0  0.98091904217E-01  0.34443245894E-02  0.78183400175E-01  0.88890186697E+00  0.88000000000E+00 0.  1.
        -11    1    4    4    0    0 -0.41510004061E-02  0.47805095848E-02 -0.69922386651E-02  0.94465125211E-02  0.51100000000E-03 0. -1.
         11    1    4    4    0    0 -0.83126291455E-01 -0.55859200263E-02 -0.90676355183E-01  0.12314075420E+00  0.51100000000E-03 0.  1.
</event>
<event>
 8    1  0.1123191E+005  0.1043930E+01  0.7957747E-01            NaN
         13   -1    0    0    0    0  0.00000000000E+00  0.00000000000E+00  0.74505805969E-08  0.10566000000E+00  0.10566000000E+00 0. -1.
     999900   -1    0    0    0    0 -0.00000000000E+00 -0.00000000000E+00 -0.74505805969E-08  0.93827000000E+00  0.93827000000E+00 0.  1.
     999902    2    1    2    0    0 -0.20982994351E-01  0.88817852050E-02  0.13695534811E-01  0.10173454211E+01  0.10169980167E+01 0.  0.
     999903    2    3    3    0    0 -0.53663422989E-02  0.12758557145E+00 -0.18943226180E-02  0.12910135987E+00  0.18886423485E-01 0.  0.
         14    1    1    2    0    0  0.20982994351E-01 -0.88817852050E-02 -0.13695534811E-01  0.26584578878E-01  0.00000000000E+00 0.  1.
     999901    1    3    3    0    0 -0.15616652052E-01 -0.11870378624E+00  0.15589857429E-01  0.88824406125E+00  0.88000000000E+00 0.  1.
        -11    1    4    4    0    0 -0.82784877856E-02  0.74641544651E-01  0.66340407507E-02  0.75393402666E-01  0.51100000000E-03 0.  1.
         11    1    4    4    0    0  0.29121454867E-02  0.52944026796E-01 -0.85283633687E-02  0.53707957208E-01  0.51100000000E-03 0. -1.
</event>
<event>
 8    1  0.1123191E+005  0.1043930E+01  0.7957747E-01            NaN
         13   -1    0    0    0    0  0.00000000000E+00  0.00000000000E+00  0.74505805969E-08  0.10566000000E+00  0.10566000000E+00 0. -1.
     999900   -1    0    0    0    0 -0.00000000000E+00 -0.00000000000E+00 -0.74505805969E-08  0.93827000000E+00  0.93827000000E+00 0.  1.
     999902    2    1    2    0    0 -0.52874322420E-02  0.22156275800E-01 -0.75072243346E-02  0.10199463407E+01  0.10196643183E+01 0.  0.
     999903    2    3    3    0    0 -0.11377935947E+00  0.58192954443E-01 -0.27531373652E-01  0.13232586602E+00  0.20493796525E-01 0.  0.
         14    1    1    2    0    0  0.52874322420E-02 -0.22156275800E-01  0.75072243346E-02  0.23983659317E-01  0.00000000000E+00 0. -1.
     999901    1    3    3    0    0  0.10849192722E+00 -0.36036678642E-01  0.20024149318E-01  0.88762047466E+00  0.88000000000E+00 0.  1.
        -11    1    4    4    0    0 -0.78623233076E-01  0.30707993614E-01 -0.13077971716E-01  0.85415971085E-01  0.51100000000E-03 0. -1.
         11    1    4    4    0    0 -0.35156126390E-01  0.27484960828E-01 -0.14453401937E-01  0.46909894937E-01  0.51100000000E-03 0.  1.
</event>
<event>
 8    1  0.1123191E+005  0.1043930E+01  0.7957747E-01            NaN
         13   -1    0    0    0    0  0.00000000000E+00  0.00000000000E+00  0.74505805969E-08  0.10566000000E+00  0.10566000000E+00 0. -1.
     999900   -1    0    0    0    0 -0.00000000000E+00 -0.00000000000E+00 -0.74505805969E-08  0.93827000000E+00  0.93827000000E+00 0.  1.
     999902    2    1    2    0    0 -0.57993314198E-02  0.12840412470E-01  0.18896050168E-01  0.10203594856E+01  0.10200872074E+01 0.  0.
     999903    2    3    3    0    0 -0.31825929824E-01 -0.63174074263E-01  0.10967058797E+00  0.13204895277E+00  0.20135406494E-01 0.  0.
         14    1    1    2    0    0  0.57993314198E-02 -0.12840412470E-01 -0.18896050168E-01  0.23570514404E-01  0.00000000000E+00 0.  1.
     999901    1    3    3    0    0  0.26026598404E-01  0.76014486733E-01 -0.90774537797E-01  0.88831053283E+00  0.88000000000E+00 0.  1.
        -11    1    4    4    0    0 -0.27659479047E-01 -0.36266072329E-01  0.77216532611E-01  0.89682377381E-01  0.51100000000E-03 0.  1.
         11    1    4    4    0    0 -0.41664507765E-02 -0.26908001934E-01  0.32454055355E-01  0.42366575388E-01  0.51100000000E-03 0. -1.
</event>
<event>
 8    1  0.1123191E+005  0.1043930E+01  0.7957747E-01            NaN
         13   -1    0    0    0    0  0.00000000000E+00  0.00000000000E+00  0.74505805969E-08  0.10566000000E+00  0.10566000000E+00 0. -1.
     999900   -1    0    0    0    0 -0.00000000000E+00 -0.00000000000E+00 -0.74505805969E-08  0.93827000000E+00  0.93827000000E+00 0. -1.
     999902    2    1    2    0    0 -0.11281619060E-01 -0.18170073432E-01 -0.78668711865E-02  0.10211415345E+01  0.10208872217E+01 0.  0.
     999903    2    3    3    0    0 -0.16560022789E-02 -0.45735377133E-01  0.12139279205E+00  0.13121987559E+00  0.19697175535E-01 0.  0.
         14    1    1    2    0    0  0.11281619060E-01  0.18170073432E-01  0.78668711865E-02  0.22788465490E-01  0.00000000000E+00 0.  1.
     999901    1    3    3    0    0 -0.96256167816E-02  0.27565303701E-01 -0.12925966324E+00  0.88992165892E+00  0.88000000000E+00 0. -1.
        -11    1    4    4    0    0  0.85951251340E-02 -0.14231860197E-01  0.37658700467E-01  0.41168687890E-01  0.51100000000E-03 0.  1.
         11    1    4    4    0    0 -0.10251127413E-01 -0.31503516936E-01  0.83734091584E-01  0.90051187704E-01  0.51100000000E-03 0. -1.
</event>
<event>
 8    1  0.1123191E+005  0.1043930E+01  0.7957747E-01            NaN
         13   -1    0    0    0    0  0.00000000000E+00  0.00000000000E+00  0.74505805969E-08  0.10566000000E+00  0.10566000000E+00 0. -1.
     999900   -1    0    0    0    0 -0.00000000000E+00 -0.00000000000E+00 -0.74505805969E-08  0.93827000000E+00  0.93827000000E+00 0. -1.
     999902    2    1    2    0    0  0.28653004724E-02  0.19489821545E-02  0.23692859611E-01  0.10199850616E+01  0.10197039599E+01 0.  0.
     999903    2    3    3    0    0  0.29623271589E-01  0.95331955730E-01  0.84749590971E-01  0.13253686976E+00  0.20440368678E-01 0.  0.
         14    1    1    2    0    0 -0.28653004724E-02 -0.19489821545E-02 -0.23692859611E-01  0.23944938396E-01  0.00000000000E+00 0.  1.
     999901    1    3    3    0    0 -0.26757971116E-01 -0.93382973576E-01 -0.61056731360E-01  0.88744819185E+00  0.88000000000E+00 0.  1.
        -11    1    4    4    0    0  0.50782845952E-02  0.40008905352E-01  0.24803669158E-01  0.47349599857E-01  0.51100000000E-03 0.  1.
         11    1    4    4    0    0  0.24544986994E-01  0.55323050378E-01  0.59945921813E-01  0.85187269898E-01  0.51100000000E-03 0. -1.
</event>
<event>
 8    1  0.1123191E+005  0.1043930E+01  0.7957747E-01            NaN
         13   -1    0    0    0    0  0.00000000000E+00  0.00000000000E+00  0.74505805969E-08  0.10566000000E+00  0.10566000000E+00 0. -1.
     999900   -1    0    0    0    0 -0.00000000000E+00 -0.00000000000E+00 -0.74505805969E-08  0.93827000000E+00  0.93827000000E+00 0. -1.
     999902    2    1    2    0    0 -0.13085278469E-01 -0.72020441367E-02 -0.18111987412E-01  0.10204536706E+01  0.10201835893E+01 0.  0.
     999903    2    3    3    0    0 -0.11702538470E+00 -0.18339937792E-01  0.53102073205E-01  0.13140977926E+00  0.20430514568E-01 0.  0.
         14    1    1    2    0    0  0.13085278469E-01  0.72020441367E-02  0.18111987412E-01  0.23476329363E-01  0.00000000000E+00 0. -1.
     999901    1    3    3    0    0  0.10394010623E+00  0.11137893656E-01 -0.71214060617E-01  0.88904389137E+00  0.88000000000E+00 0. -1.
        -11    1    4    4    0    0 -0.69788174769E-01 -0.43721990771E-02  0.22686720304E-01  0.73514990726E-01  0.51100000000E-03 0.  1.
         11    1    4    4    0    0 -0.47237209930E-01 -0.13967738715E-01  0.30415352901E-01  0.57894788538E-01  0.51100000000E-03 0. -1.
</event>
<event>
 8    1  0.1123191E+005  0.1043930E+01  0.7957747E-01            NaN
         13   -1    0    0    0    0  0.00000000000E+00  0.00000000000E+00  0.74505805969E-08  0.10566000000E+00  0.10566000000E+00 0. -1.
     999900   -1    0    0    0    0 -0.00000000000E+00 -0.00000000000E+00 -0.74505805969E-08  0.93827000000E+00  0.93827000000E+00 0.  1.
     999902    2    1    2    0    0 -0.21778210655E-01 -0.58321924053E-02 -0.69259035612E-02  0.10203445581E+01  0.10200719309E+01 0.  0.
     999903    2    3    3    0    0 -0.99803347861E-01  0.84542083637E-01 -0.57406333607E-03  0.13225910185E+00  0.19597661152E-01 0.  0.
         14    1    1    2    0    0  0.21778210655E-01  0.58321924053E-02  0.69259035612E-02  0.23585441859E-01  0.00000000000E+00 0.  1.
     999901    1    3    3    0    0  0.78025137206E-01 -0.90374276043E-01 -0.63518402251E-02  0.88808545629E+00  0.88000000000E+00 0.  1.
        -11    1    4    4    0    0 -0.70125427466E-01  0.48114157250E-01  0.33002534728E-02  0.85109931848E-01  0.51100000000E-03 0.  1.
         11    1    4    4    0    0 -0.29677920395E-01  0.36427926387E-01 -0.38743168089E-02  0.47149169999E-01  0.51100000000E-03 0. -1.
</event>
<event>
 8    1  0.1508325E+005  0.1043930E+01  0.7957747E-01            NaN
         13   -1    0    0    0    0  0.00000000000E+00  0.00000000000E+00  0.74505805969E-08  0.10566000000E+00  0.10566000000E+00 0. -1.
     999900   -1    0    0    0    0 -0.00000000000E+00 -0.00000000000E+00 -0.74505805969E-08  0.93827000000E+00  0.93827000000E+00 0. -1.
     999902    2    1    2    0    0  0.11084086643E-01 -0.13719197954E-03  0.17558167592E-01  0.10231654859E+01  0.10229547626E+01 0.  0.
     999903    2    3    3    0    0  0.57003416149E-01  0.84643042802E-01 -0.81791557567E-01  0.13234191134E+00  0.20265449905E-01 0.  0.
         14    1    1    2    0    0 -0.11084086643E-01  0.13719197954E-03 -0.17558167592E-01  0.20764514142E-01  0.00000000000E+00 0.  1.
     999901    1    3    3    0    0 -0.45919329507E-01 -0.84780234782E-01  0.99349725159E-01  0.89082357452E+00  0.88000000000E+00 0.  1.
        -11    1    4    4    0    0  0.38486227529E-01  0.39063808281E-01 -0.43426464169E-01  0.69952053137E-01  0.51100000000E-03 0.  1.
         11    1    4    4    0    0  0.18517188621E-01  0.45579234521E-01 -0.38365093397E-01  0.62389858201E-01  0.51100000000E-03 0. -1.
</event>
<event>
 8    1  0.1123191E+005  0.1043930E+01  0.7957747E-01            NaN
         13   -1    0    0    0    0  0.00000000000E+00  0.00000000000E+00  0.74505805969E-08  0.10566000000E+00  0.10566000000E+00 0.  1.
     999900   -1    0    0    0    0 -0.00000000000E+00 -0.00000000000E+00 -0.74505805969E-08  0.93827000000E+00  0.93827000000E+00 0. -1.
     999902    2    1    2    0    0  0.21565864165E-01  0.20621938957E-02 -0.52142502644E-02  0.10216471019E+01  0.10214040696E+01 0.  0.
     999903    2    3    3    0    0  0.95081966469E-01 -0.82621049396E-01  0.40054749206E-01  0.13337622471E+00  0.17833009652E-01 0.  0.
         14    1    1    2    0    0 -0.21565864165E-01 -0.20621938957E-02  0.52142502644E-02  0.22282898076E-01  0.00000000000E+00 0.  1.
     999901    1    3    3    0    0 -0.73516102304E-01  0.84683243291E-01 -0.45268999471E-01  0.88827087721E+00  0.88000000000E+00 0.  1.
        -11    1    4    4    0    0  0.27708746377E-01 -0.16892866073E-01  0.45337724225E-02  0.32771325322E-01  0.51100000000E-03 0.  1.
         11    1    4    4    0    0  0.67373220092E-01 -0.65728183322E-01  0.35520976784E-01  0.10060489939E+00  0.51100000000E-03 0. -1.
</event>
<event>
 8    1  0.1123191E+005  0.1043930E+01  0.7957747E-01            NaN
         13   -1    0    0    0    0  0.00000000000E+00  0.00000000000E+00  0.74505805969E-08  0.10566000000E+00  0.10566000000E+00 0.  1.
     999900   -1    0    0    0    0 -0.00000000000E+00 -0.00000000000E+00 -0.74505805969E-08  0.93827000000E+00  0.93827000000E+00 0. -1.
     999902    2    1    2    0    0  0.66239205398E-02 -0.59040393615E-02 -0.10429560758E-01  0.10302365804E+01  0.10301455731E+01 0.  0.
     999903    2    3    3    0    0 -0.66844671740E-01  0.60736428036E-01  0.10177980789E+00  0.13758349636E+00  0.20321548772E-01 0.  0.
         14    1    1    2    0    0 -0.66239205398E-02  0.59040393615E-02  0.10429560758E-01  0.13693419650E-01  0.00000000000E+00 0.  1.
     999901    1    3    3    0    0  0.73468592280E-01 -0.66640467398E-01 -0.11220936865E+00  0.89265308399E+00  0.88000000000E+00 0. -1.
        -11    1    4    4    0    0 -0.38299024587E-01  0.47309828976E-01  0.63221300848E-01  0.87762345024E-01  0.51100000000E-03 0.  1.
         11    1    4    4    0    0 -0.28545647153E-01  0.13426599060E-01  0.38558507046E-01  0.49821151335E-01  0.51100000000E-03 0. -1.
</event>
<event>
 8    1  0.1123191E+005  0.1043930E+01  0.7957747E-01            NaN
         13   -1    0    0    0    0  0.00000000000E+00  0.00000000000E+00  0.74505805969E-08  0.10566000000E+00  0.10566000000E+00 0. -1.
     999900   -1    0    0    0    0 -0.00000000000E+00 -0.00000000000E+00 -0.74505805969E-08  0.93827000000E+00  0.93827000000E+00 0. -1.
     999902    2    1    2    0    0 -0.15182388318E-01 -0.19254756863E-01 -0.16269933780E-02  0.10193556702E+01  0.10190594118E+01 0.  0.
     999903    2    3    3    0    0  0.10877787192E+00  0.28804473292E-01 -0.56740128108E-01  0.12766441572E+00  0.20406807737E-01 0.  0.
         14    1    1    2    0    0  0.15182388318E-01  0.19254756863E-01  0.16269933780E-02  0.24574329784E-01  0.00000000000E+00 0. -1.
     999901    1    3    3    0    0 -0.12396026024E+00 -0.48059230154E-01  0.55113134730E-01  0.89169125449E+00  0.88000000000E+00 0.  1.
        -11    1    4    4    0    0  0.83688305380E-01  0.13878436830E-01 -0.46374187763E-01  0.96680762709E-01  0.51100000000E-03 0.  1.
         11    1    4    4    0    0  0.25089566544E-01  0.14926036462E-01 -0.10365940344E-01  0.30983653013E-01  0.51100000000E-03 0. -1.
</event>
<event>
 8    1  0.1123191E+005  0.1043930E+01  0.7957747E-01            NaN
         13   -1    0    0    0    0  0.00000000000E+00  0.00000000000E+00  0.74505805969E-08  0.10566000000E+00  0.10566000000E+00 0.  1.
     999900   -1    0    0    0    0 -0.00000000000E+00 -0.00000000000E+00 -0.74505805969E-08  0.93827000000E+00  0.93827000000E+00 0.  1.
     999902    2    1    2    0    0 -0.72749140098E-02  0.14899087652E-01 -0.16268980297E-01  0.10207009900E+01  0.10204366340E+01 0.  0.
     999903    2    3    3    0    0  0.24855537745E-01 -0.11328291064E+00 -0.55369265386E-01  0.12997554243E+00  0.19418302749E-01 0.  0.
         14    1    1    2    0    0  0.72749140098E-02 -0.14899087652E-01  0.16268980297E-01  0.23229010023E-01  0.00000000000E+00 0.  1.
     999901    1    3    3    0    0 -0.32130451755E-01  0.12818199829E+00  0.39100285089E-01  0.89072544755E+00  0.88000000000E+00 0. -1.
        -11    1    4    4    0    0  0.95364705189E-02 -0.13896150615E-01 -0.10452712652E-01  0.19838538118E-01  0.51100000000E-03 0.  1.
         11    1    4    4    0    0  0.15319067226E-01 -0.99386760022E-01 -0.44916552734E-01  0.11013700431E+00  0.51100000000E-03 0. -1.
</event>
<event>
 8    1  0.1123191E+005  0.1043930E+01  0.7957747E-01            NaN
         13   -1    0    0    0    0  0.00000000000E+00  0.00000000000E+00  0.74505805969E-08  0.10566000000E+00  0.10566000000E+00 0. -1.
     999900   -1    0    0    0    0 -0.00000000000E+00 -0.00000000000E+00 -0.74505805969E-08  0.93827000000E+00  0.93827000000E+00 0. -1.
     999902    2    1    2    0    0  0.25559856301E-01  0.21500791870E-02 -0.75327135385E-02  0.10171966712E+01  0.10168453162E+01 0.  0.
     999903    2    3    3    0    0 -0.36351014796E-01 -0.77913620926E-01 -0.91897746918E-01  0.12738735968E+00  0.19758919897E-01 0.  0.
         14    1    1    2    0    0 -0.25559856301E-01 -0.21500791870E-02  0.75327135385E-02  0.26733328784E-01  0.00000000000E+00 0. -1.
     999901    1    3    3    0    0  0.61910871097E-01  0.80063700113E-01  0.84365033379E-01  0.88980931153E+00  0.88000000000E+00 0.  1.
        -11    1    4    4    0    0 -0.33143694198E-01 -0.51406352325E-01 -0.58645523067E-01  0.84738869601E-01  0.51100000000E-03 0.  1.
         11    1    4    4    0    0 -0.32073205981E-02 -0.26507268601E-01 -0.33252223851E-01  0.42648490080E-01  0.51100000000E-03 0. -1.
</event>
<event>
 8    1  0.1123191E+005  0.1043930E+01  0.7957747E-01            NaN
         13   -1    0    0    0    0  0.00000000000E+00  0.00000000000E+00  0.74505805969E-08  0.10566000000E+00  0.10566000000E+00 0.  1.
     999900   -1    0    0    0    0 -0.00000000000E+00 -0.00000000000E+00 -0.74505805969E-08  0.93827000000E+00  0.93827000000E+00 0.  1.
     999902    2    1    2    0    0 -0.17141541005E-01  0.45311049086E-02 -0.16559755729E-01  0.10196691499E+01  0.10193804914E+01 0.  0.
     999903    2    3    3    0    0 -0.41560875131E-01 -0.39268503000E-01 -0.11567254342E+00  0.13268659410E+00  0.30923668658E-01 0.  0.
         14    1    1    2    0    0  0.17141541005E-01 -0.45311049086E-02  0.16559755729E-01  0.24260850140E-01  0.00000000000E+00 0.  1.
     999901    1    3    3    0    0  0.24419334127E-01  0.43799607908E-01  0.99112787695E-01  0.88698255576E+00  0.88000000000E+00 0. -1.
        -11    1    4    4    0    0 -0.36416186825E-01 -0.39365273142E-01 -0.77979470997E-01  0.94640490333E-01  0.51100000000E-03 0. -1.
         11    1    4    4    0    0 -0.51446883069E-02  0.96770142459E-04 -0.37693072426E-01  0.38046103771E-01  0.51100000000E-03 0.  1.
</event>
<event>
 8    1  0.1123191E+005  0.1043930E+01  0.7957747E-01            NaN
         13   -1    0    0    0    0  0.00000000000E+00  0.00000000000E+00  0.74505805969E-08  0.10566000000E+00  0.10566000000E+00 0.  1.
     999900   -1    0    0    0    0 -0.00000000000E+00 -0.00000000000E+00 -0.74505805969E-08  0.93827000000E+00  0.93827000000E+00 0. -1.
     999902    2    1    2    0    0 -0.22853963809E-01 -0.99302221757E-02 -0.36998261833E-02  0.10187386982E+01  0.10184271861E+01 0.  0.
     999903    2    3    3    0    0 -0.88367331897E-01 -0.93266694674E-01  0.22546433650E-01  0.13198854440E+00  0.20128897169E-01 0.  0.
         14    1    1    2    0    0  0.22853963809E-01  0.99302221757E-02  0.36998261833E-02  0.25191301832E-01  0.00000000000E+00 0.  1.
     999901    1    3    3    0    0  0.65513368088E-01  0.83336472498E-01 -0.26246259833E-01  0.88675015376E+00  0.88000000000E+00 0. -1.
        -11    1    4    4    0    0 -0.63036588129E-01 -0.76386466424E-01  0.11972075274E-01  0.99760189469E-01  0.51100000000E-03 0. -1.
         11    1    4    4    0    0 -0.25330743769E-01 -0.16880228250E-01  0.10574358376E-01  0.32228354933E-01  0.51100000000E-03 0.  1.
</event>
<event>
 8    1  0.1123191E+005  0.1043930E+01  0.7957747E-01            NaN
         13   -1    0    0    0    0  0.00000000000E+00  0.00000000000E+00  0.74505805969E-08  0.10566000000E+00  0.10566000000E+00 0. -1.
     999900   -1    0    0    0    0 -0.00000000000E+00 -0.00000000000E+00 -0.74505805969E-08  0.93827000000E+00  0.93827000000E+00 0.  1.
     999902    2    1    2    0    0 -0.21374251094E-01  0.38085348260E-02 -0.48723571395E-02  0.10216790807E+01  0.10214367530E+01 0.  0.
     999903    2    3    3    0    0  0.11441090473E+00  0.14866226481E-01 -0.56368463946E-01  0.12970838041E+00  0.18330313948E-01 0.  0.
         14    1    1    2    0    0  0.21374251094E-01 -0.38085348260E-02  0.48723571395E-02  0.22250919339E-01  0.00000000000E+00 0. -1.
     999901    1    3    3    0    0 -0.13578515583E+00 -0.11057691655E-01  0.51496106806E-01  0.89197070025E+00  0.88000000000E+00 0. -1.
        -11    1    4    4    0    0  0.35395660244E-01  0.13163069223E-01 -0.19266694236E-01  0.42397945508E-01  0.51100000000E-03 0.  1.
         11    1    4    4    0    0  0.79015244490E-01  0.17031572581E-02 -0.37101769709E-01  0.87310434904E-01  0.51100000000E-03 0. -1.
</event>
<event>
 8    1  0.1123191E+005  0.1043930E+01  0.7957747E-01            NaN
         13   -1    0    0    0    0  0.00000000000E+00  0.00000000000E+00  0.74505805969E-08  0.10566000000E+00  0.10566000000E+00 0. -1.
     999900   -1    0    0    0    0 -0.00000000000E+00 -0.00000000000E+00 -0.74505805969E-08  0.93827000000E+00  0.93827000000E+00 0. -1.
     999902    2    1    2    0    0  0.11017048270E-01  0.15593919314E-02 -0.20881027173E-01  0.10202693924E+01  0.10199950043E+01 0.  0.
     999903    2    3    3    0    0 -0.35289019959E-01 -0.98898297548E-01  0.71280501810E-01  0.12856891200E+00  0.20563730398E-01 0.  0.
         14    1    1    2    0    0 -0.11017048270E-01 -0.15593919314E-02  0.20881027173E-01  0.23660607591E-01  0.00000000000E+00 0. -1.
     999901    1    3    3    0    0  0.46306068230E-01  0.10045768948E+00 -0.92161528983E-01  0.89170048041E+00  0.88000000000E+00 0. -1.
        -11    1    4    4    0    0 -0.29627830417E-01 -0.56821916074E-01  0.48627438802E-01  0.80445182621E-01  0.51100000000E-03 0.  1.
         11    1    4    4    0    0 -0.56611895417E-02 -0.42076381474E-01  0.22653063008E-01  0.48123729382E-01  0.51100000000E-03 0. -1.
</event>
<event>
 8    1  0.1123191E+005  0.1043930E+01  0.7957747E-01            NaN
         13   -1    0    0    0    0  0.00000000000E+00  0.00000000000E+00  0.74505805969E-08  0.10566000000E+00  0.10566000000E+00 0. -1.
     999900   -1    0    0    0    0 -0.00000000000E+00 -0.00000000000E+00 -0.74505805969E-08  0.93827000000E+00  0.93827000000E+00 0.  1.
     999902    2    1    2    0    0 -0.16159309144E-01  0.18071475431E-01 -0.89586894417E-02  0.10180850854E+01  0.10177569854E+01 0.  0.
     999903    2    3    3    0    0 -0.43322998985E-01 -0.64690089100E-01  0.98749111308E-01  0.12724934688E+00  0.19476124572E-01 0.  0.
         14    1    1    2    0    0  0.16159309144E-01 -0.18071475431E-01  0.89586894417E-02  0.25844914641E-01  0.00000000000E+00 0. -1.
     999901    1    3    3    0    0  0.27163689841E-01  0.82761564532E-01 -0.10770780075E+00  0.89083573848E+00  0.88000000000E+00 0. -1.
        -11    1    4    4    0    0 -0.26246711208E-01 -0.38260576666E-01  0.73413535510E-01  0.86847970000E-01  0.51100000000E-03 0. -1.
         11    1    4    4    0    0 -0.17076287777E-01 -0.26429512435E-01  0.25335575798E-01  0.40401376880E-01  0.51100000000E-03 0.  1.
</event>
<event>
 8    1  0.1123191E+005  0.1043930E+01  0.7957747E-01            NaN
         13   -1    0    0    0    0  0.00000000000E+00  0.00000000000E+00  0.74505805969E-08  0.10566000000E+00  0.10566000000E+00 0.  1.
     999900   -1    0    0    0    0 -0.00000000000E+00 -0.00000000000E+00 -0.74505805969E-08  0.93827000000E+00  0.93827000000E+00 0. -1.
     999902    2    1    2    0    0  0.36282803975E-02  0.23942870329E-01 -0.28993157753E-02  0.10195408325E+01  0.10192490754E+01 0.  0.
     999903    2    3    3    0    0 -0.11445662342E+00 -0.53247933227E-01 -0.11130775030E-01  0.12826633968E+00  0.19816627028E-01 0.  0.
         14    1    1    2    0    0 -0.36282803975E-02 -0.23942870329E-01  0.28993157753E-02  0.24389167477E-01  0.00000000000E+00 0. -1.
     999901    1    3    3    0    0  0.11808490381E+00  0.77190803556E-01  0.82314592548E-02  0.89127449284E+00  0.88000000000E+00 0.  1.
        -11    1    4    4    0    0 -0.54427031348E-01 -0.14737042057E-01 -0.70344117580E-02  0.56826281065E-01  0.51100000000E-03 0.  1.
         11    1    4    4    0    0 -0.60029592068E-01 -0.38510891170E-01 -0.40963632720E-02  0.71440058620E-01  0.51100000000E-03 0. -1.
</event>
<event>
 8    1  0.1123191E+005  0.1043930E+01  0.7957747E-01            NaN
         13   -1    0    0    0    0  0.00000000000E+00  0.00000000000E+00  0.74505805969E-08  0.10566000000E+00  0.10566000000E+00 0. -1.
     999900   -1    0    0    0    0 -0.00000000000E+00 -0.00000000000E+00 -0.74505805969E-08  0.93827000000E+00  0.93827000000E+00 0. -1.
     999902    2    1    2    0    0 -0.39116175669E-02  0.21776949004E-02 -0.23141359924E-01  0.10203595599E+01  0.10200872834E+01 0.  0.
     999903    2    3    3    0    0 -0.49460195123E-01  0.10646423969E+00 -0.57364161898E-01  0.13237219709E+00  0.21232198635E-01 0.  0.
         14    1    1    2    0    0  0.39116175669E-02 -0.21776949004E-02  0.23141359924E-01  0.23570440093E-01  0.00000000000E+00 0. -1.
     999901    1    3    3    0    0  0.45548577556E-01 -0.10428654479E+00  0.34222801974E-01  0.88798736281E+00  0.88000000000E+00 0. -1.
        -11    1    4    4    0    0 -0.34461465951E-01  0.86802717909E-01 -0.37473872911E-01  0.10063228480E+00  0.51100000000E-03 0.  1.
         11    1    4    4    0    0 -0.14998729172E-01  0.19661521780E-01 -0.19890288987E-01  0.31739912295E-01  0.51100000000E-03 0. -1.
</event>
<event>
 8    1  0.1123191E+005  0.1043930E+01  0.7957747E-01            NaN
         13   -1    0    0    0    0  0.00000000000E+00  0.00000000000E+00  0.74505805969E-08  0.10566000000E+00  0.10566000000E+00 0.  1.
     999900   -1    0    0    0    0 -0.00000000000E+00 -0.00000000000E+00 -0.74505805969E-08  0.93827000000E+00  0.93827000000E+00 0. -1.
     999902    2    1    2    0    0 -0.13390642890E-01 -0.18987411515E-01  0.86776339803E-02  0.10191281363E+01  0.10188262981E+01 0.  0.
     999903    2    3    3    0    0  0.12590761882E+00  0.31306296605E-02 -0.12184425824E-01  0.12765270812E+00  0.16858954241E-01 0.  0.
         14    1    1    2    0    0  0.13390642890E-01  0.18987411515E-01 -0.86776339803E-02  0.24801863731E-01  0.00000000000E+00 0.  1.
     999901    1    3    3    0    0 -0.13929826171E+00 -0.22118041175E-01  0.20862059805E-01  0.89147542815E+00  0.88000000000E+00 0. -1.
        -11    1    4    4    0    0  0.63455287237E-01  0.87258117827E-02 -0.10618327808E-01  0.64928601371E-01  0.51100000000E-03 0.  1.
         11    1    4    4    0    0  0.62452331582E-01 -0.55951821222E-02 -0.15660980164E-02  0.62724106745E-01  0.51100000000E-03 0. -1.
</event>
<event>
 8    1  0.1123191E+005  0.1043930E+01  0.7957747E-01            NaN
         13   -1    0    0    0    0  0.00000000000E+00  0.00000000000E+00  0.74505805969E-08  0.10566000000E+00  0.10566000000E+00 0. -1.
     999900   -1    0    0    0    0 -0.00000000000E+00 -0.00000000000E+00 -0.74505805969E-08  0.93827000000E+00  0.93827000000E+00 0.  1.
     999902    2    1    2    0    0 -0.69032671980E-03  0.74208667534E-02 -0.22636814850E-01  0.10200978536E+01  0.10198194251E+01 0.  0.
     999903    2    3    3    0    0  0.44613997345E-01  0.58701777618E-01  0.10326091977E+00  0.12850800780E+00  0.20376041361E-01 0.  0.
         14    1    1    2    0    0  0.69032671980E-03 -0.74208667534E-02  0.22636814850E-01  0.23832146376E-01  0.00000000000E+00 0. -1.
     999901    1    3    3    0    0 -0.45304324064E-01 -0.51280910864E-01 -0.12589773462E+00  0.89158984583E+00  0.88000000000E+00 0.  1.
        -11    1    4    4    0    0  0.19439869910E-02  0.11123000146E-02  0.13236642891E-01  0.13434512748E-01  0.51100000000E-03 0. -1.
         11    1    4    4    0    0  0.42670010354E-01  0.57589477603E-01  0.90024276880E-01  0.11507349505E+00  0.51100000000E-03 0.  1.
</event>
<event>
 8    1  0.1123191E+005  0.1043930E+01  0.7957747E-01            NaN
         13   -1    0    0    0    0  0.00000000000E+00  0.00000000000E+00  0.74505805969E-08  0.10566000000E+00  0.10566000000E+00 0. -1.
     999900   -1    0    0    0    0 -0.00000000000E+00 -0.00000000000E+00 -0.74505805969E-08  0.93827000000E+00  0.93827000000E+00 0.  1.
     999902    2    1    2    0    0  0.49597012953E-02 -0.69949129661E-03  0.24137739208E-01  0.10192780553E+01  0.10189798995E+01 0.  0.
     999903    2    3    3    0    0  0.10213590119E+00 -0.67097299257E-01  0.44094340365E-01  0.13121828889E+00  0.18442847034E-01 0.  0.
         14    1    1    2    0    0 -0.49597012953E-02  0.69949129661E-03 -0.24137739208E-01  0.24651944732E-01  0.00000000000E+00 0.  1.
     999901    1    3    3    0    0 -0.97176199899E-01  0.66397807961E-01 -0.19956601157E-01  0.88805976638E+00  0.88000000000E+00 0. -1.
        -11    1    4    4    0    0  0.10072738836E+00 -0.63395166842E-01  0.44785508144E-01  0.12716507699E+00  0.51100000000E-03 0. -1.
         11    1    4    4    0    0  0.14085128352E-02 -0.37021324154E-02 -0.69116777951E-03  0.40532119026E-02  0.51100000000E-03 0.  1.
</event>
<event>
 8    1  0.1123191E+005  0.1043930E+01  0.7957747E-01            NaN
         13   -1    0    0    0    0  0.00000000000E+00  0.00000000000E+00  0.74505805969E-08  0.10566000000E+00  0.10566000000E+00 0.  1.
     999900   -1    0    0    0    0 -0.00000000000E+00 -0.00000000000E+00 -0.74505805969E-08  0.93827000000E+00  0.93827000000E+00 0.  1.
     999902    2    1    2    0    0  0.11849740907E-01 -0.43825014925E-02 -0.20653862733E-01  0.10197183349E+01  0.10194308598E+01 0.  0.
     999903    2    3    3    0    0 -0.29003824849E-01  0.92464832321E-01  0.80106401722E-01  0.12775362107E+00  0.22649172798E-01 0.  0.
         14    1    1    2    0    0 -0.11849740907E-01  0.43825014925E-02  0.20653862733E-01  0.24211665054E-01  0.00000000000E+00 0. -1.
     999901    1    3    3    0    0  0.40853565756E-01 -0.96847333814E-01 -0.10076026445E+00  0.89196471387E+00  0.88000000000E+00 0.  1.
        -11    1    4    4    0    0 -0.17008436917E-01  0.23124473066E-01  0.17934697501E-01  0.33851775085E-01  0.51100000000E-03 0. -1.
         11    1    4    4    0    0 -0.11995387932E-01  0.69340359255E-01  0.62171704221E-01  0.93901845988E-01  0.51100000000E-03 0.  1.
</event>
<event>
 8    1  0.1123191E+005  0.1043930E+01  0.7957747E-01            NaN
         13   -1    0    0    0    0  0.00000000000E+00  0.00000000000E+00  0.74505805969E-08  0.10566000000E+00  0.10566000000E+00 0. -1.
     999900   -1    0    0    0    0 -0.00000000000E+00 -0.00000000000E+00 -0.74505805969E-08  0.93827000000E+00  0.93827000000E+00 0. -1.
     999902    2    1    2    0    0  0.65099253638E-02  0.18615963110E-01  0.94693446677E-02  0.10220530327E+01  0.10218188684E+01 0.  0.
     999903    2    3    3    0    0  0.51490089290E-01  0.48203119789E-01  0.11251089472E+00  0.13440660756E+00  0.20776541423E-01 0.  0.
         14    1    1    2    0    0 -0.65099253638E-02 -0.18615963110E-01 -0.94693446677E-02  0.21876967321E-01  0.00000000000E+00 0.  1.
     999901    1    3    3    0    0 -0.44980163926E-01 -0.29587156680E-01 -0.10304155005E+00  0.88764642512E+00  0.88000000000E+00 0. -1.
        -11    1    4    4    0    0  0.18521579720E-01  0.27469492055E-01  0.38679385679E-01  0.50931109419E-01  0.51100000000E-03 0. -1.
         11    1    4    4    0    0  0.32968509569E-01  0.20733627734E-01  0.73831509039E-01  0.83475498143E-01  0.51100000000E-03 0.  1.
</event>
<event>
 8    1  0.1123191E+005  0.1043930E+01  0.7957747E-01            NaN
         13   -1    0    0    0    0  0.00000000000E+00  0.00000000000E+00  0.74505805969E-08  0.10566000000E+00  0.10566000000E+00 0. -1.
     999900   -1    0    0    0    0 -0.00000000000E+00 -0.00000000000E+00 -0.74505805969E-08  0.93827000000E+00  0.93827000000E+00 0. -1.
     999902    2    1    2    0    0  0.24128156790E-01  0.81088897209E-02  0.48215644579E-03  0.10184711210E+01  0.10181528716E+01 0.  0.
     999903    2    3    3    0    0 -0.56874498169E-01  0.10179032320E+00  0.50078213130E-01  0.12841639805E+00  0.19671436619E-01 0.  0.
         14    1    1    2    0    0 -0.24128156790E-01 -0.81088897209E-02 -0.48215644579E-03  0.25458878951E-01  0.00000000000E+00 0. -1.
     999901    1    3    3    0    0  0.81002654960E-01 -0.93681433482E-01 -0.49596056684E-01  0.89005472300E+00  0.88000000000E+00 0.  1.
        -11    1    4    4    0    0 -0.16252494988E-01  0.38636654567E-01  0.91913444822E-02  0.42914759744E-01  0.51100000000E-03 0.  1.
         11    1    4    4    0    0 -0.40622003181E-01  0.63153668636E-01  0.40886868648E-01  0.85501638308E-01  0.51100000000E-03 0. -1.
</event>
<event>
 8    1  0.1123191E+005  0.1043930E+01  0.7957747E-01            NaN
         13   -1    0    0    0    0  0.00000000000E+00  0.00000000000E+00  0.74505805969E-08  0.10566000000E+00  0.10566000000E+00 0.  1.
     999900   -1    0    0    0    0 -0.00000000000E+00 -0.00000000000E+00 -0.74505805969E-08  0.93827000000E+00  0.93827000000E+00 0.  1.
     999902    2    1    2    0    0  0.78655830254E-02  0.67684377720E-02  0.20625255171E-01  0.10208414683E+01  0.10205803364E+01 0.  0.
     999903    2    3    3    0    0 -0.10115872123E+00 -0.20172312884E-01  0.79473819424E-01  0.13175471409E+00  0.20080030449E-01 0.  0.
         14    1    1    2    0    0 -0.78655830254E-02 -0.67684377720E-02 -0.20625255171E-01  0.23088531722E-01  0.00000000000E+00 0. -1.
     999901    1    3    3    0    0  0.10902430425E+00  0.26940750656E-01 -0.58848564253E-01  0.88908675419E+00  0.88000000000E+00 0. -1.
        -11    1    4    4    0    0 -0.27492597881E-01 -0.10346459718E-01  0.13324570307E-01  0.32259842867E-01  0.51100000000E-03 0.  1.
         11    1    4    4    0    0 -0.73666123347E-01 -0.98258531656E-02  0.66149249116E-01  0.99494871220E-01  0.51100000000E-03 0. -1.
</event>
<event>
 8    1  0.1123191E+005  0.1043930E+01  0.7957747E-01            NaN
         13   -1    0    0    0    0  0.00000000000E+00  0.00000000000E+00  0.74505805969E-08  0.10566000000E+00  0.10566000000E+00 0. -1.
     999900   -1    0    0    0    0 -0.00000000000E+00 -0.00000000000E+00 -0.74505805969E-08  0.93827000000E+00  0.93827000000E+00 0.  1.
     999902    2    1    2    0    0 -0.59995323105E-03  0.28860971962E-01  0.36030599939E-02  0.10148388039E+01  0.10144217566E+01 0.  0.
     999903    2    3    3    0    0  0.79128575559E-01 -0.41784678150E-01  0.84661594289E-01  0.12471637857E+00  0.19475593371E-01 0.  0.
         14    1    1    2    0    0  0.59995323105E-03 -0.28860971962E-01 -0.36030599939E-02  0.29091196053E-01  0.00000000000E+00 0.  1.
     999901    1    3    3    0    0 -0.79728528790E-01  0.70645650112E-01 -0.81058534295E-01  0.89012242538E+00  0.88000000000E+00 0.  1.
        -11    1    4    4    0    0  0.29553118614E-01 -0.25484234459E-01  0.30785610531E-01  0.49707624793E-01  0.51100000000E-03 0. -1.
         11    1    4    4    0    0  0.49575456945E-01 -0.16300443690E-01  0.53875983757E-01  0.75008753773E-01  0.51100000000E-03 0.  1.
</event>
<event>
 8    1  0.1123191E+005  0.1043930E+01  0.7957747E-01            NaN
         13   -1    0    0    0    0  0.00000000000E+00  0.00000000000E+00  0.74505805969E-08  0.10566000000E+00  0.10566000000E+00 0. -1.
     999900   -1    0    0    0    0 -0.00000000000E+00 -0.00000000000E+00 -0.74505805969E-08  0.93827000000E+00  0.93827000000E+00 0. -1.
     999902    2    1    2    0    0  0.20650894173E-01 -0.15360934223E-01 -0.11676984275E-03  0.10181922580E+01  0.10178669082E+01 0.  0.
     999903    2    3    3    0    0 -0.59594693431E-01 -0.11247874470E+00 -0.79240305547E-02  0.12918597184E+00  0.20572543963E-01 0.  0.
         14    1    1    2    0    0 -0.20650894173E-01  0.15360934223E-01  0.11676984275E-03  0.25737742044E-01  0.00000000000E+00 0. -1.
     999901    1    3    3    0    0  0.80245587604E-01  0.97117810474E-01  0.78072607120E-02  0.88900628612E+00  0.88000000000E+00 0. -1.
        -11    1    4    4    0    0 -0.12931488150E-01 -0.26625600218E-01  0.67770610073E-02  0.30369979414E-01  0.51100000000E-03 0. -1.
         11    1    4    4    0    0 -0.46663205282E-01 -0.85853144479E-01 -0.14701091562E-01  0.98815992422E-01  0.51100000000E-03 0.  1.
</event>
<event>
 8    1  0.1123191E+005  0.1043930E+01  0.7957747E-01            NaN
         13   -1    0    0    0    0  0.00000000000E+00  0.00000000000E+00  0.74505805969E-08  0.10566000000E+00  0.10566000000E+00 0.  1.
     999900   -1    0    0    0    0 -0.00000000000E+00 -0.00000000000E+00 -0.74505805969E-08  0.93827000000E+00  0.93827000000E+00 0.  1.
     999902    2    1    2    0    0  0.18609281505E-01 -0.90426420880E-02 -0.12431094821E-01  0.10197927497E+01  0.10195070600E+01 0.  0.
     999903    2    3    3    0    0 -0.62993744300E-01  0.10322544979E+00 -0.38623349585E-01  0.12853004292E+00  0.20112272247E-01 0.  0.
         14    1    1    2    0    0 -0.18609281505E-01  0.90426420880E-02  0.12431094821E-01  0.24137250310E-01  0.00000000000E+00 0. -1.
     999901    1    3    3    0    0  0.81603025805E-01 -0.11226809187E+00  0.26192254764E-01  0.89126270677E+00  0.88000000000E+00 0.  1.
        -11    1    4    4    0    0 -0.30231895136E-01  0.52120965547E-01 -0.29676665866E-01  0.67167910128E-01  0.51100000000E-03 0.  1.
         11    1    4    4    0    0 -0.32761849164E-01  0.51104484238E-01 -0.89466837191E-02  0.61362132790E-01  0.51100000000E-03 0. -1.
</event>
<event>
 8    1  0.1123191E+005  0.1043930E+01  0.7957747E-01            NaN
         13   -1    0    0    0    0  0.00000000000E+00  0.00000000000E+00  0.74505805969E-08  0.10566000000E+00  0.10566000000E+00 0.  1.
     999900   -1    0    0    0    0 -0.00000000000E+00 -0.00000000000E+00 -0.74505805969E-08  0.93827000000E+00  0.93827000000E+00 0. -1.
     999902    2    1    2    0    0  0.12410550935E-01 -0.16830459943E-01 -0.83534266601E-02  0.10214118763E+01  0.10211636280E+01 0.  0.
     999903    2    3    3    0    0  0.46551358583E-01  0.11405563962E+00 -0.38447807760E-01  0.13056821015E+00  0.19852094741E-01 0.  0.
         14    1    1    2    0    0 -0.12410550935E-01  0.16830459943E-01  0.83534266601E-02  0.22518123664E-01  0.00000000000E+00 0.  1.
     999901    1    3    3    0    0 -0.34140807648E-01 -0.13088609956E+00  0.30094381100E-01  0.89084366618E+00  0.88000000000E+00 0.  1.
        -11    1    4    4    0    0  0.27239692173E-01  0.41822933233E-01 -0.12920267022E-01  0.51559218330E-01  0.51100000000E-03 0.  1.
         11    1    4    4    0    0  0.19311666410E-01  0.72232706388E-01 -0.25527540738E-01  0.79008991822E-01  0.51100000000E-03 0. -1.
</event>
<event>
 8    1  0.1123191E+005  0.1043930E+01  0.7957747E-01            NaN
         13   -1    0    0    0    0  0.00000000000E+00  0.00000000000E+00  0.74505805969E-08  0.10566000000E+00  0.10566000000E+00 0.  1.
     999900   -1    0    0    0    0 -0.00000000000E+00 -0.00000000000E+00 -0.74505805969E-08  0.93827000000E+00  0.93827000000E+00 0.  1.
     999902    2    1    2    0    0 -0.16155998646E-01 -0.15976290447E-01  0.10115927117E-01  0.10190585278E+01  0.10187549720E+01 0.  0.
     999903    2    3    3    0    0  0.59088866101E-01  0.88390170444E-01  0.68052594122E-01  0.12781736782E+00  0.20045139611E-01 0.  0.
         14    1    1    2    0    0  0.16155998646E-01  0.15976290447E-01 -0.10115927117E-01  0.24871472214E-01  0.00000000000E+00 0. -1.
     999901    1    3    3    0    0 -0.75244864746E-01 -0.10436646089E+00 -0.57936667006E-01  0.89124115996E+00  0.88000000000E+00 0.  1.
        -11    1    4    4    0    0  0.33152887825E-02  0.38879012235E-02  0.96492526012E-02  0.10930512906E-01  0.51100000000E-03 0.  1.
         11    1    4    4    0    0  0.55773577318E-01  0.84502269221E-01  0.58403341521E-01  0.11688685492E+00  0.51100000000E-03 0. -1.
</event>
<event>
 8    1  0.1123191E+005  0.1043930E+01  0.7957747E-01            NaN
         13   -1    0    0    0    0  0.00000000000E+00  0.00000000000E+00  0.74505805969E-08  0.10566000000E+00  0.10566000000E+00 0.  1.
     999900   -1    0    0    0    0 -0.00000000000E+00 -0.00000000000E+00 -0.74505805969E-08  0.93827000000E+00  0.93827000000E+00 0. -1.
     999902    2    1    2    0    0  0.70896041910E-02  0.74735205461E-02 -0.23369949811E-01  0.10183904121E+01  0.10180701159E+01 0.  0.
     999903    2    3    3    0    0 -0.14241656426E-01 -0.18539863525E-01 -0.12808023730E+00  0.13154433573E+00  0.18783337238E-01 0.  0.
         14    1    1    2    0    0 -0.70896041910E-02 -0.74735205461E-02  0.23369949811E-01  0.25539587920E-01  0.00000000000E+00 0.  1.
     999901    1    3    3    0    0  0.21331260617E-01  0.26013384071E-01  0.10471028749E+00  0.88684607635E+00  0.88000000000E+00 0.  1.
        -11    1    4    4    0    0 -0.52232690968E-02  0.28460700713E-02 -0.40576982177E-01  0.41013842279E-01  0.51100000000E-03 0. -1.
         11    1    4    4    0    0 -0.90183873295E-02 -0.21385933597E-01 -0.87503255126E-01  0.90530493451E-01  0.51100000000E-03 0.  1.
</event>
<event>
 8    1  0.1123191E+005  0.1043930E+01  0.7957747E-01            NaN
         13   -1    0    0    0    0  0.00000000000E+00  0.00000000000E+00  0.74505805969E-08  0.10566000000E+00  0.10566000000E+00 0.  1.
     999900   -1    0    0    0    0 -0.00000000000E+00 -0.00000000000E+00 -0.74505805969E-08  0.93827000000E+00  0.93827000000E+00 0. -1.
     999902    2    1    2    0    0  0.23680659392E-01  0.13719205094E-02  0.21667426813E-02  0.10201108781E+01  0.10198327574E+01 0.  0.
     999903    2    3    3    0    0  0.12913006168E+00 -0.22222430317E-01 -0.12105290163E-01  0.13338659131E+00  0.21841141267E-01 0.  0.
         14    1    1    2    0    0 -0.23680659392E-01 -0.13719205094E-02 -0.21667426813E-02  0.23819121918E-01  0.00000000000E+00 0.  1.
     999901    1    3    3    0    0 -0.10544940229E+00  0.23594350827E-01  0.14272032845E-01  0.88672428677E+00  0.88000000000E+00 0.  1.
        -11    1    4    4    0    0  0.89950749845E-01 -0.67960250986E-02 -0.27531035026E-02  0.90250562628E-01  0.51100000000E-03 0.  1.
         11    1    4    4    0    0  0.39179311835E-01 -0.15426405219E-01 -0.93521866608E-02  0.43136028679E-01  0.51100000000E-03 0. -1.
</event>
<event>
 8    1  0.1123191E+005  0.1043930E+01  0.7957747E-01            NaN
         13   -1    0    0    0    0  0.00000000000E+00  0.00000000000E+00  0.74505805969E-08  0.10566000000E+00  0.10566000000E+00 0. -1.
     999900   -1    0    0    0    0 -0.00000000000E+00 -0.00000000000E+00 -0.74505805969E-08  0.93827000000E+00  0.93827000000E+00 0. -1.
     999902    2    1    2    0    0 -0.17330446319E-02  0.21956866732E-01 -0.48063434172E-02  0.10213865225E+01  0.10211377086E+01 0.  0.
     999903    2    3    3    0    0  0.18553755508E-01  0.43993759882E-01  0.12133598439E+00  0.13188718817E+00  0.19801932843E-01 0.  0.
         14    1    1    2    0    0  0.17330446319E-02 -0.21956866732E-01  0.48063434172E-02  0.22543477492E-01  0.00000000000E+00 0.  1.
     999901    1    3    3    0    0 -0.20286800140E-01 -0.22036893149E-01 -0.12614232781E+00  0.88949933434E+00  0.88000000000E+00 0. -1.
        -11    1    4    4    0    0  0.14519432698E-01  0.30686460872E-01  0.59503944094E-01  0.68508782579E-01  0.51100000000E-03 0.  1.
         11    1    4    4    0    0  0.40343228100E-02  0.13307299010E-01  0.61832040295E-01  0.63378405593E-01  0.51100000000E-03 0. -1.
</event>
<event>
 8    1  0.1123191E+005  0.1043930E+01  0.7957747E-01            NaN
         13   -1    0    0    0    0  0.00000000000E+00  0.00000000000E+00  0.74505805969E-08  0.10566000000E+00  0.10566000000E+00 0.  1.
     999900   -1    0    0    0    0 -0.00000000000E+00 -0.00000000000E+00 -0.74505805969E-08  0.93827000000E+00  0.93827000000E+00 0.  1.
     999902    2    1    2    0    0  0.24871375532E-02 -0.38194932574E-02  0.23433752918E-01  0.10200571041E+01  0.10197777113E+01 0.  0.
     999903    2    3    3    0    0 -0.96020356553E-01  0.55139423101E-02  0.88524381025E-01  0.13212263059E+00  0.19222670092E-01 0.  0.
         14    1    1    2    0    0 -0.24871375532E-02  0.38194932574E-02 -0.23433752918E-01  0.23872895882E-01  0.00000000000E+00 0. -1.
     999901    1    3    3    0    0  0.98507494106E-01 -0.93334355675E-02 -0.65090628107E-01  0.88793447353E+00  0.88000000000E+00 0. -1.
        -11    1    4    4    0    0 -0.20905879939E-01 -0.67357203081E-02  0.19471525212E-01  0.29356892873E-01  0.51100000000E-03 0. -1.
         11    1    4    4    0    0 -0.75114476614E-01  0.12249662618E-01  0.69052855814E-01  0.10276573772E+00  0.51100000000E-03 0.  1.
</event>
<event>
 8    1  0.1123191E+005  0.1043930E+01  0.7957747E-01            NaN
         13   -1    0    0    0    0  0.00000000000E+00  0.00000000000E+00  0.74505805969E-08  0.10566000000E+00  0.10566000000E+00 0. -1.
     999900   -1    0    0    0    0 -0.00000000000E+00 -0.00000000000E+00 -0.74505805969E-08  0.93827000000E+00  0.93827000000E+00 0. -1.
     999902    2    1    2    0    0  0.10277052424E-01 -0.98919493428E-02 -0.19205941894E-01  0.10200064411E+01  0.10197258470E+01 0.  0.
     999903    2    3    3    0    0  0.46418496490E-01 -0.80283768203E-01  0.88752113466E-01  0.12988501459E+00  0.19824709767E-01 0.  0.
         14    1    1    2    0    0 -0.10277052424E-01  0.98919493428E-02  0.19205941894E-01  0.23923558940E-01  0.00000000000E+00 0. -1.
     999901    1    3    3    0    0 -0.36141444066E-01  0.70391818860E-01 -0.10795805536E+00  0.89012142647E+00  0.88000000000E+00 0. -1.
        -11    1    4    4    0    0  0.23305540446E-01 -0.38474096643E-01  0.29604948345E-01  0.53852747521E-01  0.51100000000E-03 0. -1.
         11    1    4    4    0    0  0.23112956044E-01 -0.41809671560E-01  0.59147165121E-01  0.76032267070E-01  0.51100000000E-03 0.  1.
</event>
<event>
 8    1  0.1123191E+005  0.1043930E+01  0.7957747E-01            NaN
         13   -1    0    0    0    0  0.00000000000E+00  0.00000000000E+00  0.74505805969E-08  0.10566000000E+00  0.10566000000E+00 0. -1.
     999900   -1    0    0    0    0 -0.00000000000E+00 -0.00000000000E+00 -0.74505805969E-08  0.93827000000E+00  0.93827000000E+00 0.  1.
     999902    2    1    2    0    0  0.58662530360E-02  0.18726816128E-01  0.11250029732E-01  0.10213098821E+01  0.10210593545E+01 0.  0.
     999903    2    3    3    0    0  0.12086942235E+00 -0.30685202844E-01  0.39022940270E-01  0.13201880983E+00  0.18846149429E-01 0.  0.
         14    1    1    2    0    0 -0.58662530360E-02 -0.18726816128E-01 -0.11250029732E-01  0.22620117947E-01  0.00000000000E+00 0.  1.
     999901    1    3    3    0    0 -0.11500316932E+00  0.49412018971E-01 -0.27772910537E-01  0.88929107222E+00  0.88000000000E+00 0.  1.
        -11    1    4    4    0    0  0.14770438805E-01  0.19149791975E-02  0.72026755890E-02  0.16552119636E-01  0.51100000000E-03 0. -1.
         11    1    4    4    0    0  0.10609898355E+00 -0.32600182041E-01  0.31820264681E-01  0.11546669020E+00  0.51100000000E-03 0.  1.
</event>
<event>
 8    1  0.1123191E+005  0.1043930E+01  0.7957747E-01            NaN
         13   -1    0    0    0    0  0.00000000000E+00  0.00000000000E+00  0.74505805969E-08  0.10566000000E+00  0.10566000000E+00 0.  1.
     999900   -1    0    0    0    0 -0.00000000000E+00 -0.00000000000E+00 -0.74505805969E-08  0.93827000000E+00  0.93827000000E+00 0.  1.
     999902    2    1    2    0    0  0.12959732535E-01 -0.15241253978E-01 -0.11520234078E-01  0.10208439375E+01  0.10205828621E+01 0.  0.
     999903    2    3    3    0    0 -0.88845676772E-02 -0.13114616398E+00 -0.78678061334E-02  0.13296755990E+00  0.18444992342E-01 0.  0.
         14    1    1    2    0    0 -0.12959732535E-01  0.15241253978E-01  0.11520234078E-01  0.23086062536E-01  0.00000000000E+00 0.  1.
     999901    1    3    3    0    0  0.21844300212E-01  0.11590491000E+00 -0.36524279446E-02  0.88787637757E+00  0.88000000000E+00 0. -1.
        -11    1    4    4    0    0  0.42327756694E-02 -0.60008881914E-01  0.37307104805E-03  0.60161304851E-01  0.51100000000E-03 0.  1.
         11    1    4    4    0    0 -0.13117343347E-01 -0.71137282064E-01 -0.82408771815E-02  0.72806255045E-01  0.51100000000E-03 0. -1.
</event>
<event>
 8    1  0.1123191E+005  0.1043930E+01  0.7957747E-01            NaN
         13   -1    0    0    0    0  0.00000000000E+00  0.00000000000E+00  0.74505805969E-08  0.10566000000E+00  0.10566000000E+00 0.  1.
     999900   -1    0    0    0    0 -0.00000000000E+00 -0.00000000000E+00 -0.74505805969E-08  0.93827000000E+00  0.93827000000E+00 0.  1.
     999902    2    1    2    0    0  0.23065355929E-01 -0.52073645679E-02 -0.23068923014E-02  0.10201718637E+01  0.10198951821E+01 0.  0.
     999903    2    3    3    0    0 -0.36626781203E-01  0.67196620934E-01 -0.10249957956E+00  0.12952936360E+00  0.20366277444E-01 0.  0.
         14    1    1    2    0    0 -0.23065355929E-01  0.52073645679E-02  0.23068923014E-02  0.23758136332E-01  0.00000000000E+00 0.  1.
     999901    1    3    3    0    0  0.59692137132E-01 -0.72403985502E-01  0.10019268726E+00  0.89064250007E+00  0.88000000000E+00 0. -1.
        -11    1    4    4    0    0 -0.34407837255E-01  0.52361271558E-01 -0.71375870582E-01  0.94975670812E-01  0.51100000000E-03 0.  1.
         11    1    4    4    0    0 -0.22189439478E-02  0.14835349376E-01 -0.31123708982E-01  0.34553692786E-01  0.51100000000E-03 0. -1.
</event>
<event>
 8    1  0.1123191E+005  0.1043930E+01  0.7957747E-01            NaN
         13   -1    0    0    0    0  0.00000000000E+00  0.00000000000E+00  0.74505805969E-08  0.10566000000E+00  0.10566000000E+00 0. -1.
     999900   -1    0    0    0    0 -0.00000000000E+00 -0.00000000000E+00 -0.74505805969E-08  0.93827000000E+00  0.93827000000E+00 0. -1.
     999902    2    1    2    0    0 -0.17685916641E-01 -0.10770867050E-01  0.12014934409E-01  0.10199892007E+01  0.10197081973E+01 0.  0.
     999903    2    3    3    0    0 -0.11782533481E+00  0.13828984280E-01  0.56050807407E-01  0.13287465683E+00  0.20974534279E-01 0.  0.
         14    1    1    2    0    0  0.17685916641E-01  0.10770867050E-01 -0.12014934409E-01  0.23940799345E-01  0.00000000000E+00 0.  1.
     999901    1    3    3    0    0  0.10013941816E+00 -0.24599851330E-01 -0.44035872998E-01  0.88711454383E+00  0.88000000000E+00 0. -1.
        -11    1    4    4    0    0 -0.96729336159E-01  0.16485257046E-01  0.38909142151E-01  0.10555809129E+00  0.51100000000E-03 0.  1.
         11    1    4    4    0    0 -0.21095998647E-01 -0.26562727661E-02  0.17141665256E-01  0.27316565536E-01  0.51100000000E-03 0. -1.
</event>
<event>
 8    1  0.1123191E+005  0.1043930E+01  0.7957747E-01            NaN
         13   -1    0    0    0    0  0.00000000000E+00  0.00000000000E+00  0.74505805969E-08  0.10566000000E+00  0.10566000000E+00 0. -1.
     999900   -1    0    0    0    0 -0.00000000000E+00 -0.00000000000E+00 -0.74505805969E-08  0.93827000000E+00  0.93827000000E+00 0. -1.
     999902    2    1    2    0    0 -0.79656033816E-02  0.16972892364E-01 -0.14009388051E-01  0.10205250248E+01  0.10202566017E+01 0.  0.
     999903    2    3    3    0    0 -0.42413711414E-01 -0.78161136551E-01 -0.94198285383E-01  0.13110531795E+00  0.20179228007E-01 0.  0.
         14    1    1    2    0    0  0.79656033816E-02 -0.16972892364E-01  0.14009388051E-01  0.23404975240E-01  0.00000000000E+00 0. -1.
     999901    1    3    3    0    0  0.34448108032E-01  0.95134028916E-01  0.80188897332E-01  0.88941970681E+00  0.88000000000E+00 0.  1.
        -11    1    4    4    0    0 -0.10767547372E-01 -0.25443729819E-01 -0.42893155740E-01  0.51023596441E-01  0.51100000000E-03 0. -1.
         11    1    4    4    0    0 -0.31646164042E-01 -0.52717406733E-01 -0.51305129643E-01  0.80081721509E-01  0.51100000000E-03 0.  1.
</event>
<event>
 8    1  0.1123191E+005  0.1043930E+01  0.7957747E-01            NaN
         13   -1    0    0    0    0  0.00000000000E+00  0.00000000000E+00  0.74505805969E-08  0.10566000000E+00  0.10566000000E+00 0.  1.
     999900   -1    0    0    0    0 -0.00000000000E+00 -0.00000000000E+00 -0.74505805969E-08  0.93827000000E+00  0.93827000000E+00 0.  1.
     999902    2    1    2    0    0 -0.23955730181E-01 -0.41857019608E-02  0.22800867965E-02  0.10195046872E+01  0.10192120541E+01 0.  0.
     999903    2    3    3    0    0 -0.65786612637E-01  0.40360186549E-01 -0.10398304255E+00  0.13100819786E+00  0.19845697509E-01 0.  0.
         14    1    1    2    0    0  0.23955730181E-01  0.41857019608E-02 -0.22800867965E-02  0.24425312797E-01  0.00000000000E+00 0. -1.
     999901    1    3    3    0    0  0.41830882456E-01 -0.44545888510E-01  0.10626312934E+00  0.88849648934E+00  0.88000000000E+00 0. -1.
        -11    1    4    4    0    0 -0.14436641016E-01  0.13909381193E-01 -0.15529107422E-01  0.25363394633E-01  0.51100000000E-03 0.  1.
         11    1    4    4    0    0 -0.51349971621E-01  0.26450805356E-01 -0.88453935126E-01  0.10564480323E+00  0.51100000000E-03 0. -1.
</event>
<event>
 7    1  0.1123191E+005  0.1043930E+01  0.7957747E-01            NaN
         13   -1    0    0    0    0  0.00000000000E+00  0.00000000000E+00  0.74505805969E-08  0.10566000000E+00  0.10566000000E+00 0. -1.
     999900   -1    0    0    0    0 -0.00000000000E+00 -0.00000000000E+00 -0.74505805969E-08  0.93827000000E+00  0.93827000000E+00 0. -1.
     999903    2    1    2    0    0 -0.46768891296E-01 -0.89967170012E-01 -0.18762353538E-01  0.10507211277E+00  0.20166856451E-01 0.  0.
         14    1    1    2    0    0  0.72233395473E-02  0.25592824313E-01 -0.46123588334E-01  0.53240536167E-01  0.00000000000E+00 0.  1.
     999901    1    1    2    0    0  0.39545551749E-01  0.64374345699E-01  0.64885941873E-01  0.88561735106E+00  0.88000000000E+00 0.  1.
        -11    1    3    3    0    0 -0.25273817425E-01 -0.56484901092E-01 -0.20611797283E-02  0.61917844613E-01  0.51100000000E-03 0. -1.
         11    1    3    3    0    0 -0.21495073871E-01 -0.33482268920E-01 -0.16701173810E-01  0.43154268159E-01  0.51100000000E-03 0.  1.
</event>
<event>
 8    1  0.1123191E+005  0.1043930E+01  0.7957747E-01            NaN
         13   -1    0    0    0    0  0.00000000000E+00  0.00000000000E+00  0.74505805969E-08  0.10566000000E+00  0.10566000000E+00 0. -1.
     999900   -1    0    0    0    0 -0.00000000000E+00 -0.00000000000E+00 -0.74505805969E-08  0.93827000000E+00  0.93827000000E+00 0. -1.
     999902    2    1    2    0    0  0.10927770237E-01 -0.14565448938E-01  0.15303009509E-01  0.10201444883E+01  0.10198671612E+01 0.  0.
     999903    2    3    3    0    0  0.12217627334E+00 -0.15946893063E-01 -0.41022838017E-01  0.13135275855E+00  0.19731415955E-01 0.  0.
         14    1    1    2    0    0 -0.10927770237E-01  0.14565448938E-01 -0.15303009509E-01  0.23785511665E-01  0.00000000000E+00 0.  1.
     999901    1    3    3    0    0 -0.11124850310E+00  0.13814441253E-02  0.56325847527E-01  0.88879172978E+00  0.88000000000E+00 0. -1.
        -11    1    4    4    0    0  0.32750198033E-01 -0.12154496044E-01 -0.15909444263E-01  0.38388524106E-01  0.51100000000E-03 0.  1.
         11    1    4    4    0    0  0.89426075304E-01 -0.37923970194E-02 -0.25113393754E-01  0.92964234446E-01  0.51100000000E-03 0. -1.
</event>
<event>
 8    1  0.1123191E+005  0.1043930E+01  0.7957747E-01            NaN
         13   -1    0    0    0    0  0.00000000000E+00  0.00000000000E+00  0.74505805969E-08  0.10566000000E+00  0.10566000000E+00 0.  1.
     999900   -1    0    0    0    0 -0.00000000000E+00 -0.00000000000E+00 -0.74505805969E-08  0.93827000000E+00  0.93827000000E+00 0.  1.
     999902    2    1    2    0    0 -0.22638302137E-02  0.46524210913E-02 -0.23011974125E-01  0.10203435441E+01  0.10200708932E+01 0.  0.
     999903    2    3    3    0    0  0.76698679957E-02  0.11068645907E+00 -0.69935250216E-01  0.13268162117E+00  0.20078702036E-01 0.  0.
         14    1    1    2    0    0  0.22638302137E-02 -0.46524210913E-02  0.23011974125E-01  0.23586455909E-01  0.00000000000E+00 0.  1.
     999901    1    3    3    0    0 -0.99336982095E-02 -0.10603403798E+00  0.46923276091E-01  0.88766192292E+00  0.88000000000E+00 0.  1.
        -11    1    4    4    0    0  0.11470427146E-01  0.42878209225E-01 -0.33481687442E-01  0.55600324102E-01  0.51100000000E-03 0.  1.
         11    1    4    4    0    0 -0.38005591501E-02  0.67808249847E-01 -0.36453562774E-01  0.77081297065E-01  0.51100000000E-03 0. -1.
</event>
<event>
 8    1  0.1123191E+005  0.1043930E+01  0.7957747E-01            NaN
         13   -1    0    0    0    0  0.00000000000E+00  0.00000000000E+00  0.74505805969E-08  0.10566000000E+00  0.10566000000E+00 0. -1.
     999900   -1    0    0    0    0 -0.00000000000E+00 -0.00000000000E+00 -0.74505805969E-08  0.93827000000E+00  0.93827000000E+00 0.  1.
     999902    2    1    2    0    0 -0.12156961084E-01 -0.19897741018E-01  0.46604854864E-03  0.10206077145E+01  0.10203412066E+01 0.  0.
     999903    2    3    3    0    0  0.80608465300E-02  0.50038183666E-01 -0.11774212501E+00  0.12972446422E+00  0.19910588744E-01 0.  0.
         14    1    1    2    0    0  0.12156961084E-01  0.19897741018E-01 -0.46604854864E-03  0.23322285516E-01  0.00000000000E+00 0.  1.
     999901    1    3    3    0    0 -0.20217807614E-01 -0.69935924684E-01  0.11820817356E+00  0.89088325026E+00  0.88000000000E+00 0. -1.
        -11    1    4    4    0    0  0.12838537212E-01  0.28134659528E-01 -0.80691754049E-01  0.86416476420E-01  0.51100000000E-03 0.  1.
         11    1    4    4    0    0 -0.47776906821E-02  0.21903524139E-01 -0.37050370960E-01  0.43307987799E-01  0.51100000000E-03 0. -1.
</event>
<event>
 8    1  0.1123191E+005  0.1043930E+01  0.7957747E-01            NaN
         13   -1    0    0    0    0  0.00000000000E+00  0.00000000000E+00  0.74505805969E-08  0.10566000000E+00  0.10566000000E+00 0. -1.
     999900   -1    0    0    0    0 -0.00000000000E+00 -0.00000000000E+00 -0.74505805969E-08  0.93827000000E+00  0.93827000000E+00 0. -1.
     999902    2    1    2    0    0 -0.69874374558E-02  0.20679046713E-02  0.22785071158E-01  0.10200080440E+01  0.10197274880E+01 0.  0.
     999903    2    3    3    0    0  0.15506695699E-01  0.12552284620E+00 -0.21738628275E-01  0.12999148884E+00  0.20706923516E-01 0.  0.
         14    1    1    2    0    0  0.69874374558E-02 -0.20679046713E-02 -0.22785071158E-01  0.23921956016E-01  0.00000000000E+00 0.  1.
     999901    1    3    3    0    0 -0.22494133155E-01 -0.12345494153E+00  0.44523699433E-01  0.89001655514E+00  0.88000000000E+00 0.  1.
        -11    1    4    4    0    0  0.83891429813E-02  0.42003383977E-01  0.19640169773E-02  0.42881003593E-01  0.51100000000E-03 0. -1.
         11    1    4    4    0    0  0.71175527175E-02  0.83519462227E-01 -0.23702645252E-01  0.87110485249E-01  0.51100000000E-03 0.  1.
</event>
<event>
 8    1  0.1123191E+005  0.1043930E+01  0.7957747E-01            NaN
         13   -1    0    0    0    0  0.00000000000E+00  0.00000000000E+00  0.74505805969E-08  0.10566000000E+00  0.10566000000E+00 0.  1.
     999900   -1    0    0    0    0 -0.00000000000E+00 -0.00000000000E+00 -0.74505805969E-08  0.93827000000E+00  0.93827000000E+00 0.  1.
     999902    2    1    2    0    0  0.13958279949E-01  0.12505936111E-01  0.14893851234E-01  0.10199913530E+01  0.10197104007E+01 0.  0.
     999903    2    3    3    0    0 -0.12405297145E+00 -0.26427320646E-01  0.74970243110E-02  0.12835374887E+00  0.18191659455E-01 0.  0.
         14    1    1    2    0    0 -0.13958279949E-01 -0.12505936111E-01 -0.14893851234E-01  0.23938647033E-01  0.00000000000E+00 0. -1.
     999901    1    3    3    0    0  0.13801125140E+00  0.38933256757E-01  0.73968269234E-02  0.89163760410E+00  0.88000000000E+00 0.  1.
        -11    1    4    4    0    0 -0.73099505148E-01 -0.24015680275E-01  0.12091401024E-02  0.76954620996E-01  0.51100000000E-03 0. -1.
         11    1    4    4    0    0 -0.50953466300E-01 -0.24116403711E-02  0.62878842087E-02  0.51399127873E-01  0.51100000000E-03 0.  1.
</event>
<event>
 8    1  0.1123191E+005  0.1043930E+01  0.7957747E-01            NaN
         13   -1    0    0    0    0  0.00000000000E+00  0.00000000000E+00  0.74505805969E-08  0.10566000000E+00  0.10566000000E+00 0. -1.
     999900   -1    0    0    0    0 -0.00000000000E+00 -0.00000000000E+00 -0.74505805969E-08  0.93827000000E+00  0.93827000000E+00 0.  1.
     999902    2    1    2    0    0 -0.25287223876E-02 -0.18268327467E-02  0.23845666384E-01  0.10198811422E+01  0.10195975661E+01 0.  0.
     999903    2    3    3    0    0  0.45184262266E-01  0.86597907814E-01 -0.80298647991E-01  0.12806193305E+00  0.20277342835E-01 0.  0.
         14    1    1    2    0    0  0.25287223876E-02  0.18268327467E-02 -0.23845666384E-01  0.24048857771E-01  0.00000000000E+00 0.  1.
     999901    1    3    3    0    0 -0.47712984654E-01 -0.88424740561E-01  0.10414431437E+00  0.89181920918E+00  0.88000000000E+00 0. -1.
        -11    1    4    4    0    0  0.13428736614E-01  0.10191760858E-01 -0.16307673142E-01  0.23460696510E-01  0.51100000000E-03 0. -1.
         11    1    4    4    0    0  0.31755525652E-01  0.76406146956E-01 -0.63990974849E-01  0.10460123654E+00  0.51100000000E-03 0.  1.
</event>
<event>
 8    1  0.1123191E+005  0.1043930E+01  0.7957747E-01            NaN
         13   -1    0    0    0    0  0.00000000000E+00  0.00000000000E+00  0.74505805969E-08  0.10566000000E+00  0.10566000000E+00 0. -1.
     999900   -1    0    0    0    0 -0.00000000000E+00 -0.00000000000E+00 -0.74505805969E-08  0.93827000000E+00  0.93827000000E+00 0. -1.
     999902    2    1    2    0    0 -0.22192369510E-01 -0.44810322731E-03  0.56367565416E-02  0.10210285790E+01  0.10207717100E+01 0.  0.
     999903    2    3    3    0    0  0.50679458252E-01 -0.45812132175E-01 -0.10821343526E+00  0.12955223908E+00  0.20161253385E-01 0.  0.
         14    1    1    2    0    0  0.22192369510E-01  0.44810322731E-03 -0.56367565416E-02  0.22901421032E-01  0.00000000000E+00 0. -1.
     999901    1    3    3    0    0 -0.72871827762E-01  0.45364028947E-01  0.11385019180E+00  0.89147633989E+00  0.88000000000E+00 0.  1.
        -11    1    4    4    0    0  0.40014426011E-01 -0.24307743338E-01 -0.77819813522E-01  0.90819629886E-01  0.51100000000E-03 0.  1.
         11    1    4    4    0    0  0.10665032242E-01 -0.21504388837E-01 -0.30393621735E-01  0.38732609196E-01  0.51100000000E-03 0. -1.
</event>
<event>
 8    1  0.1123191E+005  0.1043930E+01  0.7957747E-01            NaN
         13   -1    0    0    0    0  0.00000000000E+00  0.00000000000E+00  0.74505805969E-08  0.10566000000E+00  0.10566000000E+00 0. -1.
     999900   -1    0    0    0    0 -0.00000000000E+00 -0.00000000000E+00 -0.74505805969E-08  0.93827000000E+00  0.93827000000E+00 0. -1.
     999902    2    1    2    0    0 -0.16235302899E-01 -0.36223950061E-02  0.16081333910E-01  0.10207931008E+01  0.10205308611E+01 0.  0.
     999903    2    3    3    0    0  0.72738652976E-01  0.21207000755E-01 -0.10142087778E+00  0.12819037084E+00  0.20147660147E-01 0.  0.
         14    1    1    2    0    0  0.16235302899E-01  0.36223950061E-02 -0.16081333910E-01  0.23136899233E-01  0.00000000000E+00 0.  1.
     999901    1    3    3    0    0 -0.88973955875E-01 -0.24829395761E-01  0.11750221169E+00  0.89260272993E+00  0.88000000000E+00 0.  1.
        -11    1    4    4    0    0  0.22748058366E-01  0.12659450656E-01 -0.47471170561E-01  0.54143411471E-01  0.51100000000E-03 0. -1.
         11    1    4    4    0    0  0.49990594609E-01  0.85475500997E-02 -0.53949707217E-01  0.74046959370E-01  0.51100000000E-03 0.  1.
</event>
<event>
 8    1  0.1123191E+005  0.1043930E+01  0.7957747E-01            NaN
         13   -1    0    0    0    0  0.00000000000E+00  0.00000000000E+00  0.74505805969E-08  0.10566000000E+00  0.10566000000E+00 0. -1.
     999900   -1    0    0    0    0 -0.00000000000E+00 -0.00000000000E+00 -0.74505805969E-08  0.93827000000E+00  0.93827000000E+00 0.  1.
     999902    2    1    2    0    0  0.17739721155E-03 -0.73133003878E-02  0.20458224261E-01  0.10222031785E+01  0.10219722518E+01 0.  0.
     999903    2    3    3    0    0 -0.86645885698E-01 -0.47412388446E-01  0.88933986155E-01  0.13437709797E+00  0.19811776244E-01 0.  0.
         14    1    1    2    0    0 -0.17739721155E-03  0.73133003878E-02 -0.20458224261E-01  0.21726821494E-01  0.00000000000E+00 0. -1.
     999901    1    3    3    0    0  0.86823282910E-01  0.40099088058E-01 -0.68475761895E-01  0.88782608054E+00  0.88000000000E+00 0.  1.
        -11    1    4    4    0    0 -0.54690694960E-01 -0.23279702499E-01  0.42574108708E-01  0.73115200314E-01  0.51100000000E-03 0. -1.
         11    1    4    4    0    0 -0.31955190738E-01 -0.24132685947E-01  0.46359877447E-01  0.61261897653E-01  0.51100000000E-03 0.  1.
</event>
<event>
 8    1  0.1123191E+005  0.1043930E+01  0.7957747E-01            NaN
         13   -1    0    0    0    0  0.00000000000E+00  0.00000000000E+00  0.74505805969E-08  0.10566000000E+00  0.10566000000E+00 0. -1.
     999900   -1    0    0    0    0 -0.00000000000E+00 -0.00000000000E+00 -0.74505805969E-08  0.93827000000E+00  0.93827000000E+00 0. -1.
     999902    2    1    2    0    0  0.83589151736E-03  0.12250999429E-02 -0.23115237078E-01  0.10207672331E+01  0.10205044000E+01 0.  0.
     999903    2    3    3    0    0  0.82469965958E-01  0.72002491835E-01  0.66549522310E-01  0.12963686645E+00  0.19779385957E-01 0.  0.
         14    1    1    2    0    0 -0.83589151736E-03 -0.12250999429E-02  0.23115237078E-01  0.23162766883E-01  0.00000000000E+00 0. -1.
     999901    1    3    3    0    0 -0.81634074441E-01 -0.70777391892E-01 -0.89664759387E-01  0.89113036666E+00  0.88000000000E+00 0.  1.
        -11    1    4    4    0    0  0.56449109784E-01  0.45738358765E-01  0.54234323566E-01  0.90664890843E-01  0.51100000000E-03 0. -1.
         11    1    4    4    0    0  0.26020856174E-01  0.26264133070E-01  0.12315198744E-01  0.38971975611E-01  0.51100000000E-03 0.  1.
</event>
<event>
 8    1  0.1123191E+005  0.1043930E+01  0.7957747E-01            NaN
         13   -1    0    0    0    0  0.00000000000E+00  0.00000000000E+00  0.74505805969E-08  0.10566000000E+00  0.10566000000E+00 0.  1.
     999900   -1    0    0    0    0 -0.00000000000E+00 -0.00000000000E+00 -0.74505805969E-08  0.93827000000E+00  0.93827000000E+00 0.  1.
     999902    2    1    2    0    0 -0.23827957696E-01  0.24035251852E-02 -0.70292044578E-02  0.10189708691E+01  0.10186651431E+01 0.  0.
     999903    2    3    3    0    0  0.35803028555E-01 -0.84007738902E-01 -0.89469934171E-01  0.12890388564E+00  0.16498047265E-01 0.  0.
         14    1    1    2    0    0  0.23827957696E-01 -0.24035251852E-02  0.70292044578E-02  0.24959130926E-01  0.00000000000E+00 0.  1.
     999901    1    3    3    0    0 -0.59630986251E-01  0.86411264087E-01  0.82440729713E-01  0.89006698343E+00  0.88000000000E+00 0. -1.
        -11    1    4    4    0    0  0.12600168636E-01 -0.18938184052E-01 -0.14618303174E-01  0.27043945229E-01  0.51100000000E-03 0. -1.
         11    1    4    4    0    0  0.23202859919E-01 -0.65069554850E-01 -0.74851630998E-01  0.10185994041E+00  0.51100000000E-03 0.  1.
</event>
<event>
 8    1  0.1123191E+005  0.1043930E+01  0.7957747E-01            NaN
         13   -1    0    0    0    0  0.00000000000E+00  0.00000000000E+00  0.74505805969E-08  0.10566000000E+00  0.10566000000E+00 0. -1.
     999900   -1    0    0    0    0 -0.00000000000E+00 -0.00000000000E+00 -0.74505805969E-08  0.93827000000E+00  0.93827000000E+00 0. -1.
     999902    2    1    2    0    0 -0.98646660042E-02  0.73038010677E-02 -0.21599957653E-01  0.10190861815E+01  0.10187833087E+01 0.  0.
     999903    2    3    3    0    0  0.89702745393E-02  0.30599555980E-01  0.12140018075E+00  0.12703994576E+00  0.19604725992E-01 0.  0.
         14    1    1    2    0    0  0.98646660042E-02 -0.73038010677E-02  0.21599957653E-01  0.24843818467E-01  0.00000000000E+00 0. -1.
     999901    1    3    3    0    0 -0.18834940544E-01 -0.23295754912E-01 -0.14300013840E+00  0.89204623578E+00  0.88000000000E+00 0. -1.
        -11    1    4    4    0    0  0.52776072389E-03  0.93627748670E-02  0.71968425397E-01  0.72578615720E-01  0.51100000000E-03 0.  1.
         11    1    4    4    0    0  0.84425138155E-02  0.21236781113E-01  0.49431755348E-01  0.54461330036E-01  0.51100000000E-03 0. -1.
</event>
<event>
 8    1  0.1123191E+005  0.1043930E+01  0.7957747E-01            NaN
         13   -1    0    0    0    0  0.00000000000E+00  0.00000000000E+00  0.74505805969E-08  0.10566000000E+00  0.10566000000E+00 0. -1.
     999900   -1    0    0    0    0 -0.00000000000E+00 -0.00000000000E+00 -0.74505805969E-08  0.93827000000E+00  0.93827000000E+00 0. -1.
     999902    2    1    2    0    0 -0.88973467397E-02 -0.12816849647E-01  0.17556783860E-01  0.10204422357E+01  0.10201718881E+01 0.  0.
     999903    2    3    3    0    0 -0.10090336877E+00 -0.32052230556E-01  0.78455705640E-01  0.13334371428E+00  0.20406201957E-01 0.  0.
         14    1    1    2    0    0  0.88973467397E-02  0.12816849647E-01 -0.17556783860E-01  0.23487764333E-01  0.00000000000E+00 0. -1.
     999901    1    3    3    0    0  0.92006022031E-01  0.19235380910E-01 -0.60898921780E-01  0.88709852138E+00  0.88000000000E+00 0.  1.
        -11    1    4    4    0    0 -0.30315289523E-01 -0.16689026097E-01  0.17302386392E-01  0.38693333622E-01  0.51100000000E-03 0.  1.
         11    1    4    4    0    0 -0.70588079247E-01 -0.15363204460E-01  0.61153319248E-01  0.94650380660E-01  0.51100000000E-03 0. -1.
</event>
<event>
 8    1  0.1123191E+005  0.1043930E+01  0.7957747E-01            NaN
         13   -1    0    0    0    0  0.00000000000E+00  0.00000000000E+00  0.74505805969E-08  0.10566000000E+00  0.10566000000E+00 0. -1.
     999900   -1    0    0    0    0 -0.00000000000E+00 -0.00000000000E+00 -0.74505805969E-08  0.93827000000E+00  0.93827000000E+00 0.  1.
     999902    2    1    2    0    0  0.80223787292E-03  0.16392809795E-01 -0.17553974101E-01  0.10198985663E+01  0.10196154058E+01 0.  0.
     999903    2    3    3    0    0  0.66149496231E-01  0.71174665698E-01 -0.88457216440E-01  0.13293825959E+00  0.20157203046E-01 0.  0.
         14    1    1    2    0    0 -0.80223787292E-03 -0.16392809795E-01  0.17553974101E-01  0.24031433692E-01  0.00000000000E+00 0. -1.
     999901    1    3    3    0    0 -0.65347258358E-01 -0.54781855903E-01  0.70903242340E-01  0.88696030671E+00  0.88000000000E+00 0.  1.
        -11    1    4    4    0    0 -0.37806171832E-03  0.22362588032E-02 -0.63516622084E-02  0.67637650689E-02  0.51100000000E-03 0. -1.
         11    1    4    4    0    0  0.66527557950E-01  0.68938406895E-01 -0.82105554232E-01  0.12617449453E+00  0.51100000000E-03 0.  1.
</event>
<event>
 8    1  0.1123191E+005  0.1043930E+01  0.7957747E-01            NaN
         13   -1    0    0    0    0  0.00000000000E+00  0.00000000000E+00  0.74505805969E-08  0.10566000000E+00  0.10566000000E+00 0.  1.
     999900   -1    0    0    0    0 -0.00000000000E+00 -0.00000000000E+00 -0.74505805969E-08  0.93827000000E+00  0.93827000000E+00 0. -1.
     999902    2    1    2    0    0  0.13276205067E-01 -0.10169354661E-02 -0.19638870231E-01  0.10202028636E+01  0.10199269120E+01 0.  0.
     999903    2    3    3    0    0 -0.11578322990E+00  0.34037178258E-01  0.38427341483E-01  0.12820689185E+00  0.19901274214E-01 0.  0.
         14    1    1    2    0    0 -0.13276205067E-01  0.10169354661E-02  0.19638870231E-01  0.23727136420E-01  0.00000000000E+00 0.  1.
     999901    1    3    3    0    0  0.12905943496E+00 -0.35054113724E-01 -0.58066211714E-01  0.89199597173E+00  0.88000000000E+00 0. -1.
        -11    1    4    4    0    0 -0.43894099624E-01  0.43314661171E-02  0.19018369357E-01  0.48035539703E-01  0.51100000000E-03 0. -1.
         11    1    4    4    0    0 -0.71889130271E-01  0.29705712141E-01  0.19408972126E-01  0.80171352146E-01  0.51100000000E-03 0.  1.
</event>
<event>
 8    1  0.1123191E+005  0.1043930E+01  0.7957747E-01            NaN
         13   -1    0    0    0    0  0.00000000000E+00  0.00000000000E+00  0.74505805969E-08  0.10566000000E+00  0.10566000000E+00 0. -1.
     999900   -1    0    0    0    0 -0.00000000000E+00 -0.00000000000E+00 -0.74505805969E-08  0.93827000000E+00  0.93827000000E+00 0. -1.
     999902    2    1    2    0    0  0.77759135632E-02  0.85568005275E-02 -0.20114029938E-01  0.10207296149E+01  0.10204659176E+01 0.  0.
     999903    2    3    3    0    0  0.41978999549E-01  0.10638424080E+00 -0.65312070571E-01  0.13349631864E+00  0.21811864575E-01 0.  0.
         14    1    1    2    0    0 -0.77759135632E-02 -0.85568005275E-02  0.20114029938E-01  0.23200385070E-01  0.00000000000E+00 0. -1.
     999901    1    3    3    0    0 -0.34203085986E-01 -0.97827440270E-01  0.45198040633E-01  0.88723329629E+00  0.88000000000E+00 0.  1.
        -11    1    4    4    0    0  0.19192993307E-01  0.64200559827E-01 -0.48370654231E-01  0.82644202374E-01  0.51100000000E-03 0.  1.
         11    1    4    4    0    0  0.22786006242E-01  0.42183680970E-01 -0.16941416340E-01  0.50852116271E-01  0.51100000000E-03 0. -1.
</event>
<event>
 8    1  0.1123191E+005  0.1043930E+01  0.7957747E-01            NaN
         13   -1    0    0    0    0  0.00000000000E+00  0.00000000000E+00  0.74505805969E-08  0.10566000000E+00  0.10566000000E+00 0.  1.
     999900   -1    0    0    0    0 -0.00000000000E+00 -0.00000000000E+00 -0.74505805969E-08  0.93827000000E+00  0.93827000000E+00 0. -1.
     999902    2    1    2    0    0  0.25858335804E-02 -0.97343987771E-02  0.21445039594E-01  0.10202374953E+01  0.10199623582E+01 0.  0.
     999903    2    3    3    0    0  0.92163585830E-01 -0.87682999116E-01 -0.24795511818E-01  0.13105902809E+00  0.19473483257E-01 0.  0.
         14    1    1    2    0    0 -0.25858335804E-02  0.97343987771E-02 -0.21445039594E-01  0.23692504681E-01  0.00000000000E+00 0. -1.
     999901    1    3    3    0    0 -0.89577752249E-01  0.77948600339E-01  0.46240551412E-01  0.88917846723E+00  0.88000000000E+00 0. -1.
        -11    1    4    4    0    0  0.19196112829E-01 -0.23294895800E-01  0.15851433055E-02  0.30231055529E-01  0.51100000000E-03 0. -1.
         11    1    4    4    0    0  0.72967473001E-01 -0.64388103315E-01 -0.26380655124E-01  0.10082797256E+00  0.51100000000E-03 0.  1.
</event>
<event>
 8    1  0.1123191E+005  0.1043930E+01  0.7957747E-01            NaN
         13   -1    0    0    0    0  0.00000000000E+00  0.00000000000E+00  0.74505805969E-08  0.10566000000E+00  0.10566000000E+00 0.  1.
     999900   -1    0    0    0    0 -0.00000000000E+00 -0.00000000000E+00 -0.74505805969E-08  0.93827000000E+00  0.93827000000E+00 0. -1.
     999902    2    1    2    0    0 -0.29555437435E-02  0.11687011829E-01  0.20111403143E-01  0.10204823984E+01  0.10202129853E+01 0.  0.
     999903    2    3    3    0    0  0.61810060066E-01 -0.10941541896E+00 -0.18992678189E-01  0.12897271738E+00  0.21932226813E-01 0.  0.
         14    1    1    2    0    0  0.29555437435E-02 -0.11687011829E-01 -0.20111403143E-01  0.23447601598E-01  0.00000000000E+00 0. -1.
     999901    1    3    3    0    0 -0.64765603810E-01  0.12110243079E+00  0.39104081332E-01  0.89150968102E+00  0.88000000000E+00 0.  1.
        -11    1    4    4    0    0  0.40233556737E-02 -0.21316150493E-01  0.10410174015E-02  0.21723501121E-01  0.51100000000E-03 0. -1.
         11    1    4    4    0    0  0.57786704392E-01 -0.88099268463E-01 -0.20033695591E-01  0.10724921626E+00  0.51100000000E-03 0.  1.
</event>
<event>
 8    1  0.1123191E+005  0.1043930E+01  0.7957747E-01            NaN
         13   -1    0    0    0    0  0.00000000000E+00  0.00000000000E+00  0.74505805969E-08  0.10566000000E+00  0.10566000000E+00 0.  1.
     999900   -1    0    0    0    0 -0.00000000000E+00 -0.00000000000E+00 -0.74505805969E-08  0.93827000000E+00  0.93827000000E+00 0.  1.
     999902    2    1    2    0    0  0.88081877990E-02  0.23054803548E-01  0.52256098182E-02  0.10187027303E+01  0.10183903169E+01 0.  0.
     999903    2    3    3    0    0  0.11309735926E+00  0.90274405641E-02 -0.60412948290E-01  0.13000625876E+00  0.19478081059E-01 0.  0.
         14    1    1    2    0    0 -0.88081877990E-02 -0.23054803548E-01 -0.52256098182E-02  0.25227269708E-01  0.00000000000E+00 0. -1.
     999901    1    3    3    0    0 -0.10428917146E+00  0.14027362984E-01  0.65638558108E-01  0.88869647153E+00  0.88000000000E+00 0. -1.
        -11    1    4    4    0    0  0.54302686476E-01  0.10974091106E-01 -0.21273236079E-01  0.59346643784E-01  0.51100000000E-03 0. -1.
         11    1    4    4    0    0  0.58794672785E-01 -0.19466505416E-02 -0.39139712210E-01  0.70659614980E-01  0.51100000000E-03 0.  1.
</event>
<event>
 8    1  0.1123191E+005  0.1043930E+01  0.7957747E-01            NaN
         13   -1    0    0    0    0  0.00000000000E+00  0.00000000000E+00  0.74505805969E-08  0.10566000000E+00  0.10566000000E+00 0. -1.
     999900   -1    0    0    0    0 -0.00000000000E+00 -0.00000000000E+00 -0.74505805969E-08  0.93827000000E+00  0.93827000000E+00 0. -1.
     999902    2    1    2    0    0  0.10889397894E-01 -0.20578963162E-01 -0.24340987866E-02  0.10205206525E+01  0.10202521280E+01 0.  0.
     999903    2    3    3    0    0 -0.10165638306E+00 -0.80419310473E-01 -0.57680422335E-02  0.13133083302E+00  0.20328100615E-01 0.  0.
         14    1    1    2    0    0 -0.10889397894E-01  0.20578963162E-01  0.24340987866E-02  0.23409347454E-01  0.00000000000E+00 0. -1.
     999901    1    3    3    0    0  0.11254578096E+00  0.59840347311E-01  0.33339434469E-02  0.88918981953E+00  0.88000000000E+00 0. -1.
        -11    1    4    4    0    0 -0.62541513489E-01 -0.41610733950E-01  0.45970196875E-02  0.75261462916E-01  0.51100000000E-03 0.  1.
         11    1    4    4    0    0 -0.39114869576E-01 -0.38808576523E-01 -0.10365061921E-01  0.56069370099E-01  0.51100000000E-03 0. -1.
</event>
<event>
 8    1  0.1123191E+005  0.1043930E+01  0.7957747E-01            NaN
         13   -1    0    0    0    0  0.00000000000E+00  0.00000000000E+00  0.74505805969E-08  0.10566000000E+00  0.10566000000E+00 0. -1.
     999900   -1    0    0    0    0 -0.00000000000E+00 -0.00000000000E+00 -0.74505805969E-08  0.93827000000E+00  0.93827000000E+00 0.  1.
     999902    2    1    2    0    0  0.10092934306E-01  0.21070184798E-01  0.20583086566E-02  0.10204767136E+01  0.10202071683E+01 0.  0.
     999903    2    3    3    0    0  0.69393086985E-01  0.81854979107E-01 -0.76431936747E-01  0.13291149458E+00  0.17549538726E-01 0.  0.
         14    1    1    2    0    0 -0.10092934306E-01 -0.21070184798E-01 -0.20583086566E-02  0.23453286440E-01  0.00000000000E+00 0.  1.
     999901    1    3    3    0    0 -0.59300152679E-01 -0.60784794309E-01  0.78490245404E-01  0.88756521898E+00  0.88000000000E+00 0. -1.
        -11    1    4    4    0    0  0.33887092434E-01  0.51312756771E-01 -0.37675782313E-01  0.72118373075E-01  0.51100000000E-03 0.  1.
         11    1    4    4    0    0  0.35505994551E-01  0.30542222336E-01 -0.38756154434E-01  0.60793121500E-01  0.51100000000E-03 0. -1.
</event>
<event>
 8    1  0.1123191E+005  0.1043930E+01  0.7957747E-01            NaN
         13   -1    0    0    0    0  0.00000000000E+00  0.00000000000E+00  0.74505805969E-08  0.10566000000E+00  0.10566000000E+00 0. -1.
     999900   -1    0    0    0    0 -0.00000000000E+00 -0.00000000000E+00 -0.74505805969E-08  0.93827000000E+00  0.93827000000E+00 0.  1.
     999902    2    1    2    0    0 -0.16477622132E-01  0.17234533590E-01 -0.37509910182E-02  0.10197926614E+01  0.10195069697E+01 0.  0.
     999903    2    3    3    0    0 -0.95264586874E-01 -0.77628734330E-01  0.38326260663E-01  0.13019897861E+00  0.19527157240E-01 0.  0.
         14    1    1    2    0    0  0.16477622132E-01 -0.17234533590E-01  0.37509910182E-02  0.24137338561E-01  0.00000000000E+00 0. -1.
     999901    1    3    3    0    0  0.78786964742E-01  0.94863267920E-01 -0.42077251681E-01  0.88959368283E+00  0.88000000000E+00 0.  1.
        -11    1    4    4    0    0 -0.20905948775E-01 -0.82042891674E-02  0.38953141376E-02  0.22799202797E-01  0.51100000000E-03 0. -1.
         11    1    4    4    0    0 -0.74358638098E-01 -0.69424445163E-01  0.34430946525E-01  0.10739977582E+00  0.51100000000E-03 0.  1.
</event>
<event>
 8    1  0.1123191E+005  0.1043930E+01  0.7957747E-01            NaN
         13   -1    0    0    0    0  0.00000000000E+00  0.00000000000E+00  0.74505805969E-08  0.10566000000E+00  0.10566000000E+00 0. -1.
     999900   -1    0    0    0    0 -0.00000000000E+00 -0.00000000000E+00 -0.74505805969E-08  0.93827000000E+00  0.93827000000E+00 0.  1.
     999902    2    1    2    0    0  0.43487083719E-02  0.90100475050E-02 -0.22325345887E-01  0.10194654687E+01  0.10191718838E+01 0.  0.
     999903    2    3    3    0    0  0.10304841094E+00 -0.66696765131E-01  0.33948164956E-01  0.12893761360E+00  0.20124532807E-01 0.  0.
         14    1    1    2    0    0 -0.43487083719E-02 -0.90100475050E-02  0.22325345887E-01  0.24464531255E-01  0.00000000000E+00 0. -1.
     999901    1    3    3    0    0 -0.98699702568E-01  0.75706812636E-01 -0.56273510843E-01  0.89052785515E+00  0.88000000000E+00 0.  1.
        -11    1    4    4    0    0  0.59671138998E-01 -0.46030743787E-01  0.28522863516E-01  0.80580947296E-01  0.51100000000E-03 0.  1.
         11    1    4    4    0    0  0.43377271942E-01 -0.20666021344E-01  0.54253014398E-02  0.48356666304E-01  0.51100000000E-03 0. -1.
</event>
<event>
 8    1  0.1123191E+005  0.1043930E+01  0.7957747E-01            NaN
         13   -1    0    0    0    0  0.00000000000E+00  0.00000000000E+00  0.74505805969E-08  0.10566000000E+00  0.10566000000E+00 0. -1.
     999900   -1    0    0    0    0 -0.00000000000E+00 -0.00000000000E+00 -0.74505805969E-08  0.93827000000E+00  0.93827000000E+00 0. -1.
     999902    2    1    2    0    0  0.22970631213E-01 -0.55097721235E-02  0.45062272890E-02  0.10198818489E+01  0.10195982896E+01 0.  0.
     999903    2    3    3    0    0  0.11330032703E+00  0.65546120585E-01  0.19736900464E-02  0.13240519704E+00  0.19848998047E-01 0.  0.
         14    1    1    2    0    0 -0.22970631213E-01  0.55097721235E-02 -0.45062272890E-02  0.24048151105E-01  0.00000000000E+00 0. -1.
     999901    1    3    3    0    0 -0.90329695816E-01 -0.71055892708E-01  0.25325372426E-02  0.88747665185E+00  0.88000000000E+00 0. -1.
        -11    1    4    4    0    0  0.33569044479E-01  0.11991924753E-01  0.65511594815E-02  0.36247287044E-01  0.51100000000E-03 0.  1.
         11    1    4    4    0    0  0.79731282550E-01  0.53554195832E-01 -0.45774694351E-02  0.96157910001E-01  0.51100000000E-03 0. -1.
</event>
<event>
 8    1  0.1123191E+005  0.1043930E+01  0.7957747E-01            NaN
         13   -1    0    0    0    0  0.00000000000E+00  0.00000000000E+00  0.74505805969E-08  0.10566000000E+00  0.10566000000E+00 0. -1.
     999900   -1    0    0    0    0 -0.00000000000E+00 -0.00000000000E+00 -0.74505805969E-08  0.93827000000E+00  0.93827000000E+00 0.  1.
     999902    2    1    2    0    0 -0.22409514943E-01  0.19340624457E-02 -0.68331324961E-02  0.10204221575E+01  0.10201513422E+01 0.  0.
     999903    2    3    3    0    0  0.12181106489E+00 -0.27819910494E-01 -0.19879075947E-01  0.12809090111E+00  0.20005457665E-01 0.  0.
         14    1    1    2    0    0  0.22409514943E-01 -0.19340624457E-02  0.68331324961E-02  0.23507842463E-01  0.00000000000E+00 0. -1.
     999901    1    3    3    0    0 -0.14422057984E+00  0.29753972940E-01  0.13045943451E-01  0.89233125643E+00  0.88000000000E+00 0. -1.
        -11    1    4    4    0    0  0.67816233962E-01 -0.24998234563E-01 -0.14832895778E-01  0.73785020419E-01  0.51100000000E-03 0. -1.
         11    1    4    4    0    0  0.53994830933E-01 -0.28216759312E-02 -0.50461801687E-02  0.54305880693E-01  0.51100000000E-03 0.  1.
</event>
<event>
 8    1  0.1123191E+005  0.1043930E+01  0.7957747E-01            NaN
         13   -1    0    0    0    0  0.00000000000E+00  0.00000000000E+00  0.74505805969E-08  0.10566000000E+00  0.10566000000E+00 0.  1.
     999900   -1    0    0    0    0 -0.00000000000E+00 -0.00000000000E+00 -0.74505805969E-08  0.93827000000E+00  0.93827000000E+00 0.  1.
     999902    2    1    2    0    0 -0.20284853939E-01 -0.13997995220E-02 -0.13120395360E-01  0.10197312498E+01  0.10194440849E+01 0.  0.
     999903    2    3    3    0    0  0.86617684448E-01  0.59455908807E-01  0.67628247124E-01  0.12751383613E+00  0.25467042314E-01 0.  0.
         14    1    1    2    0    0  0.20284853939E-01  0.13997995220E-02  0.13120395360E-01  0.24198750224E-01  0.00000000000E+00 0.  1.
     999901    1    3    3    0    0 -0.10690253839E+00 -0.60855708329E-01 -0.80748642484E-01  0.89221741365E+00  0.88000000000E+00 0.  1.
        -11    1    4    4    0    0  0.61523245959E-01  0.45445111820E-01  0.35263445953E-01  0.84226716208E-01  0.51100000000E-03 0.  1.
         11    1    4    4    0    0  0.25094438489E-01  0.14010796987E-01  0.32364801171E-01  0.43287119922E-01  0.51100000000E-03 0. -1.
</event>
<event>
 8    1  0.1123191E+005  0.1043930E+01  0.7957747E-01            NaN
         13   -1    0    0    0    0  0.00000000000E+00  0.00000000000E+00  0.74505805969E-08  0.10566000000E+00  0.10566000000E+00 0.  1.
     999900   -1    0    0    0    0 -0.00000000000E+00 -0.00000000000E+00 -0.74505805969E-08  0.93827000000E+00  0.93827000000E+00 0. -1.
     999902    2    1    2    0    0 -0.20514264280E-01  0.92180871810E-03  0.16450464516E-01  0.10176183571E+01  0.10172781420E+01 0.  0.
     999903    2    3    3    0    0  0.53412096716E-01  0.11339853718E+00  0.10592028556E-01  0.12736533543E+00  0.19941346193E-01 0.  0.
         14    1    1    2    0    0  0.20514264280E-01 -0.92180871810E-03 -0.16450464516E-01  0.26311642918E-01  0.00000000000E+00 0. -1.
     999901    1    3    3    0    0 -0.73926360995E-01 -0.11247672847E+00  0.58584359602E-02  0.89025302166E+00  0.88000000000E+00 0. -1.
        -11    1    4    4    0    0  0.27637894564E-01  0.36546094145E-01  0.22822559882E-02  0.45879625397E-01  0.51100000000E-03 0.  1.
         11    1    4    4    0    0  0.25774202151E-01  0.76852443039E-01  0.83097725681E-02  0.81485710028E-01  0.51100000000E-03 0. -1.
</event>
<event>
 8    1  0.1123191E+005  0.1043930E+01  0.7957747E-01            NaN
         13   -1    0    0    0    0  0.00000000000E+00  0.00000000000E+00  0.74505805969E-08  0.10566000000E+00  0.10566000000E+00 0.  1.
     999900   -1    0    0    0    0 -0.00000000000E+00 -0.00000000000E+00 -0.74505805969E-08  0.93827000000E+00  0.93827000000E+00 0. -1.
     999902    2    1    2    0    0  0.48010799191E-03  0.12632208499E-01 -0.19246444695E-01  0.10209033018E+01  0.10206435827E+01 0.  0.
     999903    2    3    3    0    0 -0.28868114755E-01  0.41433015947E-01 -0.12234036064E+00  0.13393139687E+00  0.20503472038E-01 0.  0.
         14    1    1    2    0    0 -0.48010799191E-03 -0.12632208499E-01  0.19246444695E-01  0.23026698171E-01  0.00000000000E+00 0.  1.
     999901    1    3    3    0    0  0.29348222747E-01 -0.28800807448E-01  0.10309391594E+00  0.88697190496E+00  0.88000000000E+00 0.  1.
        -11    1    4    4    0    0 -0.24720633989E-01  0.26233884699E-01 -0.63533862014E-01  0.73048882227E-01  0.51100000000E-03 0.  1.
         11    1    4    4    0    0 -0.41474807661E-02  0.15199131247E-01 -0.58806498625E-01  0.60882514640E-01  0.51100000000E-03 0. -1.
</event>
<event>
 8    1  0.1123191E+005  0.1043930E+01  0.7957747E-01            NaN
         13   -1    0    0    0    0  0.00000000000E+00  0.00000000000E+00  0.74505805969E-08  0.10566000000E+00  0.10566000000E+00 0. -1.
     999900   -1    0    0    0    0 -0.00000000000E+00 -0.00000000000E+00 -0.74505805969E-08  0.93827000000E+00  0.93827000000E+00 0.  1.
     999902    2    1    2    0    0 -0.60952678870E-03 -0.16391384308E-01  0.20048474866E-01  0.10180265186E+01  0.10176969108E+01 0.  0.
     999903    2    3    3    0    0  0.73272080922E-01 -0.10573602702E+00  0.58716165080E-02  0.13030925483E+00  0.19927889041E-01 0.  0.
         14    1    1    2    0    0  0.60952678870E-03  0.16391384308E-01 -0.20048474866E-01  0.25903481366E-01  0.00000000000E+00 0.  1.
     999901    1    3    3    0    0 -0.73881607711E-01  0.89344642713E-01  0.14176858357E-01  0.88771726380E+00  0.88000000000E+00 0.  1.
        -11    1    4    4    0    0  0.52787891818E-01 -0.63602648855E-01 -0.26012267167E-02  0.82697557191E-01  0.51100000000E-03 0. -1.
         11    1    4    4    0    0  0.20484189104E-01 -0.42133378166E-01  0.84728432247E-02  0.47611697641E-01  0.51100000000E-03 0.  1.
</event>
<event>
 8    1  0.1123191E+005  0.1043930E+01  0.7957747E-01            NaN
         13   -1    0    0    0    0  0.00000000000E+00  0.00000000000E+00  0.74505805969E-08  0.10566000000E+00  0.10566000000E+00 0.  1.
     999900   -1    0    0    0    0 -0.00000000000E+00 -0.00000000000E+00 -0.74505805969E-08  0.93827000000E+00  0.93827000000E+00 0. -1.
     999902    2    1    2    0    0  0.22057542542E-01 -0.69468015080E-02 -0.90760826969E-02  0.10190871235E+01  0.10187842739E+01 0.  0.
     999903    2    3    3    0    0  0.32167702441E-01 -0.65792677859E-01 -0.10750939487E+00  0.13158829568E+00  0.19843689999E-01 0.  0.
         14    1    1    2    0    0 -0.22057542542E-01  0.69468015080E-02  0.90760826969E-02  0.24842876470E-01  0.00000000000E+00 0.  1.
     999901    1    3    3    0    0 -0.10110159899E-01  0.58845876351E-01  0.98433312175E-01  0.88749882785E+00  0.88000000000E+00 0.  1.
        -11    1    4    4    0    0  0.14582181360E-01 -0.30065494835E-01 -0.32253045514E-01  0.46444526683E-01  0.51100000000E-03 0.  1.
         11    1    4    4    0    0  0.17585521081E-01 -0.35727183025E-01 -0.75256349358E-01  0.85143768993E-01  0.51100000000E-03 0. -1.
</event>
<event>
 8    1  0.1123191E+005  0.1043930E+01  0.7957747E-01            NaN
         13   -1    0    0    0    0  0.00000000000E+00  0.00000000000E+00  0.74505805969E-08  0.10566000000E+00  0.10566000000E+00 0. -1.
     999900   -1    0    0    0    0 -0.00000000000E+00 -0.00000000000E+00 -0.74505805969E-08  0.93827000000E+00  0.93827000000E+00 0.  1.
     999902    2    1    2    0    0  0.21011770313E-01  0.13123748142E-01 -0.17626196418E-02  0.10190938553E+01  0.10187911718E+01 0.  0.
     999903    2    3    3    0    0 -0.47372508079E-01 -0.10290051873E+00  0.53940552279E-01  0.12710681310E+00  0.20344224729E-01 0.  0.
         14    1    1    2    0    0 -0.21011770313E-01 -0.13123748142E-01  0.17626196418E-02  0.24836144728E-01  0.00000000000E+00 0.  1.
     999901    1    3    3    0    0  0.68384278392E-01  0.11602426687E+00 -0.55703171921E-01  0.89198704217E+00  0.88000000000E+00 0.  1.
        -11    1    4    4    0    0 -0.33897535410E-01 -0.89408403322E-01  0.40899896719E-01  0.10399984694E+00  0.51100000000E-03 0.  1.
         11    1    4    4    0    0 -0.13474972669E-01 -0.13492115411E-01  0.13040655561E-01  0.23106966161E-01  0.51100000000E-03 0. -1.
</event>
<event>
 8    1  0.1123191E+005  0.1043930E+01  0.7957747E-01            NaN
         13   -1    0    0    0    0  0.00000000000E+00  0.00000000000E+00  0.74505805969E-08  0.10566000000E+00  0.10566000000E+00 0. -1.
     999900   -1    0    0    0    0 -0.00000000000E+00 -0.00000000000E+00 -0.74505805969E-08  0.93827000000E+00  0.93827000000E+00 0.  1.
     999902    2    1    2    0    0  0.27148134621E-03 -0.81163699158E-02 -0.21415988574E-01  0.10210259888E+01  0.10207690611E+01 0.  0.
     999903    2    3    3    0    0 -0.50726365269E-01  0.91377732392E-01 -0.78455620344E-01  0.13212027031E+00  0.19427489640E-01 0.  0.
         14    1    1    2    0    0 -0.27148134621E-03  0.81163699158E-02  0.21415988574E-01  0.22904011207E-01  0.00000000000E+00 0. -1.
     999901    1    3    3    0    0  0.50997846615E-01 -0.99494102308E-01  0.57039631770E-01  0.88890571848E+00  0.88000000000E+00 0.  1.
        -11    1    4    4    0    0 -0.48685499971E-01  0.73162457286E-01 -0.62871674541E-01  0.10805615042E+00  0.51100000000E-03 0. -1.
         11    1    4    4    0    0 -0.20408652982E-02  0.18215275106E-01 -0.15583945803E-01  0.24064119891E-01  0.51100000000E-03 0.  1.
</event>
<event>
 8    1  0.1123191E+005  0.1043930E+01  0.7957747E-01            NaN
         13   -1    0    0    0    0  0.00000000000E+00  0.00000000000E+00  0.74505805969E-08  0.10566000000E+00  0.10566000000E+00 0. -1.
     999900   -1    0    0    0    0 -0.00000000000E+00 -0.00000000000E+00 -0.74505805969E-08  0.93827000000E+00  0.93827000000E+00 0.  1.
     999902    2    1    2    0    0 -0.40515045777E-02  0.23146340588E-01 -0.40982897234E-02  0.10200770390E+01  0.10197981181E+01 0.  0.
     999903    2    3    3    0    0 -0.81931260831E-01 -0.93968416583E-01 -0.23321960478E-01  0.12870132002E+00  0.21847679943E-01 0.  0.
         14    1    1    2    0    0  0.40515045777E-02 -0.23146340588E-01  0.40982897234E-02  0.23852961045E-01  0.00000000000E+00 0.  1.
     999901    1    3    3    0    0  0.77879756254E-01  0.11711475717E+00  0.19223670755E-01  0.89137571893E+00  0.88000000000E+00 0.  1.
        -11    1    4    4    0    0 -0.59406150964E-01 -0.75067149387E-01 -0.94854580385E-02  0.96199806261E-01  0.51100000000E-03 0. -1.
         11    1    4    4    0    0 -0.22525109867E-01 -0.18901267196E-01 -0.13836502440E-01  0.32501513763E-01  0.51100000000E-03 0.  1.
</event>
<event>
 8    1  0.1123191E+005  0.1043930E+01  0.7957747E-01            NaN
         13   -1    0    0    0    0  0.00000000000E+00  0.00000000000E+00  0.74505805969E-08  0.10566000000E+00  0.10566000000E+00 0. -1.
     999900   -1    0    0    0    0 -0.00000000000E+00 -0.00000000000E+00 -0.74505805969E-08  0.93827000000E+00  0.93827000000E+00 0. -1.
     999902    2    1    2    0    0 -0.20875079500E-01 -0.19919138868E-02 -0.53047131468E-02  0.10222995435E+01  0.10220706825E+01 0.  0.
     999903    2    3    3    0    0  0.91715691486E-02 -0.13045843000E+00 -0.41248755935E-02  0.13246369414E+00  0.20642093594E-01 0.  0.
         14    1    1    2    0    0  0.20875079500E-01  0.19919138868E-02  0.53047131468E-02  0.21630456459E-01  0.00000000000E+00 0.  1.
     999901    1    3    3    0    0 -0.30046648649E-01  0.12846651612E+00 -0.11798375532E-02  0.88983584940E+00  0.88000000000E+00 0. -1.
        -11    1    4    4    0    0 -0.12864246110E-02 -0.36974753356E-01 -0.96339675559E-02  0.38234300384E-01  0.51100000000E-03 0. -1.
         11    1    4    4    0    0  0.10457993760E-01 -0.93483676646E-01  0.55090919624E-02  0.94229393758E-01  0.51100000000E-03 0.  1.
</event>
<event>
 8    1  0.1123191E+005  0.1043930E+01  0.7957747E-01            NaN
         13   -1    0    0    0    0  0.00000000000E+00  0.00000000000E+00  0.74505805969E-08  0.10566000000E+00  0.10566000000E+00 0.  1.
     999900   -1    0    0    0    0 -0.00000000000E+00 -0.00000000000E+00 -0.74505805969E-08  0.93827000000E+00  0.93827000000E+00 0.  1.
     999902    2    1    2    0    0  0.22942141404E-01  0.18025560945E-02  0.38831814767E-02  0.10205918304E+01  0.10203249552E+01 0.  0.
     999903    2    3    3    0    0  0.12373906197E+00  0.69326266801E-02  0.46456963634E-01  0.13380049998E+00  0.19619061015E-01 0.  0.
         14    1    1    2    0    0 -0.22942141404E-01 -0.18025560945E-02 -0.38831814767E-02  0.23338169574E-01  0.00000000000E+00 0.  1.
     999901    1    3    3    0    0 -0.10079692057E+00 -0.51300705856E-02 -0.42573782157E-01  0.88679133044E+00  0.88000000000E+00 0. -1.
        -11    1    4    4    0    0  0.83169179320E-01  0.75995580131E-02  0.21790632747E-01  0.86313141915E-01  0.51100000000E-03 0. -1.
         11    1    4    4    0    0  0.40569882653E-01 -0.66693133304E-03  0.24666330887E-01  0.47487358068E-01  0.51100000000E-03 0.  1.
</event>
<event>
 8    1  0.1123191E+005  0.1043930E+01  0.7957747E-01            NaN
         13   -1    0    0    0    0  0.00000000000E+00  0.00000000000E+00  0.74505805969E-08  0.10566000000E+00  0.10566000000E+00 0. -1.
     999900   -1    0    0    0    0 -0.00000000000E+00 -0.00000000000E+00 -0.74505805969E-08  0.93827000000E+00  0.93827000000E+00 0.  1.
     999902    2    1    2    0    0  0.21977868255E-01 -0.62423494367E-02  0.16051250699E-02  0.10210265058E+01  0.10207695898E+01 0.  0.
     999903    2    3    3    0    0  0.69670247577E-03  0.12754637951E+00  0.19201348381E-01  0.13048625457E+00  0.19733386229E-01 0.  0.
         14    1    1    2    0    0 -0.21977868255E-01  0.62423494367E-02 -0.16051250699E-02  0.22903494188E-01  0.00000000000E+00 0.  1.
     999901    1    3    3    0    0  0.21281165779E-01 -0.13378872894E+00 -0.17596223311E-01  0.89054025124E+00  0.88000000000E+00 0.  1.
        -11    1    4    4    0    0 -0.95591112507E-03  0.10377740619E+00  0.78230209749E-02  0.10407749315E+00  0.51100000000E-03 0.  1.
         11    1    4    4    0    0  0.16526136008E-02  0.23768973314E-01  0.11378327406E-01  0.26408761419E-01  0.51100000000E-03 0. -1.
</event>
<event>
 8    1  0.1123191E+005  0.1043930E+01  0.7957747E-01            NaN
         13   -1    0    0    0    0  0.00000000000E+00  0.00000000000E+00  0.74505805969E-08  0.10566000000E+00  0.10566000000E+00 0.  1.
     999900   -1    0    0    0    0 -0.00000000000E+00 -0.00000000000E+00 -0.74505805969E-08  0.93827000000E+00  0.93827000000E+00 0.  1.
     999902    2    1    2    0    0  0.87625743976E-02  0.15938373464E-01  0.15231015988E-01  0.10202066295E+01  0.10199307666E+01 0.  0.
     999903    2    3    3    0    0  0.20620227388E-01 -0.86597384435E-01 -0.90001768870E-01  0.12794650793E+00  0.18592733056E-01 0.  0.
         14    1    1    2    0    0 -0.87625743976E-02 -0.15938373464E-01 -0.15231015988E-01  0.23723370477E-01  0.00000000000E+00 0. -1.
     999901    1    3    3    0    0 -0.11857652990E-01  0.10253575790E+00  0.10523278486E+00  0.89226012160E+00  0.88000000000E+00 0.  1.
        -11    1    4    4    0    0  0.43713861978E-03 -0.40454277823E-02 -0.11665370503E-01  0.12365215974E-01  0.51100000000E-03 0. -1.
         11    1    4    4    0    0  0.20183088768E-01 -0.82551956653E-01 -0.78336398367E-01  0.11558129195E+00  0.51100000000E-03 0.  1.
</event>
<event>
 8    1  0.1123191E+005  0.1043930E+01  0.7957747E-01            NaN
         13   -1    0    0    0    0  0.00000000000E+00  0.00000000000E+00  0.74505805969E-08  0.10566000000E+00  0.10566000000E+00 0. -1.
     999900   -1    0    0    0    0 -0.00000000000E+00 -0.00000000000E+00 -0.74505805969E-08  0.93827000000E+00  0.93827000000E+00 0.  1.
     999902    2    1    2    0    0  0.68406433056E-02  0.71612079503E-02 -0.21806608733E-01  0.10199799377E+01  0.10196987142E+01 0.  0.
     999903    2    3    3    0    0 -0.12575604085E+00 -0.23550529677E-01  0.10545419063E-02  0.12922311134E+00  0.18118807580E-01 0.  0.
         14    1    1    2    0    0 -0.68406433056E-02 -0.71612079503E-02  0.21806608733E-01  0.23950062309E-01  0.00000000000E+00 0. -1.
     999901    1    3    3    0    0  0.13259668416E+00  0.30711737627E-01 -0.22861150640E-01  0.89075682635E+00  0.88000000000E+00 0.  1.
        -11    1    4    4    0    0 -0.41419192281E-01 -0.95832792838E-02 -0.79835702193E-02  0.43259533579E-01  0.51100000000E-03 0.  1.
         11    1    4    4    0    0 -0.84336848570E-01 -0.13967250393E-01  0.90381121256E-02  0.85963577764E-01  0.51100000000E-03 0. -1.
</event>
<event>
 8    1  0.1123191E+005  0.1043930E+01  0.7957747E-01            NaN
         13   -1    0    0    0    0  0.00000000000E+00  0.00000000000E+00  0.74505805969E-08  0.10566000000E+00  0.10566000000E+00 0.  1.
     999900   -1    0    0    0    0 -0.00000000000E+00 -0.00000000000E+00 -0.74505805969E-08  0.93827000000E+00  0.93827000000E+00 0. -1.
     999902    2    1    2    0    0  0.14615982712E-01 -0.17811765957E-01  0.63133438586E-03  0.10208803896E+01  0.10206201474E+01 0.  0.
     999903    2    3    3    0    0  0.32279605782E-01 -0.10627435494E+00 -0.70807458045E-01  0.13338890552E+00  0.21040259837E-01 0.  0.
         14    1    1    2    0    0 -0.14615982712E-01  0.17811765957E-01 -0.63133438586E-03  0.23049610414E-01  0.00000000000E+00 0.  1.
     999901    1    3    3    0    0 -0.17663623069E-01  0.88462588979E-01  0.71438792431E-01  0.88749148407E+00  0.88000000000E+00 0.  1.
        -11    1    4    4    0    0  0.28852041946E-01 -0.61168297485E-01 -0.46006679859E-01  0.81797779031E-01  0.51100000000E-03 0. -1.
         11    1    4    4    0    0  0.34275638353E-02 -0.45106057451E-01 -0.24800778186E-01  0.51591126487E-01  0.51100000000E-03 0.  1.
</event>
<event>
 8    1  0.1123191E+005  0.1043930E+01  0.7957747E-01            NaN
         13   -1    0    0    0    0  0.00000000000E+00  0.00000000000E+00  0.74505805969E-08  0.10566000000E+00  0.10566000000E+00 0. -1.
     999900   -1    0    0    0    0 -0.00000000000E+00 -0.00000000000E+00 -0.74505805969E-08  0.93827000000E+00  0.93827000000E+00 0. -1.
     999902    2    1    2    0    0 -0.18302291122E-01  0.44508477590E-02 -0.13505021982E-01  0.10207530821E+01  0.10204899240E+01 0.  0.
     999903    2    3    3    0    0 -0.30288971471E-01  0.11309217884E+00 -0.59308802683E-01  0.13280904912E+00  0.20333389918E-01 0.  0.
         14    1    1    2    0    0  0.18302291122E-01 -0.44508477590E-02  0.13505021982E-01  0.23176917932E-01  0.00000000000E+00 0. -1.
     999901    1    3    3    0    0  0.11986680349E-01 -0.10864133108E+00  0.45803780701E-01  0.88794403295E+00  0.88000000000E+00 0.  1.
        -11    1    4    4    0    0 -0.15071831904E-01  0.72316539657E-01 -0.47076130993E-01  0.87597176069E-01  0.51100000000E-03 0. -1.
         11    1    4    4    0    0 -0.15217139567E-01  0.40775639179E-01 -0.12232671690E-01  0.45211873050E-01  0.51100000000E-03 0.  1.
</event>
<event>
 8    1  0.1123191E+005  0.1043930E+01  0.7957747E-01            NaN
         13   -1    0    0    0    0  0.00000000000E+00  0.00000000000E+00  0.74505805969E-08  0.10566000000E+00  0.10566000000E+00 0.  1.
     999900   -1    0    0    0    0 -0.00000000000E+00 -0.00000000000E+00 -0.74505805969E-08  0.93827000000E+00  0.93827000000E+00 0.  1.
     999902    2    1    2    0    0 -0.68372457126E-02  0.94560513848E-03 -0.22950605074E-01  0.10199639329E+01  0.10196823290E+01 0.  0.
     999903    2    3    3    0    0  0.33586407405E-01  0.11394186231E+00  0.46251081957E-01  0.12912663052E+00  0.20584687928E-01 0.  0.
         14    1    1    2    0    0  0.68372457126E-02 -0.94560513848E-03  0.22950605074E-01  0.23966067080E-01  0.00000000000E+00 0.  1.
     999901    1    3    3    0    0 -0.40423653117E-01 -0.11299625717E+00 -0.69201687031E-01  0.89083730240E+00  0.88000000000E+00 0.  1.
        -11    1    4    4    0    0  0.26170104254E-01  0.90186724895E-01  0.45182718082E-01  0.10421256564E+00  0.51100000000E-03 0. -1.
         11    1    4    4    0    0  0.74163031501E-02  0.23755137415E-01  0.10683638751E-02  0.24914064871E-01  0.51100000000E-03 0.  1.
</event>
<event>
 8    1  0.1123191E+005  0.1043930E+01  0.7957747E-01            NaN
         13   -1    0    0    0    0  0.00000000000E+00  0.00000000000E+00  0.74505805969E-08  0.10566000000E+00  0.10566000000E+00 0. -1.
     999900   -1    0    0    0    0 -0.00000000000E+00 -0.00000000000E+00 -0.74505805969E-08  0.93827000000E+00  0.93827000000E+00 0. -1.
     999902    2    1    2    0    0  0.10666094540E-01  0.14968201220E-01 -0.15717025898E-01  0.10197465858E+01  0.10194597891E+01 0.  0.
     999903    2    3    3    0    0 -0.10205556594E+00  0.54205211626E-01  0.52768167408E-01  0.12905250955E+00  0.22727235259E-01 0.  0.
         14    1    1    2    0    0 -0.10666094540E-01 -0.14968201220E-01  0.15717025898E-01  0.24183414225E-01  0.00000000000E+00 0. -1.
     999901    1    3    3    0    0  0.11272166048E+00 -0.39237010406E-01 -0.68485193306E-01  0.89069407623E+00  0.88000000000E+00 0.  1.
        -11    1    4    4    0    0 -0.38297175678E-01  0.26998701908E-01  0.31789314922E-01  0.56625305596E-01  0.51100000000E-03 0. -1.
         11    1    4    4    0    0 -0.63758390259E-01  0.27206509718E-01  0.20978852486E-01  0.72427203950E-01  0.51100000000E-03 0.  1.
</event>
<event>
 8    1  0.1123191E+005  0.1043930E+01  0.7957747E-01            NaN
         13   -1    0    0    0    0  0.00000000000E+00  0.00000000000E+00  0.74505805969E-08  0.10566000000E+00  0.10566000000E+00 0. -1.
     999900   -1    0    0    0    0 -0.00000000000E+00 -0.00000000000E+00 -0.74505805969E-08  0.93827000000E+00  0.93827000000E+00 0. -1.
     999902    2    1    2    0    0  0.10876575194E-01 -0.46465689224E-02 -0.19512173249E-01  0.10211130020E+01  0.10208580448E+01 0.  0.
     999903    2    3    3    0    0 -0.83551165961E-01 -0.92537600581E-01 -0.36910495071E-01  0.13153774759E+00  0.19894460009E-01 0.  0.
         14    1    1    2    0    0 -0.10876575194E-01  0.46465689224E-02  0.19512173249E-01  0.22816997953E-01  0.00000000000E+00 0. -1.
     999901    1    3    3    0    0  0.94427741155E-01  0.87891031658E-01  0.17398321822E-01  0.88957525446E+00  0.88000000000E+00 0. -1.
        -11    1    4    4    0    0 -0.33850244757E-01 -0.44956647424E-01 -0.25522538527E-01  0.61794824311E-01  0.51100000000E-03 0. -1.
         11    1    4    4    0    0 -0.49700921204E-01 -0.47580953156E-01 -0.11387956544E-01  0.69742923276E-01  0.51100000000E-03 0.  1.
</event>
<event>
 8    1  0.1123191E+005  0.1043930E+01  0.7957747E-01            NaN
         13   -1    0    0    0    0  0.00000000000E+00  0.00000000000E+00  0.74505805969E-08  0.10566000000E+00  0.10566000000E+00 0. -1.
     999900   -1    0    0    0    0 -0.00000000000E+00 -0.00000000000E+00 -0.74505805969E-08  0.93827000000E+00  0.93827000000E+00 0. -1.
     999902    2    1    2    0    0 -0.24084978448E-01 -0.19032057616E-02  0.64673448166E-02  0.10189193037E+01  0.10186122975E+01 0.  0.
     999903    2    3    3    0    0 -0.10973986526E+00  0.45266805242E-01 -0.52769058429E-01  0.13152383324E+00  0.20543210539E-01 0.  0.
         14    1    1    2    0    0  0.24084978448E-01  0.19032057616E-02 -0.64673448166E-02  0.25010696272E-01  0.00000000000E+00 0.  1.
     999901    1    3    3    0    0  0.85654886809E-01 -0.47170011003E-01  0.59236403245E-01  0.88739547049E+00  0.88000000000E+00 0. -1.
        -11    1    4    4    0    0 -0.26714782341E-01  0.20836444836E-01 -0.16451912046E-01  0.37666477933E-01  0.51100000000E-03 0.  1.
         11    1    4    4    0    0 -0.83025082917E-01  0.24430360406E-01 -0.36317146383E-01  0.93857355307E-01  0.51100000000E-03 0. -1.
</event>
<event>
 8    1  0.1123191E+005  0.1043930E+01  0.7957747E-01            NaN
         13   -1    0    0    0    0  0.00000000000E+00  0.00000000000E+00  0.74505805969E-08  0.10566000000E+00  0.10566000000E+00 0.  1.
     999900   -1    0    0    0    0 -0.00000000000E+00 -0.00000000000E+00 -0.74505805969E-08  0.93827000000E+00  0.93827000000E+00 0.  1.
     999902    2    1    2    0    0 -0.17001624770E-01 -0.83409004007E-02 -0.97961690277E-02  0.10226088651E+01  0.10223865709E+01 0.  0.
     999903    2    3    3    0    0 -0.11518210537E+00 -0.28595396905E-01  0.59536959245E-01  0.13420764154E+00  0.19555751332E-01 0.  0.
         14    1    1    2    0    0  0.17001624770E-01  0.83409004007E-02  0.97961690277E-02  0.21321134865E-01  0.00000000000E+00 0.  1.
     999901    1    3    3    0    0  0.98180480604E-01  0.20254496505E-01 -0.69333128273E-01  0.88840122359E+00  0.88000000000E+00 0.  1.
        -11    1    4    4    0    0 -0.32518855727E-01 -0.95624775472E-02  0.75927757011E-02  0.34739434631E-01  0.51100000000E-03 0. -1.
         11    1    4    4    0    0 -0.82663249647E-01 -0.19032919358E-01  0.51944183544E-01  0.99468206914E-01  0.51100000000E-03 0.  1.
</event>
<event>
 8    1  0.1123191E+005  0.1043930E+01  0.7957747E-01            NaN
         13   -1    0    0    0    0  0.00000000000E+00  0.00000000000E+00  0.74505805969E-08  0.10566000000E+00  0.10566000000E+00 0. -1.
     999900   -1    0    0    0    0 -0.00000000000E+00 -0.00000000000E+00 -0.74505805969E-08  0.93827000000E+00  0.93827000000E+00 0.  1.
     999902    2    1    2    0    0  0.88708259462E-02  0.73400622012E-02 -0.55846044333E-03  0.10324026437E+01  0.10323382869E+01 0.  0.
     999903    2    3    3    0    0  0.93078695144E-02 -0.11255383186E-01  0.13889395705E+00  0.14122760006E+00  0.20985319364E-01 0.  0.
         14    1    1    2    0    0 -0.88708259462E-02 -0.73400622012E-02  0.55846044333E-03  0.11527356338E-01  0.00000000000E+00 0. -1.
     999901    1    3    3    0    0 -0.43704356820E-03  0.18595445387E-01 -0.13945241749E+00  0.89117504360E+00  0.88000000000E+00 0.  1.
        -11    1    4    4    0    0  0.12534667025E-01 -0.70229768647E-02  0.13040541160E+00  0.13119555091E+00  0.51100000000E-03 0. -1.
         11    1    4    4    0    0 -0.32267975102E-02 -0.42324063216E-02  0.84885454442E-02  0.10032049153E-01  0.51100000000E-03 0.  1.
</event>
<event>
 8    1  0.1123191E+005  0.1043930E+01  0.7957747E-01            NaN
         13   -1    0    0    0    0  0.00000000000E+00  0.00000000000E+00  0.74505805969E-08  0.10566000000E+00  0.10566000000E+00 0.  1.
     999900   -1    0    0    0    0 -0.00000000000E+00 -0.00000000000E+00 -0.74505805969E-08  0.93827000000E+00  0.93827000000E+00 0.  1.
     999902    2    1    2    0    0 -0.63601353054E-02  0.10688108879E-01  0.21019733434E-01  0.10195063192E+01  0.10192137257E+01 0.  0.
     999903    2    3    3    0    0 -0.25661156888E-01 -0.12218853986E+00 -0.22780939780E-01  0.12824472333E+00  0.18417480821E-01 0.  0.
         14    1    1    2    0    0  0.63601353054E-02 -0.10688108879E-01 -0.21019733434E-01  0.24423680848E-01  0.00000000000E+00 0.  1.
     999901    1    3    3    0    0  0.19301021583E-01  0.13287664874E+00  0.43800673214E-01  0.89126159582E+00  0.88000000000E+00 0.  1.
        -11    1    4    4    0    0 -0.20718023972E-01 -0.99662097167E-01 -0.11128211527E-01  0.10240052901E+00  0.51100000000E-03 0. -1.
         11    1    4    4    0    0 -0.49431329168E-02 -0.22526442688E-01 -0.11652728253E-01  0.25844194318E-01  0.51100000000E-03 0.  1.
</event>
<event>
 8    1  0.1123191E+005  0.1043930E+01  0.7957747E-01            NaN
         13   -1    0    0    0    0  0.00000000000E+00  0.00000000000E+00  0.74505805969E-08  0.10566000000E+00  0.10566000000E+00 0.  1.
     999900   -1    0    0    0    0 -0.00000000000E+00 -0.00000000000E+00 -0.74505805969E-08  0.93827000000E+00  0.93827000000E+00 0.  1.
     999902    2    1    2    0    0  0.81063277882E-02 -0.10582447611E-01  0.16911459626E-01  0.10223963469E+01  0.10221695515E+01 0.  0.
     999903    2    3    3    0    0 -0.87341041214E-01 -0.50697428078E-01  0.85119848078E-01  0.13370528916E+00  0.20809351731E-01 0.  0.
         14    1    1    2    0    0 -0.81063277882E-02  0.10582447611E-01 -0.16911459626E-01  0.21533653065E-01  0.00000000000E+00 0. -1.
     999901    1    3    3    0    0  0.95447369002E-01  0.40114980467E-01 -0.68208388451E-01  0.88869105777E+00  0.88000000000E+00 0.  1.
        -11    1    4    4    0    0 -0.41897265635E-02 -0.81505565770E-02  0.11861090585E-01  0.14997732230E-01  0.51100000000E-03 0.  1.
         11    1    4    4    0    0 -0.83151314650E-01 -0.42546871501E-01  0.73258757493E-01  0.11870755693E+00  0.51100000000E-03 0. -1.
</event>
<event>
 8    1  0.1123191E+005  0.1043930E+01  0.7957747E-01            NaN
         13   -1    0    0    0    0  0.00000000000E+00  0.00000000000E+00  0.74505805969E-08  0.10566000000E+00  0.10566000000E+00 0.  1.
     999900   -1    0    0    0    0 -0.00000000000E+00 -0.00000000000E+00 -0.74505805969E-08  0.93827000000E+00  0.93827000000E+00 0.  1.
     999902    2    1    2    0    0 -0.16563642647E-01 -0.21160165525E-01  0.31866301558E-02  0.10168696697E+01  0.10165095493E+01 0.  0.
     999903    2    3    3    0    0  0.15328358377E-01  0.33908662192E-01  0.11960007139E+00  0.12692485974E+00  0.20517967769E-01 0.  0.
         14    1    1    2    0    0  0.16563642647E-01  0.21160165525E-01 -0.31866301558E-02  0.27060330274E-01  0.00000000000E+00 0.  1.
     999901    1    3    3    0    0 -0.31892001024E-01 -0.55068827718E-01 -0.11641344124E+00  0.88994480998E+00  0.88000000000E+00 0.  1.
        -11    1    4    4    0    0 -0.15100893195E-02  0.30837913989E-02  0.16286393846E-02  0.38345438308E-02  0.51100000000E-03 0. -1.
         11    1    4    4    0    0  0.16838447697E-01  0.30824870793E-01  0.11797143201E+00  0.12309031591E+00  0.51100000000E-03 0.  1.
</event>
<event>
 8    1  0.1123191E+005  0.1043930E+01  0.7957747E-01            NaN
         13   -1    0    0    0    0  0.00000000000E+00  0.00000000000E+00  0.74505805969E-08  0.10566000000E+00  0.10566000000E+00 0. -1.
     999900   -1    0    0    0    0 -0.00000000000E+00 -0.00000000000E+00 -0.74505805969E-08  0.93827000000E+00  0.93827000000E+00 0. -1.
     999902    2    1    2    0    0 -0.10940865535E-01  0.22156145331E-01  0.60164284599E-02  0.10184978407E+01  0.10181802673E+01 0.  0.
     999903    2    3    3    0    0 -0.77797516639E-01  0.70578730824E-01 -0.75418944221E-01  0.13089078886E+00  0.20262542292E-01 0.  0.
         14    1    1    2    0    0  0.10940865535E-01 -0.22156145331E-01 -0.60164284599E-02  0.25432159287E-01  0.00000000000E+00 0.  1.
     999901    1    3    3    0    0  0.66856651103E-01 -0.48422585493E-01  0.81435372681E-01  0.88760705186E+00  0.88000000000E+00 0.  1.
        -11    1    4    4    0    0 -0.56103387453E-01  0.42631239662E-01 -0.40979688725E-01  0.81514469193E-01  0.51100000000E-03 0. -1.
         11    1    4    4    0    0 -0.21694129186E-01  0.27947491162E-01 -0.34439255496E-01  0.49376319663E-01  0.51100000000E-03 0.  1.
</event>
<event>
 8    1  0.1123191E+005  0.1043930E+01  0.7957747E-01            NaN
         13   -1    0    0    0    0  0.00000000000E+00  0.00000000000E+00  0.74505805969E-08  0.10566000000E+00  0.10566000000E+00 0.  1.
     999900   -1    0    0    0    0 -0.00000000000E+00 -0.00000000000E+00 -0.74505805969E-08  0.93827000000E+00  0.93827000000E+00 0.  1.
     999902    2    1    2    0    0  0.53612802881E-03  0.18784031788E-01  0.13996011566E-01  0.10204989176E+01  0.10202298884E+01 0.  0.
     999903    2    3    3    0    0  0.80704063916E-01 -0.43938289783E-01 -0.88036258316E-01  0.12877498515E+00  0.19720415350E-01 0.  0.
         14    1    1    2    0    0 -0.53612802881E-03 -0.18784031788E-01 -0.13996011566E-01  0.23431082417E-01  0.00000000000E+00 0. -1.
     999901    1    3    3    0    0 -0.80167935887E-01  0.62722321571E-01  0.10203226988E+00  0.89172393243E+00  0.88000000000E+00 0.  1.
        -11    1    4    4    0    0  0.11231381349E-01 -0.36949559887E-04 -0.64017731997E-02  0.12937894472E-01  0.51100000000E-03 0. -1.
         11    1    4    4    0    0  0.69472682567E-01 -0.43901340223E-01 -0.81634485117E-01  0.11583709068E+00  0.51100000000E-03 0.  1.
</event>
<event>
 8    1  0.1123191E+005  0.1043930E+01  0.7957747E-01            NaN
         13   -1    0    0    0    0  0.00000000000E+00  0.00000000000E+00  0.74505805969E-08  0.10566000000E+00  0.10566000000E+00 0. -1.
     999900   -1    0    0    0    0 -0.00000000000E+00 -0.00000000000E+00 -0.74505805969E-08  0.93827000000E+00  0.93827000000E+00 0. -1.
     999902    2    1    2    0    0 -0.23999046386E-01 -0.11559276298E-02 -0.29936255381E-02  0.10197173547E+01  0.10194298560E+01 0.  0.
     999903    2    3    3    0    0  0.10844209918E+00  0.62744722794E-02  0.63367506221E-01  0.12730508024E+00  0.19801129593E-01 0.  0.
         14    1    1    2    0    0  0.23999046386E-01  0.11559276298E-02  0.29936255381E-02  0.24212645250E-01  0.00000000000E+00 0.  1.
     999901    1    3    3    0    0 -0.13244114557E+00 -0.74303999092E-02 -0.66361131759E-01  0.89241227451E+00  0.88000000000E+00 0.  1.
        -11    1    4    4    0    0  0.10843460774E+00  0.65552217941E-02  0.64276563788E-01  0.12622508808E+00  0.51100000000E-03 0.  1.
         11    1    4    4    0    0  0.74914486188E-05 -0.28074951472E-03 -0.90905756673E-03  0.10799921627E-02  0.51100000000E-03 0. -1.
</event>
<event>
 8    1  0.1123191E+005  0.1043930E+01  0.7957747E-01            NaN
         13   -1    0    0    0    0  0.00000000000E+00  0.00000000000E+00  0.74505805969E-08  0.10566000000E+00  0.10566000000E+00 0. -1.
     999900   -1    0    0    0    0 -0.00000000000E+00 -0.00000000000E+00 -0.74505805969E-08  0.93827000000E+00  0.93827000000E+00 0. -1.
     999902    2    1    2    0    0 -0.14693685860E-01 -0.14637188585E-01  0.76143594911E-02  0.10218363320E+01  0.10215974546E+01 0.  0.
     999903    2    3    3    0    0  0.28023577149E-01 -0.86967672512E-01  0.95260020541E-01  0.13350180869E+00  0.19989108812E-01 0.  0.
         14    1    1    2    0    0  0.14693685860E-01  0.14637188585E-01 -0.76143594911E-02  0.22093667968E-01  0.00000000000E+00 0.  1.
     999901    1    3    3    0    0 -0.42717263009E-01  0.72330483926E-01 -0.87645661050E-01  0.88833452334E+00  0.88000000000E+00 0. -1.
        -11    1    4    4    0    0 -0.17042506998E-02 -0.12045394305E-01  0.18812985272E-01  0.22409496430E-01  0.51100000000E-03 0. -1.
         11    1    4    4    0    0  0.29727827849E-01 -0.74922278207E-01  0.76447035269E-01  0.11109231226E+00  0.51100000000E-03 0.  1.
</event>
<event>
 8    1  0.1123191E+005  0.1043930E+01  0.7957747E-01            NaN
         13   -1    0    0    0    0  0.00000000000E+00  0.00000000000E+00  0.74505805969E-08  0.10566000000E+00  0.10566000000E+00 0. -1.
     999900   -1    0    0    0    0 -0.00000000000E+00 -0.00000000000E+00 -0.74505805969E-08  0.93827000000E+00  0.93827000000E+00 0.  1.
     999902    2    1    2    0    0  0.19925264527E-02 -0.22316860152E-01 -0.92944202337E-02  0.10196730699E+01  0.10193845059E+01 0.  0.
     999903    2    3    3    0    0  0.21301776874E-01 -0.12964858041E+00 -0.95534421015E-03  0.13290225089E+00  0.19989384903E-01 0.  0.
         14    1    1    2    0    0 -0.19925264527E-02  0.22316860152E-01  0.92944202337E-02  0.24256930065E-01  0.00000000000E+00 0. -1.
     999901    1    3    3    0    0 -0.19309250422E-01  0.10733172026E+00 -0.83390760236E-02  0.88677081905E+00  0.88000000000E+00 0. -1.
        -11    1    4    4    0    0  0.70536132667E-02 -0.21770720529E-01 -0.69469116796E-02  0.23921505708E-01  0.51100000000E-03 0.  1.
         11    1    4    4    0    0  0.14248163608E-01 -0.10787785988E+00  0.59915674694E-02  0.10898074518E+00  0.51100000000E-03 0. -1.
</event>
<event>
 8    1  0.1123191E+005  0.1043930E+01  0.7957747E-01            NaN
         13   -1    0    0    0    0  0.00000000000E+00  0.00000000000E+00  0.74505805969E-08  0.10566000000E+00  0.10566000000E+00 0.  1.
     999900   -1    0    0    0    0 -0.00000000000E+00 -0.00000000000E+00 -0.74505805969E-08  0.93827000000E+00  0.93827000000E+00 0.  1.
     999902    2    1    2    0    0  0.10124342426E-01  0.30643937156E-01  0.66651445852E-02  0.10109758296E+01  0.10104385932E+01 0.  0.
     999903    2    3    3    0    0 -0.68593715542E-05 -0.27596668012E-01 -0.11541148158E+00  0.12058416747E+00  0.21427907765E-01 0.  0.
         14    1    1    2    0    0 -0.10124342426E-01 -0.30643937156E-01 -0.66651445852E-02  0.32954170393E-01  0.00000000000E+00 0.  1.
     999901    1    3    3    0    0  0.10131201797E-01  0.58240605167E-01  0.12207662617E+00  0.89039166213E+00  0.88000000000E+00 0. -1.
        -11    1    4    4    0    0 -0.10672427711E-01 -0.12716458479E-01 -0.53142560425E-01  0.55677660502E-01  0.51100000000E-03 0.  1.
         11    1    4    4    0    0  0.10665568339E-01 -0.14880209533E-01 -0.62268921160E-01  0.64906506971E-01  0.51100000000E-03 0. -1.
</event>
<event>
 8    1  0.1123191E+005  0.1043930E+01  0.7957747E-01            NaN
         13   -1    0    0    0    0  0.00000000000E+00  0.00000000000E+00  0.74505805969E-08  0.10566000000E+00  0.10566000000E+00 0.  1.
     999900   -1    0    0    0    0 -0.00000000000E+00 -0.00000000000E+00 -0.74505805969E-08  0.93827000000E+00  0.93827000000E+00 0.  1.
     999902    2    1    2    0    0  0.22014126374E-03 -0.21803953801E-01 -0.84166982748E-02  0.10205569028E+01  0.10202892189E+01 0.  0.
     999903    2    3    3    0    0 -0.54282756007E-01  0.26776204443E-02  0.11617086756E+00  0.12977523770E+00  0.19802893761E-01 0.  0.
         14    1    1    2    0    0 -0.22014126374E-03  0.21803953801E-01  0.84166982748E-02  0.23373097214E-01  0.00000000000E+00 0. -1.
     999901    1    3    3    0    0  0.54502897271E-01 -0.24481574245E-01 -0.12458756583E+00  0.89078166508E+00  0.88000000000E+00 0. -1.
        -11    1    4    4    0    0 -0.19739858300E-01 -0.80652641325E-02  0.50006972997E-01  0.54366064420E-01  0.51100000000E-03 0. -1.
         11    1    4    4    0    0 -0.34542897708E-01  0.10742884577E-01  0.66163894559E-01  0.75409173283E-01  0.51100000000E-03 0.  1.
</event>
<event>
 8    1  0.1123191E+005  0.1043930E+01  0.7957747E-01            NaN
         13   -1    0    0    0    0  0.00000000000E+00  0.00000000000E+00  0.74505805969E-08  0.10566000000E+00  0.10566000000E+00 0.  1.
     999900   -1    0    0    0    0 -0.00000000000E+00 -0.00000000000E+00 -0.74505805969E-08  0.93827000000E+00  0.93827000000E+00 0.  1.
     999902    2    1    2    0    0 -0.29389287249E-01  0.53655222635E-02  0.40517329024E-03  0.10140521955E+01  0.10136119435E+01 0.  0.
     999903    2    3    3    0    0  0.88135489008E-01 -0.41329778186E-01  0.70386710229E-01  0.12226189528E+00  0.22752298197E-01 0.  0.
         14    1    1    2    0    0  0.29389287249E-01 -0.53655222635E-02 -0.40517329024E-03  0.29877804463E-01  0.00000000000E+00 0.  1.
     999901    1    3    3    0    0 -0.11752477626E+00  0.46695300449E-01 -0.69981536939E-01  0.89179030026E+00  0.88000000000E+00 0.  1.
        -11    1    4    4    0    0  0.49627881607E-02 -0.83069345821E-02  0.27065487891E-02  0.10060862579E-01  0.51100000000E-03 0.  1.
         11    1    4    4    0    0  0.83172700847E-01 -0.33022843604E-01  0.67680161440E-01  0.11220103270E+00  0.51100000000E-03 0. -1.
</event>
<event>
 8    1  0.1123191E+005  0.1043930E+01  0.7957747E-01            NaN
         13   -1    0    0    0    0  0.00000000000E+00  0.00000000000E+00  0.74505805969E-08  0.10566000000E+00  0.10566000000E+00 0.  1.
     999900   -1    0    0    0    0 -0.00000000000E+00 -0.00000000000E+00 -0.74505805969E-08  0.93827000000E+00  0.93827000000E+00 0.  1.
     999902    2    1    2    0    0  0.13247093270E-01  0.86244647296E-02  0.18823757794E-01  0.10193495051E+01  0.10190530962E+01 0.  0.
     999903    2    3    3    0    0  0.41304381799E-02  0.95753500865E-01 -0.83980742218E-01  0.12904430599E+00  0.20343903217E-01 0.  0.
         14    1    1    2    0    0 -0.13247093270E-01 -0.86244647296E-02 -0.18823757794E-01  0.24580494898E-01  0.00000000000E+00 0. -1.
     999901    1    3    3    0    0  0.91166550900E-02 -0.87129036135E-01  0.10280450001E+00  0.89030519911E+00  0.88000000000E+00 0. -1.
        -11    1    4    4    0    0  0.11401262840E-01  0.76862100034E-01 -0.65442125230E-01  0.10159086618E+00  0.51100000000E-03 0. -1.
         11    1    4    4    0    0 -0.72708246601E-02  0.18891400831E-01 -0.18538616988E-01  0.27453439811E-01  0.51100000000E-03 0.  1.
</event>
<event>
 8    1  0.1123191E+005  0.1043930E+01  0.7957747E-01            NaN
         13   -1    0    0    0    0  0.00000000000E+00  0.00000000000E+00  0.74505805969E-08  0.10566000000E+00  0.10566000000E+00 0. -1.
     999900   -1    0    0    0    0 -0.00000000000E+00 -0.00000000000E+00 -0.74505805969E-08  0.93827000000E+00  0.93827000000E+00 0.  1.
     999902    2    1    2    0    0 -0.38555876281E-02 -0.23651042863E-01 -0.23000968097E-02  0.10198566157E+01  0.10195724539E+01 0.  0.
     999903    2    3    3    0    0  0.89351880291E-01  0.68717736722E-01 -0.57587070538E-01  0.12841044631E+00  0.21612176603E-01 0.  0.
         14    1    1    2    0    0  0.38555876281E-02  0.23651042863E-01  0.23000968097E-02  0.24073384262E-01  0.00000000000E+00 0.  1.
     999901    1    3    3    0    0 -0.93207467920E-01 -0.92368779585E-01  0.55286973728E-01  0.89144616942E+00  0.88000000000E+00 0.  1.
        -11    1    4    4    0    0  0.79189163015E-01  0.50660313834E-01 -0.48438066134E-01  0.10575395174E+00  0.51100000000E-03 0. -1.
         11    1    4    4    0    0  0.10162717277E-01  0.18057422888E-01 -0.91490044043E-02  0.22656494574E-01  0.51100000000E-03 0.  1.
</event>
<event>
 8    1  0.1123191E+005  0.1043930E+01  0.7957747E-01            NaN
         13   -1    0    0    0    0  0.00000000000E+00  0.00000000000E+00  0.74505805969E-08  0.10566000000E+00  0.10566000000E+00 0.  1.
     999900   -1    0    0    0    0 -0.00000000000E+00 -0.00000000000E+00 -0.74505805969E-08  0.93827000000E+00  0.93827000000E+00 0. -1.
     999902    2    1    2    0    0 -0.10229341117E-01 -0.10773175284E-01  0.17157003503E-01  0.10212349897E+01  0.10209827817E+01 0.  0.
     999903    2    3    3    0    0 -0.11395100734E+00 -0.14876400200E-01  0.66482643691E-01  0.13376215104E+00  0.16316610618E-01 0.  0.
         14    1    1    2    0    0  0.10229341117E-01  0.10773175284E-01 -0.17157003503E-01  0.22695010345E-01  0.00000000000E+00 0. -1.
     999901    1    3    3    0    0  0.10372166622E+00  0.41032249159E-02 -0.49325640188E-01  0.88747283861E+00  0.88000000000E+00 0. -1.
        -11    1    4    4    0    0 -0.29799406795E-01 -0.17462373797E-02  0.96722967897E-02  0.31382613602E-01  0.51100000000E-03 0. -1.
         11    1    4    4    0    0 -0.84151600545E-01 -0.13130162820E-01  0.56810346901E-01  0.10237953744E+00  0.51100000000E-03 0.  1.
</event>
<event>
 8    1  0.1123191E+005  0.1043930E+01  0.7957747E-01            NaN
         13   -1    0    0    0    0  0.00000000000E+00  0.00000000000E+00  0.74505805969E-08  0.10566000000E+00  0.10566000000E+00 0. -1.
     999900   -1    0    0    0    0 -0.00000000000E+00 -0.00000000000E+00 -0.74505805969E-08  0.93827000000E+00  0.93827000000E+00 0. -1.
     999902    2    1    2    0    0 -0.11182145419E-01  0.19010404661E-01 -0.65482979985E-02  0.10209231300E+01  0.10206638630E+01 0.  0.
     999903    2    3    3    0    0 -0.46420990359E-01  0.10709151174E+00 -0.63447136162E-01  0.13399723939E+00  0.17499166902E-01 0.  0.
         14    1    1    2    0    0  0.11182145419E-01 -0.19010404661E-01  0.65482979985E-02  0.23006870022E-01  0.00000000000E+00 0. -1.
     999901    1    3    3    0    0  0.35238844941E-01 -0.88081107083E-01  0.56898838164E-01  0.88692589059E+00  0.88000000000E+00 0.  1.
        -11    1    4    4    0    0 -0.23204563129E-01  0.37848306894E-01 -0.17560767665E-01  0.47745028712E-01  0.51100000000E-03 0.  1.
         11    1    4    4    0    0 -0.23216427231E-01  0.69243204851E-01 -0.45886368497E-01  0.86252210674E-01  0.51100000000E-03 0. -1.
</event>
<event>
 8    1  0.1123191E+005  0.1043930E+01  0.7957747E-01            NaN
         13   -1    0    0    0    0  0.00000000000E+00  0.00000000000E+00  0.74505805969E-08  0.10566000000E+00  0.10566000000E+00 0. -1.
     999900   -1    0    0    0    0 -0.00000000000E+00 -0.00000000000E+00 -0.74505805969E-08  0.93827000000E+00  0.93827000000E+00 0.  1.
     999902    2    1    2    0    0  0.10442753693E-01 -0.19537323747E-01 -0.11803127612E-01  0.10188287661E+01  0.10185195053E+01 0.  0.
     999903    2    3    3    0    0 -0.49701101520E-01  0.20859633209E-01  0.11336160530E+00  0.12702418667E+00  0.19467065859E-01 0.  0.
         14    1    1    2    0    0 -0.10442753693E-01  0.19537323747E-01  0.11803127612E-01  0.25101233940E-01  0.00000000000E+00 0.  1.
     999901    1    3    3    0    0  0.60143855213E-01 -0.40396956956E-01 -0.12516473291E+00  0.89180457939E+00  0.88000000000E+00 0.  1.
        -11    1    4    4    0    0 -0.68937791309E-02 -0.29734712562E-04  0.32048737779E-01  0.32785786388E-01  0.51100000000E-03 0.  1.
         11    1    4    4    0    0 -0.42807322390E-01  0.20889367922E-01  0.81312867524E-01  0.94238400285E-01  0.51100000000E-03 0. -1.
</event>
<event>
 8    1  0.1123191E+005  0.1043930E+01  0.7957747E-01            NaN
         13   -1    0    0    0    0  0.00000000000E+00  0.00000000000E+00  0.74505805969E-08  0.10566000000E+00  0.10566000000E+00 0.  1.
     999900   -1    0    0    0    0 -0.00000000000E+00 -0.00000000000E+00 -0.74505805969E-08  0.93827000000E+00  0.93827000000E+00 0.  1.
     999902    2    1    2    0    0 -0.84321756771E-02 -0.20772208419E-01 -0.75478448241E-02  0.10202750599E+01  0.10200008047E+01 0.  0.
     999903    2    3    3    0    0  0.40412408902E-01 -0.52342231574E-01 -0.11291842858E+00  0.13208283988E+00  0.17956421621E-01 0.  0.
         14    1    1    2    0    0  0.84321756771E-02  0.20772208419E-01  0.75478448241E-02  0.23654940091E-01  0.00000000000E+00 0.  1.
     999901    1    3    3    0    0 -0.48844584579E-01  0.31570023155E-01  0.10537058376E+00  0.88819222003E+00  0.88000000000E+00 0. -1.
        -11    1    4    4    0    0  0.14425947219E-01 -0.26437164379E-01 -0.36605245523E-01  0.47405028576E-01  0.51100000000E-03 0. -1.
         11    1    4    4    0    0  0.25986461683E-01 -0.25905067195E-01 -0.76313183057E-01  0.84677811300E-01  0.51100000000E-03 0.  1.
</event>
<event>
 8    1  0.1123191E+005  0.1043930E+01  0.7957747E-01            NaN
         13   -1    0    0    0    0  0.00000000000E+00  0.00000000000E+00  0.74505805969E-08  0.10566000000E+00  0.10566000000E+00 0.  1.
     999900   -1    0    0    0    0 -0.00000000000E+00 -0.00000000000E+00 -0.74505805969E-08  0.93827000000E+00  0.93827000000E+00 0.  1.
     999902    2    1    2    0    0 -0.40348436702E-02 -0.85336115944E-02 -0.27803440626E-01  0.10145678849E+01  0.10141429186E+01 0.  0.
     999903    2    3    3    0    0 -0.23569183819E-01  0.86955687230E-01 -0.87440191829E-01  0.12718051815E+00  0.20305149176E-01 0.  0.
         14    1    1    2    0    0  0.40348436702E-02  0.85336115944E-02  0.27803440626E-01  0.29362115062E-01  0.00000000000E+00 0.  1.
     999901    1    3    3    0    0  0.19534340149E-01 -0.95489298824E-01  0.59636751204E-01  0.88738736678E+00  0.88000000000E+00 0. -1.
        -11    1    4    4    0    0 -0.46365929457E-02  0.54688208198E-01 -0.54064796150E-01  0.77042594802E-01  0.51100000000E-03 0.  1.
         11    1    4    4    0    0 -0.18932590873E-01  0.32267479032E-01 -0.33375395679E-01  0.50137923351E-01  0.51100000000E-03 0. -1.
</event>
<event>
 8    1  0.1123191E+005  0.1043930E+01  0.7957747E-01            NaN
         13   -1    0    0    0    0  0.00000000000E+00  0.00000000000E+00  0.74505805969E-08  0.10566000000E+00  0.10566000000E+00 0. -1.
     999900   -1    0    0    0    0 -0.00000000000E+00 -0.00000000000E+00 -0.74505805969E-08  0.93827000000E+00  0.93827000000E+00 0. -1.
     999902    2    1    2    0    0  0.21530491579E-01 -0.24583652212E-02  0.89138634700E-02  0.10204979154E+01  0.10202288629E+01 0.  0.
     999903    2    3    3    0    0 -0.89417442933E-02  0.85492464912E-01  0.96901712209E-01  0.13122530971E+00  0.21005326297E-01 0.  0.
         14    1    1    2    0    0 -0.21530491579E-01  0.24583652212E-02 -0.89138634700E-02  0.23432084610E-01  0.00000000000E+00 0. -1.
     999901    1    3    3    0    0  0.30472235872E-01 -0.87950830133E-01 -0.87987848739E-01  0.88927260568E+00  0.88000000000E+00 0. -1.
        -11    1    4    4    0    0  0.42553477551E-02  0.52915485758E-01  0.63041777502E-01  0.82417737467E-01  0.51100000000E-03 0. -1.
         11    1    4    4    0    0 -0.13197092048E-01  0.32576979154E-01  0.33859934707E-01  0.48807572247E-01  0.51100000000E-03 0.  1.
</event>
<event>
 8    1  0.1123191E+005  0.1043930E+01  0.7957747E-01            NaN
         13   -1    0    0    0    0  0.00000000000E+00  0.00000000000E+00  0.74505805969E-08  0.10566000000E+00  0.10566000000E+00 0.  1.
     999900   -1    0    0    0    0 -0.00000000000E+00 -0.00000000000E+00 -0.74505805969E-08  0.93827000000E+00  0.93827000000E+00 0.  1.
     999902    2    1    2    0    0  0.12736567573E-01 -0.80388363998E-02  0.16678797090E-01  0.10214572317E+01  0.10212099935E+01 0.  0.
     999903    2    3    3    0    0 -0.93310286254E-01  0.80046140074E-01 -0.32459547313E-01  0.12937008616E+00  0.23849589508E-01 0.  0.
         14    1    1    2    0    0 -0.12736567573E-01  0.80388363998E-02 -0.16678797090E-01  0.22472768333E-01  0.00000000000E+00 0. -1.
     999901    1    3    3    0    0  0.10604685383E+00 -0.88084976473E-01  0.49138344403E-01  0.89208714551E+00  0.88000000000E+00 0.  1.
        -11    1    4    4    0    0 -0.57694963287E-01  0.59629569488E-01 -0.13183435348E-01  0.84014632265E-01  0.51100000000E-03 0.  1.
         11    1    4    4    0    0 -0.35615322967E-01  0.20416570586E-01 -0.19276111965E-01  0.45355453895E-01  0.51100000000E-03 0. -1.
</event>
<event>
 8    1  0.1123191E+005  0.1043930E+01  0.7957747E-01            NaN
         13   -1    0    0    0    0  0.00000000000E+00  0.00000000000E+00  0.74505805969E-08  0.10566000000E+00  0.10566000000E+00 0.  1.
     999900   -1    0    0    0    0 -0.00000000000E+00 -0.00000000000E+00 -0.74505805969E-08  0.93827000000E+00  0.93827000000E+00 0. -1.
     999902    2    1    2    0    0  0.80047927731E-02 -0.16966769248E-01 -0.15139958266E-01  0.10198226090E+01  0.10195376342E+01 0.  0.
     999903    2    3    3    0    0  0.10321696890E-01 -0.12597931332E+00  0.31662936344E-01  0.13185886323E+00  0.20171600384E-01 0.  0.
         14    1    1    2    0    0 -0.80047927731E-02  0.16966769248E-01  0.15139958266E-01  0.24107391031E-01  0.00000000000E+00 0.  1.
     999901    1    3    3    0    0 -0.23169041167E-02  0.10901254407E+00 -0.46802894610E-01  0.88796374574E+00  0.88000000000E+00 0. -1.
        -11    1    4    4    0    0  0.87834100822E-02 -0.12159033458E+00  0.34094292702E-01  0.12658609589E+00  0.51100000000E-03 0.  1.
         11    1    4    4    0    0  0.15382868077E-02 -0.43889787403E-02 -0.24313563571E-02  0.52727673399E-02  0.51100000000E-03 0. -1.
</event>
<event>
 8    1  0.1123191E+005  0.1043930E+01  0.7957747E-01            NaN
         13   -1    0    0    0    0  0.00000000000E+00  0.00000000000E+00  0.74505805969E-08  0.10566000000E+00  0.10566000000E+00 0. -1.
     999900   -1    0    0    0    0 -0.00000000000E+00 -0.00000000000E+00 -0.74505805969E-08  0.93827000000E+00  0.93827000000E+00 0. -1.
     999902    2    1    2    0    0 -0.98948463982E-02  0.10391022731E-01  0.18888030971E-01  0.10202099862E+01  0.10199342023E+01 0.  0.
     999903    2    3    3    0    0 -0.86873944930E-01 -0.37094191899E-01  0.90925460226E-01  0.13264589367E+00  0.20110504937E-01 0.  0.
         14    1    1    2    0    0  0.98948463982E-02 -0.10391022731E-01 -0.18888030971E-01  0.23720013756E-01  0.00000000000E+00 0. -1.
     999901    1    3    3    0    0  0.76979098532E-01  0.47485214630E-01 -0.72037429255E-01  0.88756409258E+00  0.88000000000E+00 0. -1.
        -11    1    4    4    0    0 -0.66489456194E-01 -0.22178613510E-01  0.56981473767E-01  0.90332099256E-01  0.51100000000E-03 0.  1.
         11    1    4    4    0    0 -0.20384488736E-01 -0.14915578389E-01  0.33943986459E-01  0.42313794411E-01  0.51100000000E-03 0. -1.
</event>
<event>
 8    1  0.1123191E+005  0.1043930E+01  0.7957747E-01            NaN
         13   -1    0    0    0    0  0.00000000000E+00  0.00000000000E+00  0.74505805969E-08  0.10566000000E+00  0.10566000000E+00 0. -1.
     999900   -1    0    0    0    0 -0.00000000000E+00 -0.00000000000E+00 -0.74505805969E-08  0.93827000000E+00  0.93827000000E+00 0. -1.
     999902    2    1    2    0    0 -0.10142349916E-01 -0.15959487723E-01  0.14589467717E-01  0.10200464266E+01  0.10197667809E+01 0.  0.
     999903    2    3    3    0    0 -0.65605821679E-01 -0.76205359105E-01 -0.81604778795E-01  0.13102500122E+00  0.19920603100E-01 0.  0.
         14    1    1    2    0    0  0.10142349916E-01  0.15959487723E-01 -0.14589467717E-01  0.23883573402E-01  0.00000000000E+00 0. -1.
     999901    1    3    3    0    0  0.55463471764E-01  0.60245871382E-01  0.96194246512E-01  0.88902142538E+00  0.88000000000E+00 0.  1.
        -11    1    4    4    0    0 -0.35875851205E-01 -0.28113037531E-01 -0.30809322656E-01  0.55017225143E-01  0.51100000000E-03 0.  1.
         11    1    4    4    0    0 -0.29729970475E-01 -0.48092321574E-01 -0.50795456139E-01  0.76007776077E-01  0.51100000000E-03 0. -1.
</event>
<event>
 8    1  0.1123191E+005  0.1043930E+01  0.7957747E-01            NaN
         13   -1    0    0    0    0  0.00000000000E+00  0.00000000000E+00  0.74505805969E-08  0.10566000000E+00  0.10566000000E+00 0.  1.
     999900   -1    0    0    0    0 -0.00000000000E+00 -0.00000000000E+00 -0.74505805969E-08  0.93827000000E+00  0.93827000000E+00 0. -1.
     999902    2    1    2    0    0 -0.91273057991E-02  0.10493852897E-01  0.18496375271E-01  0.10207881643E+01  0.10205258115E+01 0.  0.
     999903    2    3    3    0    0 -0.87958630609E-01  0.73803890802E-01  0.65354232162E-01  0.13376043229E+00  0.20903171717E-01 0.  0.
         14    1    1    2    0    0  0.91273057991E-02 -0.10493852897E-01 -0.18496375271E-01  0.23141835665E-01  0.00000000000E+00 0. -1.
     999901    1    3    3    0    0  0.78831324810E-01 -0.63310037905E-01 -0.46857856891E-01  0.88702773205E+00  0.88000000000E+00 0.  1.
        -11    1    4    4    0    0 -0.26324423177E-01  0.13871750414E-01  0.95014136391E-02  0.31240017562E-01  0.51100000000E-03 0. -1.
         11    1    4    4    0    0 -0.61634207432E-01  0.59932140388E-01  0.55852818523E-01  0.10252041472E+00  0.51100000000E-03 0.  1.
</event>
<event>
 7    1  0.1123191E+005  0.1043930E+01  0.7957747E-01            NaN
         13   -1    0    0    0    0  0.00000000000E+00  0.00000000000E+00  0.74505805969E-08  0.10566000000E+00  0.10566000000E+00 0.  1.
     999900   -1    0    0    0    0 -0.00000000000E+00 -0.00000000000E+00 -0.74505805969E-08  0.93827000000E+00  0.93827000000E+00 0.  1.
     999903    2    1    2    0    0  0.10795848654E+00  0.23060166470E-01  0.91340857375E-01  0.14469747633E+00  0.20184185336E-01 0.  0.
         14    1    1    2    0    0  0.41564072978E-02 -0.14758742696E-02  0.49708090060E-02  0.66455149281E-02  0.00000000000E+00 0.  1.
     999901    1    1    2    0    0 -0.11211489384E+00 -0.21584292200E-01 -0.96311666381E-01  0.89258700874E+00  0.88000000000E+00 0.  1.
        -11    1    3    3    0    0  0.48510040141E-01  0.19745454635E-01  0.48070890718E-01  0.71092746667E-01  0.51100000000E-03 0.  1.
         11    1    3    3    0    0  0.59448446398E-01  0.33147118345E-02  0.43269966657E-01  0.73604729666E-01  0.51100000000E-03 0. -1.
</event>
<event>
 8    1  0.1123191E+005  0.1043930E+01  0.7957747E-01            NaN
         13   -1    0    0    0    0  0.00000000000E+00  0.00000000000E+00  0.74505805969E-08  0.10566000000E+00  0.10566000000E+00 0. -1.
     999900   -1    0    0    0    0 -0.00000000000E+00 -0.00000000000E+00 -0.74505805969E-08  0.93827000000E+00  0.93827000000E+00 0. -1.
     999902    2    1    2    0    0  0.35056257249E-02 -0.20812126410E-01 -0.22385499968E-01  0.10131640346E+01  0.10126968038E+01 0.  0.
     999903    2    3    3    0    0  0.77633495136E-01  0.90796138716E-01 -0.21613961137E-01  0.12302250590E+00  0.19911686738E-01 0.  0.
         14    1    1    2    0    0 -0.35056257249E-02  0.20812126410E-01  0.22385499968E-01  0.30765965388E-01  0.00000000000E+00 0. -1.
     999901    1    3    3    0    0 -0.74127869411E-01 -0.11160826513E+00 -0.77153883091E-03  0.89014152871E+00  0.88000000000E+00 0.  1.
        -11    1    4    4    0    0  0.67358849469E-01  0.69296828164E-01 -0.12247121592E-01  0.97414157615E-01  0.51100000000E-03 0.  1.
         11    1    4    4    0    0  0.10274645667E-01  0.21499310552E-01 -0.93668395445E-02  0.25608348284E-01  0.51100000000E-03 0. -1.
</event>
<event>
 8    1  0.1123191E+005  0.1043930E+01  0.7957747E-01            NaN
         13   -1    0    0    0    0  0.00000000000E+00  0.00000000000E+00  0.74505805969E-08  0.10566000000E+00  0.10566000000E+00 0.  1.
     999900   -1    0    0    0    0 -0.00000000000E+00 -0.00000000000E+00 -0.74505805969E-08  0.93827000000E+00  0.93827000000E+00 0.  1.
     999902    2    1    2    0    0  0.22222668425E-02  0.24061016176E-01  0.38945001729E-03  0.10197634396E+01  0.10194770474E+01 0.  0.
     999903    2    3    3    0    0  0.25102444407E-01  0.95905460164E-01  0.85726588748E-01  0.13242610021E+00  0.18964018421E-01 0.  0.
         14    1    1    2    0    0 -0.22222668425E-02 -0.24061016176E-01 -0.38945001729E-03  0.24166560381E-01  0.00000000000E+00 0. -1.
     999901    1    3    3    0    0 -0.22880177564E-01 -0.71844443989E-01 -0.85337138731E-01  0.88733733941E+00  0.88000000000E+00 0.  1.
        -11    1    4    4    0    0  0.20219774755E-01  0.55858359603E-01  0.60773723042E-01  0.84986482231E-01  0.51100000000E-03 0. -1.
         11    1    4    4    0    0  0.48826696520E-02  0.40047100561E-01  0.24952865707E-01  0.47439617982E-01  0.51100000000E-03 0.  1.
</event>
<event>
 8    1  0.1123191E+005  0.1043930E+01  0.7957747E-01            NaN
         13   -1    0    0    0    0  0.00000000000E+00  0.00000000000E+00  0.74505805969E-08  0.10566000000E+00  0.10566000000E+00 0.  1.
     999900   -1    0    0    0    0 -0.00000000000E+00 -0.00000000000E+00 -0.74505805969E-08  0.93827000000E+00  0.93827000000E+00 0.  1.
     999902    2    1    2    0    0 -0.10516549301E-01 -0.14236317969E-01 -0.12168871603E-01  0.10224508940E+01  0.10222252583E+01 0.  0.
     999903    2    3    3    0    0 -0.66197334650E-01  0.65748413264E-02  0.11194933627E+00  0.13175521997E+00  0.20036677469E-01 0.  0.
         14    1    1    2    0    0  0.10516549301E-01  0.14236317969E-01  0.12168871603E-01  0.21479106001E-01  0.00000000000E+00 0.  1.
     999901    1    3    3    0    0  0.55680785349E-01 -0.20811159295E-01 -0.12411820788E+00  0.89069567403E+00  0.88000000000E+00 0.  1.
        -11    1    4    4    0    0 -0.40769903128E-01  0.42319287348E-02  0.49402049636E-01  0.64194375541E-01  0.51100000000E-03 0.  1.
         11    1    4    4    0    0 -0.25427431522E-01  0.23429125916E-02  0.62547286637E-01  0.67560844428E-01  0.51100000000E-03 0. -1.
</event>
<event>
 8    1  0.1123191E+005  0.1043930E+01  0.7957747E-01            NaN
         13   -1    0    0    0    0  0.00000000000E+00  0.00000000000E+00  0.74505805969E-08  0.10566000000E+00  0.10566000000E+00 0. -1.
     999900   -1    0    0    0    0 -0.00000000000E+00 -0.00000000000E+00 -0.74505805969E-08  0.93827000000E+00  0.93827000000E+00 0. -1.
     999902    2    1    2    0    0 -0.13498263462E-01 -0.20171431616E-01 -0.19499878884E-02  0.10195806217E+01  0.10192898273E+01 0.  0.
     999903    2    3    3    0    0 -0.79739974493E-01  0.99180096539E-01  0.75769229979E-02  0.12900579972E+00  0.19746683690E-01 0.  0.
         14    1    1    2    0    0  0.13498263462E-01  0.20171431616E-01  0.19499878884E-02  0.24349378282E-01  0.00000000000E+00 0.  1.
     999901    1    3    3    0    0  0.66241711031E-01 -0.11935152815E+00 -0.95269108863E-02  0.89057482200E+00  0.88000000000E+00 0. -1.
        -11    1    4    4    0    0 -0.10836463220E-01  0.82125169864E-02 -0.43026525835E-02  0.14270539956E-01  0.51100000000E-03 0. -1.
         11    1    4    4    0    0 -0.68903511273E-01  0.90967579552E-01  0.11879575581E-01  0.11473525976E+00  0.51100000000E-03 0.  1.
</event>
<event>
 8    1  0.1123191E+005  0.1043930E+01  0.7957747E-01            NaN
         13   -1    0    0    0    0  0.00000000000E+00  0.00000000000E+00  0.74505805969E-08  0.10566000000E+00  0.10566000000E+00 0.  1.
     999900   -1    0    0    0    0 -0.00000000000E+00 -0.00000000000E+00 -0.74505805969E-08  0.93827000000E+00  0.93827000000E+00 0.  1.
     999902    2    1    2    0    0 -0.22905304617E-02 -0.20386440091E-01  0.15831595496E-01  0.10180168202E+01  0.10176869624E+01 0.  0.
     999903    2    3    3    0    0 -0.38600360633E-01 -0.88491213533E-01  0.87320245565E-01  0.13175089456E+00  0.20317239428E-01 0.  0.
         14    1    1    2    0    0  0.22905304617E-02  0.20386440091E-01 -0.15831595496E-01  0.25913179761E-01  0.00000000000E+00 0. -1.
     999901    1    3    3    0    0  0.36309830171E-01  0.68104773441E-01 -0.71488650069E-01  0.88626592568E+00  0.88000000000E+00 0.  1.
        -11    1    4    4    0    0 -0.19471627017E-01 -0.22560724312E-01  0.30369720791E-01  0.42552457063E-01  0.51100000000E-03 0.  1.
         11    1    4    4    0    0 -0.19128733615E-01 -0.65930489221E-01  0.56950524774E-01  0.89198437495E-01  0.51100000000E-03 0. -1.
</event>
<event>
 8    1  0.1123191E+005  0.1043930E+01  0.7957747E-01            NaN
         13   -1    0    0    0    0  0.00000000000E+00  0.00000000000E+00  0.74505805969E-08  0.10566000000E+00  0.10566000000E+00 0.  1.
     999900   -1    0    0    0    0 -0.00000000000E+00 -0.00000000000E+00 -0.74505805969E-08  0.93827000000E+00  0.93827000000E+00 0.  1.
     999902    2    1    2    0    0  0.11394550621E-01 -0.79015828481E-02 -0.19308486729E-01  0.10201584108E+01  0.10198814120E+01 0.  0.
     999903    2    3    3    0    0 -0.10237094668E-01  0.49269605561E-01  0.11586750319E+00  0.12774089574E+00  0.18978040181E-01 0.  0.
         14    1    1    2    0    0 -0.11394550621E-01  0.79015828481E-02  0.19308486729E-01  0.23771589243E-01  0.00000000000E+00 0.  1.
     999901    1    3    3    0    0  0.21631645289E-01 -0.57171188410E-01 -0.13517598992E+00  0.89241751502E+00  0.88000000000E+00 0.  1.
        -11    1    4    4    0    0 -0.11038638074E-01  0.47462214799E-01  0.94962265263E-01  0.10673615277E+00  0.51100000000E-03 0.  1.
         11    1    4    4    0    0  0.80154340637E-03  0.18073907627E-02  0.20905237928E-01  0.21004742965E-01  0.51100000000E-03 0. -1.
</event>
<event>
 8    1  0.1123191E+005  0.1043930E+01  0.7957747E-01            NaN
         13   -1    0    0    0    0  0.00000000000E+00  0.00000000000E+00  0.74505805969E-08  0.10566000000E+00  0.10566000000E+00 0.  1.
     999900   -1    0    0    0    0 -0.00000000000E+00 -0.00000000000E+00 -0.74505805969E-08  0.93827000000E+00  0.93827000000E+00 0. -1.
     999902    2    1    2    0    0  0.10684001310E-01 -0.13501474539E-01 -0.11480002105E-01  0.10232363259E+01  0.10230270527E+01 0.  0.
     999903    2    3    3    0    0  0.84483740800E-01 -0.33205170686E-01  0.95781286140E-01  0.13343880898E+00  0.19793310679E-01 0.  0.
         14    1    1    2    0    0 -0.10684001310E-01  0.13501474539E-01  0.11480002105E-01  0.20693674083E-01  0.00000000000E+00 0.  1.
     999901    1    3    3    0    0 -0.73799739489E-01  0.19703696146E-01 -0.10726128825E+00  0.88979751694E+00  0.88000000000E+00 0. -1.
        -11    1    4    4    0    0  0.50373656067E-01 -0.23288982130E-01  0.71029057957E-01  0.90140280172E-01  0.51100000000E-03 0.  1.
         11    1    4    4    0    0  0.34110084733E-01 -0.99161885554E-02  0.24752228184E-01  0.43298528809E-01  0.51100000000E-03 0. -1.
</event>
<event>
 8    1  0.1123191E+005  0.1043930E+01  0.7957747E-01            NaN
         13   -1    0    0    0    0  0.00000000000E+00  0.00000000000E+00  0.74505805969E-08  0.10566000000E+00  0.10566000000E+00 0.  1.
     999900   -1    0    0    0    0 -0.00000000000E+00 -0.00000000000E+00 -0.74505805969E-08  0.93827000000E+00  0.93827000000E+00 0. -1.
     999902    2    1    2    0    0 -0.20719757501E-01  0.92947278321E-02 -0.65687183308E-02  0.10202900259E+01  0.10200161217E+01 0.  0.
     999903    2    3    3    0    0 -0.28377386208E-01 -0.87410736953E-02  0.12517604297E+00  0.13026721069E+00  0.20465141787E-01 0.  0.
         14    1    1    2    0    0  0.20719757501E-01 -0.92947278321E-02  0.65687183308E-02  0.23639974130E-01  0.00000000000E+00 0. -1.
     999901    1    3    3    0    0  0.76576287074E-02  0.18035801527E-01 -0.13174476130E+00  0.89002281518E+00  0.88000000000E+00 0. -1.
        -11    1    4    4    0    0 -0.61770942689E-02 -0.11662588532E-01  0.56842618294E-01  0.58356806291E-01  0.51100000000E-03 0. -1.
         11    1    4    4    0    0 -0.22200291939E-01  0.29215148364E-02  0.68333424679E-01  0.71910404397E-01  0.51100000000E-03 0.  1.
</event>
<event>
 8    1  0.1123191E+005  0.1043930E+01  0.7957747E-01            NaN
         13   -1    0    0    0    0  0.00000000000E+00  0.00000000000E+00  0.74505805969E-08  0.10566000000E+00  0.10566000000E+00 0.  1.
     999900   -1    0    0    0    0 -0.00000000000E+00 -0.00000000000E+00 -0.74505805969E-08  0.93827000000E+00  0.93827000000E+00 0. -1.
     999902    2    1    2    0    0  0.19117190281E-01 -0.43712262232E-02  0.16208397086E-01  0.10184881699E+01  0.10181703519E+01 0.  0.
     999903    2    3    3    0    0 -0.15563539448E-01 -0.96187215497E-01  0.84405494592E-01  0.13040947236E+00  0.19701238026E-01 0.  0.
         14    1    1    2    0    0 -0.19117190281E-01  0.43712262232E-02 -0.16208397086E-01  0.25441830104E-01  0.00000000000E+00 0. -1.
     999901    1    3    3    0    0  0.34680729729E-01  0.91815989274E-01 -0.68197097506E-01  0.88807869753E+00  0.88000000000E+00 0. -1.
        -11    1    4    4    0    0 -0.65836079510E-02 -0.11091153092E-01  0.17722940036E-01  0.21925357353E-01  0.51100000000E-03 0.  1.
         11    1    4    4    0    0 -0.89799314968E-02 -0.85096062405E-01  0.66682554556E-01  0.10848411501E+00  0.51100000000E-03 0. -1.
</event>
<event>
 8    1  0.1123191E+005  0.1043930E+01  0.7957747E-01            NaN
         13   -1    0    0    0    0  0.00000000000E+00  0.00000000000E+00  0.74505805969E-08  0.10566000000E+00  0.10566000000E+00 0. -1.
     999900   -1    0    0    0    0 -0.00000000000E+00 -0.00000000000E+00 -0.74505805969E-08  0.93827000000E+00  0.93827000000E+00 0. -1.
     999902    2    1    2    0    0 -0.18329698664E-01 -0.11638488228E-01  0.94534935490E-02  0.10202487669E+01  0.10199738945E+01 0.  0.
     999903    2    3    3    0    0  0.58377836508E-01 -0.86137415234E-01 -0.74777980100E-01  0.12978311498E+00  0.20598168066E-01 0.  0.
         14    1    1    2    0    0  0.18329698664E-01  0.11638488228E-01 -0.94534935490E-02  0.23681233110E-01  0.00000000000E+00 0.  1.
     999901    1    3    3    0    0 -0.76707535173E-01  0.74498927006E-01  0.84231473649E-01  0.89046565191E+00  0.88000000000E+00 0.  1.
        -11    1    4    4    0    0  0.54613564477E-01 -0.86368027616E-01 -0.71089009933E-01  0.12448287462E+00  0.51100000000E-03 0.  1.
         11    1    4    4    0    0  0.37642720318E-02  0.23061238219E-03 -0.36889701663E-02  0.53002403614E-02  0.51100000000E-03 0. -1.
</event>
<event>
 8    1  0.1123191E+005  0.1043930E+01  0.7957747E-01            NaN
         13   -1    0    0    0    0  0.00000000000E+00  0.00000000000E+00  0.74505805969E-08  0.10566000000E+00  0.10566000000E+00 0. -1.
     999900   -1    0    0    0    0 -0.00000000000E+00 -0.00000000000E+00 -0.74505805969E-08  0.93827000000E+00  0.93827000000E+00 0.  1.
     999902    2    1    2    0    0  0.23332108234E-01 -0.19539897248E-02 -0.35654826172E-02  0.10202462922E+01  0.10199713617E+01 0.  0.
     999903    2    3    3    0    0 -0.10230836107E+00  0.59449100257E-01  0.44463739644E-01  0.12791077613E+00  0.19569012292E-01 0.  0.
         14    1    1    2    0    0 -0.23332108234E-01  0.19539897248E-02  0.35654826172E-02  0.23683707834E-01  0.00000000000E+00 0. -1.
     999901    1    3    3    0    0  0.12564046930E+00 -0.61403089981E-01 -0.48029222261E-01  0.89233551603E+00  0.88000000000E+00 0.  1.
        -11    1    4    4    0    0 -0.97894505077E-01  0.51998801673E-01  0.38338708878E-01  0.11729163320E+00  0.51100000000E-03 0.  1.
         11    1    4    4    0    0 -0.44138559892E-02  0.74502985835E-02  0.61250307663E-02  0.10619142930E-01  0.51100000000E-03 0. -1.
</event>
<event>
 7    1  0.1712318E+005  0.1043930E+01  0.7957747E-01            NaN
         13   -1    0    0    0    0  0.00000000000E+00  0.00000000000E+00  0.74505805969E-08  0.10566000000E+00  0.10566000000E+00 0.  1.
     999900   -1    0    0    0    0 -0.00000000000E+00 -0.00000000000E+00 -0.74505805969E-08  0.93827000000E+00  0.93827000000E+00 0. -1.
     999902    2    1    2    0    0  0.83185212170E-02 -0.25268135431E-01 -0.86281254947E-04  0.10173276710E+01  0.10169797964E+01 0.  0.
         14    1    1    2    0    0 -0.83185212170E-02  0.25268135431E-01  0.86281254947E-04  0.26602328993E-01  0.00000000000E+00 0.  1.
     999901    1    3    3    0    0 -0.30594105910E-01  0.93796957855E-01 -0.15325417582E-02  0.88551466239E+00  0.88000000000E+00 0. -1.
        -11    1    3    3    0    0 -0.63597918401E-02 -0.41390715783E-01 -0.58474312104E-03  0.41883664486E-01  0.51100000000E-03 0. -1.
         11    1    3    3    0    0  0.45272418967E-01 -0.77674377502E-01  0.20310036243E-02  0.89929344133E-01  0.51100000000E-03 0.  1.
</event>
<event>
 8    1  0.1123191E+005  0.1043930E+01  0.7957747E-01            NaN
         13   -1    0    0    0    0  0.00000000000E+00  0.00000000000E+00  0.74505805969E-08  0.10566000000E+00  0.10566000000E+00 0. -1.
     999900   -1    0    0    0    0 -0.00000000000E+00 -0.00000000000E+00 -0.74505805969E-08  0.93827000000E+00  0.93827000000E+00 0. -1.
     999902    2    1    2    0    0 -0.60594992626E-02 -0.46769273555E-02 -0.15131124138E-01  0.10269729337E+01  0.10268329292E+01 0.  0.
     999903    2    3    3    0    0 -0.14707280911E-01  0.66741342141E-01 -0.11849263702E+00  0.13800782992E+00  0.18301508922E-01 0.  0.
         14    1    1    2    0    0  0.60594992626E-02  0.46769273555E-02  0.15131124138E-01  0.16957066329E-01  0.00000000000E+00 0. -1.
     999901    1    3    3    0    0  0.86477816487E-02 -0.71418269497E-01  0.10336151288E+00  0.88896510375E+00  0.88000000000E+00 0. -1.
        -11    1    4    4    0    0 -0.10293158327E-02  0.37967330661E-01 -0.75250788787E-01  0.84294246676E-01  0.51100000000E-03 0.  1.
         11    1    4    4    0    0 -0.13677965079E-01  0.28774011481E-01 -0.43241848230E-01  0.53713583242E-01  0.51100000000E-03 0. -1.
</event>
<event>
 8    1  0.1123191E+005  0.1043930E+01  0.7957747E-01            NaN
         13   -1    0    0    0    0  0.00000000000E+00  0.00000000000E+00  0.74505805969E-08  0.10566000000E+00  0.10566000000E+00 0. -1.
     999900   -1    0    0    0    0 -0.00000000000E+00 -0.00000000000E+00 -0.74505805969E-08  0.93827000000E+00  0.93827000000E+00 0. -1.
     999902    2    1    2    0    0  0.13212165754E-01 -0.15445838226E-01  0.11808635526E-01  0.10204229986E+01  0.10201522028E+01 0.  0.
     999903    2    3    3    0    0 -0.76485438484E-01 -0.32081995095E-01 -0.96451658988E-01  0.12910783924E+00  0.22059803291E-01 0.  0.
         14    1    1    2    0    0 -0.13212165754E-01  0.15445838226E-01 -0.11808635526E-01  0.23507001413E-01  0.00000000000E+00 0.  1.
     999901    1    3    3    0    0  0.89697604238E-01  0.16636156869E-01  0.10826029451E+00  0.89131515935E+00  0.88000000000E+00 0.  1.
        -11    1    4    4    0    0 -0.68857295817E-02 -0.30435447926E-02 -0.21481008625E-01  0.22767768650E-01  0.51100000000E-03 0. -1.
         11    1    4    4    0    0 -0.69599708902E-01 -0.29038450303E-01 -0.74970650363E-01  0.10634007059E+00  0.51100000000E-03 0.  1.
</event>
<event>
 8    1  0.1123191E+005  0.1043930E+01  0.7957747E-01            NaN
         13   -1    0    0    0    0  0.00000000000E+00  0.00000000000E+00  0.74505805969E-08  0.10566000000E+00  0.10566000000E+00 0.  1.
     999900   -1    0    0    0    0 -0.00000000000E+00 -0.00000000000E+00 -0.74505805969E-08  0.93827000000E+00  0.93827000000E+00 0. -1.
     999902    2    1    2    0    0 -0.64297596128E-02  0.40519674239E-02  0.22513654208E-01  0.10201681635E+01  0.10198913947E+01 0.  0.
     999903    2    3    3    0    0  0.12182051665E+00 -0.37608707184E-01  0.15119268297E-01  0.12986573054E+00  0.19541303984E-01 0.  0.
         14    1    1    2    0    0  0.64297596128E-02 -0.40519674239E-02 -0.22513654208E-01  0.23761836513E-01  0.00000000000E+00 0. -1.
     999901    1    3    3    0    0 -0.12825027626E+00  0.41660674608E-01  0.73943859112E-02  0.89030243295E+00  0.88000000000E+00 0. -1.
        -11    1    4    4    0    0  0.13828985279E-01 -0.50192030977E-02  0.82009548487E-02  0.16850816449E-01  0.51100000000E-03 0. -1.
         11    1    4    4    0    0  0.10799153137E+00 -0.32589504086E-01  0.69183134481E-02  0.11301491409E+00  0.51100000000E-03 0.  1.
</event>
<event>
 7    1  0.1123191E+005  0.1043930E+01  0.7957747E-01            NaN
         13   -1    0    0    0    0  0.00000000000E+00  0.00000000000E+00  0.74505805969E-08  0.10566000000E+00  0.10566000000E+00 0. -1.
     999900   -1    0    0    0    0 -0.00000000000E+00 -0.00000000000E+00 -0.74505805969E-08  0.93827000000E+00  0.93827000000E+00 0. -1.
     999902    2    1    2    0    0  0.19343163592E-01 -0.28795670295E-02  0.13594230541E-01  0.10201129265E+01  0.10198348542E+01 0.  0.
         14    1    1    2    0    0 -0.19343163592E-01  0.28795670295E-02 -0.13594230541E-01  0.23817073456E-01  0.00000000000E+00 0.  1.
     999901    1    3    3    0    0  0.17863537177E-01 -0.10606142354E+00 -0.59978296612E-01  0.88857499829E+00  0.88000000000E+00 0. -1.
        -11    1    3    3    0    0  0.15118066071E-01  0.73685122823E-01  0.60395090171E-01  0.96466995833E-01  0.51100000000E-03 0. -1.
         11    1    3    3    0    0 -0.13638439656E-01  0.29496733686E-01  0.13177436982E-01  0.35070932420E-01  0.51100000000E-03 0.  1.
</event>
<event>
 8    1  0.1123191E+005  0.1043930E+01  0.7957747E-01            NaN
         13   -1    0    0    0    0  0.00000000000E+00  0.00000000000E+00  0.74505805969E-08  0.10566000000E+00  0.10566000000E+00 0.  1.
     999900   -1    0    0    0    0 -0.00000000000E+00 -0.00000000000E+00 -0.74505805969E-08  0.93827000000E+00  0.93827000000E+00 0.  1.
     999902    2    1    2    0    0 -0.99085665979E-02  0.75479142905E-02 -0.19925429933E-01  0.10204316286E+01  0.10201610339E+01 0.  0.
     999903    2    3    3    0    0  0.59476682933E-01  0.28659760557E-02  0.11143995453E+00  0.12796700874E+00  0.20273189901E-01 0.  0.
         14    1    1    2    0    0  0.99085665979E-02 -0.75479142905E-02  0.19925429933E-01  0.23498371437E-01  0.00000000000E+00 0.  1.
     999901    1    3    3    0    0 -0.69385249531E-01  0.46819382348E-02 -0.13136538446E+00  0.89246461982E+00  0.88000000000E+00 0.  1.
        -11    1    4    4    0    0  0.14262280311E-01  0.10112861115E-02  0.47670360828E-01  0.49771073544E-01  0.51100000000E-03 0.  1.
         11    1    4    4    0    0  0.45214402622E-01  0.18546899442E-02  0.63769593704E-01  0.78195935197E-01  0.51100000000E-03 0. -1.
</event>
<event>
 8    1  0.1123191E+005  0.1043930E+01  0.7957747E-01            NaN
         13   -1    0    0    0    0  0.00000000000E+00  0.00000000000E+00  0.74505805969E-08  0.10566000000E+00  0.10566000000E+00 0.  1.
     999900   -1    0    0    0    0 -0.00000000000E+00 -0.00000000000E+00 -0.74505805969E-08  0.93827000000E+00  0.93827000000E+00 0. -1.
     999902    2    1    2    0    0  0.56771538876E-02 -0.46856815231E-02 -0.21172134362E-01  0.10215147159E+01  0.10212687550E+01 0.  0.
     999903    2    3    3    0    0 -0.91228887346E-01 -0.91682475982E-01 -0.15633118804E-01  0.13191373582E+00  0.20699106409E-01 0.  0.
         14    1    1    2    0    0 -0.56771538876E-02  0.46856815231E-02  0.21172134362E-01  0.22415284095E-01  0.00000000000E+00 0.  1.
     999901    1    3    3    0    0  0.96906041234E-01  0.86996794459E-01 -0.55390155581E-02  0.88960098008E+00  0.88000000000E+00 0. -1.
        -11    1    4    4    0    0 -0.18601104177E-01 -0.19993131824E-01 -0.11905088996E-01  0.29794607931E-01  0.51100000000E-03 0. -1.
         11    1    4    4    0    0 -0.72627783169E-01 -0.71689344158E-01 -0.37280298083E-02  0.10211912789E+00  0.51100000000E-03 0.  1.
</event>
<event>
 8    1  0.1123191E+005  0.1043930E+01  0.7957747E-01            NaN
         13   -1    0    0    0    0  0.00000000000E+00  0.00000000000E+00  0.74505805969E-08  0.10566000000E+00  0.10566000000E+00 0.  1.
     999900   -1    0    0    0    0 -0.00000000000E+00 -0.00000000000E+00 -0.74505805969E-08  0.93827000000E+00  0.93827000000E+00 0.  1.
     999902    2    1    2    0    0  0.86829767327E-02  0.13129652075E-01  0.18292955373E-01  0.10197967436E+01  0.10195111496E+01 0.  0.
     999903    2    3    3    0    0  0.10626540650E+00  0.36784682273E-02  0.76162315461E-01  0.13246336864E+00  0.20975652219E-01 0.  0.
         14    1    1    2    0    0 -0.86829767327E-02 -0.13129652075E-01 -0.18292955373E-01  0.24133256408E-01  0.00000000000E+00 0. -1.
     999901    1    3    3    0    0 -0.97582429770E-01  0.94511838476E-02 -0.57869360088E-01  0.88733337496E+00  0.88000000000E+00 0. -1.
        -11    1    4    4    0    0  0.35778668297E-01  0.26417341500E-02  0.38151299482E-01  0.52372460679E-01  0.51100000000E-03 0. -1.
         11    1    4    4    0    0  0.70486738206E-01  0.10367340772E-02  0.38011015980E-01  0.80090907956E-01  0.51100000000E-03 0.  1.
</event>
<event>
 8    1  0.1123191E+005  0.1043930E+01  0.7957747E-01            NaN
         13   -1    0    0    0    0  0.00000000000E+00  0.00000000000E+00  0.74505805969E-08  0.10566000000E+00  0.10566000000E+00 0. -1.
     999900   -1    0    0    0    0 -0.00000000000E+00 -0.00000000000E+00 -0.74505805969E-08  0.93827000000E+00  0.93827000000E+00 0. -1.
     999902    2    1    2    0    0  0.78603853931E-02  0.11740945559E-01  0.17928513632E-01  0.10211031066E+01  0.10208479256E+01 0.  0.
     999903    2    3    3    0    0 -0.11385041591E+00 -0.42528073151E-01 -0.39056536507E-01  0.12924776997E+00  0.20224212940E-01 0.  0.
         14    1    1    2    0    0 -0.78603853931E-02 -0.11740945559E-01 -0.17928513632E-01  0.22826893398E-01  0.00000000000E+00 0.  1.
     999901    1    3    3    0    0  0.12171080130E+00  0.54269018710E-01  0.56985050139E-01  0.89185533664E+00  0.88000000000E+00 0.  1.
        -11    1    4    4    0    0 -0.89812434501E-01 -0.33462086345E-01 -0.39200340600E-01  0.10355149655E+00  0.51100000000E-03 0.  1.
         11    1    4    4    0    0 -0.24037981408E-01 -0.90659868057E-02  0.14380409268E-03  0.25696273417E-01  0.51100000000E-03 0. -1.
</event>
<event>
 8    1  0.1123191E+005  0.1043930E+01  0.7957747E-01            NaN
         13   -1    0    0    0    0  0.00000000000E+00  0.00000000000E+00  0.74505805969E-08  0.10566000000E+00  0.10566000000E+00 0. -1.
     999900   -1    0    0    0    0 -0.00000000000E+00 -0.00000000000E+00 -0.74505805969E-08  0.93827000000E+00  0.93827000000E+00 0. -1.
     999902    2    1    2    0    0 -0.11333967754E-01 -0.86996609318E-02 -0.17629895795E-01  0.10212373547E+01  0.10209851999E+01 0.  0.
     999903    2    3    3    0    0 -0.45697702023E-01  0.91375865633E-01 -0.81770534869E-01  0.13258106634E+00  0.21295304368E-01 0.  0.
         14    1    1    2    0    0  0.11333967754E-01  0.86996609318E-02  0.17629895795E-01  0.22692645309E-01  0.00000000000E+00 0. -1.
     999901    1    3    3    0    0  0.34363734270E-01 -0.10007552656E+00  0.64140639074E-01  0.88865628835E+00  0.88000000000E+00 0.  1.
        -11    1    4    4    0    0 -0.90486800034E-02  0.33016637011E-01 -0.36947054077E-01  0.50371845859E-01  0.51100000000E-03 0. -1.
         11    1    4    4    0    0 -0.36649022020E-01  0.58359228621E-01 -0.44823480792E-01  0.82209220478E-01  0.51100000000E-03 0.  1.
</event>
<event>
 8    1  0.1123191E+005  0.1043930E+01  0.7957747E-01            NaN
         13   -1    0    0    0    0  0.00000000000E+00  0.00000000000E+00  0.74505805969E-08  0.10566000000E+00  0.10566000000E+00 0.  1.
     999900   -1    0    0    0    0 -0.00000000000E+00 -0.00000000000E+00 -0.74505805969E-08  0.93827000000E+00  0.93827000000E+00 0.  1.
     999902    2    1    2    0    0 -0.12698730951E-01  0.25327376623E-01 -0.20452575777E-02  0.10155237181E+01  0.10151263493E+01 0.  0.
     999903    2    3    3    0    0  0.54994775452E-01 -0.33177629679E-01 -0.10532942093E+00  0.12497733244E+00  0.19996656524E-01 0.  0.
         14    1    1    2    0    0  0.12698730951E-01 -0.25327376623E-01  0.20452575777E-02  0.28406281927E-01  0.00000000000E+00 0.  1.
     999901    1    3    3    0    0 -0.67693506404E-01  0.58505006302E-01  0.10328416335E+00  0.89054638564E+00  0.88000000000E+00 0. -1.
        -11    1    4    4    0    0  0.41202078297E-01 -0.15243481015E-01 -0.60618623365E-01  0.74865570118E-01  0.51100000000E-03 0.  1.
         11    1    4    4    0    0  0.13792697156E-01 -0.17934148664E-01 -0.44710797560E-01  0.50111762318E-01  0.51100000000E-03 0. -1.
</event>
<event>
 8    1  0.1123191E+005  0.1043930E+01  0.7957747E-01            NaN
         13   -1    0    0    0    0  0.00000000000E+00  0.00000000000E+00  0.74505805969E-08  0.10566000000E+00  0.10566000000E+00 0.  1.
     999900   -1    0    0    0    0 -0.00000000000E+00 -0.00000000000E+00 -0.74505805969E-08  0.93827000000E+00  0.93827000000E+00 0.  1.
     999902    2    1    2    0    0 -0.86475729335E-02  0.15691167336E-01  0.16095103975E-01  0.10198458637E+01  0.10195614450E+01 0.  0.
     999903    2    3    3    0    0 -0.12002059554E+00  0.37231865302E-01 -0.32682749241E-01  0.13122489229E+00  0.18990921846E-01 0.  0.
         14    1    1    2    0    0  0.86475729335E-02 -0.15691167336E-01 -0.16095103975E-01  0.24084136314E-01  0.00000000000E+00 0. -1.
     999901    1    3    3    0    0  0.11137302260E+00 -0.21540697966E-01  0.48777853216E-01  0.88862097139E+00  0.88000000000E+00 0. -1.
        -11    1    4    4    0    0 -0.96960015856E-01  0.22043095778E-01 -0.26868869869E-01  0.10300165064E+00  0.51100000000E-03 0. -1.
         11    1    4    4    0    0 -0.23060579682E-01  0.15188769524E-01 -0.58138793722E-02  0.28223241651E-01  0.51100000000E-03 0.  1.
</event>
<event>
 8    1  0.1123191E+005  0.1043930E+01  0.7957747E-01            NaN
         13   -1    0    0    0    0  0.00000000000E+00  0.00000000000E+00  0.74505805969E-08  0.10566000000E+00  0.10566000000E+00 0. -1.
     999900   -1    0    0    0    0 -0.00000000000E+00 -0.00000000000E+00 -0.74505805969E-08  0.93827000000E+00  0.93827000000E+00 0.  1.
     999902    2    1    2    0    0 -0.14498489564E-01 -0.17567327579E-01  0.90031980191E-02  0.10194376589E+01  0.10191433980E+01 0.  0.
     999903    2    3    3    0    0  0.77411495807E-01  0.96371684216E-01 -0.20015441188E-01  0.12687302525E+00  0.20398662922E-01 0.  0.
         14    1    1    2    0    0  0.14498489564E-01  0.17567327579E-01 -0.90031980191E-02  0.24492341098E-01  0.00000000000E+00 0. -1.
     999901    1    3    3    0    0 -0.91909985371E-01 -0.11393901180E+00  0.29018639207E-01  0.89256463365E+00  0.88000000000E+00 0. -1.
        -11    1    4    4    0    0  0.43711295787E-01  0.38571527583E-01 -0.11536201026E-01  0.59428824442E-01  0.51100000000E-03 0. -1.
         11    1    4    4    0    0  0.33700200020E-01  0.57800156633E-01 -0.84792401622E-02  0.67444200810E-01  0.51100000000E-03 0.  1.
</event>
<event>
 8    1  0.1123191E+005  0.1043930E+01  0.7957747E-01            NaN
         13   -1    0    0    0    0  0.00000000000E+00  0.00000000000E+00  0.74505805969E-08  0.10566000000E+00  0.10566000000E+00 0. -1.
     999900   -1    0    0    0    0 -0.00000000000E+00 -0.00000000000E+00 -0.74505805969E-08  0.93827000000E+00  0.93827000000E+00 0.  1.
     999902    2    1    2    0    0  0.22010790617E-01 -0.93974558236E-02 -0.15196630208E-02  0.10199488312E+01  0.10196668681E+01 0.  0.
     999903    2    3    3    0    0  0.82207950855E-03  0.40375755272E-01  0.12068733273E+00  0.12985845165E+00  0.25824557211E-01 0.  0.
         14    1    1    2    0    0 -0.22010790617E-01  0.93974558236E-02  0.15196630208E-02  0.23981168763E-01  0.00000000000E+00 0.  1.
     999901    1    3    3    0    0  0.21188711109E-01 -0.49773211096E-01 -0.12220699575E+00  0.89009037959E+00  0.88000000000E+00 0.  1.
        -11    1    4    4    0    0  0.39072367886E-02  0.34657273254E-01  0.64791586504E-01  0.73583992087E-01  0.51100000000E-03 0. -1.
         11    1    4    4    0    0 -0.30851572801E-02  0.57184820177E-02  0.55895746226E-01  0.56274459563E-01  0.51100000000E-03 0.  1.
</event>
<event>
 8    1  0.1123191E+005  0.1043930E+01  0.7957747E-01            NaN
         13   -1    0    0    0    0  0.00000000000E+00  0.00000000000E+00  0.74505805969E-08  0.10566000000E+00  0.10566000000E+00 0.  1.
     999900   -1    0    0    0    0 -0.00000000000E+00 -0.00000000000E+00 -0.74505805969E-08  0.93827000000E+00  0.93827000000E+00 0.  1.
     999902    2    1    2    0    0 -0.13925941580E-01 -0.37212886305E-02 -0.19281985516E-01  0.10198556401E+01  0.10195714550E+01 0.  0.
     999903    2    3    3    0    0 -0.11257662655E+00  0.35401177013E-01  0.51549961591E-01  0.13065392527E+00  0.22052425496E-01 0.  0.
         14    1    1    2    0    0  0.13925941580E-01  0.37212886305E-02  0.19281985516E-01  0.24074359876E-01  0.00000000000E+00 0.  1.
     999901    1    3    3    0    0  0.98650684968E-01 -0.39122465644E-01 -0.70831947107E-01  0.88920171485E+00  0.88000000000E+00 0.  1.
        -11    1    4    4    0    0 -0.51740307752E-01  0.23762532152E-01  0.33817966121E-01  0.66224114446E-01  0.51100000000E-03 0. -1.
         11    1    4    4    0    0 -0.60836318797E-01  0.11638644861E-01  0.17731995470E-01  0.64429810828E-01  0.51100000000E-03 0.  1.
</event>
<event>
 8    1  0.1123191E+005  0.1043930E+01  0.7957747E-01            NaN
         13   -1    0    0    0    0  0.00000000000E+00  0.00000000000E+00  0.74505805969E-08  0.10566000000E+00  0.10566000000E+00 0. -1.
     999900   -1    0    0    0    0 -0.00000000000E+00 -0.00000000000E+00 -0.74505805969E-08  0.93827000000E+00  0.93827000000E+00 0. -1.
     999902    2    1    2    0    0 -0.13655978349E-01  0.29243800888E-01 -0.13905850606E-01  0.10087866035E+01  0.10081742672E+01 0.  0.
     999903    2    3    3    0    0  0.25716560649E-01  0.31279239065E-01  0.11027543625E+00  0.11919381362E+00  0.20168318649E-01 0.  0.
         14    1    1    2    0    0  0.13655978349E-01 -0.29243800888E-01  0.13905850606E-01  0.35143396480E-01  0.00000000000E+00 0. -1.
     999901    1    3    3    0    0 -0.39372538998E-01 -0.20354381769E-02 -0.12418128686E+00  0.88959278990E+00  0.88000000000E+00 0. -1.
        -11    1    4    4    0    0  0.86213470618E-02  0.25891640504E-01  0.65161107416E-01  0.70646554862E-01  0.51100000000E-03 0.  1.
         11    1    4    4    0    0  0.17095213587E-01  0.53875985614E-02  0.45114328834E-01  0.48547258759E-01  0.51100000000E-03 0. -1.
</event>
<event>
 8    1  0.1123191E+005  0.1043930E+01  0.7957747E-01            NaN
         13   -1    0    0    0    0  0.00000000000E+00  0.00000000000E+00  0.74505805969E-08  0.10566000000E+00  0.10566000000E+00 0. -1.
     999900   -1    0    0    0    0 -0.00000000000E+00 -0.00000000000E+00 -0.74505805969E-08  0.93827000000E+00  0.93827000000E+00 0. -1.
     999902    2    1    2    0    0 -0.13762568572E-01 -0.12292659742E-01  0.15277210398E-01  0.10199735617E+01  0.10196921867E+01 0.  0.
     999903    2    3    3    0    0 -0.23457778192E-01 -0.11118223262E+00  0.66063049419E-01  0.13292658092E+00  0.19834142486E-01 0.  0.
         14    1    1    2    0    0  0.13762568572E-01  0.12292659742E-01 -0.15277210398E-01  0.23956438274E-01  0.00000000000E+00 0. -1.
     999901    1    3    3    0    0  0.96952096204E-02  0.98889572879E-01 -0.50785839021E-01  0.88704698081E+00  0.88000000000E+00 0. -1.
        -11    1    4    4    0    0 -0.92613037700E-02 -0.30059842769E-01  0.89588127175E-02  0.32709132381E-01  0.51100000000E-03 0. -1.
         11    1    4    4    0    0 -0.14196474422E-01 -0.81122389852E-01  0.57104236701E-01  0.10021744854E+00  0.51100000000E-03 0.  1.
</event>
<event>
 8    1  0.1123191E+005  0.1043930E+01  0.7957747E-01            NaN
         13   -1    0    0    0    0  0.00000000000E+00  0.00000000000E+00  0.74505805969E-08  0.10566000000E+00  0.10566000000E+00 0. -1.
     999900   -1    0    0    0    0 -0.00000000000E+00 -0.00000000000E+00 -0.74505805969E-08  0.93827000000E+00  0.93827000000E+00 0. -1.
     999902    2    1    2    0    0  0.15179953126E-02 -0.28073616474E-02  0.22488994360E-01  0.10212156773E+01  0.10209630351E+01 0.  0.
     999903    2    3    3    0    0 -0.10202387793E+00  0.43540612866E-01  0.69177454472E-01  0.13270632642E+00  0.22820872684E-01 0.  0.
         14    1    1    2    0    0 -0.15179953126E-02  0.28073616474E-02 -0.22488994360E-01  0.22714322717E-01  0.00000000000E+00 0.  1.
     999901    1    3    3    0    0  0.10354187324E+00 -0.46347974513E-01 -0.46688460113E-01  0.88850935086E+00  0.88000000000E+00 0.  1.
        -11    1    4    4    0    0 -0.76339349781E-01  0.22252226613E-01  0.43761732084E-01  0.90764575856E-01  0.51100000000E-03 0.  1.
         11    1    4    4    0    0 -0.25684528145E-01  0.21288386253E-01  0.25415722388E-01  0.41941750569E-01  0.51100000000E-03 0. -1.
</event>
<event>
 8    1  0.1123191E+005  0.1043930E+01  0.7957747E-01            NaN
         13   -1    0    0    0    0  0.00000000000E+00  0.00000000000E+00  0.74505805969E-08  0.10566000000E+00  0.10566000000E+00 0.  1.
     999900   -1    0    0    0    0 -0.00000000000E+00 -0.00000000000E+00 -0.74505805969E-08  0.93827000000E+00  0.93827000000E+00 0.  1.
     999902    2    1    2    0    0  0.12937687744E-01 -0.18856879099E-01 -0.74045752424E-02  0.10198926668E+01  0.10196093656E+01 0.  0.
     999903    2    3    3    0    0  0.22583536142E-01  0.59014238126E-01 -0.11210959906E+00  0.13021851559E+00  0.19889776125E-01 0.  0.
         14    1    1    2    0    0 -0.12937687744E-01  0.18856879099E-01  0.74045752424E-02  0.24037333214E-01  0.00000000000E+00 0.  1.
     999901    1    3    3    0    0 -0.96458483980E-02 -0.77871117225E-01  0.10470502382E+00  0.88967415119E+00  0.88000000000E+00 0. -1.
        -11    1    4    4    0    0 -0.14675109776E-02  0.19842387883E-01 -0.27786678149E-01  0.34179446294E-01  0.51100000000E-03 0.  1.
         11    1    4    4    0    0  0.24051047119E-01  0.39171850243E-01 -0.84322920915E-01  0.96039069298E-01  0.51100000000E-03 0. -1.
</event>
<event>
 8    1  0.1123191E+005  0.1043930E+01  0.7957747E-01            NaN
         13   -1    0    0    0    0  0.00000000000E+00  0.00000000000E+00  0.74505805969E-08  0.10566000000E+00  0.10566000000E+00 0. -1.
     999900   -1    0    0    0    0 -0.00000000000E+00 -0.00000000000E+00 -0.74505805969E-08  0.93827000000E+00  0.93827000000E+00 0. -1.
     999902    2    1    2    0    0  0.17643945357E-01 -0.40043159877E-02 -0.13929561299E-01  0.10210963399E+01  0.10208410059E+01 0.  0.
     999903    2    3    3    0    0  0.55721349229E-01  0.58601903146E-01  0.10070397553E+00  0.13064124554E+00  0.19667041855E-01 0.  0.
         14    1    1    2    0    0 -0.17643945357E-01  0.40043159877E-02  0.13929561299E-01  0.22833660071E-01  0.00000000000E+00 0. -1.
     999901    1    3    3    0    0 -0.38077403872E-01 -0.62606219134E-01 -0.11463353683E+00  0.89045509439E+00  0.88000000000E+00 0. -1.
        -11    1    4    4    0    0  0.48178494716E-01  0.45547355631E-01  0.91405434789E-01  0.11292007611E+00  0.51100000000E-03 0. -1.
         11    1    4    4    0    0  0.75428545130E-02  0.13054547515E-01  0.92985407440E-02  0.17721169431E-01  0.51100000000E-03 0.  1.
</event>
<event>
 8    1  0.1123191E+005  0.1043930E+01  0.7957747E-01            NaN
         13   -1    0    0    0    0  0.00000000000E+00  0.00000000000E+00  0.74505805969E-08  0.10566000000E+00  0.10566000000E+00 0.  1.
     999900   -1    0    0    0    0 -0.00000000000E+00 -0.00000000000E+00 -0.74505805969E-08  0.93827000000E+00  0.93827000000E+00 0.  1.
     999902    2    1    2    0    0  0.11430566128E-01  0.24139936083E-01 -0.18290775021E-02  0.10171580019E+01  0.10168056161E+01 0.  0.
     999903    2    3    3    0    0 -0.55923348109E-01 -0.10703997737E+00 -0.23097701682E-01  0.12463513173E+00  0.20382213300E-01 0.  0.
         14    1    1    2    0    0 -0.11430566128E-01 -0.24139936083E-01  0.18290775021E-02  0.26771998069E-01  0.00000000000E+00 0. -1.
     999901    1    3    3    0    0  0.67353914237E-01  0.13117991345E+00  0.21268624180E-01  0.89252287020E+00  0.88000000000E+00 0.  1.
        -11    1    4    4    0    0 -0.46216096371E-01 -0.91345238892E-01 -0.11946090171E-01  0.10306721314E+00  0.51100000000E-03 0.  1.
         11    1    4    4    0    0 -0.97072517375E-02 -0.15694738480E-01 -0.11151611511E-01  0.21567918595E-01  0.51100000000E-03 0. -1.
</event>
<event>
 8    1  0.1253154E+005  0.1043930E+01  0.7957747E-01            NaN
         13   -1    0    0    0    0  0.00000000000E+00  0.00000000000E+00  0.74505805969E-08  0.10566000000E+00  0.10566000000E+00 0. -1.
     999900   -1    0    0    0    0 -0.00000000000E+00 -0.00000000000E+00 -0.74505805969E-08  0.93827000000E+00  0.93827000000E+00 0.  1.
     999902    2    1    2    0    0  0.16614340835E-01  0.34440023356E-04  0.17681433128E-01  0.10196674654E+01  0.10193787664E+01 0.  0.
     999903    2    3    3    0    0  0.12988790715E-01  0.92848332859E-01 -0.85614024559E-01  0.12877043718E+00  0.21506805719E-01 0.  0.
         14    1    1    2    0    0 -0.16614340835E-01 -0.34440023356E-04 -0.17681433128E-01  0.24262534594E-01  0.00000000000E+00 0.  1.
     999901    1    3    3    0    0  0.36255501194E-02 -0.92813892836E-01  0.10329545769E+00  0.89089702822E+00  0.88000000000E+00 0. -1.
        -11    1    4    4    0    0  0.59310647982E-02  0.69521155676E-01 -0.50968655244E-01  0.86408527094E-01  0.51100000000E-03 0. -1.
         11    1    4    4    0    0  0.70577259171E-02  0.23327177183E-01 -0.34645369315E-01  0.42361910089E-01  0.51100000000E-03 0.  1.
</event>
<event>
 8    1  0.1123191E+005  0.1043930E+01  0.7957747E-01            NaN
         13   -1    0    0    0    0  0.00000000000E+00  0.00000000000E+00  0.74505805969E-08  0.10566000000E+00  0.10566000000E+00 0.  1.
     999900   -1    0    0    0    0 -0.00000000000E+00 -0.00000000000E+00 -0.74505805969E-08  0.93827000000E+00  0.93827000000E+00 0. -1.
     999902    2    1    2    0    0  0.66430022116E-02  0.20885235868E-01  0.10652378942E-01  0.10195620757E+01  0.10192708328E+01 0.  0.
     999903    2    3    3    0    0 -0.15042485747E-01 -0.97759267849E-01 -0.76378519658E-01  0.12708173648E+00  0.23085464133E-01 0.  0.
         14    1    1    2    0    0 -0.66430022116E-02 -0.20885235868E-01 -0.10652378942E-01  0.24367924260E-01  0.00000000000E+00 0. -1.
     999901    1    3    3    0    0  0.21685487959E-01  0.11864450372E+00  0.87030898600E-01  0.89248033926E+00  0.88000000000E+00 0.  1.
        -11    1    4    4    0    0  0.18680497538E-02 -0.41798221479E-01 -0.22165051696E-01  0.47351151690E-01  0.51100000000E-03 0. -1.
         11    1    4    4    0    0 -0.16910535501E-01 -0.55961046370E-01 -0.54213467962E-01  0.79730584792E-01  0.51100000000E-03 0.  1.
</event>
<event>
 8    1  0.1123191E+005  0.1043930E+01  0.7957747E-01            NaN
         13   -1    0    0    0    0  0.00000000000E+00  0.00000000000E+00  0.74505805969E-08  0.10566000000E+00  0.10566000000E+00 0. -1.
     999900   -1    0    0    0    0 -0.00000000000E+00 -0.00000000000E+00 -0.74505805969E-08  0.93827000000E+00  0.93827000000E+00 0. -1.
     999902    2    1    2    0    0 -0.79975527721E-02  0.20781827767E-01 -0.41589826567E-02  0.10212773544E+01  0.10210260977E+01 0.  0.
     999903    2    3    3    0    0  0.38142322240E-01  0.81408300984E-01 -0.96295563688E-01  0.13319312029E+00  0.19632205474E-01 0.  0.
         14    1    1    2    0    0  0.79975527721E-02 -0.20781827767E-01  0.41589826567E-02  0.22652645594E-01  0.00000000000E+00 0.  1.
     999901    1    3    3    0    0 -0.46139875012E-01 -0.60626473217E-01  0.92136581031E-01  0.88808423412E+00  0.88000000000E+00 0.  1.
        -11    1    4    4    0    0  0.33196008533E-01  0.52472061601E-01 -0.72061491085E-01  0.95123140453E-01  0.51100000000E-03 0. -1.
         11    1    4    4    0    0  0.49463137063E-02  0.28936239383E-01 -0.24234072603E-01  0.38069979837E-01  0.51100000000E-03 0.  1.
</event>
<event>
 8    1  0.1123191E+005  0.1043930E+01  0.7957747E-01            NaN
         13   -1    0    0    0    0  0.00000000000E+00  0.00000000000E+00  0.74505805969E-08  0.10566000000E+00  0.10566000000E+00 0. -1.
     999900   -1    0    0    0    0 -0.00000000000E+00 -0.00000000000E+00 -0.74505805969E-08  0.93827000000E+00  0.93827000000E+00 0. -1.
     999902    2    1    2    0    0  0.59626521435E-02 -0.29281157470E-02 -0.29767401747E-01  0.10134304051E+01  0.10129713524E+01 0.  0.
     999903    2    3    3    0    0  0.69667709271E-02 -0.91593174865E-01 -0.86155060464E-01  0.12717870890E+00  0.17716770989E-01 0.  0.
         14    1    1    2    0    0 -0.59626521435E-02  0.29281157470E-02  0.29767401747E-01  0.30499594902E-01  0.00000000000E+00 0. -1.
     999901    1    3    3    0    0 -0.10041187836E-02  0.88665059118E-01  0.56387658717E-01  0.88625169620E+00  0.88000000000E+00 0. -1.
        -11    1    4    4    0    0 -0.51367661000E-02 -0.48612872703E-01 -0.44117456659E-01  0.65849896443E-01  0.51100000000E-03 0. -1.
         11    1    4    4    0    0  0.12103537027E-01 -0.42980302162E-01 -0.42037603805E-01  0.61328812455E-01  0.51100000000E-03 0.  1.
</event>
<event>
 8    1  0.1123191E+005  0.1043930E+01  0.7957747E-01            NaN
         13   -1    0    0    0    0  0.00000000000E+00  0.00000000000E+00  0.74505805969E-08  0.10566000000E+00  0.10566000000E+00 0.  1.
     999900   -1    0    0    0    0 -0.00000000000E+00 -0.00000000000E+00 -0.74505805969E-08  0.93827000000E+00  0.93827000000E+00 0. -1.
     999902    2    1    2    0    0 -0.15515502474E-01 -0.17199730936E-01  0.95888189319E-02  0.10188599579E+01  0.10185514748E+01 0.  0.
     999903    2    3    3    0    0  0.36280378767E-01 -0.98122591795E-01  0.76846170178E-01  0.13107908743E+00  0.18223182631E-01 0.  0.
         14    1    1    2    0    0  0.15515502474E-01  0.17199730936E-01 -0.95888189319E-02  0.25070042078E-01  0.00000000000E+00 0. -1.
     999901    1    3    3    0    0 -0.51795881241E-01  0.80922860859E-01 -0.67257351246E-01  0.88778087050E+00  0.88000000000E+00 0. -1.
        -11    1    4    4    0    0  0.71343879997E-02 -0.35670741867E-01  0.18690203419E-01  0.40900930825E-01  0.51100000000E-03 0. -1.
         11    1    4    4    0    0  0.29145990767E-01 -0.62451849928E-01  0.58155966759E-01  0.90178156601E-01  0.51100000000E-03 0.  1.
</event>
<event>
 8    1  0.1123191E+005  0.1043930E+01  0.7957747E-01            NaN
         13   -1    0    0    0    0  0.00000000000E+00  0.00000000000E+00  0.74505805969E-08  0.10566000000E+00  0.10566000000E+00 0.  1.
     999900   -1    0    0    0    0 -0.00000000000E+00 -0.00000000000E+00 -0.74505805969E-08  0.93827000000E+00  0.93827000000E+00 0. -1.
     999902    2    1    2    0    0 -0.23437443539E-01 -0.19656704035E-02  0.22006959828E-02  0.10203075386E+01  0.10200340448E+01 0.  0.
     999903    2    3    3    0    0  0.68043062304E-01  0.10747295350E+00 -0.33740923379E-02  0.12880511369E+00  0.19976955565E-01 0.  0.
         14    1    1    2    0    0  0.23437443539E-01  0.19656704035E-02 -0.22006959828E-02  0.23622461400E-01  0.00000000000E+00 0.  1.
     999901    1    3    3    0    0 -0.91480505843E-01 -0.10943862390E+00  0.55747883207E-02  0.89150242491E+00  0.88000000000E+00 0.  1.
        -11    1    4    4    0    0  0.33353032682E-01  0.38558590368E-01 -0.75334684932E-02  0.51538373556E-01  0.51100000000E-03 0.  1.
         11    1    4    4    0    0  0.34690029622E-01  0.68914363128E-01  0.41593761553E-02  0.77266740138E-01  0.51100000000E-03 0. -1.
</event>
<event>
 8    1  0.1123191E+005  0.1043930E+01  0.7957747E-01            NaN
         13   -1    0    0    0    0  0.00000000000E+00  0.00000000000E+00  0.74505805969E-08  0.10566000000E+00  0.10566000000E+00 0.  1.
     999900   -1    0    0    0    0 -0.00000000000E+00 -0.00000000000E+00 -0.74505805969E-08  0.93827000000E+00  0.93827000000E+00 0. -1.
     999902    2    1    2    0    0  0.48117052170E-02 -0.23762287279E-01  0.13904643882E-01  0.10159811552E+01  0.10155966570E+01 0.  0.
     999903    2    3    3    0    0 -0.40422454165E-01  0.81817725764E-01 -0.79896694205E-01  0.12357319953E+00  0.23637657391E-01 0.  0.
         14    1    1    2    0    0 -0.48117052170E-02  0.23762287279E-01 -0.13904643882E-01  0.27948844794E-01  0.00000000000E+00 0.  1.
     999901    1    3    3    0    0  0.45234159382E-01 -0.10558001304E+00  0.93801338087E-01  0.89240795568E+00  0.88000000000E+00 0.  1.
        -11    1    4    4    0    0 -0.14815878784E-01  0.12864098261E-01 -0.96895318533E-02  0.21889345279E-01  0.51100000000E-03 0. -1.
         11    1    4    4    0    0 -0.25606575381E-01  0.68953627502E-01 -0.70207162352E-01  0.10168385425E+00  0.51100000000E-03 0.  1.
</event>
<event>
 8    1  0.1123191E+005  0.1043930E+01  0.7957747E-01            NaN
         13   -1    0    0    0    0  0.00000000000E+00  0.00000000000E+00  0.74505805969E-08  0.10566000000E+00  0.10566000000E+00 0. -1.
     999900   -1    0    0    0    0 -0.00000000000E+00 -0.00000000000E+00 -0.74505805969E-08  0.93827000000E+00  0.93827000000E+00 0. -1.
     999902    2    1    2    0    0  0.12357311330E-01 -0.58241760900E-02 -0.20959632508E-01  0.10189113996E+01  0.10186041969E+01 0.  0.
     999903    2    3    3    0    0  0.64973530457E-01 -0.77852992553E-01 -0.82536539097E-01  0.13226133767E+00  0.19953271587E-01 0.  0.
         14    1    1    2    0    0 -0.12357311330E-01  0.58241760900E-02  0.20959632508E-01  0.25018600387E-01  0.00000000000E+00 0. -1.
     999901    1    3    3    0    0 -0.52616219127E-01  0.72028816463E-01  0.61576906589E-01  0.88665006194E+00  0.88000000000E+00 0. -1.
        -11    1    4    4    0    0  0.33711480600E-01 -0.47239854885E-01 -0.35573588731E-01  0.68072087892E-01  0.51100000000E-03 0. -1.
         11    1    4    4    0    0  0.31262049857E-01 -0.30613137669E-01 -0.46962950366E-01  0.64189249780E-01  0.51100000000E-03 0.  1.
</event>
<event>
 8    1  0.1123191E+005  0.1043930E+01  0.7957747E-01            NaN
         13   -1    0    0    0    0  0.00000000000E+00  0.00000000000E+00  0.74505805969E-08  0.10566000000E+00  0.10566000000E+00 0. -1.
     999900   -1    0    0    0    0 -0.00000000000E+00 -0.00000000000E+00 -0.74505805969E-08  0.93827000000E+00  0.93827000000E+00 0. -1.
     999902    2    1    2    0    0  0.18821173820E-01  0.19029927687E-01  0.20235917420E-03  0.10171640574E+01  0.10168118332E+01 0.  0.
     999903    2    3    3    0    0 -0.26222980257E-01 -0.65514497692E-01 -0.10245608572E+00  0.12603247794E+00  0.20177757392E-01 0.  0.
         14    1    1    2    0    0 -0.18821173820E-01 -0.19029927687E-01 -0.20235917420E-03  0.26765942557E-01  0.00000000000E+00 0.  1.
     999901    1    3    3    0    0  0.45044154077E-01  0.84544425379E-01  0.10265844489E+00  0.89113157950E+00  0.88000000000E+00 0.  1.
        -11    1    4    4    0    0 -0.94998987477E-02 -0.22265380733E-01 -0.19888070354E-01  0.31333555796E-01  0.51100000000E-03 0. -1.
         11    1    4    4    0    0 -0.16723081509E-01 -0.43249116959E-01 -0.82568015365E-01  0.94698922144E-01  0.51100000000E-03 0.  1.
</event>
<event>
 8    1  0.1123191E+005  0.1043930E+01  0.7957747E-01            NaN
         13   -1    0    0    0    0  0.00000000000E+00  0.00000000000E+00  0.74505805969E-08  0.10566000000E+00  0.10566000000E+00 0. -1.
     999900   -1    0    0    0    0 -0.00000000000E+00 -0.00000000000E+00 -0.74505805969E-08  0.93827000000E+00  0.93827000000E+00 0. -1.
     999902    2    1    2    0    0 -0.14720306367E-01  0.49548343683E-02 -0.17758091961E-01  0.10203378904E+01  0.10200651073E+01 0.  0.
     999903    2    3    3    0    0 -0.84622837028E-02 -0.12788360548E+00  0.83655586725E-02  0.12996288009E+00  0.19863051940E-01 0.  0.
         14    1    1    2    0    0  0.14720306367E-01 -0.49548343683E-02  0.17758091961E-01  0.23592109555E-01  0.00000000000E+00 0. -1.
     999901    1    3    3    0    0 -0.62580226640E-02  0.13283843985E+00 -0.26123650634E-01  0.89037501036E+00  0.88000000000E+00 0. -1.
        -11    1    4    4    0    0 -0.12891687131E-02 -0.15744061971E-01 -0.55135556210E-02  0.16739111682E-01  0.51100000000E-03 0. -1.
         11    1    4    4    0    0 -0.71731149897E-02 -0.11213954351E+00  0.13879114293E-01  0.11322376840E+00  0.51100000000E-03 0.  1.
</event>
<event>
 8    1  0.1123191E+005  0.1043930E+01  0.7957747E-01            NaN
         13   -1    0    0    0    0  0.00000000000E+00  0.00000000000E+00  0.74505805969E-08  0.10566000000E+00  0.10566000000E+00 0. -1.
     999900   -1    0    0    0    0 -0.00000000000E+00 -0.00000000000E+00 -0.74505805969E-08  0.93827000000E+00  0.93827000000E+00 0. -1.
     999902    2    1    2    0    0  0.23953863086E-01 -0.12270564350E-01 -0.44113312337E-02  0.10166570436E+01  0.10162911641E+01 0.  0.
     999903    2    3    3    0    0  0.57345610165E-02 -0.12133375739E+00 -0.39234225701E-01  0.12905389073E+00  0.18995167097E-01 0.  0.
         14    1    1    2    0    0 -0.23953863086E-01  0.12270564350E-01  0.44113312337E-02  0.27272956376E-01  0.00000000000E+00 0. -1.
     999901    1    3    3    0    0  0.18219302070E-01  0.10906319304E+00  0.34822894468E-01  0.88760315289E+00  0.88000000000E+00 0.  1.
        -11    1    4    4    0    0  0.11166398041E-01 -0.81863530957E-01 -0.31738672966E-01  0.88509494568E-01  0.51100000000E-03 0.  1.
         11    1    4    4    0    0 -0.54318370250E-02 -0.39470226437E-01 -0.74955527351E-02  0.40544396164E-01  0.51100000000E-03 0. -1.
</event>
<event>
 8    1  0.1123191E+005  0.1043930E+01  0.7957747E-01            NaN
         13   -1    0    0    0    0  0.00000000000E+00  0.00000000000E+00  0.74505805969E-08  0.10566000000E+00  0.10566000000E+00 0.  1.
     999900   -1    0    0    0    0 -0.00000000000E+00 -0.00000000000E+00 -0.74505805969E-08  0.93827000000E+00  0.93827000000E+00 0. -1.
     999902    2    1    2    0    0  0.90187048969E-02 -0.49493698160E-02 -0.20747885347E-01  0.10207716744E+01  0.10205089432E+01 0.  0.
     999903    2    3    3    0    0 -0.10875570424E+00  0.66322203458E-01  0.11048110221E-01  0.12950211137E+00  0.20549896193E-01 0.  0.
         14    1    1    2    0    0 -0.90187048969E-02  0.49493698160E-02  0.20747885347E-01  0.23158325629E-01  0.00000000000E+00 0.  1.
     999901    1    3    3    0    0  0.11777440913E+00 -0.71271573274E-01 -0.31795995568E-01  0.89126956300E+00  0.88000000000E+00 0.  1.
        -11    1    4    4    0    0 -0.25400775304E-01  0.12815604580E-01  0.10840074307E-01  0.30450081096E-01  0.51100000000E-03 0.  1.
         11    1    4    4    0    0 -0.83354928933E-01  0.53506598877E-01  0.20803591443E-03  0.99052030271E-01  0.51100000000E-03 0. -1.
</event>
<event>
 8    1  0.1123191E+005  0.1043930E+01  0.7957747E-01            NaN
         13   -1    0    0    0    0  0.00000000000E+00  0.00000000000E+00  0.74505805969E-08  0.10566000000E+00  0.10566000000E+00 0.  1.
     999900   -1    0    0    0    0 -0.00000000000E+00 -0.00000000000E+00 -0.74505805969E-08  0.93827000000E+00  0.93827000000E+00 0.  1.
     999902    2    1    2    0    0 -0.78809287408E-02 -0.14372255384E-01  0.15498864034E-01  0.10213715083E+01  0.10211223592E+01 0.  0.
     999903    2    3    3    0    0  0.75194576022E-01 -0.10435835137E+00 -0.21808159114E-01  0.13210728942E+00  0.20781009364E-01 0.  0.
         14    1    1    2    0    0  0.78809287408E-02  0.14372255384E-01 -0.15498864034E-01  0.22558491727E-01  0.00000000000E+00 0. -1.
     999901    1    3    3    0    0 -0.83075504762E-01  0.89986095982E-01  0.37307023148E-01  0.88926421886E+00  0.88000000000E+00 0. -1.
        -11    1    4    4    0    0  0.35657614697E-01 -0.33580295104E-01 -0.12088632160E-01  0.50452927107E-01  0.51100000000E-03 0.  1.
         11    1    4    4    0    0  0.39536961325E-01 -0.70778056263E-01 -0.97195269536E-02  0.81654362310E-01  0.51100000000E-03 0. -1.
</event>
<event>
 8    1  0.1123191E+005  0.1043930E+01  0.7957747E-01            NaN
         13   -1    0    0    0    0  0.00000000000E+00  0.00000000000E+00  0.74505805969E-08  0.10566000000E+00  0.10566000000E+00 0. -1.
     999900   -1    0    0    0    0 -0.00000000000E+00 -0.00000000000E+00 -0.74505805969E-08  0.93827000000E+00  0.93827000000E+00 0.  1.
     999902    2    1    2    0    0 -0.18502531139E-02  0.23049538363E-01 -0.48225943764E-02  0.10203087792E+01  0.10200353145E+01 0.  0.
     999903    2    3    3    0    0 -0.10456817843E+00  0.38373972707E-01  0.66640701626E-01  0.13132463247E+00  0.19952700567E-01 0.  0.
         14    1    1    2    0    0  0.18502531139E-02 -0.23049538363E-01  0.48225943764E-02  0.23621220795E-01  0.00000000000E+00 0. -1.
     999901    1    3    3    0    0  0.10271792531E+00 -0.15324434344E-01 -0.71463296002E-01  0.88898414673E+00  0.88000000000E+00 0.  1.
        -11    1    4    4    0    0 -0.36948024432E-01  0.19564026663E-01  0.34125535187E-01  0.53969629621E-01  0.51100000000E-03 0. -1.
         11    1    4    4    0    0 -0.67620153994E-01  0.18809946044E-01  0.32515166439E-01  0.77355002850E-01  0.51100000000E-03 0.  1.
</event>
<event>
 8    1  0.1123191E+005  0.1043930E+01  0.7957747E-01            NaN
         13   -1    0    0    0    0  0.00000000000E+00  0.00000000000E+00  0.74505805969E-08  0.10566000000E+00  0.10566000000E+00 0.  1.
     999900   -1    0    0    0    0 -0.00000000000E+00 -0.00000000000E+00 -0.74505805969E-08  0.93827000000E+00  0.93827000000E+00 0.  1.
     999902    2    1    2    0    0 -0.76757165350E-02 -0.11970527645E-01  0.19106292873E-01  0.10201127671E+01  0.10198346910E+01 0.  0.
     999903    2    3    3    0    0  0.53893817564E-01 -0.11832155966E+00  0.11502662389E-01  0.13154134917E+00  0.16318095733E-01 0.  0.
         14    1    1    2    0    0  0.76757165350E-02  0.11970527645E-01 -0.19106292873E-01  0.23817232916E-01  0.00000000000E+00 0. -1.
     999901    1    3    3    0    0 -0.61569534099E-01  0.10635103201E+00  0.76036304835E-02  0.88857141791E+00  0.88000000000E+00 0.  1.
        -11    1    4    4    0    0  0.50883135709E-01 -0.99757042179E-01  0.70492862691E-02  0.11220746197E+00  0.51100000000E-03 0.  1.
         11    1    4    4    0    0  0.30106818548E-02 -0.18564517477E-01  0.44533761202E-02  0.19333887199E-01  0.51100000000E-03 0. -1.
</event>
<event>
 8    1  0.1123191E+005  0.1043930E+01  0.7957747E-01            NaN
         13   -1    0    0    0    0  0.00000000000E+00  0.00000000000E+00  0.74505805969E-08  0.10566000000E+00  0.10566000000E+00 0.  1.
     999900   -1    0    0    0    0 -0.00000000000E+00 -0.00000000000E+00 -0.74505805969E-08  0.93827000000E+00  0.93827000000E+00 0. -1.
     999902    2    1    2    0    0  0.10826934921E-01 -0.13544514542E-01  0.15237936844E-01  0.10208459988E+01  0.10205849705E+01 0.  0.
     999903    2    3    3    0    0 -0.58748621580E-01 -0.72988307093E-01  0.91062556822E-01  0.13285743153E+00  0.24083487042E-01 0.  0.
         14    1    1    2    0    0 -0.10826934921E-01  0.13544514542E-01 -0.15237936844E-01  0.23084001240E-01  0.00000000000E+00 0. -1.
     999901    1    3    3    0    0  0.69575556501E-01  0.59443792551E-01 -0.75824619978E-01  0.88798856723E+00  0.88000000000E+00 0.  1.
        -11    1    4    4    0    0 -0.44666399108E-01 -0.63118066272E-01  0.62119354548E-01  0.99186958969E-01  0.51100000000E-03 0.  1.
         11    1    4    4    0    0 -0.14082222472E-01 -0.98702408216E-02  0.28943202274E-01  0.33670472561E-01  0.51100000000E-03 0. -1.
</event>
<event>
 8    1  0.1123191E+005  0.1043930E+01  0.7957747E-01            NaN
         13   -1    0    0    0    0  0.00000000000E+00  0.00000000000E+00  0.74505805969E-08  0.10566000000E+00  0.10566000000E+00 0.  1.
     999900   -1    0    0    0    0 -0.00000000000E+00 -0.00000000000E+00 -0.74505805969E-08  0.93827000000E+00  0.93827000000E+00 0. -1.
     999902    2    1    2    0    0 -0.75032074785E-02  0.70275198343E-03 -0.22427766886E-01  0.10202699765E+01  0.10199956021E+01 0.  0.
     999903    2    3    3    0    0  0.59678824704E-01 -0.50504424616E-01  0.99262084347E-01  0.12788888066E+00  0.19757160313E-01 0.  0.
         14    1    1    2    0    0  0.75032074785E-02 -0.70275198343E-03  0.22427766886E-01  0.23660023464E-01  0.00000000000E+00 0.  1.
     999901    1    3    3    0    0 -0.67182032183E-01  0.51207176600E-01 -0.12168985123E+00  0.89238109588E+00  0.88000000000E+00 0. -1.
        -11    1    4    4    0    0  0.46572971082E-01 -0.42767278756E-01  0.66516712091E-01  0.91775900301E-01  0.51100000000E-03 0. -1.
         11    1    4    4    0    0  0.13105853622E-01 -0.77371458601E-02  0.32745372256E-01  0.36112980359E-01  0.51100000000E-03 0.  1.
</event>
<event>
 8    1  0.1123191E+005  0.1043930E+01  0.7957747E-01            NaN
         13   -1    0    0    0    0  0.00000000000E+00  0.00000000000E+00  0.74505805969E-08  0.10566000000E+00  0.10566000000E+00 0. -1.
     999900   -1    0    0    0    0 -0.00000000000E+00 -0.00000000000E+00 -0.74505805969E-08  0.93827000000E+00  0.93827000000E+00 0. -1.
     999902    2    1    2    0    0 -0.21091499102E-01  0.71921914363E-02  0.84509251461E-02  0.10200973105E+01  0.10198188691E+01 0.  0.
     999903    2    3    3    0    0  0.81248243755E-01  0.95501850575E-01  0.25430603557E-01  0.12961411116E+00  0.20765876760E-01 0.  0.
         14    1    1    2    0    0  0.21091499102E-01 -0.71921914363E-02 -0.84509251461E-02  0.23832689480E-01  0.00000000000E+00 0.  1.
     999901    1    3    3    0    0 -0.10233974286E+00 -0.88309659139E-01 -0.16979678410E-01  0.89048319936E+00  0.88000000000E+00 0.  1.
        -11    1    4    4    0    0  0.34635871141E-01  0.48497759447E-01  0.21285240553E-01  0.63285060065E-01  0.51100000000E-03 0.  1.
         11    1    4    4    0    0  0.46612372614E-01  0.47004091129E-01  0.41453630038E-02  0.66329051094E-01  0.51100000000E-03 0. -1.
</event>
<event>
 8    1  0.1123191E+005  0.1043930E+01  0.7957747E-01            NaN
         13   -1    0    0    0    0  0.00000000000E+00  0.00000000000E+00  0.74505805969E-08  0.10566000000E+00  0.10566000000E+00 0.  1.
     999900   -1    0    0    0    0 -0.00000000000E+00 -0.00000000000E+00 -0.74505805969E-08  0.93827000000E+00  0.93827000000E+00 0.  1.
     999902    2    1    2    0    0  0.56705117988E-02  0.42632353579E-02  0.22336829762E-01  0.10204936214E+01  0.10202244691E+01 0.  0.
     999903    2    3    3    0    0  0.75243776306E-01  0.10212076184E+00  0.31643731900E-01  0.13229141857E+00  0.20234074903E-01 0.  0.
         14    1    1    2    0    0 -0.56705117988E-02 -0.42632353579E-02 -0.22336829762E-01  0.23436378636E-01  0.00000000000E+00 0. -1.
     999901    1    3    3    0    0 -0.69573264508E-01 -0.97857526480E-01 -0.93069021387E-02  0.88820220280E+00  0.88000000000E+00 0.  1.
        -11    1    4    4    0    0  0.30060191543E-01  0.31986505670E-01  0.26912805233E-02  0.43980174766E-01  0.51100000000E-03 0.  1.
         11    1    4    4    0    0  0.45183584764E-01  0.70134256168E-01  0.28952451377E-01  0.88311243803E-01  0.51100000000E-03 0. -1.
</event>
<event>
 8    1  0.1123191E+005  0.1043930E+01  0.7957747E-01            NaN
         13   -1    0    0    0    0  0.00000000000E+00  0.00000000000E+00  0.74505805969E-08  0.10566000000E+00  0.10566000000E+00 0.  1.
     999900   -1    0    0    0    0 -0.00000000000E+00 -0.00000000000E+00 -0.74505805969E-08  0.93827000000E+00  0.93827000000E+00 0.  1.
     999902    2    1    2    0    0 -0.23328618121E-01 -0.34252740702E-02 -0.42553226247E-02  0.10199703527E+01  0.10196889015E+01 0.  0.
     999903    2    3    3    0    0  0.12505708273E-02  0.14943498159E-01  0.12724531717E+00  0.12967042205E+00  0.19954336598E-01 0.  0.
         14    1    1    2    0    0  0.23328618121E-01  0.34252740702E-02  0.42553226247E-02  0.23959647254E-01  0.00000000000E+00 0. -1.
     999901    1    3    3    0    0 -0.24579188948E-01 -0.18368772229E-01 -0.13150063980E+00  0.89029993069E+00  0.88000000000E+00 0.  1.
        -11    1    4    4    0    0 -0.26279237911E-03  0.19807895437E-01  0.98711241353E-01  0.10068064398E+00  0.51100000000E-03 0.  1.
         11    1    4    4    0    0  0.15133632064E-02 -0.48643972779E-02  0.28534075819E-01  0.28989778076E-01  0.51100000000E-03 0. -1.
</event>
<event>
 8    1  0.1123191E+005  0.1043930E+01  0.7957747E-01            NaN
         13   -1    0    0    0    0  0.00000000000E+00  0.00000000000E+00  0.74505805969E-08  0.10566000000E+00  0.10566000000E+00 0.  1.
     999900   -1    0    0    0    0 -0.00000000000E+00 -0.00000000000E+00 -0.74505805969E-08  0.93827000000E+00  0.93827000000E+00 0. -1.
     999902    2    1    2    0    0  0.22286502819E-01 -0.10933979054E-01  0.94288456207E-02  0.10173754668E+01  0.10170288576E+01 0.  0.
     999903    2    3    3    0    0  0.86383546179E-01  0.92793010956E-01 -0.93766397435E-02  0.12876904899E+00  0.20515522708E-01 0.  0.
         14    1    1    2    0    0 -0.22286502819E-01  0.10933979054E-01 -0.94288456207E-02  0.26554533240E-01  0.00000000000E+00 0. -1.
     999901    1    3    3    0    0 -0.64097043359E-01 -0.10372699001E+00  0.18805485364E-01  0.88860641777E+00  0.88000000000E+00 0.  1.
        -11    1    4    4    0    0  0.25417333815E-01  0.41263827069E-01 -0.69998186375E-03  0.48471593519E-01  0.51100000000E-03 0. -1.
         11    1    4    4    0    0  0.60966212363E-01  0.51529183886E-01 -0.86766578797E-02  0.80297455470E-01  0.51100000000E-03 0.  1.
</event>
<event>
 8    1  0.1123191E+005  0.1043930E+01  0.7957747E-01            NaN
         13   -1    0    0    0    0  0.00000000000E+00  0.00000000000E+00  0.74505805969E-08  0.10566000000E+00  0.10566000000E+00 0. -1.
     999900   -1    0    0    0    0 -0.00000000000E+00 -0.00000000000E+00 -0.74505805969E-08  0.93827000000E+00  0.93827000000E+00 0.  1.
     999902    2    1    2    0    0  0.66175775484E-02 -0.94424771592E-02  0.21599155599E-01  0.10194457963E+01  0.10191517333E+01 0.  0.
     999903    2    3    3    0    0  0.10936304951E+00  0.37483543033E-01  0.60922626307E-01  0.13135513724E+00  0.13315896019E-01 0.  0.
         14    1    1    2    0    0 -0.66175775484E-02  0.94424771592E-02 -0.21599155599E-01  0.24484203685E-01  0.00000000000E+00 0.  1.
     999901    1    3    3    0    0 -0.10274547197E+00 -0.46926020192E-01 -0.39323470709E-01  0.88809065907E+00  0.88000000000E+00 0.  1.
        -11    1    4    4    0    0  0.82607587595E-01  0.22375782217E-01  0.46615196450E-01  0.97457307675E-01  0.51100000000E-03 0. -1.
         11    1    4    4    0    0  0.26755461919E-01  0.15107760816E-01  0.14307429857E-01  0.33897829569E-01  0.51100000000E-03 0.  1.
</event>
<event>
 8    1  0.1123191E+005  0.1043930E+01  0.7957747E-01            NaN
         13   -1    0    0    0    0  0.00000000000E+00  0.00000000000E+00  0.74505805969E-08  0.10566000000E+00  0.10566000000E+00 0.  1.
     999900   -1    0    0    0    0 -0.00000000000E+00 -0.00000000000E+00 -0.74505805969E-08  0.93827000000E+00  0.93827000000E+00 0.  1.
     999902    2    1    2    0    0  0.12402086767E-01  0.42199093914E-02 -0.17419792856E-01  0.10221339321E+01  0.10219015151E+01 0.  0.
     999903    2    3    3    0    0 -0.10509128496E+00 -0.68924414215E-01 -0.31834348830E-01  0.13120039707E+00  0.20133687609E-01 0.  0.
         14    1    1    2    0    0 -0.12402086767E-01 -0.42199093914E-02  0.17419792856E-01  0.21796067870E-01  0.00000000000E+00 0.  1.
     999901    1    3    3    0    0  0.11749337172E+00  0.73144323606E-01  0.14414555973E-01  0.89093353506E+00  0.88000000000E+00 0.  1.
        -11    1    4    4    0    0 -0.41006519468E-01 -0.15693240632E-01 -0.90909396940E-02  0.44841038636E-01  0.51100000000E-03 0. -1.
         11    1    4    4    0    0 -0.64084765487E-01 -0.53231173583E-01 -0.22743409136E-01  0.86359358431E-01  0.51100000000E-03 0.  1.
</event>
<event>
 8    1  0.1123191E+005  0.1043930E+01  0.7957747E-01            NaN
         13   -1    0    0    0    0  0.00000000000E+00  0.00000000000E+00  0.74505805969E-08  0.10566000000E+00  0.10566000000E+00 0.  1.
     999900   -1    0    0    0    0 -0.00000000000E+00 -0.00000000000E+00 -0.74505805969E-08  0.93827000000E+00  0.93827000000E+00 0.  1.
     999902    2    1    2    0    0  0.70040677803E-02  0.14556119167E-01 -0.15980859802E-01  0.10212072042E+01  0.10209543714E+01 0.  0.
     999903    2    3    3    0    0 -0.15597536903E-01  0.12905959572E+00  0.18253951679E-01  0.13284134429E+00  0.20345849574E-01 0.  0.
         14    1    1    2    0    0 -0.70040677803E-02 -0.14556119167E-01  0.15980859802E-01  0.22722795838E-01  0.00000000000E+00 0.  1.
     999901    1    3    3    0    0  0.22601604684E-01 -0.11450347655E+00 -0.34234811480E-01  0.88836585988E+00  0.88000000000E+00 0.  1.
        -11    1    4    4    0    0 -0.18747035238E-01  0.74481477644E-01  0.80629493188E-02  0.77228324564E-01  0.51100000000E-03 0.  1.
         11    1    4    4    0    0  0.31494983344E-02  0.54578118076E-01  0.10191002360E-01  0.55613019721E-01  0.51100000000E-03 0. -1.
</event>
<event>
 8    1  0.1196149E+005  0.1043930E+01  0.7957747E-01            NaN
         13   -1    0    0    0    0  0.00000000000E+00  0.00000000000E+00  0.74505805969E-08  0.10566000000E+00  0.10566000000E+00 0.  1.
     999900   -1    0    0    0    0 -0.00000000000E+00 -0.00000000000E+00 -0.74505805969E-08  0.93827000000E+00  0.93827000000E+00 0. -1.
     999902    2    1    2    0    0  0.11544513175E-02  0.13366265536E-01 -0.19175713540E-01  0.10205270557E+01  0.10202586798E+01 0.  0.
     999903    2    3    3    0    0 -0.31296689649E-01 -0.10327418859E+00  0.66085954466E-01  0.12815514662E+00  0.20281701445E-01 0.  0.
         14    1    1    2    0    0 -0.11544513175E-02 -0.13366265536E-01  0.19175713540E-01  0.23402944301E-01  0.00000000000E+00 0.  1.
     999901    1    3    3    0    0  0.32451140967E-01  0.11664045413E+00 -0.85261668006E-01  0.89237190908E+00  0.88000000000E+00 0. -1.
        -11    1    4    4    0    0 -0.71953103609E-02 -0.58153024590E-01  0.37125819860E-01  0.69369549382E-01  0.51100000000E-03 0.  1.
         11    1    4    4    0    0 -0.24101379288E-01 -0.45121164005E-01  0.28960134606E-01  0.58785597233E-01  0.51100000000E-03 0. -1.
</event>
<event>
 8    1  0.1123191E+005  0.1043930E+01  0.7957747E-01            NaN
         13   -1    0    0    0    0  0.00000000000E+00  0.00000000000E+00  0.74505805969E-08  0.10566000000E+00  0.10566000000E+00 0. -1.
     999900   -1    0    0    0    0 -0.00000000000E+00 -0.00000000000E+00 -0.74505805969E-08  0.93827000000E+00  0.93827000000E+00 0.  1.
     999902    2    1    2    0    0 -0.27616033405E-01  0.10984211404E-01  0.59444972658E-02  0.10136210038E+01  0.10131677572E+01 0.  0.
     999903    2    3    3    0    0 -0.61595638329E-01  0.91314170550E-01 -0.59929315614E-01  0.12685898665E+00  0.19219240867E-01 0.  0.
         14    1    1    2    0    0  0.27616033405E-01 -0.10984211404E-01 -0.59444972658E-02  0.30308996172E-01  0.00000000000E+00 0. -1.
     999901    1    3    3    0    0  0.33979604924E-01 -0.80329959146E-01  0.65873812879E-01  0.88676201718E+00  0.88000000000E+00 0.  1.
        -11    1    4    4    0    0 -0.32862907806E-01  0.59769005993E-01 -0.28808385912E-01  0.74043831659E-01  0.51100000000E-03 0. -1.
         11    1    4    4    0    0 -0.28732730523E-01  0.31545164557E-01 -0.31120929701E-01  0.52815154991E-01  0.51100000000E-03 0.  1.
</event>
<event>
 8    1  0.1123191E+005  0.1043930E+01  0.7957747E-01            NaN
         13   -1    0    0    0    0  0.00000000000E+00  0.00000000000E+00  0.74505805969E-08  0.10566000000E+00  0.10566000000E+00 0. -1.
     999900   -1    0    0    0    0 -0.00000000000E+00 -0.00000000000E+00 -0.74505805969E-08  0.93827000000E+00  0.93827000000E+00 0.  1.
     999902    2    1    2    0    0  0.66910920911E-02 -0.44737890115E-03 -0.22496918945E-01  0.10204548595E+01  0.10201848058E+01 0.  0.
     999903    2    3    3    0    0  0.86450706902E-01  0.88001112883E-01 -0.42134856977E-01  0.13221481282E+00  0.22079174879E-01 0.  0.
         14    1    1    2    0    0 -0.66910920911E-02  0.44737890115E-03  0.22496918945E-01  0.23475140538E-01  0.00000000000E+00 0. -1.
     999901    1    3    3    0    0 -0.79759614811E-01 -0.88448491784E-01  0.19637938032E-01  0.88824004664E+00  0.88000000000E+00 0. -1.
        -11    1    4    4    0    0  0.30917545882E-01  0.46949180296E-01 -0.20625977321E-01  0.59881651909E-01  0.51100000000E-03 0. -1.
         11    1    4    4    0    0  0.55533161020E-01  0.41051932586E-01 -0.21508879656E-01  0.72333160908E-01  0.51100000000E-03 0.  1.
</event>
<event>
 8    1  0.1123191E+005  0.1043930E+01  0.7957747E-01            NaN
         13   -1    0    0    0    0  0.00000000000E+00  0.00000000000E+00  0.74505805969E-08  0.10566000000E+00  0.10566000000E+00 0.  1.
     999900   -1    0    0    0    0 -0.00000000000E+00 -0.00000000000E+00 -0.74505805969E-08  0.93827000000E+00  0.93827000000E+00 0. -1.
     999902    2    1    2    0    0 -0.73251983763E-02  0.22703674569E-01 -0.16038874452E-02  0.10200200057E+01  0.10197397336E+01 0.  0.
     999903    2    3    3    0    0  0.92450808693E-01  0.26621973650E-01 -0.85611408115E-01  0.13039768803E+00  0.20453907568E-01 0.  0.
         14    1    1    2    0    0  0.73251983763E-02 -0.22703674569E-01  0.16038874452E-02  0.23909994252E-01  0.00000000000E+00 0. -1.
     999901    1    3    3    0    0 -0.99776007069E-01 -0.39182990806E-02  0.84007520670E-01  0.88962231772E+00  0.88000000000E+00 0.  1.
        -11    1    4    4    0    0  0.39187471143E-01  0.10769388559E-01 -0.49816930162E-01  0.64293275514E-01  0.51100000000E-03 0. -1.
         11    1    4    4    0    0  0.53263337550E-01  0.15852585091E-01 -0.35794477953E-01  0.66104412515E-01  0.51100000000E-03 0.  1.
</event>
<event>
 8    1  0.1123191E+005  0.1043930E+01  0.7957747E-01            NaN
         13   -1    0    0    0    0  0.00000000000E+00  0.00000000000E+00  0.74505805969E-08  0.10566000000E+00  0.10566000000E+00 0.  1.
     999900   -1    0    0    0    0 -0.00000000000E+00 -0.00000000000E+00 -0.74505805969E-08  0.93827000000E+00  0.93827000000E+00 0. -1.
     999902    2    1    2    0    0 -0.22776572977E-01 -0.35175179088E-02 -0.42921508830E-02  0.10204871382E+01  0.10202178353E+01 0.  0.
     999903    2    3    3    0    0  0.11847203612E+00 -0.40010669160E-01  0.19933996761E-01  0.12814761434E+00  0.19696950193E-01 0.  0.
         14    1    1    2    0    0  0.22776572977E-01  0.35175179088E-02  0.42921508830E-02  0.23442861771E-01  0.00000000000E+00 0. -1.
     999901    1    3    3    0    0 -0.14124860909E+00  0.36493151251E-01 -0.24226147644E-01  0.89233952389E+00  0.88000000000E+00 0. -1.
        -11    1    4    4    0    0  0.21192613436E-01  0.34708008965E-03  0.17999016473E-02  0.21277878085E-01  0.51100000000E-03 0.  1.
         11    1    4    4    0    0  0.97279422680E-01 -0.40357749250E-01  0.18134095114E-01  0.10686973626E+00  0.51100000000E-03 0. -1.
</event>
<event>
 8    1  0.1123191E+005  0.1043930E+01  0.7957747E-01            NaN
         13   -1    0    0    0    0  0.00000000000E+00  0.00000000000E+00  0.74505805969E-08  0.10566000000E+00  0.10566000000E+00 0.  1.
     999900   -1    0    0    0    0 -0.00000000000E+00 -0.00000000000E+00 -0.74505805969E-08  0.93827000000E+00  0.93827000000E+00 0. -1.
     999902    2    1    2    0    0  0.19120944741E-02  0.70230927498E-02 -0.22694497244E-01  0.10200968269E+01  0.10198183740E+01 0.  0.
     999903    2    3    3    0    0  0.89027447322E-01  0.35060202883E-01 -0.89671721491E-01  0.13281946728E+00  0.21092393189E-01 0.  0.
         14    1    1    2    0    0 -0.19120944741E-02 -0.70230927498E-02  0.22694497244E-01  0.23833173146E-01  0.00000000000E+00 0.  1.
     999901    1    3    3    0    0 -0.87115352848E-01 -0.28037110133E-01  0.66977224247E-01  0.88727735957E+00  0.88000000000E+00 0.  1.
        -11    1    4    4    0    0  0.87773271120E-01  0.30468328271E-01 -0.82855622613E-01  0.12449008583E+00  0.51100000000E-03 0.  1.
         11    1    4    4    0    0  0.12541762019E-02  0.45918746116E-02 -0.68160988775E-02  0.83293814478E-02  0.51100000000E-03 0. -1.
</event>
<event>
 8    1  0.1123191E+005  0.1043930E+01  0.7957747E-01            NaN
         13   -1    0    0    0    0  0.00000000000E+00  0.00000000000E+00  0.74505805969E-08  0.10566000000E+00  0.10566000000E+00 0.  1.
     999900   -1    0    0    0    0 -0.00000000000E+00 -0.00000000000E+00 -0.74505805969E-08  0.93827000000E+00  0.93827000000E+00 0.  1.
     999902    2    1    2    0    0 -0.15470880205E-01 -0.14497418660E-01 -0.10930418260E-01  0.10200763352E+01  0.10197973977E+01 0.  0.
     999903    2    3    3    0    0 -0.39698194138E-01 -0.24204408519E-01 -0.12259264996E+00  0.13263639784E+00  0.20041362171E-01 0.  0.
         14    1    1    2    0    0  0.15470880205E-01  0.14497418660E-01  0.10930418260E-01  0.23853664822E-01  0.00000000000E+00 0.  1.
     999901    1    3    3    0    0  0.24227313933E-01  0.97069898594E-02  0.11166223170E+00  0.88743993734E+00  0.88000000000E+00 0. -1.
        -11    1    4    4    0    0 -0.93029302130E-02 -0.13544383518E-01 -0.60380221140E-01  0.62578167610E-01  0.51100000000E-03 0.  1.
         11    1    4    4    0    0 -0.30395263925E-01 -0.10660025001E-01 -0.62212428822E-01  0.70058230230E-01  0.51100000000E-03 0. -1.
</event>
<event>
 8    1  0.1123191E+005  0.1043930E+01  0.7957747E-01            NaN
         13   -1    0    0    0    0  0.00000000000E+00  0.00000000000E+00  0.74505805969E-08  0.10566000000E+00  0.10566000000E+00 0.  1.
     999900   -1    0    0    0    0 -0.00000000000E+00 -0.00000000000E+00 -0.74505805969E-08  0.93827000000E+00  0.93827000000E+00 0. -1.
     999902    2    1    2    0    0 -0.12927325687E-01 -0.12356143706E-01  0.14721698871E-01  0.10207671320E+01  0.10205042966E+01 0.  0.
     999903    2    3    3    0    0  0.40206543184E-01 -0.29742148201E-02  0.12436983186E+00  0.13232245635E+00  0.20395227598E-01 0.  0.
         14    1    1    2    0    0  0.12927325687E-01  0.12356143706E-01 -0.14721698871E-01  0.23162868008E-01  0.00000000000E+00 0. -1.
     999901    1    3    3    0    0 -0.53133868872E-01 -0.93819288855E-02 -0.10964813299E+00  0.88844467564E+00  0.88000000000E+00 0. -1.
        -11    1    4    4    0    0  0.10545986763E-01 -0.58109908080E-02  0.62480690089E-01  0.63632406885E-01  0.51100000000E-03 0.  1.
         11    1    4    4    0    0  0.29660556422E-01  0.28367759879E-02  0.61889141771E-01  0.68690049464E-01  0.51100000000E-03 0. -1.
</event>
<event>
 8    1  0.1123191E+005  0.1043930E+01  0.7957747E-01            NaN
         13   -1    0    0    0    0  0.00000000000E+00  0.00000000000E+00  0.74505805969E-08  0.10566000000E+00  0.10566000000E+00 0. -1.
     999900   -1    0    0    0    0 -0.00000000000E+00 -0.00000000000E+00 -0.74505805969E-08  0.93827000000E+00  0.93827000000E+00 0. -1.
     999902    2    1    2    0    0 -0.19450938289E-01  0.74693995988E-02  0.96074872417E-02  0.10209858343E+01  0.10207279946E+01 0.  0.
     999903    2    3    3    0    0  0.11123996652E+00  0.24254277704E-01  0.59046890524E-01  0.12980341784E+00  0.19994795939E-01 0.  0.
         14    1    1    2    0    0  0.19450938289E-01 -0.74693995988E-02 -0.96074872417E-02  0.22944165746E-01  0.00000000000E+00 0. -1.
     999901    1    3    3    0    0 -0.13069090480E+00 -0.16784878105E-01 -0.49439403282E-01  0.89118241642E+00  0.88000000000E+00 0. -1.
        -11    1    4    4    0    0  0.24950002273E-01  0.63003811915E-02  0.44385974445E-02  0.26118186860E-01  0.51100000000E-03 0.  1.
         11    1    4    4    0    0  0.86289964242E-01  0.17953896512E-01  0.54608293079E-01  0.10368523098E+00  0.51100000000E-03 0. -1.
</event>
<event>
 8    1  0.1123191E+005  0.1043930E+01  0.7957747E-01            NaN
         13   -1    0    0    0    0  0.00000000000E+00  0.00000000000E+00  0.74505805969E-08  0.10566000000E+00  0.10566000000E+00 0. -1.
     999900   -1    0    0    0    0 -0.00000000000E+00 -0.00000000000E+00 -0.74505805969E-08  0.93827000000E+00  0.93827000000E+00 0. -1.
     999902    2    1    2    0    0  0.10702520225E-01  0.82440955370E-02  0.14295539845E-01  0.10242609505E+01  0.10240720791E+01 0.  0.
     999903    2    3    3    0    0  0.71787115172E-01  0.73847455433E-02  0.11423041856E+00  0.13650025849E+00  0.19385759523E-01 0.  0.
         14    1    1    2    0    0 -0.10702520225E-01 -0.82440955370E-02 -0.14295539845E-01  0.19669049541E-01  0.00000000000E+00 0.  1.
     999901    1    3    3    0    0 -0.61084594947E-01  0.85934999366E-03 -0.99934878713E-01  0.88776069197E+00  0.88000000000E+00 0. -1.
        -11    1    4    4    0    0  0.41935104069E-01 -0.40334370163E-02  0.73564030548E-01  0.84774697162E-01  0.51100000000E-03 0.  1.
         11    1    4    4    0    0  0.29852011103E-01  0.11418182560E-01  0.40666388011E-01  0.51725561328E-01  0.51100000000E-03 0. -1.
</event>
<event>
 8    1  0.1123191E+005  0.1043930E+01  0.7957747E-01            NaN
         13   -1    0    0    0    0  0.00000000000E+00  0.00000000000E+00  0.74505805969E-08  0.10566000000E+00  0.10566000000E+00 0. -1.
     999900   -1    0    0    0    0 -0.00000000000E+00 -0.00000000000E+00 -0.74505805969E-08  0.93827000000E+00  0.93827000000E+00 0.  1.
     999902    2    1    2    0    0  0.14194912357E-01  0.14685424466E-01  0.71469190078E-02  0.10222912459E+01  0.10220622074E+01 0.  0.
     999903    2    3    3    0    0  0.48685722441E-01 -0.11846649150E+00 -0.19815226820E-01  0.13119865472E+00  0.20392023183E-01 0.  0.
         14    1    1    2    0    0 -0.14194912357E-01 -0.14685424466E-01 -0.71469190078E-02  0.21638754120E-01  0.00000000000E+00 0.  1.
     999901    1    3    3    0    0 -0.34490810084E-01  0.13315191597E+00  0.26962145828E-01  0.89109259116E+00  0.88000000000E+00 0. -1.
        -11    1    4    4    0    0  0.36317265362E-01 -0.70968866121E-01 -0.19671166218E-01  0.82114186492E-01  0.51100000000E-03 0.  1.
         11    1    4    4    0    0  0.12368457079E-01 -0.47497625379E-01 -0.14406060243E-03  0.49084468232E-01  0.51100000000E-03 0. -1.
</event>
<event>
 8    1  0.1123191E+005  0.1043930E+01  0.7957747E-01            NaN
         13   -1    0    0    0    0  0.00000000000E+00  0.00000000000E+00  0.74505805969E-08  0.10566000000E+00  0.10566000000E+00 0.  1.
     999900   -1    0    0    0    0 -0.00000000000E+00 -0.00000000000E+00 -0.74505805969E-08  0.93827000000E+00  0.93827000000E+00 0. -1.
     999902    2    1    2    0    0  0.42592894294E-02 -0.17429089617E-01 -0.15206899451E-01  0.10204105506E+01  0.10201394646E+01 0.  0.
     999903    2    3    3    0    0 -0.88825418934E-02 -0.11631135818E+00  0.57741901721E-01  0.13177567708E+00  0.20578393098E-01 0.  0.
         14    1    1    2    0    0 -0.42592894294E-02  0.17429089617E-01  0.15206899451E-01  0.23519449446E-01  0.00000000000E+00 0.  1.
     999901    1    3    3    0    0  0.13141831323E-01  0.98882268563E-01 -0.72948801172E-01  0.88863487348E+00  0.88000000000E+00 0. -1.
        -11    1    4    4    0    0  0.35735732129E-02 -0.22859384173E-01  0.47545196087E-02  0.23626012105E-01  0.51100000000E-03 0.  1.
         11    1    4    4    0    0 -0.12456115106E-01 -0.93451974007E-01  0.52987382113E-01  0.10814966497E+00  0.51100000000E-03 0. -1.
</event>
<event>
 8    1  0.1123191E+005  0.1043930E+01  0.7957747E-01            NaN
         13   -1    0    0    0    0  0.00000000000E+00  0.00000000000E+00  0.74505805969E-08  0.10566000000E+00  0.10566000000E+00 0. -1.
     999900   -1    0    0    0    0 -0.00000000000E+00 -0.00000000000E+00 -0.74505805969E-08  0.93827000000E+00  0.93827000000E+00 0.  1.
     999902    2    1    2    0    0 -0.18665367447E-01  0.99463118751E-02 -0.33779350251E-02  0.10225118883E+01  0.10222875458E+01 0.  0.
     999903    2    3    3    0    0  0.11196570986E+00 -0.60036576175E-01  0.17884391384E-01  0.12986740732E+00  0.20124148822E-01 0.  0.
         14    1    1    2    0    0  0.18665367447E-01 -0.99463118751E-02  0.33779350251E-02  0.21418111655E-01  0.00000000000E+00 0.  1.
     999901    1    3    3    0    0 -0.13063107731E+00  0.69982888050E-01 -0.21262326409E-01  0.89264448102E+00  0.88000000000E+00 0.  1.
        -11    1    4    4    0    0  0.73153184842E-01 -0.49763813718E-01  0.12575984122E-01  0.89365777040E-01  0.51100000000E-03 0.  1.
         11    1    4    4    0    0  0.38812525018E-01 -0.10272762457E-01  0.53084072619E-02  0.40501630281E-01  0.51100000000E-03 0. -1.
</event>
<event>
 8    1  0.1123191E+005  0.1043930E+01  0.7957747E-01            NaN
         13   -1    0    0    0    0  0.00000000000E+00  0.00000000000E+00  0.74505805969E-08  0.10566000000E+00  0.10566000000E+00 0.  1.
     999900   -1    0    0    0    0 -0.00000000000E+00 -0.00000000000E+00 -0.74505805969E-08  0.93827000000E+00  0.93827000000E+00 0.  1.
     999902    2    1    2    0    0  0.58844502468E-02 -0.13813169343E-01  0.19855351966E-01  0.10190369206E+01  0.10187328306E+01 0.  0.
     999903    2    3    3    0    0  0.10330705602E-01 -0.91134122489E-01 -0.88530163305E-01  0.12901123616E+00  0.19853399727E-01 0.  0.
         14    1    1    2    0    0 -0.58844502468E-02  0.13813169343E-01 -0.19855351966E-01  0.24893079434E-01  0.00000000000E+00 0.  1.
     999901    1    3    3    0    0 -0.44462553551E-02  0.77320953145E-01  0.10838551527E+00  0.89002568441E+00  0.88000000000E+00 0. -1.
        -11    1    4    4    0    0 -0.54911108212E-02 -0.28527218164E-01 -0.31532722692E-01  0.42878061938E-01  0.51100000000E-03 0. -1.
         11    1    4    4    0    0  0.15821816423E-01 -0.62606904325E-01 -0.56997440613E-01  0.86133174222E-01  0.51100000000E-03 0.  1.
</event>
<event>
 8    1  0.1123191E+005  0.1043930E+01  0.7957747E-01            NaN
         13   -1    0    0    0    0  0.00000000000E+00  0.00000000000E+00  0.74505805969E-08  0.10566000000E+00  0.10566000000E+00 0. -1.
     999900   -1    0    0    0    0 -0.00000000000E+00 -0.00000000000E+00 -0.74505805969E-08  0.93827000000E+00  0.93827000000E+00 0.  1.
     999902    2    1    2    0    0  0.17876114193E-01  0.14327698866E-01  0.18811731146E-02  0.10209435426E+01  0.10206847407E+01 0.  0.
     999903    2    3    3    0    0 -0.11441498608E-01  0.10709903596E-01 -0.12855313447E+00  0.13083921190E+00  0.18638161507E-01 0.  0.
         14    1    1    2    0    0 -0.17876114193E-01 -0.14327698866E-01 -0.18811731146E-02  0.22986457442E-01  0.00000000000E+00 0.  1.
     999901    1    3    3    0    0  0.29317612801E-01  0.36177952695E-02  0.13043430758E+00  0.89010433066E+00  0.88000000000E+00 0. -1.
        -11    1    4    4    0    0  0.31226106243E-02 -0.20165448231E-02 -0.41126518446E-01  0.41297321833E-01  0.51100000000E-03 0.  1.
         11    1    4    4    0    0 -0.14564109233E-01  0.12726448419E-01 -0.87426616020E-01  0.89541890067E-01  0.51100000000E-03 0. -1.
</event>
<event>
 8    1  0.1123191E+005  0.1043930E+01  0.7957747E-01            NaN
         13   -1    0    0    0    0  0.00000000000E+00  0.00000000000E+00  0.74505805969E-08  0.10566000000E+00  0.10566000000E+00 0.  1.
     999900   -1    0    0    0    0 -0.00000000000E+00 -0.00000000000E+00 -0.74505805969E-08  0.93827000000E+00  0.93827000000E+00 0.  1.
     999902    2    1    2    0    0  0.17722784110E-01 -0.24593037186E-01  0.11385955374E-01  0.10115486082E+01  0.10110301836E+01 0.  0.
     999903    2    3    3    0    0  0.17526352778E-01  0.57629248498E-02  0.12113888487E+00  0.12421145213E+00  0.20333988046E-01 0.  0.
         14    1    1    2    0    0 -0.17722784110E-01  0.24593037186E-01 -0.11385955374E-01  0.32381391793E-01  0.00000000000E+00 0.  1.
     999901    1    3    3    0    0  0.19643133180E-03 -0.30355962036E-01 -0.10975292949E+00  0.88733715607E+00  0.88000000000E+00 0.  1.
        -11    1    4    4    0    0  0.17437720150E-01 -0.36087008273E-02  0.87041110625E-01  0.88845443696E-01  0.51100000000E-03 0.  1.
         11    1    4    4    0    0  0.88632628307E-04  0.93716256771E-02  0.34097774242E-01  0.35366008438E-01  0.51100000000E-03 0. -1.
</event>
<event>
 8    1  0.1123191E+005  0.1043930E+01  0.7957747E-01            NaN
         13   -1    0    0    0    0  0.00000000000E+00  0.00000000000E+00  0.74505805969E-08  0.10566000000E+00  0.10566000000E+00 0.  1.
     999900   -1    0    0    0    0 -0.00000000000E+00 -0.00000000000E+00 -0.74505805969E-08  0.93827000000E+00  0.93827000000E+00 0. -1.
     999902    2    1    2    0    0  0.74582456127E-02  0.28139665546E-01  0.17722686733E-02  0.10147648300E+01  0.10143456280E+01 0.  0.
     999903    2    3    3    0    0  0.92382939253E-01 -0.79819940798E-01  0.10252881073E-01  0.12406880948E+00  0.19547825995E-01 0.  0.
         14    1    1    2    0    0 -0.74582456127E-02 -0.28139665546E-01 -0.17722686733E-02  0.29165169997E-01  0.00000000000E+00 0.  1.
     999901    1    3    3    0    0 -0.84924693640E-01  0.10795960634E+00 -0.84806123995E-02  0.89069602052E+00  0.88000000000E+00 0. -1.
        -11    1    4    4    0    0  0.48718394338E-01 -0.45852495225E-01  0.14924762876E-01  0.68548836118E-01  0.51100000000E-03 0.  1.
         11    1    4    4    0    0  0.43664544914E-01 -0.33967445573E-01 -0.46718818030E-02  0.55519973360E-01  0.51100000000E-03 0. -1.
</event>
<event>
 8    1  0.1123191E+005  0.1043930E+01  0.7957747E-01            NaN
         13   -1    0    0    0    0  0.00000000000E+00  0.00000000000E+00  0.74505805969E-08  0.10566000000E+00  0.10566000000E+00 0. -1.
     999900   -1    0    0    0    0 -0.00000000000E+00 -0.00000000000E+00 -0.74505805969E-08  0.93827000000E+00  0.93827000000E+00 0. -1.
     999902    2    1    2    0    0 -0.22348084993E-01  0.22461481092E-01  0.10636894837E-01  0.10105069755E+01  0.10099540826E+01 0.  0.
     999903    2    3    3    0    0  0.98284120492E-01  0.66683355108E-01  0.14311224490E-01  0.12116946709E+00  0.19255919086E-01 0.  0.
         14    1    1    2    0    0  0.22348084993E-01 -0.22461481092E-01 -0.10636894837E-01  0.33423024511E-01  0.00000000000E+00 0.  1.
     999901    1    3    3    0    0 -0.12063220548E+00 -0.44221874016E-01 -0.36743296528E-02  0.88933750840E+00  0.88000000000E+00 0.  1.
        -11    1    4    4    0    0  0.14709698610E-01  0.54045686256E-02  0.73081482109E-02  0.17298981083E-01  0.51100000000E-03 0. -1.
         11    1    4    4    0    0  0.83574421882E-01  0.61278786482E-01  0.70030762787E-02  0.10387048601E+00  0.51100000000E-03 0.  1.
</event>
<event>
 8    1  0.1123191E+005  0.1043930E+01  0.7957747E-01            NaN
         13   -1    0    0    0    0  0.00000000000E+00  0.00000000000E+00  0.74505805969E-08  0.10566000000E+00  0.10566000000E+00 0.  1.
     999900   -1    0    0    0    0 -0.00000000000E+00 -0.00000000000E+00 -0.74505805969E-08  0.93827000000E+00  0.93827000000E+00 0.  1.
     999902    2    1    2    0    0 -0.65093607175E-02  0.11925733435E-01  0.21740338434E-01  0.10182933620E+01  0.10179705957E+01 0.  0.
     999903    2    3    3    0    0  0.11276870422E+00 -0.51286573033E-01  0.24017753014E-01  0.12799664789E+00  0.21428863399E-01 0.  0.
         14    1    1    2    0    0  0.65093607175E-02 -0.11925733435E-01 -0.21740338434E-01  0.25636638043E-01  0.00000000000E+00 0.  1.
     999901    1    3    3    0    0 -0.11927806493E+00  0.63212306468E-01 -0.22774145798E-02  0.89029671407E+00  0.88000000000E+00 0. -1.
        -11    1    4    4    0    0  0.95172318482E-01 -0.37279006504E-01  0.25828582739E-01  0.10542709015E+00  0.51100000000E-03 0. -1.
         11    1    4    4    0    0  0.17596385735E-01 -0.14007566530E-01 -0.18108297252E-02  0.22569557734E-01  0.51100000000E-03 0.  1.
</event>
<event>
 8    1  0.1123191E+005  0.1043930E+01  0.7957747E-01            NaN
         13   -1    0    0    0    0  0.00000000000E+00  0.00000000000E+00  0.74505805969E-08  0.10566000000E+00  0.10566000000E+00 0. -1.
     999900   -1    0    0    0    0 -0.00000000000E+00 -0.00000000000E+00 -0.74505805969E-08  0.93827000000E+00  0.93827000000E+00 0.  1.
     999902    2    1    2    0    0 -0.20682621051E-01  0.90792409520E-02  0.64863580397E-02  0.10204294411E+01  0.10201587954E+01 0.  0.
     999903    2    3    3    0    0  0.12236823409E+00  0.73907955168E-02 -0.34549430443E-01  0.12793275539E+00  0.12021571590E-01 0.  0.
         14    1    1    2    0    0  0.20682621051E-01 -0.90792409520E-02 -0.64863580397E-02  0.23500558938E-01  0.00000000000E+00 0.  1.
     999901    1    3    3    0    0 -0.14305085514E+00  0.16884454352E-02  0.41035788482E-01  0.89249668568E+00  0.88000000000E+00 0.  1.
        -11    1    4    4    0    0  0.63945213311E-01  0.77249807667E-02 -0.22861712394E-01  0.68348991564E-01  0.51100000000E-03 0. -1.
         11    1    4    4    0    0  0.58423020782E-01 -0.33418524995E-03 -0.11687718048E-01  0.59583763822E-01  0.51100000000E-03 0.  1.
</event>
<event>
 8    1  0.1123191E+005  0.1043930E+01  0.7957747E-01            NaN
         13   -1    0    0    0    0  0.00000000000E+00  0.00000000000E+00  0.74505805969E-08  0.10566000000E+00  0.10566000000E+00 0.  1.
     999900   -1    0    0    0    0 -0.00000000000E+00 -0.00000000000E+00 -0.74505805969E-08  0.93827000000E+00  0.93827000000E+00 0.  1.
     999902    2    1    2    0    0  0.51486445814E-02 -0.19286168197E-01 -0.16037732428E-01  0.10183238740E+01  0.10180018854E+01 0.  0.
     999903    2    3    3    0    0  0.35735879007E-01  0.10067283239E+00  0.63975175212E-01  0.12606393092E+00  0.19677891245E-01 0.  0.
         14    1    1    2    0    0 -0.51486445814E-02  0.19286168197E-01  0.16037732428E-01  0.25606125950E-01  0.00000000000E+00 0.  1.
     999901    1    3    3    0    0 -0.30587234425E-01 -0.11995900059E+00 -0.80012907640E-01  0.89225994313E+00  0.88000000000E+00 0.  1.
        -11    1    4    4    0    0  0.75094331693E-03  0.26578638184E-01  0.17915686990E-01  0.32065883504E-01  0.51100000000E-03 0.  1.
         11    1    4    4    0    0  0.34984935690E-01  0.74094194210E-01  0.46059488222E-01  0.93998047411E-01  0.51100000000E-03 0. -1.
</event>
<event>
 8    1  0.1123191E+005  0.1043930E+01  0.7957747E-01            NaN
         13   -1    0    0    0    0  0.00000000000E+00  0.00000000000E+00  0.74505805969E-08  0.10566000000E+00  0.10566000000E+00 0. -1.
     999900   -1    0    0    0    0 -0.00000000000E+00 -0.00000000000E+00 -0.74505805969E-08  0.93827000000E+00  0.93827000000E+00 0. -1.
     999902    2    1    2    0    0 -0.15387957299E-01  0.72351195014E-02 -0.15381875278E-01  0.10210010168E+01  0.10207435222E+01 0.  0.
     999903    2    3    3    0    0 -0.14593327340E-01 -0.11370350581E+00  0.57423588259E-01  0.12975053682E+00  0.19906804858E-01 0.  0.
         14    1    1    2    0    0  0.15387957299E-01 -0.72351195014E-02  0.15381875278E-01  0.22928983211E-01  0.00000000000E+00 0. -1.
     999901    1    3    3    0    0 -0.79462995950E-03  0.12093862531E+00 -0.72805463537E-01  0.89125047997E+00  0.88000000000E+00 0. -1.
        -11    1    4    4    0    0 -0.10150890763E-01 -0.33463020265E-01  0.97378996211E-02  0.36302921625E-01  0.51100000000E-03 0.  1.
         11    1    4    4    0    0 -0.44424365770E-02 -0.80240485545E-01  0.47685688638E-01  0.93447615192E-01  0.51100000000E-03 0. -1.
</event>
<event>
 8    1  0.1123191E+005  0.1043930E+01  0.7957747E-01            NaN
         13   -1    0    0    0    0  0.00000000000E+00  0.00000000000E+00  0.74505805969E-08  0.10566000000E+00  0.10566000000E+00 0. -1.
     999900   -1    0    0    0    0 -0.00000000000E+00 -0.00000000000E+00 -0.74505805969E-08  0.93827000000E+00  0.93827000000E+00 0. -1.
     999902    2    1    2    0    0  0.14857151474E-01  0.58257967945E-02 -0.17038297895E-01  0.10205852264E+01  0.10203181984E+01 0.  0.
     999903    2    3    3    0    0 -0.33045637327E-01  0.27830263253E-01  0.11936788711E+00  0.12851711186E+00  0.20035415359E-01 0.  0.
         14    1    1    2    0    0 -0.14857151474E-01 -0.58257967945E-02  0.17038297895E-01  0.23344773577E-01  0.00000000000E+00 0. -1.
     999901    1    3    3    0    0  0.47902788801E-01 -0.22004466458E-01 -0.13640618500E+00  0.89206811457E+00  0.88000000000E+00 0. -1.
        -11    1    4    4    0    0 -0.12460970355E-02  0.11157776672E-01  0.21327197588E-01  0.24107244057E-01  0.51100000000E-03 0.  1.
         11    1    4    4    0    0 -0.31799540292E-01  0.16672486580E-01  0.98040689519E-01  0.10440986780E+00  0.51100000000E-03 0. -1.
</event>
<event>
 8    1  0.1123191E+005  0.1043930E+01  0.7957747E-01            NaN
         13   -1    0    0    0    0  0.00000000000E+00  0.00000000000E+00  0.74505805969E-08  0.10566000000E+00  0.10566000000E+00 0. -1.
     999900   -1    0    0    0    0 -0.00000000000E+00 -0.00000000000E+00 -0.74505805969E-08  0.93827000000E+00  0.93827000000E+00 0. -1.
     999902    2    1    2    0    0  0.20229413266E-01  0.48997481089E-02 -0.12050304714E-01  0.10198790845E+01  0.10195954592E+01 0.  0.
     999903    2    3    3    0    0  0.10913484693E+00 -0.65026197821E-01 -0.30557411584E-01  0.13244664930E+00  0.21668832228E-01 0.  0.
         14    1    1    2    0    0 -0.20229413266E-01 -0.48997481089E-02  0.12050304714E-01  0.24050915498E-01  0.00000000000E+00 0. -1.
     999901    1    3    3    0    0 -0.88905433662E-01  0.69925945930E-01  0.18507106870E-01  0.88743243520E+00  0.88000000000E+00 0. -1.
        -11    1    4    4    0    0  0.48191720889E-01 -0.34758466043E-01 -0.23997099095E-01  0.64083654779E-01  0.51100000000E-03 0.  1.
         11    1    4    4    0    0  0.60943126040E-01 -0.30267731778E-01 -0.65603124888E-02  0.68362994518E-01  0.51100000000E-03 0. -1.
</event>
<event>
 8    1  0.1123191E+005  0.1043930E+01  0.7957747E-01            NaN
         13   -1    0    0    0    0  0.00000000000E+00  0.00000000000E+00  0.74505805969E-08  0.10566000000E+00  0.10566000000E+00 0.  1.
     999900   -1    0    0    0    0 -0.00000000000E+00 -0.00000000000E+00 -0.74505805969E-08  0.93827000000E+00  0.93827000000E+00 0.  1.
     999902    2    1    2    0    0  0.21092146497E-01  0.44750190829E-02  0.91564731161E-02  0.10205046838E+01  0.10202357885E+01 0.  0.
     999903    2    3    3    0    0 -0.11459065698E+00 -0.50304957680E-01 -0.17128837748E-01  0.12803530808E+00  0.20929300010E-01 0.  0.
         14    1    1    2    0    0 -0.21092146497E-01 -0.44750190829E-02 -0.91564731161E-02  0.23425316211E-01  0.00000000000E+00 0.  1.
     999901    1    3    3    0    0  0.13568280347E+00  0.54779976763E-01  0.26285310864E-01  0.89246937571E+00  0.88000000000E+00 0. -1.
        -11    1    4    4    0    0 -0.75580430420E-01 -0.22113749409E-01 -0.10794359691E-01  0.79487097680E-01  0.51100000000E-03 0.  1.
         11    1    4    4    0    0 -0.39010226557E-01 -0.28191208271E-01 -0.63344780565E-02  0.48548210400E-01  0.51100000000E-03 0. -1.
</event>
<event>
 8    1  0.1123191E+005  0.1043930E+01  0.7957747E-01            NaN
         13   -1    0    0    0    0  0.00000000000E+00  0.00000000000E+00  0.74505805969E-08  0.10566000000E+00  0.10566000000E+00 0. -1.
     999900   -1    0    0    0    0 -0.00000000000E+00 -0.00000000000E+00 -0.74505805969E-08  0.93827000000E+00  0.93827000000E+00 0. -1.
     999902    2    1    2    0    0 -0.20150775445E-02 -0.65263917585E-02 -0.23256147851E-01  0.10196915442E+01  0.10194034248E+01 0.  0.
     999903    2    3    3    0    0 -0.44559137562E-01 -0.12101261070E+00  0.71407494284E-02  0.13073650443E+00  0.20284836676E-01 0.  0.
         14    1    1    2    0    0  0.20150775445E-02  0.65263917585E-02  0.23256147851E-01  0.24238455804E-01  0.00000000000E+00 0. -1.
     999901    1    3    3    0    0  0.42544060018E-01  0.11448621894E+00 -0.30396897279E-01  0.88895503977E+00  0.88000000000E+00 0. -1.
        -11    1    4    4    0    0 -0.96100276022E-02 -0.27170405804E-01 -0.68406613717E-02  0.29624978499E-01  0.51100000000E-03 0.  1.
         11    1    4    4    0    0 -0.34949109960E-01 -0.93842204893E-01  0.13981410800E-01  0.10111152593E+00  0.51100000000E-03 0. -1.
</event>
<event>
 7    1  0.1123191E+005  0.1043930E+01  0.7957747E-01            NaN
         13   -1    0    0    0    0  0.00000000000E+00  0.00000000000E+00  0.74505805969E-08  0.10566000000E+00  0.10566000000E+00 0. -1.
     999900   -1    0    0    0    0 -0.00000000000E+00 -0.00000000000E+00 -0.74505805969E-08  0.93827000000E+00  0.93827000000E+00 0.  1.
     999903    2    1    2    0    0  0.97512207693E-01  0.29292570513E-01  0.10289750678E-01  0.10477700467E+00  0.22486805066E-01 0.  0.
         14    1    1    2    0    0  0.88395356393E-02  0.62861111260E-02 -0.49985009381E-01  0.51148350377E-01  0.00000000000E+00 0.  1.
     999901    1    1    2    0    0 -0.10635174333E+00 -0.35578681639E-01  0.39695258703E-01  0.88800464495E+00  0.88000000000E+00 0. -1.
        -11    1    3    3    0    0  0.71495486953E-01  0.17758275614E-01 -0.21798031126E-02  0.73701924466E-01  0.51100000000E-03 0.  1.
         11    1    3    3    0    0  0.26016720739E-01  0.11534294899E-01  0.12469553791E-01  0.31075080203E-01  0.51100000000E-03 0. -1.
</event>
<event>
 7    1  0.1123191E+005  0.1043930E+01  0.7957747E-01            NaN
         13   -1    0    0    0    0  0.00000000000E+00  0.00000000000E+00  0.74505805969E-08  0.10566000000E+00  0.10566000000E+00 0. -1.
     999900   -1    0    0    0    0 -0.00000000000E+00 -0.00000000000E+00 -0.74505805969E-08  0.93827000000E+00  0.93827000000E+00 0.  1.
     999903    2    1    2    0    0  0.23289236127E-01  0.83848167935E-01 -0.50349250055E-01  0.10251960652E+00  0.20057890080E-01 0.  0.
         14    1    1    2    0    0 -0.15683957857E-01  0.33113545060E-01 -0.33554550600E-01  0.49683007824E-01  0.00000000000E+00 0.  1.
     999901    1    1    2    0    0 -0.76052782693E-02 -0.11696171299E+00  0.83903800655E-01  0.89172738566E+00  0.88000000000E+00 0.  1.
        -11    1    3    3    0    0  0.25447874265E-01  0.59046040480E-01 -0.38492672027E-01  0.74939816665E-01  0.51100000000E-03 0.  1.
         11    1    3    3    0    0 -0.21586381388E-02  0.24802127455E-01 -0.11856578028E-01  0.27579789855E-01  0.51100000000E-03 0. -1.
</event>
<event>
 8    1  0.1123191E+005  0.1043930E+01  0.7957747E-01            NaN
         13   -1    0    0    0    0  0.00000000000E+00  0.00000000000E+00  0.74505805969E-08  0.10566000000E+00  0.10566000000E+00 0. -1.
     999900   -1    0    0    0    0 -0.00000000000E+00 -0.00000000000E+00 -0.74505805969E-08  0.93827000000E+00  0.93827000000E+00 0.  1.
     999902    2    1    2    0    0  0.11708509534E-02 -0.70497001335E-02 -0.36143080890E-01  0.10070872061E+01  0.10064130610E+01 0.  0.
     999903    2    3    3    0    0  0.68158180027E-01  0.49584390968E-01  0.76717170839E-01  0.11555360668E+00  0.19051571659E-01 0.  0.
         14    1    1    2    0    0 -0.11708509534E-02  0.70497001335E-02  0.36143080890E-01  0.36842793870E-01  0.00000000000E+00 0. -1.
     999901    1    3    3    0    0 -0.66987329073E-01 -0.56634091101E-01 -0.11286025173E+00  0.89153359945E+00  0.88000000000E+00 0.  1.
        -11    1    4    4    0    0  0.26679661331E-01  0.30982544969E-01  0.34163957571E-01  0.53283764313E-01  0.51100000000E-03 0. -1.
         11    1    4    4    0    0  0.41478518696E-01  0.18601845999E-01  0.42553213268E-01  0.62269842366E-01  0.51100000000E-03 0.  1.
</event>
<event>
 8    1  0.1123191E+005  0.1043930E+01  0.7957747E-01            NaN
         13   -1    0    0    0    0  0.00000000000E+00  0.00000000000E+00  0.74505805969E-08  0.10566000000E+00  0.10566000000E+00 0.  1.
     999900   -1    0    0    0    0 -0.00000000000E+00 -0.00000000000E+00 -0.74505805969E-08  0.93827000000E+00  0.93827000000E+00 0.  1.
     999902    2    1    2    0    0  0.12365907675E-01  0.21076287345E-01 -0.96578203274E-02  0.10176545542E+01  0.10173152867E+01 0.  0.
     999903    2    3    3    0    0 -0.17268811320E-01  0.10371521086E+00 -0.75156862565E-01  0.13086397415E+00  0.20537013722E-01 0.  0.
         14    1    1    2    0    0 -0.12365907675E-01 -0.21076287345E-01  0.96578203274E-02  0.26275445845E-01  0.00000000000E+00 0.  1.
     999901    1    3    3    0    0  0.29634718995E-01 -0.82638923511E-01  0.65499042238E-01  0.88679058000E+00  0.88000000000E+00 0. -1.
        -11    1    4    4    0    0 -0.54264771413E-02  0.79237253122E-01 -0.61371437501E-01  0.10037282201E+00  0.51100000000E-03 0. -1.
         11    1    4    4    0    0 -0.11842334179E-01  0.24477957735E-01 -0.13785425064E-01  0.30491152141E-01  0.51100000000E-03 0.  1.
</event>
<event>
 8    1  0.1123191E+005  0.1043930E+01  0.7957747E-01            NaN
         13   -1    0    0    0    0  0.00000000000E+00  0.00000000000E+00  0.74505805969E-08  0.10566000000E+00  0.10566000000E+00 0. -1.
     999900   -1    0    0    0    0 -0.00000000000E+00 -0.00000000000E+00 -0.74505805969E-08  0.93827000000E+00  0.93827000000E+00 0.  1.
     999902    2    1    2    0    0  0.84856277758E-02  0.55094965543E-02 -0.21146760866E-01  0.10204876041E+01  0.10202183120E+01 0.  0.
     999903    2    3    3    0    0  0.86201653233E-01 -0.25576556546E-01 -0.96282414535E-01  0.13332837950E+00  0.20524818327E-01 0.  0.
         14    1    1    2    0    0 -0.84856277758E-02 -0.55094965543E-02  0.21146760866E-01  0.23442395914E-01  0.00000000000E+00 0. -1.
     999901    1    3    3    0    0 -0.77716025457E-01  0.31086053100E-01  0.75135653669E-01  0.88715922458E+00  0.88000000000E+00 0. -1.
        -11    1    4    4    0    0  0.34443583752E-01 -0.53024096474E-02 -0.50248953573E-01  0.61153041347E-01  0.51100000000E-03 0. -1.
         11    1    4    4    0    0  0.51758069481E-01 -0.20274146898E-01 -0.46033460962E-01  0.72175338157E-01  0.51100000000E-03 0.  1.
</event>
<event>
 8    1  0.1123191E+005  0.1043930E+01  0.7957747E-01            NaN
         13   -1    0    0    0    0  0.00000000000E+00  0.00000000000E+00  0.74505805969E-08  0.10566000000E+00  0.10566000000E+00 0.  1.
     999900   -1    0    0    0    0 -0.00000000000E+00 -0.00000000000E+00 -0.74505805969E-08  0.93827000000E+00  0.93827000000E+00 0. -1.
     999902    2    1    2    0    0 -0.15598962979E-01 -0.81586727947E-02  0.56149235674E-02  0.10254524743E+01  0.10252859885E+01 0.  0.
     999903    2    3    3    0    0 -0.88723584505E-01  0.10072387520E+00 -0.32893499588E-02  0.13568738983E+00  0.19572287854E-01 0.  0.
         14    1    1    2    0    0  0.15598962979E-01  0.81586727947E-02 -0.56149235674E-02  0.18477525658E-01  0.00000000000E+00 0. -1.
     999901    1    3    3    0    0  0.73124621526E-01 -0.10888254800E+00  0.89042735262E-02  0.88976508451E+00  0.88000000000E+00 0.  1.
        -11    1    4    4    0    0 -0.38420411713E-01  0.51899897293E-01 -0.96658227337E-02  0.65294843788E-01  0.51100000000E-03 0.  1.
         11    1    4    4    0    0 -0.50303172792E-01  0.48823977911E-01  0.63764727750E-02  0.70392546040E-01  0.51100000000E-03 0. -1.
</event>
<event>
 8    1  0.1123191E+005  0.1043930E+01  0.7957747E-01            NaN
         13   -1    0    0    0    0  0.00000000000E+00  0.00000000000E+00  0.74505805969E-08  0.10566000000E+00  0.10566000000E+00 0. -1.
     999900   -1    0    0    0    0 -0.00000000000E+00 -0.00000000000E+00 -0.74505805969E-08  0.93827000000E+00  0.93827000000E+00 0.  1.
     999902    2    1    2    0    0 -0.13122952820E-01 -0.13728121247E-01 -0.12953029908E-01  0.10209418686E+01  0.10206830286E+01 0.  0.
     999903    2    3    3    0    0  0.10457783571E+00 -0.75326407114E-01  0.97378613249E-02  0.13068196213E+00  0.19296578733E-01 0.  0.
         14    1    1    2    0    0  0.13122952820E-01  0.13728121247E-01  0.12953029908E-01  0.22988131448E-01  0.00000000000E+00 0.  1.
     999901    1    3    3    0    0 -0.11770078853E+00  0.61598285868E-01 -0.22690891232E-01  0.89025990643E+00  0.88000000000E+00 0. -1.
        -11    1    4    4    0    0  0.55063209895E-01 -0.48280828116E-01  0.12019359761E-01  0.74214025478E-01  0.51100000000E-03 0.  1.
         11    1    4    4    0    0  0.49514625818E-01 -0.27045578998E-01 -0.22814984362E-02  0.56467936649E-01  0.51100000000E-03 0. -1.
</event>
<event>
 8    1  0.1123191E+005  0.1043930E+01  0.7957747E-01            NaN
         13   -1    0    0    0    0  0.00000000000E+00  0.00000000000E+00  0.74505805969E-08  0.10566000000E+00  0.10566000000E+00 0.  1.
     999900   -1    0    0    0    0 -0.00000000000E+00 -0.00000000000E+00 -0.74505805969E-08  0.93827000000E+00  0.93827000000E+00 0.  1.
     999902    2    1    2    0    0  0.55961878909E-04 -0.17576361501E-01  0.15339138876E-01  0.10206014596E+01  0.10203348071E+01 0.  0.
     999903    2    3    3    0    0 -0.20378242203E-01 -0.58548920060E-01 -0.11270974841E+00  0.13015616382E+00  0.19846682349E-01 0.  0.
         14    1    1    2    0    0 -0.55961878909E-04  0.17576361501E-01 -0.15339138876E-01  0.23328540391E-01  0.00000000000E+00 0.  1.
     999901    1    3    3    0    0  0.20434204082E-01  0.40972558559E-01  0.12804888728E+00  0.89044529578E+00  0.88000000000E+00 0. -1.
        -11    1    4    4    0    0 -0.12250573077E-01 -0.32431510425E-01 -0.42783556819E-01  0.55068804820E-01  0.51100000000E-03 0.  1.
         11    1    4    4    0    0 -0.81276691260E-02 -0.26117409635E-01 -0.69926191586E-01  0.75087359004E-01  0.51100000000E-03 0. -1.
</event>
<event>
 8    1  0.1123191E+005  0.1043930E+01  0.7957747E-01            NaN
         13   -1    0    0    0    0  0.00000000000E+00  0.00000000000E+00  0.74505805969E-08  0.10566000000E+00  0.10566000000E+00 0.  1.
     999900   -1    0    0    0    0 -0.00000000000E+00 -0.00000000000E+00 -0.74505805969E-08  0.93827000000E+00  0.93827000000E+00 0. -1.
     999902    2    1    2    0    0 -0.22651578718E-02 -0.21856805536E-01  0.63652118091E-02  0.10210527884E+01  0.10207964684E+01 0.  0.
     999903    2    3    3    0    0 -0.10488742582E+00  0.16457454257E-02 -0.76062978181E-01  0.13095273433E+00  0.18946276813E-01 0.  0.
         14    1    1    2    0    0  0.22651578718E-02  0.21856805536E-01 -0.63652118091E-02  0.22877211582E-01  0.00000000000E+00 0. -1.
     999901    1    3    3    0    0  0.10262226795E+00 -0.23502550962E-01  0.82428189990E-01  0.89010005409E+00  0.88000000000E+00 0.  1.
        -11    1    4    4    0    0 -0.60728742985E-01 -0.72759178657E-02 -0.49209169600E-01  0.78503010764E-01  0.51100000000E-03 0.  1.
         11    1    4    4    0    0 -0.44158682838E-01  0.89216632914E-02 -0.26853808581E-01  0.52449723566E-01  0.51100000000E-03 0. -1.
</event>
<event>
 8    1  0.1123191E+005  0.1043930E+01  0.7957747E-01            NaN
         13   -1    0    0    0    0  0.00000000000E+00  0.00000000000E+00  0.74505805969E-08  0.10566000000E+00  0.10566000000E+00 0.  1.
     999900   -1    0    0    0    0 -0.00000000000E+00 -0.00000000000E+00 -0.74505805969E-08  0.93827000000E+00  0.93827000000E+00 0. -1.
     999902    2    1    2    0    0 -0.18463244727E-01 -0.46888436389E-02  0.14881348108E-01  0.10197570568E+01  0.10194705115E+01 0.  0.
     999903    2    3    3    0    0  0.11584097811E+00 -0.15901241476E-01  0.50584760553E-01  0.12878114480E+00  0.18809135172E-01 0.  0.
         14    1    1    2    0    0  0.18463244727E-01  0.46888436389E-02 -0.14881348108E-01  0.24172943181E-01  0.00000000000E+00 0. -1.
     999901    1    3    3    0    0 -0.13430422284E+00  0.11212397837E-01 -0.35703412445E-01  0.89097591202E+00  0.88000000000E+00 0. -1.
        -11    1    4    4    0    0  0.91695995797E-01 -0.51084523875E-02  0.41835955918E-01  0.10091957322E+00  0.51100000000E-03 0.  1.
         11    1    4    4    0    0  0.24144982313E-01 -0.10792789088E-01  0.87488046350E-02  0.27861571577E-01  0.51100000000E-03 0. -1.
</event>
<event>
 8    1  0.1123191E+005  0.1043930E+01  0.7957747E-01            NaN
         13   -1    0    0    0    0  0.00000000000E+00  0.00000000000E+00  0.74505805969E-08  0.10566000000E+00  0.10566000000E+00 0.  1.
     999900   -1    0    0    0    0 -0.00000000000E+00 -0.00000000000E+00 -0.74505805969E-08  0.93827000000E+00  0.93827000000E+00 0.  1.
     999902    2    1    2    0    0 -0.74383202688E-02  0.22169998167E-01 -0.51078142137E-02  0.10199941024E+01  0.10197132155E+01 0.  0.
     999903    2    3    3    0    0 -0.55145584691E-01 -0.63415677153E-01  0.95810149327E-01  0.12882334085E+00  0.18795872276E-01 0.  0.
         14    1    1    2    0    0  0.74383202688E-02 -0.22169998167E-01  0.51078142137E-02  0.23935897585E-01  0.00000000000E+00 0.  1.
     999901    1    3    3    0    0  0.47707264422E-01  0.85585675320E-01 -0.10091796354E+00  0.89117076156E+00  0.88000000000E+00 0.  1.
        -11    1    4    4    0    0 -0.40921586901E-01 -0.48559777488E-01  0.59150852057E-01  0.86785440508E-01  0.51100000000E-03 0.  1.
         11    1    4    4    0    0 -0.14223997789E-01 -0.14855899665E-01  0.36659297270E-01  0.42037900344E-01  0.51100000000E-03 0. -1.
</event>
<event>
 8    1  0.1123191E+005  0.1043930E+01  0.7957747E-01            NaN
         13   -1    0    0    0    0  0.00000000000E+00  0.00000000000E+00  0.74505805969E-08  0.10566000000E+00  0.10566000000E+00 0. -1.
     999900   -1    0    0    0    0 -0.00000000000E+00 -0.00000000000E+00 -0.74505805969E-08  0.93827000000E+00  0.93827000000E+00 0.  1.
     999902    2    1    2    0    0 -0.15154945056E-01  0.15946074470E-01 -0.88718949872E-02  0.10202095411E+01  0.10199337466E+01 0.  0.
     999903    2    3    3    0    0 -0.98258444786E-01 -0.81078237136E-01 -0.25818683666E-01  0.13082374045E+00  0.14827141716E-01 0.  0.
         14    1    1    2    0    0  0.15154945056E-01 -0.15946074470E-01  0.88718949872E-02  0.23720458919E-01  0.00000000000E+00 0.  1.
     999901    1    3    3    0    0  0.83103499730E-01  0.97024311606E-01  0.16946788679E-01  0.88938580063E+00  0.88000000000E+00 0. -1.
        -11    1    4    4    0    0 -0.66191361260E-01 -0.49951836394E-01 -0.10547122515E-01  0.83594169527E-01  0.51100000000E-03 0. -1.
         11    1    4    4    0    0 -0.32067083526E-01 -0.31126400742E-01 -0.15271561151E-01  0.47229570928E-01  0.51100000000E-03 0.  1.
</event>
<event>
 8    1  0.1123191E+005  0.1043930E+01  0.7957747E-01            NaN
         13   -1    0    0    0    0  0.00000000000E+00  0.00000000000E+00  0.74505805969E-08  0.10566000000E+00  0.10566000000E+00 0. -1.
     999900   -1    0    0    0    0 -0.00000000000E+00 -0.00000000000E+00 -0.74505805969E-08  0.93827000000E+00  0.93827000000E+00 0. -1.
     999902    2    1    2    0    0  0.24708178553E-02  0.11886059690E-01 -0.19855998402E-01  0.10206567529E+01  0.10203913775E+01 0.  0.
     999903    2    3    3    0    0 -0.11104919496E+00 -0.76341000059E-02  0.62520653633E-01  0.12933540644E+00  0.20702947685E-01 0.  0.
         14    1    1    2    0    0 -0.24708178553E-02 -0.11886059690E-01  0.19855998402E-01  0.23273247053E-01  0.00000000000E+00 0. -1.
     999901    1    3    3    0    0  0.11352001282E+00  0.19520159696E-01 -0.82376652036E-01  0.89132134651E+00  0.88000000000E+00 0. -1.
        -11    1    4    4    0    0 -0.52716253787E-01 -0.42665408307E-02  0.17982528287E-01  0.55864471971E-01  0.51100000000E-03 0.  1.
         11    1    4    4    0    0 -0.58332941175E-01 -0.33675591752E-02  0.44538125346E-01  0.73470934466E-01  0.51100000000E-03 0. -1.
</event>
<event>
 8    1  0.1123191E+005  0.1043930E+01  0.7957747E-01            NaN
         13   -1    0    0    0    0  0.00000000000E+00  0.00000000000E+00  0.74505805969E-08  0.10566000000E+00  0.10566000000E+00 0.  1.
     999900   -1    0    0    0    0 -0.00000000000E+00 -0.00000000000E+00 -0.74505805969E-08  0.93827000000E+00  0.93827000000E+00 0. -1.
     999902    2    1    2    0    0 -0.37172928855E-02 -0.25928103442E-02 -0.24085676384E-01  0.10194216190E+01  0.10191269678E+01 0.  0.
     999903    2    3    3    0    0  0.21663892733E-02  0.10980906135E+00 -0.68835935573E-01  0.13112471810E+00  0.19813694033E-01 0.  0.
         14    1    1    2    0    0  0.37172928855E-02  0.25928103442E-02  0.24085676384E-01  0.24508380990E-01  0.00000000000E+00 0.  1.
     999901    1    3    3    0    0 -0.58836821588E-02 -0.11240187170E+00  0.44750259189E-01  0.88829690091E+00  0.88000000000E+00 0.  1.
        -11    1    4    4    0    0  0.10315668666E-01  0.72618348891E-01 -0.48787002685E-01  0.88092396764E-01  0.51100000000E-03 0. -1.
         11    1    4    4    0    0 -0.81492793926E-02  0.37190712464E-01 -0.20048932888E-01  0.43032321331E-01  0.51100000000E-03 0.  1.
</event>
<event>
 8    1  0.1123191E+005  0.1043930E+01  0.7957747E-01            NaN
         13   -1    0    0    0    0  0.00000000000E+00  0.00000000000E+00  0.74505805969E-08  0.10566000000E+00  0.10566000000E+00 0.  1.
     999900   -1    0    0    0    0 -0.00000000000E+00 -0.00000000000E+00 -0.74505805969E-08  0.93827000000E+00  0.93827000000E+00 0.  1.
     999902    2    1    2    0    0  0.11735505342E-01 -0.12927395687E-01  0.15906525847E-01  0.10203109990E+01  0.10200375863E+01 0.  0.
     999903    2    3    3    0    0 -0.26852707474E-01  0.19859077489E-01 -0.12213896417E+00  0.12811115572E+00  0.19470254042E-01 0.  0.
         14    1    1    2    0    0 -0.11735505342E-01  0.12927395687E-01 -0.15906525847E-01  0.23619001025E-01  0.00000000000E+00 0.  1.
     999901    1    3    3    0    0  0.38588212816E-01 -0.32786473176E-01  0.13804549002E+00  0.89219984326E+00  0.88000000000E+00 0. -1.
        -11    1    4    4    0    0 -0.48460087206E-02  0.15415494538E-01 -0.48442260988E-01  0.51068924435E-01  0.51100000000E-03 0. -1.
         11    1    4    4    0    0 -0.22006698753E-01  0.44435829510E-02 -0.73696703187E-01  0.77042231283E-01  0.51100000000E-03 0.  1.
</event>
<event>
 8    1  0.1123191E+005  0.1043930E+01  0.7957747E-01            NaN
         13   -1    0    0    0    0  0.00000000000E+00  0.00000000000E+00  0.74505805969E-08  0.10566000000E+00  0.10566000000E+00 0.  1.
     999900   -1    0    0    0    0 -0.00000000000E+00 -0.00000000000E+00 -0.74505805969E-08  0.93827000000E+00  0.93827000000E+00 0. -1.
     999902    2    1    2    0    0 -0.10855408122E-01  0.19890356797E-02  0.20878984077E-01  0.10203137318E+01  0.10200403831E+01 0.  0.
     999903    2    3    3    0    0  0.82933775667E-01 -0.94415613323E-01  0.27287019870E-01  0.13007144439E+00  0.19536632410E-01 0.  0.
         14    1    1    2    0    0  0.10855408122E-01 -0.19890356797E-02 -0.20878984077E-01  0.23616268217E-01  0.00000000000E+00 0. -1.
     999901    1    3    3    0    0 -0.93789183789E-01  0.96404649003E-01 -0.64080357932E-02  0.89024228740E+00  0.88000000000E+00 0. -1.
        -11    1    4    4    0    0  0.54712600993E-01 -0.60036541820E-01  0.81119813811E-02  0.81632839128E-01  0.51100000000E-03 0.  1.
         11    1    4    4    0    0  0.28221174673E-01 -0.34379071503E-01  0.19175038489E-01  0.48438605259E-01  0.51100000000E-03 0. -1.
</event>
<event>
 8    1  0.1123191E+005  0.1043930E+01  0.7957747E-01            NaN
         13   -1    0    0    0    0  0.00000000000E+00  0.00000000000E+00  0.74505805969E-08  0.10566000000E+00  0.10566000000E+00 0.  1.
     999900   -1    0    0    0    0 -0.00000000000E+00 -0.00000000000E+00 -0.74505805969E-08  0.93827000000E+00  0.93827000000E+00 0. -1.
     999902    2    1    2    0    0  0.58973031206E-02  0.14773596784E-01  0.17972898605E-01  0.10199286994E+01  0.10196462570E+01 0.  0.
     999903    2    3    3    0    0  0.12483001299E+00  0.26155866909E-01  0.26677278386E-01  0.13181254046E+00  0.19904952253E-01 0.  0.
         14    1    1    2    0    0 -0.58973031206E-02 -0.14773596784E-01 -0.17972898605E-01  0.24001300596E-01  0.00000000000E+00 0. -1.
     999901    1    3    3    0    0 -0.11893270987E+00 -0.11382270125E-01 -0.87043797810E-02  0.88811615894E+00  0.88000000000E+00 0.  1.
        -11    1    4    4    0    0  0.85517907304E-01  0.26904605594E-01  0.16024674235E-01  0.91072617054E-01  0.51100000000E-03 0. -1.
         11    1    4    4    0    0  0.39312105684E-01 -0.74873868476E-03  0.10652604151E-01  0.40739923406E-01  0.51100000000E-03 0.  1.
</event>
<event>
 8    1  0.1123191E+005  0.1043930E+01  0.7957747E-01            NaN
         13   -1    0    0    0    0  0.00000000000E+00  0.00000000000E+00  0.74505805969E-08  0.10566000000E+00  0.10566000000E+00 0. -1.
     999900   -1    0    0    0    0 -0.00000000000E+00 -0.00000000000E+00 -0.74505805969E-08  0.93827000000E+00  0.93827000000E+00 0.  1.
     999902    2    1    2    0    0  0.64028687667E-02 -0.13242310844E-01  0.17466208747E-01  0.10210952902E+01  0.10208399324E+01 0.  0.
     999903    2    3    3    0    0 -0.51183768691E-01 -0.91474255683E-01  0.80436566917E-01  0.13351333676E+00  0.19195107871E-01 0.  0.
         14    1    1    2    0    0 -0.64028687667E-02  0.13242310844E-01 -0.17466208747E-01  0.22834709828E-01  0.00000000000E+00 0.  1.
     999901    1    3    3    0    0  0.57586637458E-01  0.78231944839E-01 -0.62970358170E-01  0.88758195341E+00  0.88000000000E+00 0.  1.
        -11    1    4    4    0    0 -0.27712943685E-01 -0.30663881336E-01  0.29345625141E-01  0.50692284444E-01  0.51100000000E-03 0. -1.
         11    1    4    4    0    0 -0.23470825006E-01 -0.60810374347E-01  0.51090941776E-01  0.82821052320E-01  0.51100000000E-03 0.  1.
</event>
<event>
 8    1  0.1123191E+005  0.1043930E+01  0.7957747E-01            NaN
         13   -1    0    0    0    0  0.00000000000E+00  0.00000000000E+00  0.74505805969E-08  0.10566000000E+00  0.10566000000E+00 0.  1.
     999900   -1    0    0    0    0 -0.00000000000E+00 -0.00000000000E+00 -0.74505805969E-08  0.93827000000E+00  0.93827000000E+00 0.  1.
     999902    2    1    2    0    0 -0.47793344046E-03  0.21583934620E-01 -0.25931009388E-02  0.10221856024E+01  0.10219542979E+01 0.  0.
     999903    2    3    3    0    0  0.98137381881E-01 -0.54901631800E-01  0.63869422779E-01  0.13089872977E+00  0.20249429419E-01 0.  0.
         14    1    1    2    0    0  0.47793344046E-03 -0.21583934620E-01  0.25931009388E-02  0.21744397590E-01  0.00000000000E+00 0. -1.
     999901    1    3    3    0    0 -0.98615315321E-01  0.76485566420E-01 -0.66462523718E-01  0.89128687264E+00  0.88000000000E+00 0.  1.
        -11    1    4    4    0    0  0.81468345591E-01 -0.45386869923E-01  0.61118522795E-01  0.11150244053E+00  0.51100000000E-03 0. -1.
         11    1    4    4    0    0  0.16669036290E-01 -0.95147618768E-02  0.27508999843E-02  0.19396289236E-01  0.51100000000E-03 0.  1.
</event>
<event>
 8    1  0.1123191E+005  0.1043930E+01  0.7957747E-01            NaN
         13   -1    0    0    0    0  0.00000000000E+00  0.00000000000E+00  0.74505805969E-08  0.10566000000E+00  0.10566000000E+00 0.  1.
     999900   -1    0    0    0    0 -0.00000000000E+00 -0.00000000000E+00 -0.74505805969E-08  0.93827000000E+00  0.93827000000E+00 0. -1.
     999902    2    1    2    0    0  0.18411358032E-01  0.14244596391E-01  0.50359083784E-02  0.10201130522E+01  0.10198349828E+01 0.  0.
     999903    2    3    3    0    0  0.11148453665E+00 -0.54688927626E-01  0.40213999296E-01  0.13182709292E+00  0.18480691837E-01 0.  0.
         14    1    1    2    0    0 -0.18411358032E-01 -0.14244596391E-01 -0.50359083784E-02  0.23816947834E-01  0.00000000000E+00 0. -1.
     999901    1    3    3    0    0 -0.93073178621E-01  0.68933524017E-01 -0.35178090918E-01  0.88828595925E+00  0.88000000000E+00 0.  1.
        -11    1    4    4    0    0  0.91375358120E-01 -0.52239311614E-01  0.32764329125E-01  0.11023685470E+00  0.51100000000E-03 0. -1.
         11    1    4    4    0    0  0.20109178534E-01 -0.24496160122E-02  0.74496701713E-02  0.21590238224E-01  0.51100000000E-03 0.  1.
</event>
<event>
 8    1  0.1123191E+005  0.1043930E+01  0.7957747E-01            NaN
         13   -1    0    0    0    0  0.00000000000E+00  0.00000000000E+00  0.74505805969E-08  0.10566000000E+00  0.10566000000E+00 0.  1.
     999900   -1    0    0    0    0 -0.00000000000E+00 -0.00000000000E+00 -0.74505805969E-08  0.93827000000E+00  0.93827000000E+00 0.  1.
     999902    2    1    2    0    0 -0.16070418796E-01 -0.44500869248E-02  0.15789737893E-01  0.10209652998E+01  0.10207069932E+01 0.  0.
     999903    2    3    3    0    0  0.19998860401E-01  0.11838966870E+00  0.46105779999E-01  0.13118461844E+00  0.25837822925E-01 0.  0.
         14    1    1    2    0    0  0.16070418796E-01  0.44500869248E-02 -0.15789737893E-01  0.22964700230E-01  0.00000000000E+00 0. -1.
     999901    1    3    3    0    0 -0.36069279197E-01 -0.12283975562E+00 -0.30316042106E-01  0.88978068133E+00  0.88000000000E+00 0. -1.
        -11    1    4    4    0    0  0.18119896675E-01  0.89610875097E-01  0.23126205721E-01  0.94305472287E-01  0.51100000000E-03 0. -1.
         11    1    4    4    0    0  0.18789637258E-02  0.28778793601E-01  0.22979574278E-01  0.36879146151E-01  0.51100000000E-03 0.  1.
</event>
<event>
 8    1  0.1123191E+005  0.1043930E+01  0.7957747E-01            NaN
         13   -1    0    0    0    0  0.00000000000E+00  0.00000000000E+00  0.74505805969E-08  0.10566000000E+00  0.10566000000E+00 0.  1.
     999900   -1    0    0    0    0 -0.00000000000E+00 -0.00000000000E+00 -0.74505805969E-08  0.93827000000E+00  0.93827000000E+00 0.  1.
     999902    2    1    2    0    0  0.20024471337E-01 -0.80928761505E-02 -0.10533521767E-01  0.10199002439E+01  0.10196171234E+01 0.  0.
     999903    2    3    3    0    0  0.13366522386E-02  0.72270355179E-01 -0.10641331340E+00  0.13085557801E+00  0.23970776994E-01 0.  0.
         14    1    1    2    0    0 -0.20024471337E-01  0.80928761505E-02  0.10533521767E-01  0.24029756086E-01  0.00000000000E+00 0.  1.
     999901    1    3    3    0    0  0.18687819098E-01 -0.80363231329E-01  0.95879791635E-01  0.88904466591E+00  0.88000000000E+00 0.  1.
        -11    1    4    4    0    0 -0.21094144890E-02  0.26228096258E-01 -0.59352730395E-01  0.64925883815E-01  0.51100000000E-03 0.  1.
         11    1    4    4    0    0  0.34460667276E-02  0.46042258921E-01 -0.47060583007E-01  0.65929694193E-01  0.51100000000E-03 0. -1.
</event>
<event>
 8    1  0.1123191E+005  0.1043930E+01  0.7957747E-01            NaN
         13   -1    0    0    0    0  0.00000000000E+00  0.00000000000E+00  0.74505805969E-08  0.10566000000E+00  0.10566000000E+00 0.  1.
     999900   -1    0    0    0    0 -0.00000000000E+00 -0.00000000000E+00 -0.74505805969E-08  0.93827000000E+00  0.93827000000E+00 0. -1.
     999902    2    1    2    0    0  0.15008164420E-01  0.14364143242E-01 -0.11216122998E-01  0.10203212087E+01  0.10200480351E+01 0.  0.
     999903    2    3    3    0    0  0.82087390528E-01  0.74168286077E-01 -0.72300994474E-01  0.13363777051E+00  0.19807714729E-01 0.  0.
         14    1    1    2    0    0 -0.15008164420E-01 -0.14364143242E-01  0.11216122998E-01  0.23608791274E-01  0.00000000000E+00 0.  1.
     999901    1    3    3    0    0 -0.67079226109E-01 -0.59804142836E-01  0.61084871476E-01  0.88668343821E+00  0.88000000000E+00 0.  1.
        -11    1    4    4    0    0  0.53922611829E-01  0.41583754668E-01 -0.34534812993E-01  0.76352938046E-01  0.51100000000E-03 0. -1.
         11    1    4    4    0    0  0.28164778699E-01  0.32584531410E-01 -0.37766181480E-01  0.57284832469E-01  0.51100000000E-03 0.  1.
</event>
<event>
 8    1  0.1123191E+005  0.1043930E+01  0.7957747E-01            NaN
         13   -1    0    0    0    0  0.00000000000E+00  0.00000000000E+00  0.74505805969E-08  0.10566000000E+00  0.10566000000E+00 0. -1.
     999900   -1    0    0    0    0 -0.00000000000E+00 -0.00000000000E+00 -0.74505805969E-08  0.93827000000E+00  0.93827000000E+00 0.  1.
     999902    2    1    2    0    0 -0.17493230271E-01  0.63295266951E-02 -0.14538043651E-01  0.10203200291E+01  0.10200468279E+01 0.  0.
     999903    2    3    3    0    0  0.93287363990E-01 -0.34615936367E-01  0.77613070557E-01  0.12766068820E+00  0.19304591691E-01 0.  0.
         14    1    1    2    0    0  0.17493230271E-01 -0.63295266951E-02  0.14538043651E-01  0.23609970917E-01  0.00000000000E+00 0. -1.
     999901    1    3    3    0    0 -0.11078059426E+00  0.40945463062E-01 -0.92151114208E-01  0.89265934088E+00  0.88000000000E+00 0.  1.
        -11    1    4    4    0    0  0.52812508562E-01 -0.23139110091E-01  0.33437355591E-01  0.66655062421E-01  0.51100000000E-03 0.  1.
         11    1    4    4    0    0  0.40474855428E-01 -0.11476826276E-01  0.44175714966E-01  0.61005625782E-01  0.51100000000E-03 0. -1.
</event>
<event>
 8    1  0.1123191E+005  0.1043930E+01  0.7957747E-01            NaN
         13   -1    0    0    0    0  0.00000000000E+00  0.00000000000E+00  0.74505805969E-08  0.10566000000E+00  0.10566000000E+00 0. -1.
     999900   -1    0    0    0    0 -0.00000000000E+00 -0.00000000000E+00 -0.74505805969E-08  0.93827000000E+00  0.93827000000E+00 0.  1.
     999902    2    1    2    0    0  0.45832885950E-02 -0.14648586294E-01 -0.17455667500E-01  0.10206859052E+01  0.10204212018E+01 0.  0.
     999903    2    3    3    0    0  0.43685721792E-02 -0.17544635369E-01 -0.13061941521E+00  0.13343483195E+00  0.20408921931E-01 0.  0.
         14    1    1    2    0    0 -0.45832885950E-02  0.14648586294E-01  0.17455667500E-01  0.23244094790E-01  0.00000000000E+00 0. -1.
     999901    1    3    3    0    0  0.21471641586E-03  0.28960490751E-02  0.11316374771E+00  0.88725107326E+00  0.88000000000E+00 0. -1.
        -11    1    4    4    0    0 -0.79635661272E-02 -0.62318537963E-02 -0.38671574365E-01  0.39975069381E-01  0.51100000000E-03 0. -1.
         11    1    4    4    0    0  0.12332138306E-01 -0.11312781573E-01 -0.91947840847E-01  0.93459762569E-01  0.51100000000E-03 0.  1.
</event>
<event>
 8    1  0.1123191E+005  0.1043930E+01  0.7957747E-01            NaN
         13   -1    0    0    0    0  0.00000000000E+00  0.00000000000E+00  0.74505805969E-08  0.10566000000E+00  0.10566000000E+00 0. -1.
     999900   -1    0    0    0    0 -0.00000000000E+00 -0.00000000000E+00 -0.74505805969E-08  0.93827000000E+00  0.93827000000E+00 0. -1.
     999902    2    1    2    0    0  0.21434773069E-01  0.67055394681E-02  0.86725809589E-02  0.10198545474E+01  0.10195703362E+01 0.  0.
     999903    2    3    3    0    0 -0.76042553099E-01  0.57472004516E-01 -0.83490753365E-01  0.12824188305E+00  0.19742681805E-01 0.  0.
         14    1    1    2    0    0 -0.21434773069E-01 -0.67055394681E-02 -0.86725809589E-02  0.24075452573E-01  0.00000000000E+00 0.  1.
     999901    1    3    3    0    0  0.97477326169E-01 -0.50766465048E-01  0.92163334324E-01  0.89161266438E+00  0.88000000000E+00 0.  1.
        -11    1    4    4    0    0 -0.54466973347E-01  0.30234013981E-01 -0.58280637153E-01  0.85309088466E-01  0.51100000000E-03 0. -1.
         11    1    4    4    0    0 -0.21575579752E-01  0.27237990535E-01 -0.25210116212E-01  0.42932794580E-01  0.51100000000E-03 0.  1.
</event>
<event>
 8    1  0.1123191E+005  0.1043930E+01  0.7957747E-01            NaN
         13   -1    0    0    0    0  0.00000000000E+00  0.00000000000E+00  0.74505805969E-08  0.10566000000E+00  0.10566000000E+00 0. -1.
     999900   -1    0    0    0    0 -0.00000000000E+00 -0.00000000000E+00 -0.74505805969E-08  0.93827000000E+00  0.93827000000E+00 0. -1.
     999902    2    1    2    0    0  0.14249099728E-01 -0.16933880952E-01 -0.39096809604E-02  0.10214560424E+01  0.10212087777E+01 0.  0.
     999903    2    3    3    0    0  0.90642088313E-01  0.66570774019E-01  0.64144823923E-01  0.13160193535E+00  0.23597771618E-01 0.  0.
         14    1    1    2    0    0 -0.14249099728E-01  0.16933880952E-01  0.39096809604E-02  0.22473957648E-01  0.00000000000E+00 0.  1.
     999901    1    3    3    0    0 -0.76392988585E-01 -0.83504654971E-01 -0.68054504884E-01  0.88985410700E+00  0.88000000000E+00 0. -1.
        -11    1    4    4    0    0  0.11014959144E-01  0.11304494363E-01  0.80330425618E-03  0.15812252732E-01  0.51100000000E-03 0. -1.
         11    1    4    4    0    0  0.79627129169E-01  0.55266279657E-01  0.63341519667E-01  0.11578968262E+00  0.51100000000E-03 0.  1.
</event>
<event>
 8    1  0.1123191E+005  0.1043930E+01  0.7957747E-01            NaN
         13   -1    0    0    0    0  0.00000000000E+00  0.00000000000E+00  0.74505805969E-08  0.10566000000E+00  0.10566000000E+00 0.  1.
     999900   -1    0    0    0    0 -0.00000000000E+00 -0.00000000000E+00 -0.74505805969E-08  0.93827000000E+00  0.93827000000E+00 0. -1.
     999902    2    1    2    0    0  0.16949930834E-01 -0.72776881750E-02 -0.58055366166E-02  0.10245917179E+01  0.10244092049E+01 0.  0.
     999903    2    3    3    0    0  0.10369329426E+00  0.47111819279E-01  0.70337246832E-01  0.13538962999E+00  0.20278087349E-01 0.  0.
         14    1    1    2    0    0 -0.16949930834E-01  0.72776881750E-02  0.58055366166E-02  0.19338282133E-01  0.00000000000E+00 0.  1.
     999901    1    3    3    0    0 -0.86743363422E-01 -0.54389507454E-01 -0.76142783448E-01  0.88920208788E+00  0.88000000000E+00 0. -1.
        -11    1    4    4    0    0  0.16904260819E-01  0.19717611166E-02  0.16577524272E-01  0.23763781427E-01  0.51100000000E-03 0. -1.
         11    1    4    4    0    0  0.86789033438E-01  0.45140058163E-01  0.53759722560E-01  0.11162584856E+00  0.51100000000E-03 0.  1.
</event>
<event>
 8    1  0.1123191E+005  0.1043930E+01  0.7957747E-01            NaN
         13   -1    0    0    0    0  0.00000000000E+00  0.00000000000E+00  0.74505805969E-08  0.10566000000E+00  0.10566000000E+00 0.  1.
     999900   -1    0    0    0    0 -0.00000000000E+00 -0.00000000000E+00 -0.74505805969E-08  0.93827000000E+00  0.93827000000E+00 0.  1.
     999902    2    1    2    0    0  0.11004133581E-01 -0.19344847789E-01 -0.73426592944E-02  0.10204943703E+01  0.10202252355E+01 0.  0.
     999903    2    3    3    0    0 -0.65093071139E-01  0.83359099549E-01  0.69106333766E-01  0.12797919742E+00  0.20424059762E-01 0.  0.
         14    1    1    2    0    0 -0.11004133581E-01  0.19344847789E-01  0.73426592944E-02  0.23435629655E-01  0.00000000000E+00 0.  1.
     999901    1    3    3    0    0  0.76097204719E-01 -0.10270394734E+00 -0.76448993061E-01  0.89251517293E+00  0.88000000000E+00 0.  1.
        -11    1    4    4    0    0 -0.11319851606E-01  0.27257442383E-01  0.13734397358E-01  0.32557671868E-01  0.51100000000E-03 0.  1.
         11    1    4    4    0    0 -0.53773219533E-01  0.56101657166E-01  0.55371936409E-01  0.95421525550E-01  0.51100000000E-03 0. -1.
</event>
<event>
 8    1  0.1123191E+005  0.1043930E+01  0.7957747E-01            NaN
         13   -1    0    0    0    0  0.00000000000E+00  0.00000000000E+00  0.74505805969E-08  0.10566000000E+00  0.10566000000E+00 0.  1.
     999900   -1    0    0    0    0 -0.00000000000E+00 -0.00000000000E+00 -0.74505805969E-08  0.93827000000E+00  0.93827000000E+00 0. -1.
     999902    2    1    2    0    0  0.11958816229E-01  0.65645367591E-02  0.18323331875E-01  0.10210859435E+01  0.10208303743E+01 0.  0.
     999903    2    3    3    0    0  0.50256392384E-01 -0.93629302479E-01  0.76441847546E-01  0.13266978442E+00  0.21581575130E-01 0.  0.
         14    1    1    2    0    0 -0.11958816229E-01 -0.65645367591E-02 -0.18323331875E-01  0.22844056546E-01  0.00000000000E+00 0. -1.
     999901    1    3    3    0    0 -0.38297576155E-01  0.10019383924E+00 -0.58118515670E-01  0.88841615903E+00  0.88000000000E+00 0.  1.
        -11    1    4    4    0    0  0.19241311832E-01 -0.57001018087E-01  0.47168796349E-01  0.76449333640E-01  0.51100000000E-03 0. -1.
         11    1    4    4    0    0  0.31015080552E-01 -0.36628284392E-01  0.29273051197E-01  0.56220450785E-01  0.51100000000E-03 0.  1.
</event>
<event>
 8    1  0.1123191E+005  0.1043930E+01  0.7957747E-01            NaN
         13   -1    0    0    0    0  0.00000000000E+00  0.00000000000E+00  0.74505805969E-08  0.10566000000E+00  0.10566000000E+00 0. -1.
     999900   -1    0    0    0    0 -0.00000000000E+00 -0.00000000000E+00 -0.74505805969E-08  0.93827000000E+00  0.93827000000E+00 0.  1.
     999902    2    1    2    0    0  0.19531627951E-01 -0.44985107798E-02  0.12843908784E-01  0.10201248098E+01  0.10198470181E+01 0.  0.
     999903    2    3    3    0    0  0.11395544988E+00 -0.49808920539E-01 -0.40343097563E-01  0.13231979230E+00  0.20351628656E-01 0.  0.
         14    1    1    2    0    0 -0.19531627951E-01  0.44985107798E-02 -0.12843908784E-01  0.23805190243E-01  0.00000000000E+00 0.  1.
     999901    1    3    3    0    0 -0.94423821934E-01  0.45310409759E-01  0.53187006348E-01  0.88780501746E+00  0.88000000000E+00 0.  1.
        -11    1    4    4    0    0  0.76315077012E-02 -0.35749469138E-02  0.23550512379E-02  0.87651322045E-02  0.51100000000E-03 0.  1.
         11    1    4    4    0    0  0.10632394218E+00 -0.46233973625E-01 -0.42698148801E-01  0.12355466009E+00  0.51100000000E-03 0. -1.
</event>
<event>
 8    1  0.1123191E+005  0.1043930E+01  0.7957747E-01            NaN
         13   -1    0    0    0    0  0.00000000000E+00  0.00000000000E+00  0.74505805969E-08  0.10566000000E+00  0.10566000000E+00 0.  1.
     999900   -1    0    0    0    0 -0.00000000000E+00 -0.00000000000E+00 -0.74505805969E-08  0.93827000000E+00  0.93827000000E+00 0. -1.
     999902    2    1    2    0    0 -0.12929427129E-01 -0.17918136561E-01  0.90058963835E-02  0.10200692399E+01  0.10197901344E+01 0.  0.
     999903    2    3    3    0    0  0.90427069493E-01 -0.91669271109E-01 -0.93988332372E-02  0.13076584435E+00  0.20761931953E-01 0.  0.
         14    1    1    2    0    0  0.12929427129E-01  0.17918136561E-01 -0.90058963835E-02  0.23860760117E-01  0.00000000000E+00 0. -1.
     999901    1    3    3    0    0 -0.10335649662E+00  0.73751134548E-01  0.18404729621E-01  0.88930339554E+00  0.88000000000E+00 0. -1.
        -11    1    4    4    0    0  0.49765675850E-01 -0.36053576180E-01 -0.66595938789E-02  0.61814999472E-01  0.51100000000E-03 0.  1.
         11    1    4    4    0    0  0.40661393643E-01 -0.55615694929E-01 -0.27392393583E-02  0.68950844873E-01  0.51100000000E-03 0. -1.
</event>
<event>
 8    1  0.1123191E+005  0.1043930E+01  0.7957747E-01            NaN
         13   -1    0    0    0    0  0.00000000000E+00  0.00000000000E+00  0.74505805969E-08  0.10566000000E+00  0.10566000000E+00 0. -1.
     999900   -1    0    0    0    0 -0.00000000000E+00 -0.00000000000E+00 -0.74505805969E-08  0.93827000000E+00  0.93827000000E+00 0. -1.
     999902    2    1    2    0    0 -0.15576069731E-01  0.10395255493E-02 -0.15445033765E-01  0.10219699538E+01  0.10217339883E+01 0.  0.
     999903    2    3    3    0    0  0.15523569272E-01 -0.79712194585E-01 -0.10379403473E+00  0.13332290697E+00  0.20168805332E-01 0.  0.
         14    1    1    2    0    0  0.15576069731E-01 -0.10395255493E-02  0.15445033765E-01  0.21960046212E-01  0.00000000000E+00 0. -1.
     999901    1    3    3    0    0 -0.31099639003E-01  0.80751720135E-01  0.88349000963E-01  0.88864704682E+00  0.88000000000E+00 0.  1.
        -11    1    4    4    0    0 -0.47703404877E-02 -0.14931441856E-01 -0.22187624466E-01  0.27170864998E-01  0.51100000000E-03 0.  1.
         11    1    4    4    0    0  0.20293909760E-01 -0.64780752729E-01 -0.81606410262E-01  0.10615204197E+00  0.51100000000E-03 0. -1.
</event>
<event>
 8    1  0.1123191E+005  0.1043930E+01  0.7957747E-01            NaN
         13   -1    0    0    0    0  0.00000000000E+00  0.00000000000E+00  0.74505805969E-08  0.10566000000E+00  0.10566000000E+00 0. -1.
     999900   -1    0    0    0    0 -0.00000000000E+00 -0.00000000000E+00 -0.74505805969E-08  0.93827000000E+00  0.93827000000E+00 0. -1.
     999902    2    1    2    0    0 -0.15317935952E-01  0.97637918531E-02  0.13031518822E-01  0.10215739879E+01  0.10213293404E+01 0.  0.
     999903    2    3    3    0    0 -0.10235906117E-01 -0.57718016250E-01 -0.11409838138E+00  0.12986684262E+00  0.20268522535E-01 0.  0.
         14    1    1    2    0    0  0.15317935952E-01 -0.97637918531E-02 -0.13031518822E-01  0.22356012077E-01  0.00000000000E+00 0.  1.
     999901    1    3    3    0    0 -0.50820298357E-02  0.67481808103E-01  0.12712990020E+00  0.89170714530E+00  0.88000000000E+00 0.  1.
        -11    1    4    4    0    0  0.22917414975E-02 -0.28349094369E-01 -0.68755920394E-01  0.74408070401E-01  0.51100000000E-03 0. -1.
         11    1    4    4    0    0 -0.12527647614E-01 -0.29368921880E-01 -0.45342460986E-01  0.55458772222E-01  0.51100000000E-03 0.  1.
</event>
<event>
 8    1  0.1123191E+005  0.1043930E+01  0.7957747E-01            NaN
         13   -1    0    0    0    0  0.00000000000E+00  0.00000000000E+00  0.74505805969E-08  0.10566000000E+00  0.10566000000E+00 0.  1.
     999900   -1    0    0    0    0 -0.00000000000E+00 -0.00000000000E+00 -0.74505805969E-08  0.93827000000E+00  0.93827000000E+00 0.  1.
     999902    2    1    2    0    0  0.12568463026E-01 -0.20212672966E-01 -0.45546216191E-03  0.10201239954E+01  0.10198461845E+01 0.  0.
     999903    2    3    3    0    0  0.10438946722E+00 -0.67180173544E-01  0.42664251485E-01  0.13305220986E+00  0.21732823344E-01 0.  0.
         14    1    1    2    0    0 -0.12568463026E-01  0.20212672966E-01  0.45546216191E-03  0.23806004643E-01  0.00000000000E+00 0. -1.
     999901    1    3    3    0    0 -0.91821004190E-01  0.46967500578E-01 -0.43119713647E-01  0.88707178550E+00  0.88000000000E+00 0.  1.
        -11    1    4    4    0    0  0.80155605397E-01 -0.45948963948E-01  0.40124077394E-01  0.10072949455E+00  0.51100000000E-03 0. -1.
         11    1    4    4    0    0  0.24233861820E-01 -0.21231209596E-01  0.25401740911E-02  0.32322715310E-01  0.51100000000E-03 0.  1.
</event>
<event>
 8    1  0.1123191E+005  0.1043930E+01  0.7957747E-01            NaN
         13   -1    0    0    0    0  0.00000000000E+00  0.00000000000E+00  0.74505805969E-08  0.10566000000E+00  0.10566000000E+00 0.  1.
     999900   -1    0    0    0    0 -0.00000000000E+00 -0.00000000000E+00 -0.74505805969E-08  0.93827000000E+00  0.93827000000E+00 0.  1.
     999902    2    1    2    0    0  0.19737581506E-01 -0.99964732228E-02  0.61551653241E-02  0.10209650776E+01  0.10207067659E+01 0.  0.
     999903    2    3    3    0    0  0.28565864441E-01  0.98148957528E-01  0.79911276889E-01  0.13123852592E+00  0.19710708685E-01 0.  0.
         14    1    1    2    0    0 -0.19737581506E-01  0.99964732228E-02 -0.61551653241E-02  0.22964922398E-01  0.00000000000E+00 0. -1.
     999901    1    3    3    0    0 -0.88282829350E-02 -0.10814543075E+00 -0.73756111564E-01  0.88972655168E+00  0.88000000000E+00 0.  1.
        -11    1    4    4    0    0  0.29360448678E-03  0.16044011406E-01  0.57847077063E-02  0.17065182972E-01  0.51100000000E-03 0.  1.
         11    1    4    4    0    0  0.28272259954E-01  0.82104946122E-01  0.74126569182E-01  0.11417334295E+00  0.51100000000E-03 0. -1.
</event>
<event>
 8    1  0.1123191E+005  0.1043930E+01  0.7957747E-01            NaN
         13   -1    0    0    0    0  0.00000000000E+00  0.00000000000E+00  0.74505805969E-08  0.10566000000E+00  0.10566000000E+00 0. -1.
     999900   -1    0    0    0    0 -0.00000000000E+00 -0.00000000000E+00 -0.74505805969E-08  0.93827000000E+00  0.93827000000E+00 0. -1.
     999902    2    1    2    0    0 -0.23458405509E-01 -0.97143619240E-03  0.38716450487E-02  0.10201344098E+01  0.10198568448E+01 0.  0.
     999903    2    3    3    0    0 -0.33811685957E-01 -0.11627518765E+00  0.46696083175E-01  0.13151971377E+00  0.21301679650E-01 0.  0.
         14    1    1    2    0    0  0.23458405509E-01  0.97143619240E-03 -0.38716450487E-02  0.23795590194E-01  0.00000000000E+00 0. -1.
     999901    1    3    3    0    0  0.10353280448E-01  0.11530375145E+00 -0.42824438126E-01  0.88861469604E+00  0.88000000000E+00 0. -1.
        -11    1    4    4    0    0 -0.20623530053E-01 -0.95328591587E-01  0.31619197760E-01  0.10253245903E+00  0.51100000000E-03 0. -1.
         11    1    4    4    0    0 -0.13188155904E-01 -0.20946596060E-01  0.15076885415E-01  0.28987254741E-01  0.51100000000E-03 0.  1.
</event>
<event>
 8    1  0.1123191E+005  0.1043930E+01  0.7957747E-01            NaN
         13   -1    0    0    0    0  0.00000000000E+00  0.00000000000E+00  0.74505805969E-08  0.10566000000E+00  0.10566000000E+00 0. -1.
     999900   -1    0    0    0    0 -0.00000000000E+00 -0.00000000000E+00 -0.74505805969E-08  0.93827000000E+00  0.93827000000E+00 0. -1.
     999902    2    1    2    0    0 -0.14672279546E-01  0.16215785236E-01  0.10093837762E-01  0.10198444641E+01  0.10195600119E+01 0.  0.
     999903    2    3    3    0    0  0.11154124849E+00  0.42607600661E-01 -0.42404042997E-01  0.12889979128E+00  0.23668451167E-01 0.  0.
         14    1    1    2    0    0  0.14672279546E-01 -0.16215785236E-01 -0.10093837762E-01  0.24085535880E-01  0.00000000000E+00 0.  1.
     999901    1    3    3    0    0 -0.12621352803E+00 -0.26391815425E-01  0.52497880759E-01  0.89094467284E+00  0.88000000000E+00 0.  1.
        -11    1    4    4    0    0  0.78126022406E-01  0.19718205741E-01 -0.21905481431E-01  0.83502061366E-01  0.51100000000E-03 0. -1.
         11    1    4    4    0    0  0.33415226083E-01  0.22889394920E-01 -0.20498561565E-01  0.45397729912E-01  0.51100000000E-03 0.  1.
</event>
<event>
 8    1  0.1123191E+005  0.1043930E+01  0.7957747E-01            NaN
         13   -1    0    0    0    0  0.00000000000E+00  0.00000000000E+00  0.74505805969E-08  0.10566000000E+00  0.10566000000E+00 0.  1.
     999900   -1    0    0    0    0 -0.00000000000E+00 -0.00000000000E+00 -0.74505805969E-08  0.93827000000E+00  0.93827000000E+00 0. -1.
     999902    2    1    2    0    0 -0.16068191911E-01  0.83386313591E-02 -0.15548687196E-01  0.10200661940E+01  0.10197870164E+01 0.  0.
     999903    2    3    3    0    0  0.35816616392E-01 -0.95491047640E-01  0.74542650848E-01  0.12788399019E+00  0.19908238539E-01 0.  0.
         14    1    1    2    0    0  0.16068191911E-01 -0.83386313591E-02  0.15548687196E-01  0.23863806020E-01  0.00000000000E+00 0.  1.
     999901    1    3    3    0    0 -0.51884808303E-01  0.10382967900E+00 -0.90091338043E-01  0.89218220379E+00  0.88000000000E+00 0.  1.
        -11    1    4    4    0    0  0.32160546971E-01 -0.59194033020E-01  0.50406663409E-01  0.84138737593E-01  0.51100000000E-03 0. -1.
         11    1    4    4    0    0  0.36560694204E-02 -0.36297014620E-01  0.24135987439E-01  0.43745252595E-01  0.51100000000E-03 0.  1.
</event>
<event>
 8    1  0.1123191E+005  0.1043930E+01  0.7957747E-01            NaN
         13   -1    0    0    0    0  0.00000000000E+00  0.00000000000E+00  0.74505805969E-08  0.10566000000E+00  0.10566000000E+00 0.  1.
     999900   -1    0    0    0    0 -0.00000000000E+00 -0.00000000000E+00 -0.74505805969E-08  0.93827000000E+00  0.93827000000E+00 0.  1.
     999902    2    1    2    0    0  0.35348941326E-02 -0.23258441206E-01 -0.37406718185E-02  0.10201089339E+01  0.10198307673E+01 0.  0.
     999903    2    3    3    0    0 -0.53410117531E-01  0.87976827768E-01  0.73206672925E-01  0.12795596873E+00  0.20517068375E-01 0.  0.
         14    1    1    2    0    0 -0.35348941326E-02  0.23258441206E-01  0.37406718185E-02  0.23821066087E-01  0.00000000000E+00 0.  1.
     999901    1    3    3    0    0  0.56945011664E-01 -0.11123526897E+00 -0.76947344744E-01  0.89215296518E+00  0.88000000000E+00 0.  1.
        -11    1    4    4    0    0 -0.23462233378E-01  0.58004867051E-01  0.43734072481E-01  0.76341150198E-01  0.51100000000E-03 0. -1.
         11    1    4    4    0    0 -0.29947884153E-01  0.29971960717E-01  0.29472600444E-01  0.51614818535E-01  0.51100000000E-03 0.  1.
</event>
<event>
 8    1  0.1123191E+005  0.1043930E+01  0.7957747E-01            NaN
         13   -1    0    0    0    0  0.00000000000E+00  0.00000000000E+00  0.74505805969E-08  0.10566000000E+00  0.10566000000E+00 0. -1.
     999900   -1    0    0    0    0 -0.00000000000E+00 -0.00000000000E+00 -0.74505805969E-08  0.93827000000E+00  0.93827000000E+00 0. -1.
     999902    2    1    2    0    0 -0.51646773381E-04  0.53069686925E-02 -0.24143575313E-01  0.10192099916E+01  0.10189101669E+01 0.  0.
     999903    2    3    3    0    0  0.85817314374E-01 -0.13209837943E-01  0.91046467074E-01  0.12736634140E+00  0.19839720025E-01 0.  0.
         14    1    1    2    0    0  0.51646773381E-04 -0.53069686925E-02  0.24143575313E-01  0.24720008353E-01  0.00000000000E+00 0. -1.
     999901    1    3    3    0    0 -0.85868961147E-01  0.18516806636E-01 -0.11519004239E+00  0.89184365024E+00  0.88000000000E+00 0. -1.
        -11    1    4    4    0    0  0.19365073949E-01  0.52806923653E-02  0.19797325641E-01  0.28197287538E-01  0.51100000000E-03 0. -1.
         11    1    4    4    0    0  0.66452240424E-01 -0.18490530309E-01  0.71249141433E-01  0.99169053865E-01  0.51100000000E-03 0.  1.
</event>
<event>
 8    1  0.1123191E+005  0.1043930E+01  0.7957747E-01            NaN
         13   -1    0    0    0    0  0.00000000000E+00  0.00000000000E+00  0.74505805969E-08  0.10566000000E+00  0.10566000000E+00 0.  1.
     999900   -1    0    0    0    0 -0.00000000000E+00 -0.00000000000E+00 -0.74505805969E-08  0.93827000000E+00  0.93827000000E+00 0.  1.
     999902    2    1    2    0    0  0.11842338126E-02 -0.86725862489E-02 -0.21899105687E-01  0.10203463830E+01  0.10200737984E+01 0.  0.
     999903    2    3    3    0    0 -0.91571070044E-01  0.65993452175E-03  0.87875644317E-01  0.12863951518E+00  0.20983317643E-01 0.  0.
         14    1    1    2    0    0 -0.11842338126E-02  0.86725862489E-02  0.21899105687E-01  0.23583617022E-01  0.00000000000E+00 0.  1.
     999901    1    3    3    0    0  0.92755303857E-01 -0.93325207706E-02 -0.10977475000E+00  0.89170686780E+00  0.88000000000E+00 0.  1.
        -11    1    4    4    0    0 -0.20606011379E-01  0.88926740544E-02  0.19157298114E-01  0.29511871320E-01  0.51100000000E-03 0. -1.
         11    1    4    4    0    0 -0.70965058665E-01 -0.82327395327E-02  0.68718346202E-01  0.99127643860E-01  0.51100000000E-03 0.  1.
</event>
<event>
 8    1  0.1123191E+005  0.1043930E+01  0.7957747E-01            NaN
         13   -1    0    0    0    0  0.00000000000E+00  0.00000000000E+00  0.74505805969E-08  0.10566000000E+00  0.10566000000E+00 0.  1.
     999900   -1    0    0    0    0 -0.00000000000E+00 -0.00000000000E+00 -0.74505805969E-08  0.93827000000E+00  0.93827000000E+00 0. -1.
     999902    2    1    2    0    0  0.18147215113E-01 -0.13914474393E-01  0.89973755279E-02  0.10193558921E+01  0.10190596390E+01 0.  0.
     999903    2    3    3    0    0  0.11293455374E+00  0.58145834070E-01 -0.23190665870E-01  0.13075395778E+00  0.20582493615E-01 0.  0.
         14    1    1    2    0    0 -0.18147215113E-01  0.13914474393E-01 -0.89973755279E-02  0.24574107926E-01  0.00000000000E+00 0. -1.
     999901    1    3    3    0    0 -0.94787338629E-01 -0.72060308463E-01  0.32188041398E-01  0.88860193429E+00  0.88000000000E+00 0.  1.
        -11    1    4    4    0    0  0.10824135971E-01  0.56931501111E-02 -0.87651046687E-02  0.15055300015E-01  0.51100000000E-03 0.  1.
         11    1    4    4    0    0  0.10211041777E+00  0.52452683958E-01 -0.14425561202E-01  0.11569865777E+00  0.51100000000E-03 0. -1.
</event>
<event>
 8    1  0.1123191E+005  0.1043930E+01  0.7957747E-01            NaN
         13   -1    0    0    0    0  0.00000000000E+00  0.00000000000E+00  0.74505805969E-08  0.10566000000E+00  0.10566000000E+00 0.  1.
     999900   -1    0    0    0    0 -0.00000000000E+00 -0.00000000000E+00 -0.74505805969E-08  0.93827000000E+00  0.93827000000E+00 0.  1.
     999902    2    1    2    0    0 -0.68529809406E-02  0.18341771313E-01  0.13634054416E-01  0.10200705917E+01  0.10197915183E+01 0.  0.
     999903    2    3    3    0    0 -0.70535198901E-02 -0.10996415263E+00  0.64475526797E-01  0.12931400005E+00  0.20570611232E-01 0.  0.
         14    1    1    2    0    0  0.68529809406E-02 -0.18341771313E-01 -0.13634054416E-01  0.23859408259E-01  0.00000000000E+00 0. -1.
     999901    1    3    3    0    0  0.20053894950E-03  0.12830592394E+00 -0.50841472381E-01  0.89075659169E+00  0.88000000000E+00 0.  1.
        -11    1    4    4    0    0 -0.20774019123E-02 -0.50016940496E-01  0.41114061480E-01  0.64781456511E-01  0.51100000000E-03 0. -1.
         11    1    4    4    0    0 -0.49761179778E-02 -0.59947212131E-01  0.23361465317E-01  0.64532543535E-01  0.51100000000E-03 0.  1.
</event>
<event>
 8    1  0.1123191E+005  0.1043930E+01  0.7957747E-01            NaN
         13   -1    0    0    0    0  0.00000000000E+00  0.00000000000E+00  0.74505805969E-08  0.10566000000E+00  0.10566000000E+00 0. -1.
     999900   -1    0    0    0    0 -0.00000000000E+00 -0.00000000000E+00 -0.74505805969E-08  0.93827000000E+00  0.93827000000E+00 0.  1.
     999902    2    1    2    0    0 -0.50935107355E-02 -0.24040497669E-01  0.33928144601E-03  0.10193534972E+01  0.10190571857E+01 0.  0.
     999903    2    3    3    0    0  0.39470147196E-01 -0.10212974003E+00  0.70723198224E-01  0.13197660704E+00  0.20680370431E-01 0.  0.
         14    1    1    2    0    0  0.50935107355E-02  0.24040497669E-01 -0.33928144601E-03  0.24576502837E-01  0.00000000000E+00 0. -1.
     999901    1    3    3    0    0 -0.44563657932E-01  0.78089242360E-01 -0.70383916778E-01  0.88737689012E+00  0.88000000000E+00 0. -1.
        -11    1    4    4    0    0  0.31466464942E-01 -0.77039643031E-01  0.63453596116E-01  0.10465115860E+00  0.51100000000E-03 0.  1.
         11    1    4    4    0    0  0.80036822538E-02 -0.25090096998E-01  0.72696021079E-02  0.27325448446E-01  0.51100000000E-03 0. -1.
</event>
<event>
 8    1  0.1123191E+005  0.1043930E+01  0.7957747E-01            NaN
         13   -1    0    0    0    0  0.00000000000E+00  0.00000000000E+00  0.74505805969E-08  0.10566000000E+00  0.10566000000E+00 0.  1.
     999900   -1    0    0    0    0 -0.00000000000E+00 -0.00000000000E+00 -0.74505805969E-08  0.93827000000E+00  0.93827000000E+00 0. -1.
     999902    2    1    2    0    0  0.22321504516E-01  0.15520500626E-02  0.69676126279E-02  0.10204948544E+01  0.10202257308E+01 0.  0.
     999903    2    3    3    0    0 -0.54776910014E-01 -0.23606472899E-01 -0.11238055074E+00  0.12874315079E+00  0.19688454918E-01 0.  0.
         14    1    1    2    0    0 -0.22321504516E-01 -0.15520500626E-02 -0.69676126279E-02  0.23435145593E-01  0.00000000000E+00 0.  1.
     999901    1    3    3    0    0  0.77098414530E-01  0.25158522961E-01  0.11934816337E+00  0.89175170362E+00  0.88000000000E+00 0.  1.
        -11    1    4    4    0    0 -0.26891460104E-01 -0.69077631646E-02 -0.70178889862E-01  0.75473210623E-01  0.51100000000E-03 0.  1.
         11    1    4    4    0    0 -0.27885449910E-01 -0.16698709734E-01 -0.42201660881E-01  0.53269940168E-01  0.51100000000E-03 0. -1.
</event>
<event>
 8    1  0.1123191E+005  0.1043930E+01  0.7957747E-01            NaN
         13   -1    0    0    0    0  0.00000000000E+00  0.00000000000E+00  0.74505805969E-08  0.10566000000E+00  0.10566000000E+00 0.  1.
     999900   -1    0    0    0    0 -0.00000000000E+00 -0.00000000000E+00 -0.74505805969E-08  0.93827000000E+00  0.93827000000E+00 0. -1.
     999902    2    1    2    0    0  0.17368849601E-01 -0.42495967515E-02 -0.14772039577E-01  0.10207362689E+01  0.10204727245E+01 0.  0.
     999903    2    3    3    0    0  0.38032874219E-01  0.10301821468E+00  0.67016852861E-01  0.13021798823E+00  0.20154746690E-01 0.  0.
         14    1    1    2    0    0 -0.17368849601E-01  0.42495967515E-02  0.14772039577E-01  0.23193731098E-01  0.00000000000E+00 0.  1.
     999901    1    3    3    0    0 -0.20664024619E-01 -0.10726781143E+00 -0.81788892438E-01  0.89051828067E+00  0.88000000000E+00 0. -1.
        -11    1    4    4    0    0  0.32134477235E-01  0.58919864591E-01  0.38593987950E-01  0.77420488873E-01  0.51100000000E-03 0. -1.
         11    1    4    4    0    0  0.58983969849E-02  0.44098350090E-01  0.28422864912E-01  0.52797499358E-01  0.51100000000E-03 0.  1.
</event>
<event>
 8    1  0.1123191E+005  0.1043930E+01  0.7957747E-01            NaN
         13   -1    0    0    0    0  0.00000000000E+00  0.00000000000E+00  0.74505805969E-08  0.10566000000E+00  0.10566000000E+00 0.  1.
     999900   -1    0    0    0    0 -0.00000000000E+00 -0.00000000000E+00 -0.74505805969E-08  0.93827000000E+00  0.93827000000E+00 0.  1.
     999902    2    1    2    0    0  0.38398635161E-02  0.96357976711E-02 -0.21754118101E-01  0.10198294854E+01  0.10195446751E+01 0.  0.
     999903    2    3    3    0    0  0.73186577450E-01  0.29124772079E-01  0.99600383450E-01  0.12858557834E+00  0.20235787781E-01 0.  0.
         14    1    1    2    0    0 -0.38398635161E-02 -0.96357976711E-02  0.21754118101E-01  0.24100514578E-01  0.00000000000E+00 0.  1.
     999901    1    3    3    0    0 -0.69346713934E-01 -0.19488974408E-01 -0.12135450155E+00  0.89124390708E+00  0.88000000000E+00 0.  1.
        -11    1    4    4    0    0  0.63333217431E-01  0.29536392407E-01  0.77359397564E-01  0.10425081496E+00  0.51100000000E-03 0. -1.
         11    1    4    4    0    0  0.98533600195E-02 -0.41162032733E-03  0.22240985886E-01  0.24334763388E-01  0.51100000000E-03 0.  1.
</event>
<event>
 8    1  0.1123191E+005  0.1043930E+01  0.7957747E-01            NaN
         13   -1    0    0    0    0  0.00000000000E+00  0.00000000000E+00  0.74505805969E-08  0.10566000000E+00  0.10566000000E+00 0.  1.
     999900   -1    0    0    0    0 -0.00000000000E+00 -0.00000000000E+00 -0.74505805969E-08  0.93827000000E+00  0.93827000000E+00 0.  1.
     999902    2    1    2    0    0  0.10974451474E-01 -0.71000362590E-02  0.19821084906E-01  0.10201871167E+01  0.10199107944E+01 0.  0.
     999903    2    3    3    0    0  0.59508617111E-01  0.58505309001E-01 -0.95738501876E-01  0.12888826410E+00  0.21958533437E-01 0.  0.
         14    1    1    2    0    0 -0.10974451474E-01  0.71000362590E-02 -0.19821084906E-01  0.23742883289E-01  0.00000000000E+00 0. -1.
     999901    1    3    3    0    0 -0.48534165637E-01 -0.65605345260E-01  0.11555958678E+00  0.89129885261E+00  0.88000000000E+00 0. -1.
        -11    1    4    4    0    0  0.23015958453E-01  0.35909287422E-01 -0.39460551741E-01  0.58108583973E-01  0.51100000000E-03 0. -1.
         11    1    4    4    0    0  0.36492658658E-01  0.22596021579E-01 -0.56277950135E-01  0.70779680131E-01  0.51100000000E-03 0.  1.
</event>
<event>
 8    1  0.1123191E+005  0.1043930E+01  0.7957747E-01            NaN
         13   -1    0    0    0    0  0.00000000000E+00  0.00000000000E+00  0.74505805969E-08  0.10566000000E+00  0.10566000000E+00 0. -1.
     999900   -1    0    0    0    0 -0.00000000000E+00 -0.00000000000E+00 -0.74505805969E-08  0.93827000000E+00  0.93827000000E+00 0.  1.
     999902    2    1    2    0    0  0.60888956207E-02 -0.22448538370E-01 -0.38719718218E-02  0.10203502695E+01  0.10200777758E+01 0.  0.
     999903    2    3    3    0    0 -0.13083196609E-01 -0.61346392484E-02  0.12770950406E+00  0.13021129314E+00  0.20891615589E-01 0.  0.
         14    1    1    2    0    0 -0.60888956207E-02  0.22448538370E-01  0.38719718218E-02  0.23579730504E-01  0.00000000000E+00 0.  1.
     999901    1    3    3    0    0  0.19172092230E-01 -0.16313899122E-01 -0.13158147589E+00  0.89013897635E+00  0.88000000000E+00 0.  1.
        -11    1    4    4    0    0 -0.38312770672E-02 -0.65692033848E-02  0.12581199905E-01  0.14709888821E-01  0.51100000000E-03 0. -1.
         11    1    4    4    0    0 -0.92519195422E-02  0.43456413641E-03  0.11512830416E+00  0.11550140432E+00  0.51100000000E-03 0.  1.
</event>
<event>
 8    1  0.1123191E+005  0.1043930E+01  0.7957747E-01            NaN
         13   -1    0    0    0    0  0.00000000000E+00  0.00000000000E+00  0.74505805969E-08  0.10566000000E+00  0.10566000000E+00 0.  1.
     999900   -1    0    0    0    0 -0.00000000000E+00 -0.00000000000E+00 -0.74505805969E-08  0.93827000000E+00  0.93827000000E+00 0.  1.
     999902    2    1    2    0    0 -0.21955834189E-01 -0.51736464349E-02 -0.19987958877E-02  0.10212844605E+01  0.10210333633E+01 0.  0.
     999903    2    3    3    0    0  0.31192067445E-01 -0.12516410729E+00  0.13148506269E-01  0.13142388106E+00  0.21455872637E-01 0.  0.
         14    1    1    2    0    0  0.21955834189E-01  0.51736464349E-02  0.19987958877E-02  0.22645539458E-01  0.00000000000E+00 0. -1.
     999901    1    3    3    0    0 -0.53147901634E-01  0.11999046086E+00 -0.15147302157E-01  0.88986057948E+00  0.88000000000E+00 0.  1.
        -11    1    4    4    0    0  0.11500227090E-01 -0.74337430490E-01 -0.52269374764E-03  0.75225282484E-01  0.51100000000E-03 0. -1.
         11    1    4    4    0    0  0.19691840355E-01 -0.50826676804E-01  0.13671200017E-01  0.56198598581E-01  0.51100000000E-03 0.  1.
</event>
<event>
 8    1  0.1123191E+005  0.1043930E+01  0.7957747E-01            NaN
         13   -1    0    0    0    0  0.00000000000E+00  0.00000000000E+00  0.74505805969E-08  0.10566000000E+00  0.10566000000E+00 0. -1.
     999900   -1    0    0    0    0 -0.00000000000E+00 -0.00000000000E+00 -0.74505805969E-08  0.93827000000E+00  0.93827000000E+00 0. -1.
     999902    2    1    2    0    0 -0.19996435344E-01  0.82153191712E-02  0.21965340761E-02  0.10222004428E+01  0.10219694572E+01 0.  0.
     999903    2    3    3    0    0 -0.77251595046E-01 -0.96906493515E-01  0.44606425396E-01  0.13308439427E+00  0.19053750005E-01 0.  0.
         14    1    1    2    0    0  0.19996435344E-01 -0.82153191712E-02 -0.21965340761E-02  0.21729557232E-01  0.00000000000E+00 0.  1.
     999901    1    3    3    0    0  0.57255159702E-01  0.10512181269E+00 -0.42409891320E-01  0.88911604850E+00  0.88000000000E+00 0. -1.
        -11    1    4    4    0    0 -0.30583366167E-01 -0.24959626579E-01  0.11069270407E-01  0.41001403798E-01  0.51100000000E-03 0.  1.
         11    1    4    4    0    0 -0.46668228879E-01 -0.71946866936E-01  0.33537154989E-01  0.92082990472E-01  0.51100000000E-03 0. -1.
</event>
<event>
 8    1  0.1123191E+005  0.1043930E+01  0.7957747E-01            NaN
         13   -1    0    0    0    0  0.00000000000E+00  0.00000000000E+00  0.74505805969E-08  0.10566000000E+00  0.10566000000E+00 0. -1.
     999900   -1    0    0    0    0 -0.00000000000E+00 -0.00000000000E+00 -0.74505805969E-08  0.93827000000E+00  0.93827000000E+00 0. -1.
     999902    2    1    2    0    0 -0.26358849048E-01 -0.82364897495E-02  0.98753200006E-02  0.10146016753E+01  0.10141777008E+01 0.  0.
     999903    2    3    3    0    0  0.66705689852E-01  0.60974930625E-01  0.82068384465E-01  0.12406079037E+00  0.22096804200E-01 0.  0.
         14    1    1    2    0    0  0.26358849048E-01  0.82364897495E-02 -0.98753200006E-02  0.29328324733E-01  0.00000000000E+00 0. -1.
     999901    1    3    3    0    0 -0.93064538900E-01 -0.69211420375E-01 -0.72193064465E-01  0.89054088489E+00  0.88000000000E+00 0. -1.
        -11    1    4    4    0    0  0.48230848534E-02  0.13193063963E-01  0.71260791032E-02  0.15759479960E-01  0.51100000000E-03 0. -1.
         11    1    4    4    0    0  0.61882604999E-01  0.47781866662E-01  0.74942305362E-01  0.10830131041E+00  0.51100000000E-03 0.  1.
</event>
<event>
 8    1  0.1123191E+005  0.1043930E+01  0.7957747E-01            NaN
         13   -1    0    0    0    0  0.00000000000E+00  0.00000000000E+00  0.74505805969E-08  0.10566000000E+00  0.10566000000E+00 0.  1.
     999900   -1    0    0    0    0 -0.00000000000E+00 -0.00000000000E+00 -0.74505805969E-08  0.93827000000E+00  0.93827000000E+00 0.  1.
     999902    2    1    2    0    0 -0.13255472519E-01  0.99579207017E-02  0.17537999016E-01  0.10197960168E+01  0.10195104054E+01 0.  0.
     999903    2    3    3    0    0 -0.45335633823E-01 -0.88085142304E-01 -0.79570747445E-01  0.12846460390E+00  0.18903402274E-01 0.  0.
         14    1    1    2    0    0  0.13255472519E-01 -0.99579207017E-02 -0.17537999016E-01  0.24133983216E-01  0.00000000000E+00 0. -1.
     999901    1    3    3    0    0  0.32080161304E-01  0.98043063006E-01  0.97108746461E-01  0.89133141288E+00  0.88000000000E+00 0. -1.
        -11    1    4    4    0    0 -0.35052578627E-01 -0.47908796650E-01 -0.47934442867E-01  0.76301428550E-01  0.51100000000E-03 0. -1.
         11    1    4    4    0    0 -0.10283055196E-01 -0.40176345654E-01 -0.31636304579E-01  0.52163175351E-01  0.51100000000E-03 0.  1.
</event>
<event>
 8    1  0.1123191E+005  0.1043930E+01  0.7957747E-01            NaN
         13   -1    0    0    0    0  0.00000000000E+00  0.00000000000E+00  0.74505805969E-08  0.10566000000E+00  0.10566000000E+00 0. -1.
     999900   -1    0    0    0    0 -0.00000000000E+00 -0.00000000000E+00 -0.74505805969E-08  0.93827000000E+00  0.93827000000E+00 0.  1.
     999902    2    1    2    0    0 -0.17636117921E-01  0.71031222517E-02  0.14393607443E-01  0.10200833454E+01  0.10198045737E+01 0.  0.
     999903    2    3    3    0    0  0.94285964129E-01 -0.79804087616E-01  0.29741399662E-01  0.12861547143E+00  0.19971309532E-01 0.  0.
         14    1    1    2    0    0  0.17636117921E-01 -0.71031222517E-02 -0.14393607443E-01  0.23846654613E-01  0.00000000000E+00 0. -1.
     999901    1    3    3    0    0 -0.11192208205E+00  0.86907209867E-01 -0.15347792219E-01  0.89146787396E+00  0.88000000000E+00 0.  1.
        -11    1    4    4    0    0  0.27785190250E-01 -0.14335893139E-01  0.12707619383E-01  0.33753212302E-01  0.51100000000E-03 0.  1.
         11    1    4    4    0    0  0.66500773879E-01 -0.65468194477E-01  0.17033780280E-01  0.94862259124E-01  0.51100000000E-03 0. -1.
</event>
<event>
 8    1  0.1123191E+005  0.1043930E+01  0.7957747E-01            NaN
         13   -1    0    0    0    0  0.00000000000E+00  0.00000000000E+00  0.74505805969E-08  0.10566000000E+00  0.10566000000E+00 0. -1.
     999900   -1    0    0    0    0 -0.00000000000E+00 -0.00000000000E+00 -0.74505805969E-08  0.93827000000E+00  0.93827000000E+00 0.  1.
     999902    2    1    2    0    0 -0.82859306688E-02 -0.21625012082E-01 -0.43072879405E-02  0.10203747347E+01  0.10201028128E+01 0.  0.
     999903    2    3    3    0    0 -0.97257948712E-03  0.89692251515E-01  0.89671540662E-01  0.12836742614E+00  0.19788001303E-01 0.  0.
         14    1    1    2    0    0  0.82859306688E-02  0.21625012082E-01  0.43072879405E-02  0.23555265314E-01  0.00000000000E+00 0. -1.
     999901    1    3    3    0    0 -0.73133511817E-02 -0.11131726360E+00 -0.93978828603E-01  0.89200730855E+00  0.88000000000E+00 0.  1.
        -11    1    4    4    0    0 -0.47614920891E-02  0.60278801622E-01  0.71253540677E-01  0.93453378279E-01  0.51100000000E-03 0.  1.
         11    1    4    4    0    0  0.37889126020E-02  0.29413449893E-01  0.18417999986E-01  0.34914047858E-01  0.51100000000E-03 0. -1.
</event>
<event>
 7    1  0.1123191E+005  0.1043930E+01  0.7957747E-01            NaN
         13   -1    0    0    0    0  0.00000000000E+00  0.00000000000E+00  0.74505805969E-08  0.10566000000E+00  0.10566000000E+00 0. -1.
     999900   -1    0    0    0    0 -0.00000000000E+00 -0.00000000000E+00 -0.74505805969E-08  0.93827000000E+00  0.93827000000E+00 0.  1.
     999902    2    1    2    0    0  0.16950214201E-01  0.14793101348E-01 -0.79918491223E-02  0.10200550076E+01  0.10197755652E+01 0.  0.
         14    1    1    2    0    0 -0.16950214201E-01 -0.14793101348E-01  0.79918491223E-02  0.23874992384E-01  0.00000000000E+00 0.  1.
     999901    1    3    3    0    0 -0.18266355346E-01  0.11110489568E+00  0.61746149359E-01  0.88932027107E+00  0.88000000000E+00 0. -1.
        -11    1    3    3    0    0  0.68308334192E-02 -0.22904194182E-02 -0.18709617794E-01  0.20055354031E-01  0.51100000000E-03 0.  1.
         11    1    3    3    0    0  0.28385736128E-01 -0.94021374916E-01 -0.51028380688E-01  0.11067938251E+00  0.51100000000E-03 0. -1.
</event>
<event>
 7    1  0.1123191E+005  0.1043930E+01  0.7957747E-01            NaN
         13   -1    0    0    0    0  0.00000000000E+00  0.00000000000E+00  0.74505805969E-08  0.10566000000E+00  0.10566000000E+00 0.  1.
     999900   -1    0    0    0    0 -0.00000000000E+00 -0.00000000000E+00 -0.74505805969E-08  0.93827000000E+00  0.93827000000E+00 0. -1.
     999903    2    1    2    0    0  0.71058176646E-01 -0.50403772508E-01 -0.58942059877E-01  0.10675215484E+00  0.18222277260E-01 0.  0.
         14    1    1    2    0    0  0.26362703103E-01  0.84363387058E-02 -0.36362215840E-01  0.45698738127E-01  0.00000000000E+00 0. -1.
     999901    1    1    2    0    0 -0.97420879749E-01  0.41967433802E-01  0.95304275717E-01  0.89147910704E+00  0.88000000000E+00 0. -1.
        -11    1    3    3    0    0  0.21489852390E-01 -0.15174516773E-01 -0.82335136485E-02  0.27570483910E-01  0.51100000000E-03 0.  1.
         11    1    3    3    0    0  0.49568324256E-01 -0.35229255735E-01 -0.50708546229E-01  0.79181670927E-01  0.51100000000E-03 0. -1.
</event>
<event>
 8    1  0.1123191E+005  0.1043930E+01  0.7957747E-01            NaN
         13   -1    0    0    0    0  0.00000000000E+00  0.00000000000E+00  0.74505805969E-08  0.10566000000E+00  0.10566000000E+00 0. -1.
     999900   -1    0    0    0    0 -0.00000000000E+00 -0.00000000000E+00 -0.74505805969E-08  0.93827000000E+00  0.93827000000E+00 0.  1.
     999902    2    1    2    0    0  0.45833760680E-02  0.22651515721E-01  0.49924198089E-02  0.10202863379E+01  0.10200123473E+01 0.  0.
     999903    2    3    3    0    0  0.65555599430E-02 -0.12395711442E+00 -0.20353847588E-01  0.12779521012E+00  0.22560918326E-01 0.  0.
         14    1    1    2    0    0 -0.45833760680E-02 -0.22651515721E-01 -0.49924198089E-02  0.23643662072E-01  0.00000000000E+00 0.  1.
     999901    1    3    3    0    0 -0.19721838750E-02  0.14660863015E+00  0.25346267397E-01  0.89249112781E+00  0.88000000000E+00 0. -1.
        -11    1    4    4    0    0  0.50342421552E-03 -0.10321234808E+00 -0.23756218981E-01  0.10591346134E+00  0.51100000000E-03 0. -1.
         11    1    4    4    0    0  0.60521357275E-02 -0.20744766343E-01  0.34023713932E-02  0.21881748778E-01  0.51100000000E-03 0.  1.
</event>
<event>
 8    1  0.1123191E+005  0.1043930E+01  0.7957747E-01            NaN
         13   -1    0    0    0    0  0.00000000000E+00  0.00000000000E+00  0.74505805969E-08  0.10566000000E+00  0.10566000000E+00 0.  1.
     999900   -1    0    0    0    0 -0.00000000000E+00 -0.00000000000E+00 -0.74505805969E-08  0.93827000000E+00  0.93827000000E+00 0.  1.
     999902    2    1    2    0    0  0.49935696151E-02 -0.38975323557E-02  0.23042010013E-01  0.10200331232E+01  0.10197531621E+01 0.  0.
     999903    2    3    3    0    0 -0.20604659828E-02  0.50482436172E-01 -0.11533940051E+00  0.12753306427E+00  0.20218389896E-01 0.  0.
         14    1    1    2    0    0 -0.49935696151E-02  0.38975323557E-02 -0.23042010013E-01  0.23896876813E-01  0.00000000000E+00 0. -1.
     999901    1    3    3    0    0  0.70540355979E-02 -0.54379968527E-01  0.13838141052E+00  0.89250005892E+00  0.88000000000E+00 0. -1.
        -11    1    4    4    0    0 -0.97472922265E-02  0.14511148238E-01 -0.32933396742E-01  0.37288776742E-01  0.51100000000E-03 0.  1.
         11    1    4    4    0    0  0.76868262437E-02  0.35971287933E-01 -0.82406003765E-01  0.90244287525E-01  0.51100000000E-03 0. -1.
</event>
<event>
 8    1  0.1123191E+005  0.1043930E+01  0.7957747E-01            NaN
         13   -1    0    0    0    0  0.00000000000E+00  0.00000000000E+00  0.74505805969E-08  0.10566000000E+00  0.10566000000E+00 0. -1.
     999900   -1    0    0    0    0 -0.00000000000E+00 -0.00000000000E+00 -0.74505805969E-08  0.93827000000E+00  0.93827000000E+00 0. -1.
     999902    2    1    2    0    0 -0.13940591514E-02 -0.20597088811E-01  0.20335375400E-01  0.10149522333E+01  0.10145384788E+01 0.  0.
     999903    2    3    3    0    0  0.22859545214E-02 -0.12682490530E+00  0.18111476509E-02  0.12836267863E+00  0.19593744343E-01 0.  0.
         14    1    1    2    0    0  0.13940591514E-02  0.20597088811E-01 -0.20335375400E-01  0.28977766668E-01  0.00000000000E+00 0. -1.
     999901    1    3    3    0    0 -0.36800136729E-02  0.10622781649E+00  0.18524227749E-01  0.88658955470E+00  0.88000000000E+00 0. -1.
        -11    1    4    4    0    0  0.58567227868E-02 -0.50389447338E-01 -0.74816356805E-02  0.51279953182E-01  0.51100000000E-03 0.  1.
         11    1    4    4    0    0 -0.35707682654E-02 -0.76435457958E-01  0.92927833314E-02  0.77082725447E-01  0.51100000000E-03 0. -1.
</event>
<event>
 8    1  0.1123191E+005  0.1043930E+01  0.7957747E-01            NaN
         13   -1    0    0    0    0  0.00000000000E+00  0.00000000000E+00  0.74505805969E-08  0.10566000000E+00  0.10566000000E+00 0. -1.
     999900   -1    0    0    0    0 -0.00000000000E+00 -0.00000000000E+00 -0.74505805969E-08  0.93827000000E+00  0.93827000000E+00 0. -1.
     999902    2    1    2    0    0  0.20923659500E-01  0.59934628457E-02  0.10003440323E-01  0.10199760871E+01  0.10196947722E+01 0.  0.
     999903    2    3    3    0    0 -0.39960138261E-01 -0.11663271390E+00 -0.29767288246E-01  0.12850218010E+00  0.20657111099E-01 0.  0.
         14    1    1    2    0    0 -0.20923659500E-01 -0.59934628457E-02 -0.10003440323E-01  0.23953912875E-01  0.00000000000E+00 0.  1.
     999901    1    3    3    0    0  0.60883797761E-01  0.12262617675E+00  0.39770728569E-01  0.89147390702E+00  0.88000000000E+00 0. -1.
        -11    1    4    4    0    0 -0.22585447723E-01 -0.43117454770E-01 -0.46736325955E-02  0.48901138200E-01  0.51100000000E-03 0. -1.
         11    1    4    4    0    0 -0.17374690538E-01 -0.73515259133E-01 -0.25093655650E-01  0.79601041900E-01  0.51100000000E-03 0.  1.
</event>
<event>
 8    1  0.1123191E+005  0.1043930E+01  0.7957747E-01            NaN
         13   -1    0    0    0    0  0.00000000000E+00  0.00000000000E+00  0.74505805969E-08  0.10566000000E+00  0.10566000000E+00 0.  1.
     999900   -1    0    0    0    0 -0.00000000000E+00 -0.00000000000E+00 -0.74505805969E-08  0.93827000000E+00  0.93827000000E+00 0. -1.
     999902    2    1    2    0    0 -0.16623275474E-01  0.15259214975E-01  0.57337168007E-02  0.10206479804E+01  0.10203824025E+01 0.  0.
     999903    2    3    3    0    0 -0.32844787309E-01 -0.33328574736E-01 -0.11991614969E+00  0.13024818270E+00  0.19877932333E-01 0.  0.
         14    1    1    2    0    0  0.16623275474E-01 -0.15259214975E-01 -0.57337168007E-02  0.23282019618E-01  0.00000000000E+00 0. -1.
     999901    1    3    3    0    0  0.16221511834E-01  0.48587789711E-01  0.12564986649E+00  0.89039979768E+00  0.88000000000E+00 0.  1.
        -11    1    4    4    0    0 -0.31819237059E-01 -0.26798636942E-01 -0.84151035833E-01  0.93873791560E-01  0.51100000000E-03 0. -1.
         11    1    4    4    0    0 -0.10255502494E-02 -0.65299377944E-02 -0.35765113858E-01  0.36374391145E-01  0.51100000000E-03 0.  1.
</event>
<event>
 8    1  0.1123191E+005  0.1043930E+01  0.7957747E-01            NaN
         13   -1    0    0    0    0  0.00000000000E+00  0.00000000000E+00  0.74505805969E-08  0.10566000000E+00  0.10566000000E+00 0. -1.
     999900   -1    0    0    0    0 -0.00000000000E+00 -0.00000000000E+00 -0.74505805969E-08  0.93827000000E+00  0.93827000000E+00 0.  1.
     999902    2    1    2    0    0  0.33041583945E-02  0.98537131164E-02  0.21025714834E-01  0.10204759213E+01  0.10202063576E+01 0.  0.
     999903    2    3    3    0    0  0.31088125689E-01 -0.11471647639E+00  0.52552149823E-01  0.13070988626E+00  0.14035825574E-01 0.  0.
         14    1    1    2    0    0 -0.33041583945E-02 -0.98537131164E-02 -0.21025714834E-01  0.23454078732E-01  0.00000000000E+00 0.  1.
     999901    1    3    3    0    0 -0.27783967295E-01  0.12457018951E+00 -0.31526434989E-01  0.88976603501E+00  0.88000000000E+00 0.  1.
        -11    1    4    4    0    0  0.25318830381E-01 -0.71091339770E-01  0.36861644204E-01  0.83988473593E-01  0.51100000000E-03 0.  1.
         11    1    4    4    0    0  0.57692953078E-02 -0.43625136624E-01  0.15690505620E-01  0.46721412665E-01  0.51100000000E-03 0. -1.
</event>
<event>
 8    1  0.1123191E+005  0.1043930E+01  0.7957747E-01            NaN
         13   -1    0    0    0    0  0.00000000000E+00  0.00000000000E+00  0.74505805969E-08  0.10566000000E+00  0.10566000000E+00 0.  1.
     999900   -1    0    0    0    0 -0.00000000000E+00 -0.00000000000E+00 -0.74505805969E-08  0.93827000000E+00  0.93827000000E+00 0.  1.
     999902    2    1    2    0    0 -0.23283666788E-01 -0.59004737917E-02 -0.14444807605E-02  0.10198669317E+01  0.10195830163E+01 0.  0.
     999903    2    3    3    0    0  0.11517637909E+00  0.47984563643E-01  0.14261254333E-01  0.12727438656E+00  0.20670497148E-01 0.  0.
         14    1    1    2    0    0  0.23283666788E-01  0.59004737917E-02  0.14444807605E-02  0.24063068274E-01  0.00000000000E+00 0.  1.
     999901    1    3    3    0    0 -0.13846004588E+00 -0.53885037435E-01 -0.15705735094E-01  0.89259254516E+00  0.88000000000E+00 0. -1.
        -11    1    4    4    0    0  0.90525679833E-01  0.29772753643E-01  0.15728665755E-01  0.96586580932E-01  0.51100000000E-03 0.  1.
         11    1    4    4    0    0  0.24650699255E-01  0.18211810001E-01 -0.14674114214E-02  0.30687805633E-01  0.51100000000E-03 0. -1.
</event>
<event>
 8    1  0.1123191E+005  0.1043930E+01  0.7957747E-01            NaN
         13   -1    0    0    0    0  0.00000000000E+00  0.00000000000E+00  0.74505805969E-08  0.10566000000E+00  0.10566000000E+00 0. -1.
     999900   -1    0    0    0    0 -0.00000000000E+00 -0.00000000000E+00 -0.74505805969E-08  0.93827000000E+00  0.93827000000E+00 0.  1.
     999902    2    1    2    0    0 -0.15704891577E-01  0.36062165539E-02 -0.18145576556E-01  0.10196625245E+01  0.10193737065E+01 0.  0.
     999903    2    3    3    0    0  0.46086375169E-01  0.49543449740E-01 -0.11021146842E+00  0.13151584831E+00  0.23902786358E-01 0.  0.
         14    1    1    2    0    0  0.15704891577E-01 -0.36062165539E-02  0.18145576556E-01  0.24267475473E-01  0.00000000000E+00 0. -1.
     999901    1    3    3    0    0 -0.61791266746E-01 -0.45937233187E-01  0.92065891864E-01  0.88814667622E+00  0.88000000000E+00 0. -1.
        -11    1    4    4    0    0  0.19084712759E-01  0.62980799240E-02 -0.23501344256E-01  0.30926790565E-01  0.51100000000E-03 0. -1.
         11    1    4    4    0    0  0.27001662410E-01  0.43245369816E-01 -0.86710124165E-01  0.10058905774E+00  0.51100000000E-03 0.  1.
</event>
<event>
 8    1  0.1123191E+005  0.1043930E+01  0.7957747E-01            NaN
         13   -1    0    0    0    0  0.00000000000E+00  0.00000000000E+00  0.74505805969E-08  0.10566000000E+00  0.10566000000E+00 0.  1.
     999900   -1    0    0    0    0 -0.00000000000E+00 -0.00000000000E+00 -0.74505805969E-08  0.93827000000E+00  0.93827000000E+00 0.  1.
     999902    2    1    2    0    0  0.16133281162E-01 -0.86921889154E-02 -0.15276174289E-01  0.10200721206E+01  0.10197930833E+01 0.  0.
     999903    2    3    3    0    0  0.11727618321E+00 -0.56893236263E-01  0.13367011000E-01  0.13250597676E+00  0.19713280135E-01 0.  0.
         14    1    1    2    0    0 -0.16133281162E-01  0.86921889154E-02  0.15276174289E-01  0.23857879413E-01  0.00000000000E+00 0.  1.
     999901    1    3    3    0    0 -0.10114290205E+00  0.48201047348E-01 -0.28643185289E-01  0.88756614382E+00  0.88000000000E+00 0. -1.
        -11    1    4    4    0    0  0.39345577912E-01 -0.24395648407E-01  0.12925717026E-01  0.48068258176E-01  0.51100000000E-03 0.  1.
         11    1    4    4    0    0  0.77930605299E-01 -0.32497587856E-01  0.44129397451E-03  0.84437718587E-01  0.51100000000E-03 0. -1.
</event>
<event>
 8    1  0.1123191E+005  0.1043930E+01  0.7957747E-01            NaN
         13   -1    0    0    0    0  0.00000000000E+00  0.00000000000E+00  0.74505805969E-08  0.10566000000E+00  0.10566000000E+00 0.  1.
     999900   -1    0    0    0    0 -0.00000000000E+00 -0.00000000000E+00 -0.74505805969E-08  0.93827000000E+00  0.93827000000E+00 0. -1.
     999902    2    1    2    0    0  0.58904425211E-02 -0.17375486866E-01 -0.14441075327E-01  0.10205815629E+01  0.10203144501E+01 0.  0.
     999903    2    3    3    0    0 -0.97900326454E-01 -0.19182137465E-02  0.80806974071E-01  0.12924344419E+00  0.24206349222E-01 0.  0.
         14    1    1    2    0    0 -0.58904425211E-02  0.17375486866E-01  0.14441075327E-01  0.23348437068E-01  0.00000000000E+00 0.  1.
     999901    1    3    3    0    0  0.10379076897E+00 -0.15457273120E-01 -0.95248049398E-01  0.89133811875E+00  0.88000000000E+00 0.  1.
        -11    1    4    4    0    0 -0.35127208030E-01  0.10020991939E-01  0.23723920261E-01  0.43559459787E-01  0.51100000000E-03 0. -1.
         11    1    4    4    0    0 -0.62773118424E-01 -0.11939205686E-01  0.57083053810E-01  0.85683984398E-01  0.51100000000E-03 0.  1.
</event>
<event>
 8    1  0.1123191E+005  0.1043930E+01  0.7957747E-01            NaN
         13   -1    0    0    0    0  0.00000000000E+00  0.00000000000E+00  0.74505805969E-08  0.10566000000E+00  0.10566000000E+00 0. -1.
     999900   -1    0    0    0    0 -0.00000000000E+00 -0.00000000000E+00 -0.74505805969E-08  0.93827000000E+00  0.93827000000E+00 0. -1.
     999902    2    1    2    0    0  0.12861602069E-01  0.56156142747E-03 -0.19984529756E-01  0.10201577980E+01  0.10198807848E+01 0.  0.
     999903    2    3    3    0    0  0.11171594125E+00  0.66225661211E-01 -0.14180299042E-01  0.13217263850E+00  0.20055815995E-01 0.  0.
         14    1    1    2    0    0 -0.12861602069E-01 -0.56156142747E-03  0.19984529756E-01  0.23772202014E-01  0.00000000000E+00 0. -1.
     999901    1    3    3    0    0 -0.98854339179E-01 -0.65664099784E-01 -0.58042307135E-02  0.88798515949E+00  0.88000000000E+00 0. -1.
        -11    1    4    4    0    0  0.76367028057E-01  0.43743087090E-01 -0.18886986090E-01  0.90013110196E-01  0.51100000000E-03 0. -1.
         11    1    4    4    0    0  0.35348913190E-01  0.22482574121E-01  0.47066870477E-02  0.42159528304E-01  0.51100000000E-03 0.  1.
</event>
<event>
 8    1  0.1123191E+005  0.1043930E+01  0.7957747E-01            NaN
         13   -1    0    0    0    0  0.00000000000E+00  0.00000000000E+00  0.74505805969E-08  0.10566000000E+00  0.10566000000E+00 0. -1.
     999900   -1    0    0    0    0 -0.00000000000E+00 -0.00000000000E+00 -0.74505805969E-08  0.93827000000E+00  0.93827000000E+00 0.  1.
     999902    2    1    2    0    0 -0.78233511890E-02 -0.21001812761E-01 -0.37857408382E-02  0.10212008822E+01  0.10209479071E+01 0.  0.
     999903    2    3    3    0    0 -0.11742771858E+00  0.42783771791E-01  0.34924818443E-01  0.13126817374E+00  0.19795713580E-01 0.  0.
         14    1    1    2    0    0  0.78233511890E-02  0.21001812761E-01  0.37857408382E-02  0.22729117818E-01  0.00000000000E+00 0. -1.
     999901    1    3    3    0    0  0.10960436739E+00 -0.63785584552E-01 -0.38710559281E-01  0.88993270844E+00  0.88000000000E+00 0.  1.
        -11    1    4    4    0    0 -0.31779485381E-01  0.11615035941E-01  0.18790267782E-01  0.38706330688E-01  0.51100000000E-03 0. -1.
         11    1    4    4    0    0 -0.85648233196E-01  0.31168735850E-01  0.16134550661E-01  0.92561843057E-01  0.51100000000E-03 0.  1.
</event>
<event>
 8    1  0.1123191E+005  0.1043930E+01  0.7957747E-01            NaN
         13   -1    0    0    0    0  0.00000000000E+00  0.00000000000E+00  0.74505805969E-08  0.10566000000E+00  0.10566000000E+00 0.  1.
     999900   -1    0    0    0    0 -0.00000000000E+00 -0.00000000000E+00 -0.74505805969E-08  0.93827000000E+00  0.93827000000E+00 0. -1.
     999902    2    1    2    0    0  0.53342169366E-02  0.13704158547E-01 -0.16784194390E-01  0.10216148255E+01  0.10213710808E+01 0.  0.
     999903    2    3    3    0    0 -0.53377238515E-02  0.20348281722E-02  0.12798728803E+00  0.12964574211E+00  0.19865566427E-01 0.  0.
         14    1    1    2    0    0 -0.53342169366E-02 -0.13704158547E-01  0.16784194390E-01  0.22315174504E-01  0.00000000000E+00 0.  1.
     999901    1    3    3    0    0  0.10671940788E-01  0.11669330375E-01 -0.14477148242E+00  0.89196908338E+00  0.88000000000E+00 0. -1.
        -11    1    4    4    0    0 -0.11400426725E-01 -0.25928227881E-02  0.98134066581E-01  0.98829391399E-01  0.51100000000E-03 0. -1.
         11    1    4    4    0    0  0.60627028731E-02  0.46276509602E-02  0.29853221447E-01  0.30816350713E-01  0.51100000000E-03 0.  1.
</event>
<event>
 8    1  0.1123191E+005  0.1043930E+01  0.7957747E-01            NaN
         13   -1    0    0    0    0  0.00000000000E+00  0.00000000000E+00  0.74505805969E-08  0.10566000000E+00  0.10566000000E+00 0. -1.
     999900   -1    0    0    0    0 -0.00000000000E+00 -0.00000000000E+00 -0.74505805969E-08  0.93827000000E+00  0.93827000000E+00 0. -1.
     999902    2    1    2    0    0  0.20737016938E-01 -0.75712662543E-02 -0.78907610839E-02  0.10204861937E+01  0.10202168688E+01 0.  0.
     999903    2    3    3    0    0  0.68589627948E-01 -0.72048288146E-01 -0.86559900381E-01  0.13333570351E+00  0.19756026679E-01 0.  0.
         14    1    1    2    0    0 -0.20737016938E-01  0.75712662543E-02  0.78907610839E-02  0.23443806318E-01  0.00000000000E+00 0.  1.
     999901    1    3    3    0    0 -0.47852611010E-01  0.64477021892E-01  0.78669139297E-01  0.88715049017E+00  0.88000000000E+00 0.  1.
        -11    1    4    4    0    0  0.38445627001E-01 -0.34852990230E-01 -0.33016093358E-01  0.61507078496E-01  0.51100000000E-03 0.  1.
         11    1    4    4    0    0  0.30144000947E-01 -0.37195297916E-01 -0.53543807023E-01  0.71828625016E-01  0.51100000000E-03 0. -1.
</event>
<event>
 8    1  0.1123191E+005  0.1043930E+01  0.7957747E-01            NaN
         13   -1    0    0    0    0  0.00000000000E+00  0.00000000000E+00  0.74505805969E-08  0.10566000000E+00  0.10566000000E+00 0. -1.
     999900   -1    0    0    0    0 -0.00000000000E+00 -0.00000000000E+00 -0.74505805969E-08  0.93827000000E+00  0.93827000000E+00 0. -1.
     999902    2    1    2    0    0 -0.74330561286E-02 -0.21522973069E-01  0.59702702598E-02  0.10203899741E+01  0.10201184080E+01 0.  0.
     999903    2    3    3    0    0 -0.87291199767E-01 -0.82206614482E-01  0.54742150802E-01  0.13335078455E+00  0.20200189205E-01 0.  0.
         14    1    1    2    0    0  0.74330561286E-02  0.21522973069E-01 -0.59702702598E-02  0.23540025916E-01  0.00000000000E+00 0.  1.
     999901    1    3    3    0    0  0.79858143638E-01  0.60683641412E-01 -0.48771880542E-01  0.88703918954E+00  0.88000000000E+00 0. -1.
        -11    1    4    4    0    0 -0.33683887066E-01 -0.45386463087E-01  0.23799387784E-01  0.61328682192E-01  0.51100000000E-03 0.  1.
         11    1    4    4    0    0 -0.53607312700E-01 -0.36820151394E-01  0.30942763018E-01  0.72022102357E-01  0.51100000000E-03 0. -1.
</event>
<event>
 8    1  0.1123191E+005  0.1043930E+01  0.7957747E-01            NaN
         13   -1    0    0    0    0  0.00000000000E+00  0.00000000000E+00  0.74505805969E-08  0.10566000000E+00  0.10566000000E+00 0.  1.
     999900   -1    0    0    0    0 -0.00000000000E+00 -0.00000000000E+00 -0.74505805969E-08  0.93827000000E+00  0.93827000000E+00 0. -1.
     999902    2    1    2    0    0  0.19918846180E-01 -0.12975701419E-01 -0.35307164924E-02  0.10198967892E+01  0.10196135864E+01 0.  0.
     999903    2    3    3    0    0  0.59755556772E-01 -0.70494647758E-01 -0.93041270352E-01  0.13259327186E+00  0.19597852607E-01 0.  0.
         14    1    1    2    0    0 -0.19918846180E-01  0.12975701419E-01  0.35307164924E-02  0.24033210759E-01  0.00000000000E+00 0. -1.
     999901    1    3    3    0    0 -0.39836710593E-01  0.57518946339E-01  0.89510553860E-01  0.88730351738E+00  0.88000000000E+00 0.  1.
        -11    1    4    4    0    0  0.42042913574E-02 -0.16364977782E-01 -0.16602826545E-01  0.23693955641E-01  0.51100000000E-03 0. -1.
         11    1    4    4    0    0  0.55551265415E-01 -0.54129669976E-01 -0.76438443807E-01  0.10889931622E+00  0.51100000000E-03 0.  1.
</event>
<event>
 8    1  0.1123191E+005  0.1043930E+01  0.7957747E-01            NaN
         13   -1    0    0    0    0  0.00000000000E+00  0.00000000000E+00  0.74505805969E-08  0.10566000000E+00  0.10566000000E+00 0. -1.
     999900   -1    0    0    0    0 -0.00000000000E+00 -0.00000000000E+00 -0.74505805969E-08  0.93827000000E+00  0.93827000000E+00 0. -1.
     999902    2    1    2    0    0  0.12503635916E-01 -0.20770704950E-01  0.72167763455E-02  0.10186348432E+01  0.10183207250E+01 0.  0.
     999903    2    3    3    0    0 -0.83934204196E-01 -0.96733294546E-01  0.99277934856E-02  0.13010914206E+00  0.20677206205E-01 0.  0.
         14    1    1    2    0    0 -0.12503635916E-01  0.20770704950E-01 -0.72167763455E-02  0.25295156771E-01  0.00000000000E+00 0.  1.
     999901    1    3    3    0    0  0.96437840112E-01  0.75962589596E-01 -0.27110171401E-02  0.88852570117E+00  0.88000000000E+00 0. -1.
        -11    1    4    4    0    0 -0.32106985898E-02 -0.11243218315E-01 -0.21872762681E-02  0.11906462194E-01  0.51100000000E-03 0.  1.
         11    1    4    4    0    0 -0.80723505606E-01 -0.85490076231E-01  0.12115069754E-01  0.11820267987E+00  0.51100000000E-03 0. -1.
</event>
<event>
 8    1  0.1123191E+005  0.1043930E+01  0.7957747E-01            NaN
         13   -1    0    0    0    0  0.00000000000E+00  0.00000000000E+00  0.74505805969E-08  0.10566000000E+00  0.10566000000E+00 0.  1.
     999900   -1    0    0    0    0 -0.00000000000E+00 -0.00000000000E+00 -0.74505805969E-08  0.93827000000E+00  0.93827000000E+00 0.  1.
     999902    2    1    2    0    0 -0.16832110901E-01  0.70996827999E-02 -0.19263332780E-01  0.10173819032E+01  0.10170354642E+01 0.  0.
     999903    2    3    3    0    0 -0.39932129251E-01 -0.10263477480E+00 -0.64359191095E-01  0.12912017463E+00  0.20036019385E-01 0.  0.
         14    1    1    2    0    0  0.16832110901E-01 -0.70996827999E-02  0.19263332780E-01  0.26548096788E-01  0.00000000000E+00 0.  1.
     999901    1    3    3    0    0  0.23100018350E-01  0.10973445760E+00  0.45095858315E-01  0.88826172859E+00  0.88000000000E+00 0.  1.
        -11    1    4    4    0    0 -0.30073589476E-01 -0.51730070408E-01 -0.30210089558E-01  0.67032317582E-01  0.51100000000E-03 0.  1.
         11    1    4    4    0    0 -0.98585397756E-02 -0.50904704391E-01 -0.34149101537E-01  0.62087857045E-01  0.51100000000E-03 0. -1.
</event>
<event>
 8    1  0.1123191E+005  0.1043930E+01  0.7957747E-01            NaN
         13   -1    0    0    0    0  0.00000000000E+00  0.00000000000E+00  0.74505805969E-08  0.10566000000E+00  0.10566000000E+00 0.  1.
     999900   -1    0    0    0    0 -0.00000000000E+00 -0.00000000000E+00 -0.74505805969E-08  0.93827000000E+00  0.93827000000E+00 0.  1.
     999902    2    1    2    0    0  0.48300492367E-02 -0.24535867925E-01  0.81599328315E-02  0.10176255765E+01  0.10172855505E+01 0.  0.
     999903    2    3    3    0    0 -0.55644809983E-02  0.11646266983E+00 -0.40432368520E-01  0.12501712616E+00  0.19999712401E-01 0.  0.
         14    1    1    2    0    0 -0.48300492367E-02  0.24535867925E-01 -0.81599328315E-02  0.26304423474E-01  0.00000000000E+00 0. -1.
     999901    1    3    3    0    0  0.10394530235E-01 -0.14099853776E+00  0.48592301351E-01  0.89260845036E+00  0.88000000000E+00 0.  1.
        -11    1    4    4    0    0 -0.64885527971E-02  0.56408158748E-01 -0.29422738634E-01  0.63952641544E-01  0.51100000000E-03 0.  1.
         11    1    4    4    0    0  0.92407179887E-03  0.60054511087E-01 -0.11009629886E-01  0.61064484619E-01  0.51100000000E-03 0. -1.
</event>
<event>
 8    1  0.1123191E+005  0.1043930E+01  0.7957747E-01            NaN
         13   -1    0    0    0    0  0.00000000000E+00  0.00000000000E+00  0.74505805969E-08  0.10566000000E+00  0.10566000000E+00 0. -1.
     999900   -1    0    0    0    0 -0.00000000000E+00 -0.00000000000E+00 -0.74505805969E-08  0.93827000000E+00  0.93827000000E+00 0.  1.
     999902    2    1    2    0    0  0.22452763106E-01  0.35265373209E-02  0.85094324067E-02  0.10196612242E+01  0.10193723749E+01 0.  0.
     999903    2    3    3    0    0  0.50097201093E-01  0.11136258640E+00 -0.42264344939E-01  0.13119580292E+00  0.22687191159E-01 0.  0.
         14    1    1    2    0    0 -0.22452763106E-01 -0.35265373209E-02 -0.85094324067E-02  0.24268775751E-01  0.00000000000E+00 0. -1.
     999901    1    3    3    0    0 -0.27644437986E-01 -0.10783604908E+00  0.50773777346E-01  0.88846542133E+00  0.88000000000E+00 0. -1.
        -11    1    4    4    0    0  0.25436988855E-01  0.34408141777E-01 -0.85730136040E-02  0.43643078556E-01  0.51100000000E-03 0.  1.
         11    1    4    4    0    0  0.24660212238E-01  0.76954444625E-01 -0.33691331335E-01  0.87552724363E-01  0.51100000000E-03 0. -1.
</event>
<event>
 8    1  0.1123191E+005  0.1043930E+01  0.7957747E-01            NaN
         13   -1    0    0    0    0  0.00000000000E+00  0.00000000000E+00  0.74505805969E-08  0.10566000000E+00  0.10566000000E+00 0.  1.
     999900   -1    0    0    0    0 -0.00000000000E+00 -0.00000000000E+00 -0.74505805969E-08  0.93827000000E+00  0.93827000000E+00 0.  1.
     999902    2    1    2    0    0  0.10505913011E-02 -0.14125898327E-01 -0.18548764622E-01  0.10205911608E+01  0.10203242701E+01 0.  0.
     999903    2    3    3    0    0 -0.21635537365E-01  0.12207833600E+00  0.27954405304E-01  0.12861089270E+00  0.19700161144E-01 0.  0.
         14    1    1    2    0    0 -0.10505913011E-02  0.14125898327E-01  0.18548764622E-01  0.23338839187E-01  0.00000000000E+00 0.  1.
     999901    1    3    3    0    0  0.22686128667E-01 -0.13620423432E+00 -0.46503169926E-01  0.89198026811E+00  0.88000000000E+00 0.  1.
        -11    1    4    4    0    0 -0.32262766426E-02  0.55978536358E-01  0.20001133602E-01  0.59534123494E-01  0.51100000000E-03 0.  1.
         11    1    4    4    0    0 -0.18409260723E-01  0.66099799640E-01  0.79532717020E-02  0.69076769210E-01  0.51100000000E-03 0. -1.
</event>
<event>
 8    1  0.1123191E+005  0.1043930E+01  0.7957747E-01            NaN
         13   -1    0    0    0    0  0.00000000000E+00  0.00000000000E+00  0.74505805969E-08  0.10566000000E+00  0.10566000000E+00 0.  1.
     999900   -1    0    0    0    0 -0.00000000000E+00 -0.00000000000E+00 -0.74505805969E-08  0.93827000000E+00  0.93827000000E+00 0.  1.
     999902    2    1    2    0    0  0.20464699313E-01 -0.58777947327E-02 -0.10058308065E-01  0.10203817103E+01  0.10201099513E+01 0.  0.
     999903    2    3    3    0    0  0.18218552924E-01 -0.62924256460E-01 -0.11338053750E+00  0.13249949562E+00  0.20238387606E-01 0.  0.
         14    1    1    2    0    0 -0.20464699313E-01  0.58777947327E-02  0.10058308065E-01  0.23548289747E-01  0.00000000000E+00 0.  1.
     999901    1    3    3    0    0  0.22461463887E-02  0.57046461728E-01  0.10332222944E+00  0.88788221463E+00  0.88000000000E+00 0. -1.
        -11    1    4    4    0    0  0.11168460987E-02 -0.19666598528E-01 -0.19482129507E-01  0.27709870697E-01  0.51100000000E-03 0. -1.
         11    1    4    4    0    0  0.17101706825E-01 -0.43257657932E-01 -0.93898407995E-01  0.10478962492E+00  0.51100000000E-03 0.  1.
</event>
<event>
 8    1  0.1123191E+005  0.1043930E+01  0.7957747E-01            NaN
         13   -1    0    0    0    0  0.00000000000E+00  0.00000000000E+00  0.74505805969E-08  0.10566000000E+00  0.10566000000E+00 0. -1.
     999900   -1    0    0    0    0 -0.00000000000E+00 -0.00000000000E+00 -0.74505805969E-08  0.93827000000E+00  0.93827000000E+00 0.  1.
     999902    2    1    2    0    0  0.10084946018E-01 -0.20237853028E-01 -0.36463195333E-02  0.10210264527E+01  0.10207695355E+01 0.  0.
     999903    2    3    3    0    0  0.75142633010E-01  0.10206442477E+00  0.18969431042E-01  0.12990254330E+00  0.21243101024E-01 0.  0.
         14    1    1    2    0    0 -0.10084946018E-01  0.20237853028E-01  0.36463195333E-02  0.22903547269E-01  0.00000000000E+00 0. -1.
     999901    1    3    3    0    0 -0.65057686992E-01 -0.12230227780E+00 -0.22615750576E-01  0.89112390943E+00  0.88000000000E+00 0.  1.
        -11    1    4    4    0    0  0.40763902197E-01  0.37679254705E-01  0.75393825298E-02  0.56022543385E-01  0.51100000000E-03 0. -1.
         11    1    4    4    0    0  0.34378730813E-01  0.64385170067E-01  0.11430048513E-01  0.73879999911E-01  0.51100000000E-03 0.  1.
</event>
<event>
 8    1  0.1123191E+005  0.1043930E+01  0.7957747E-01            NaN
         13   -1    0    0    0    0  0.00000000000E+00  0.00000000000E+00  0.74505805969E-08  0.10566000000E+00  0.10566000000E+00 0. -1.
     999900   -1    0    0    0    0 -0.00000000000E+00 -0.00000000000E+00 -0.74505805969E-08  0.93827000000E+00  0.93827000000E+00 0. -1.
     999902    2    1    2    0    0  0.14791707264E-01 -0.88072293299E-02 -0.16681967167E-01  0.10199581432E+01  0.10196764015E+01 0.  0.
     999903    2    3    3    0    0 -0.10086301008E+00  0.34129868482E-01 -0.71131933205E-01  0.12968604608E+00  0.20506679473E-01 0.  0.
         14    1    1    2    0    0 -0.14791707264E-01  0.88072293299E-02  0.16681967167E-01  0.23971856850E-01  0.00000000000E+00 0. -1.
     999901    1    3    3    0    0  0.11565471734E+00 -0.42937097811E-01  0.54449966038E-01  0.89027209707E+00  0.88000000000E+00 0. -1.
        -11    1    4    4    0    0 -0.13420021663E-01  0.53323323160E-02 -0.19052810689E-01  0.23912370554E-01  0.51100000000E-03 0.  1.
         11    1    4    4    0    0 -0.87442988416E-01  0.28797536166E-01 -0.52079122515E-01  0.10577367553E+00  0.51100000000E-03 0. -1.
</event>
<event>
 8    1  0.1123191E+005  0.1043930E+01  0.7957747E-01            NaN
         13   -1    0    0    0    0  0.00000000000E+00  0.00000000000E+00  0.74505805969E-08  0.10566000000E+00  0.10566000000E+00 0. -1.
     999900   -1    0    0    0    0 -0.00000000000E+00 -0.00000000000E+00 -0.74505805969E-08  0.93827000000E+00  0.93827000000E+00 0. -1.
     999902    2    1    2    0    0  0.13952214381E-01  0.17732863601E-01 -0.23864686976E-02  0.10212404877E+01  0.10209884033E+01 0.  0.
     999903    2    3    3    0    0 -0.67502090521E-01  0.10767078043E+00  0.31700392953E-01  0.13226042781E+00  0.18395017463E-01 0.  0.
         14    1    1    2    0    0 -0.13952214381E-01 -0.17732863601E-01  0.23864686976E-02  0.22689512346E-01  0.00000000000E+00 0. -1.
     999901    1    3    3    0    0  0.81454304902E-01 -0.89937916826E-01 -0.34086861650E-01  0.88898005985E+00  0.88000000000E+00 0.  1.
        -11    1    4    4    0    0 -0.11452187273E-01  0.28458374870E-01  0.18571544803E-02  0.30736652995E-01  0.51100000000E-03 0. -1.
         11    1    4    4    0    0 -0.56049903248E-01  0.79212405558E-01  0.29843238472E-01  0.10152377481E+00  0.51100000000E-03 0.  1.
</event>
<event>
 8    1  0.1123191E+005  0.1043930E+01  0.7957747E-01            NaN
         13   -1    0    0    0    0  0.00000000000E+00  0.00000000000E+00  0.74505805969E-08  0.10566000000E+00  0.10566000000E+00 0.  1.
     999900   -1    0    0    0    0 -0.00000000000E+00 -0.00000000000E+00 -0.74505805969E-08  0.93827000000E+00  0.93827000000E+00 0.  1.
     999902    2    1    2    0    0  0.49324049497E-02  0.60462851677E-02  0.22312939902E-01  0.10202920333E+01  0.10200181762E+01 0.  0.
     999903    2    3    3    0    0  0.12206737728E+00 -0.42745823716E-01  0.69236795839E-02  0.13105747427E+00  0.20011851014E-01 0.  0.
         14    1    1    2    0    0 -0.49324049497E-02 -0.60462851677E-02 -0.22312939902E-01  0.23637966706E-01  0.00000000000E+00 0. -1.
     999901    1    3    3    0    0 -0.11713497233E+00  0.48792108883E-01  0.15389260319E-01  0.88923455903E+00  0.88000000000E+00 0. -1.
        -11    1    4    4    0    0  0.31140202090E-01 -0.19373390400E-02  0.20709684355E-02  0.31273239359E-01  0.51100000000E-03 0.  1.
         11    1    4    4    0    0  0.90927175192E-01 -0.40808484676E-01  0.48527111484E-02  0.99784234909E-01  0.51100000000E-03 0. -1.
</event>
<event>
 8    1  0.1123191E+005  0.1043930E+01  0.7957747E-01            NaN
         13   -1    0    0    0    0  0.00000000000E+00  0.00000000000E+00  0.74505805969E-08  0.10566000000E+00  0.10566000000E+00 0.  1.
     999900   -1    0    0    0    0 -0.00000000000E+00 -0.00000000000E+00 -0.74505805969E-08  0.93827000000E+00  0.93827000000E+00 0.  1.
     999902    2    1    2    0    0 -0.22634760508E-01  0.95744075318E-03 -0.38222171593E-02  0.10209548304E+01  0.10206962855E+01 0.  0.
     999903    2    3    3    0    0 -0.48365654530E-01 -0.22818056507E-01  0.11869875922E+00  0.13177614031E+00  0.20387630438E-01 0.  0.
         14    1    1    2    0    0  0.22634760508E-01 -0.95744075318E-03  0.38222171593E-02  0.22975169642E-01  0.00000000000E+00 0. -1.
     999901    1    3    3    0    0  0.25730894022E-01  0.23775497260E-01 -0.12252097638E+00  0.88917869004E+00  0.88000000000E+00 0.  1.
        -11    1    4    4    0    0 -0.39616692056E-01 -0.25762306564E-01  0.90437189558E-01  0.10204080118E+00  0.51100000000E-03 0. -1.
         11    1    4    4    0    0 -0.87489624740E-02  0.29442500570E-02  0.28261569661E-01  0.29735339135E-01  0.51100000000E-03 0.  1.
</event>
<event>
 8    1  0.1123191E+005  0.1043930E+01  0.7957747E-01            NaN
         13   -1    0    0    0    0  0.00000000000E+00  0.00000000000E+00  0.74505805969E-08  0.10566000000E+00  0.10566000000E+00 0.  1.
     999900   -1    0    0    0    0 -0.00000000000E+00 -0.00000000000E+00 -0.74505805969E-08  0.93827000000E+00  0.93827000000E+00 0. -1.
     999902    2    1    2    0    0  0.66566938515E-03 -0.15904338519E-01 -0.17959165389E-01  0.10199316100E+01  0.10196492370E+01 0.  0.
     999903    2    3    3    0    0 -0.11072497487E+00  0.10017541096E-02 -0.68544608406E-01  0.13130762958E+00  0.16801984157E-01 0.  0.
         14    1    1    2    0    0 -0.66566938515E-03  0.15904338519E-01  0.17959165389E-01  0.23998389966E-01  0.00000000000E+00 0.  1.
     999901    1    3    3    0    0  0.11139064426E+00 -0.16906092629E-01  0.50585443017E-01  0.88862398046E+00  0.88000000000E+00 0.  1.
        -11    1    4    4    0    0 -0.52095892091E-01 -0.36702795253E-02 -0.23744173756E-01  0.57371594303E-01  0.51100000000E-03 0. -1.
         11    1    4    4    0    0 -0.58629082784E-01  0.46720336349E-02 -0.44800434650E-01  0.73936035275E-01  0.51100000000E-03 0.  1.
</event>
<event>
 8    1  0.1123191E+005  0.1043930E+01  0.7957747E-01            NaN
         13   -1    0    0    0    0  0.00000000000E+00  0.00000000000E+00  0.74505805969E-08  0.10566000000E+00  0.10566000000E+00 0.  1.
     999900   -1    0    0    0    0 -0.00000000000E+00 -0.00000000000E+00 -0.74505805969E-08  0.93827000000E+00  0.93827000000E+00 0.  1.
     999902    2    1    2    0    0 -0.31515027874E-02 -0.14350550252E-01  0.19411869539E-01  0.10195847553E+01  0.10192940607E+01 0.  0.
     999903    2    3    3    0    0  0.50300556230E-01 -0.61107637395E-01  0.10444323828E+00  0.13263848773E+00  0.20500953678E-01 0.  0.
         14    1    1    2    0    0  0.31515027874E-02  0.14350550252E-01 -0.19411869539E-01  0.24345244739E-01  0.00000000000E+00 0. -1.
     999901    1    3    3    0    0 -0.53452059017E-01  0.46757087142E-01 -0.85031368737E-01  0.88694626753E+00  0.88000000000E+00 0. -1.
        -11    1    4    4    0    0  0.21900020598E-01 -0.40105110563E-01  0.67587421262E-01  0.81586465968E-01  0.51100000000E-03 0. -1.
         11    1    4    4    0    0  0.28400535632E-01 -0.21002526832E-01  0.36855817015E-01  0.51052021766E-01  0.51100000000E-03 0.  1.
</event>
<event>
 8    1  0.1123191E+005  0.1043930E+01  0.7957747E-01            NaN
         13   -1    0    0    0    0  0.00000000000E+00  0.00000000000E+00  0.74505805969E-08  0.10566000000E+00  0.10566000000E+00 0.  1.
     999900   -1    0    0    0    0 -0.00000000000E+00 -0.00000000000E+00 -0.74505805969E-08  0.93827000000E+00  0.93827000000E+00 0. -1.
     999902    2    1    2    0    0  0.83766592714E-02  0.24494380246E-01  0.24736822730E-02  0.10179249584E+01  0.10175927274E+01 0.  0.
     999903    2    3    3    0    0 -0.82259020933E-01  0.73967152492E-01 -0.64798099425E-01  0.12933738572E+00  0.17078626523E-01 0.  0.
         14    1    1    2    0    0 -0.83766592714E-02 -0.24494380246E-01 -0.24736822730E-02  0.26005041591E-01  0.00000000000E+00 0.  1.
     999901    1    3    3    0    0  0.90635680204E-01 -0.49472772246E-01  0.67271781698E-01  0.88858757269E+00  0.88000000000E+00 0.  1.
        -11    1    4    4    0    0 -0.36869679011E-01  0.30809063485E-01 -0.18669916891E-01  0.51549961599E-01  0.51100000000E-03 0. -1.
         11    1    4    4    0    0 -0.45389341922E-01  0.43158089007E-01 -0.46128182534E-01  0.77787424124E-01  0.51100000000E-03 0.  1.
</event>
<event>
 8    1  0.1123191E+005  0.1043930E+01  0.7957747E-01            NaN
         13   -1    0    0    0    0  0.00000000000E+00  0.00000000000E+00  0.74505805969E-08  0.10566000000E+00  0.10566000000E+00 0. -1.
     999900   -1    0    0    0    0 -0.00000000000E+00 -0.00000000000E+00 -0.74505805969E-08  0.93827000000E+00  0.93827000000E+00 0. -1.
     999902    2    1    2    0    0  0.14597930853E-01 -0.16780345304E-01  0.85578473458E-02  0.10200990050E+01  0.10198206036E+01 0.  0.
     999903    2    3    3    0    0  0.12325529801E+00 -0.10099577003E-01 -0.41982044797E-01  0.13195186804E+00  0.18839677600E-01 0.  0.
         14    1    1    2    0    0 -0.14597930853E-01  0.16780345304E-01 -0.85578473458E-02  0.23830995047E-01  0.00000000000E+00 0.  1.
     999901    1    3    3    0    0 -0.10865736716E+00 -0.66807683015E-02  0.50539892142E-01  0.88814713691E+00  0.88000000000E+00 0. -1.
        -11    1    4    4    0    0  0.73105878896E-01 -0.13169811147E-01 -0.31152375672E-01  0.80552126514E-01  0.51100000000E-03 0. -1.
         11    1    4    4    0    0  0.50149419113E-01  0.30702341444E-02 -0.10829669125E-01  0.51399741530E-01  0.51100000000E-03 0.  1.
</event>
<event>
 8    1  0.1123191E+005  0.1043930E+01  0.7957747E-01            NaN
         13   -1    0    0    0    0  0.00000000000E+00  0.00000000000E+00  0.74505805969E-08  0.10566000000E+00  0.10566000000E+00 0.  1.
     999900   -1    0    0    0    0 -0.00000000000E+00 -0.00000000000E+00 -0.74505805969E-08  0.93827000000E+00  0.93827000000E+00 0.  1.
     999902    2    1    2    0    0 -0.15546984756E-01  0.10354953186E-03  0.17245278335E-01  0.10207110620E+01  0.10204469379E+01 0.  0.
     999903    2    3    3    0    0 -0.11161078507E+00  0.33289572978E-01 -0.55214962222E-01  0.13190284176E+00  0.28009009221E-01 0.  0.
         14    1    1    2    0    0  0.15546984756E-01 -0.10354953186E-03 -0.17245278335E-01  0.23218938011E-01  0.00000000000E+00 0. -1.
     999901    1    3    3    0    0  0.96063800318E-01 -0.33186023446E-01  0.72460240557E-01  0.88880822023E+00  0.88000000000E+00 0. -1.
        -11    1    4    4    0    0 -0.71533148285E-01  0.26412563685E-01 -0.21915273072E-01  0.79342013705E-01  0.51100000000E-03 0.  1.
         11    1    4    4    0    0 -0.40077636789E-01  0.68770092933E-02 -0.33299689150E-01  0.52560828055E-01  0.51100000000E-03 0. -1.
</event>
<event>
 8    1  0.1123191E+005  0.1043930E+01  0.7957747E-01            NaN
         13   -1    0    0    0    0  0.00000000000E+00  0.00000000000E+00  0.74505805969E-08  0.10566000000E+00  0.10566000000E+00 0.  1.
     999900   -1    0    0    0    0 -0.00000000000E+00 -0.00000000000E+00 -0.74505805969E-08  0.93827000000E+00  0.93827000000E+00 0.  1.
     999902    2    1    2    0    0 -0.83483753591E-02  0.21794528950E-01 -0.21066866257E-02  0.10204963705E+01  0.10202272821E+01 0.  0.
     999903    2    3    3    0    0  0.77781030668E-02 -0.48330089654E-01 -0.11846791211E+00  0.12992494706E+00  0.21202575668E-01 0.  0.
         14    1    1    2    0    0  0.83483753591E-02 -0.21794528950E-01  0.21066866257E-02  0.23433629506E-01  0.00000000000E+00 0.  1.
     999901    1    3    3    0    0 -0.16126478426E-01  0.70124618604E-01  0.11636122549E+00  0.89057142343E+00  0.88000000000E+00 0. -1.
        -11    1    4    4    0    0 -0.44679614391E-03 -0.15320738362E-01 -0.63120456245E-01  0.64956737667E-01  0.51100000000E-03 0. -1.
         11    1    4    4    0    0  0.82248992107E-02 -0.33009351291E-01 -0.55347455867E-01  0.64968209392E-01  0.51100000000E-03 0.  1.
</event>
<event>
 8    1  0.1123191E+005  0.1043930E+01  0.7957747E-01            NaN
         13   -1    0    0    0    0  0.00000000000E+00  0.00000000000E+00  0.74505805969E-08  0.10566000000E+00  0.10566000000E+00 0.  1.
     999900   -1    0    0    0    0 -0.00000000000E+00 -0.00000000000E+00 -0.74505805969E-08  0.93827000000E+00  0.93827000000E+00 0.  1.
     999902    2    1    2    0    0 -0.21191812092E-01 -0.50029864120E-02  0.93442284168E-02  0.10202353302E+01  0.10199601422E+01 0.  0.
     999903    2    3    3    0    0 -0.72787214560E-01 -0.10723235678E+00 -0.15703050776E-01  0.13246267015E+00  0.22428023419E-01 0.  0.
         14    1    1    2    0    0  0.21191812092E-01  0.50029864120E-02 -0.93442284168E-02  0.23694669811E-01  0.00000000000E+00 0. -1.
     999901    1    3    3    0    0  0.51595402468E-01  0.10222937037E+00  0.25047279193E-01  0.88777266004E+00  0.88000000000E+00 0.  1.
        -11    1    4    4    0    0 -0.54409100766E-01 -0.79755132351E-01 -0.21460769306E-01  0.98904282631E-01  0.51100000000E-03 0.  1.
         11    1    4    4    0    0 -0.18378113794E-01 -0.27477224431E-01  0.57577185296E-02  0.33558387517E-01  0.51100000000E-03 0. -1.
</event>
<event>
 8    1  0.1123191E+005  0.1043930E+01  0.7957747E-01            NaN
         13   -1    0    0    0    0  0.00000000000E+00  0.00000000000E+00  0.74505805969E-08  0.10566000000E+00  0.10566000000E+00 0. -1.
     999900   -1    0    0    0    0 -0.00000000000E+00 -0.00000000000E+00 -0.74505805969E-08  0.93827000000E+00  0.93827000000E+00 0. -1.
     999902    2    1    2    0    0  0.18000338874E-01 -0.14295414137E-01 -0.97580049699E-03  0.10209229739E+01  0.10206637033E+01 0.  0.
     999903    2    3    3    0    0  0.12852736649E-01 -0.46834321412E-01  0.12018216984E+00  0.13201098043E+00  0.24989968096E-01 0.  0.
         14    1    1    2    0    0 -0.18000338874E-01  0.14295414137E-01  0.97580049699E-03  0.23007026134E-01  0.00000000000E+00 0.  1.
     999901    1    3    3    0    0  0.51476022249E-02  0.32538907275E-01 -0.12115797034E+00  0.88891199343E+00  0.88000000000E+00 0. -1.
        -11    1    4    4    0    0 -0.12766678926E-02 -0.30695418322E-01  0.50626106598E-01  0.59220793453E-01  0.51100000000E-03 0. -1.
         11    1    4    4    0    0  0.14129404541E-01 -0.16138903090E-01  0.69556063243E-01  0.72790186979E-01  0.51100000000E-03 0.  1.
</event>
<event>
 8    1  0.1123191E+005  0.1043930E+01  0.7957747E-01            NaN
         13   -1    0    0    0    0  0.00000000000E+00  0.00000000000E+00  0.74505805969E-08  0.10566000000E+00  0.10566000000E+00 0. -1.
     999900   -1    0    0    0    0 -0.00000000000E+00 -0.00000000000E+00 -0.74505805969E-08  0.93827000000E+00  0.93827000000E+00 0.  1.
     999902    2    1    2    0    0  0.17655930352E-01 -0.13378200954E-01  0.13696148406E-02  0.10217357669E+01  0.10214946859E+01 0.  0.
     999903    2    3    3    0    0  0.53270824546E-01 -0.34310403666E-01 -0.11532795239E+00  0.13307109450E+00  0.19808963653E-01 0.  0.
         14    1    1    2    0    0 -0.17655930352E-01  0.13378200954E-01 -0.13696148406E-02  0.22194233084E-01  0.00000000000E+00 0. -1.
     999901    1    3    3    0    0 -0.35614894194E-01  0.20932202712E-01  0.11669756723E+00  0.88866467241E+00  0.88000000000E+00 0. -1.
        -11    1    4    4    0    0  0.19219422440E-01 -0.26891271940E-02 -0.41800600506E-01  0.46088707159E-01  0.51100000000E-03 0.  1.
         11    1    4    4    0    0  0.34051402106E-01 -0.31621276472E-01 -0.73527351888E-01  0.86982387342E-01  0.51100000000E-03 0. -1.
</event>
<event>
 8    1  0.1123191E+005  0.1043930E+01  0.7957747E-01            NaN
         13   -1    0    0    0    0  0.00000000000E+00  0.00000000000E+00  0.74505805969E-08  0.10566000000E+00  0.10566000000E+00 0.  1.
     999900   -1    0    0    0    0 -0.00000000000E+00 -0.00000000000E+00 -0.74505805969E-08  0.93827000000E+00  0.93827000000E+00 0.  1.
     999902    2    1    2    0    0 -0.17798005524E-01  0.72680987720E-02  0.16338556854E-01  0.10187002021E+01  0.10183877253E+01 0.  0.
     999903    2    3    3    0    0 -0.68151802866E-01  0.91311719630E-01  0.61393305286E-01  0.13211756894E+00  0.26521985488E-01 0.  0.
         14    1    1    2    0    0  0.17798005524E-01 -0.72680987720E-02 -0.16338556854E-01  0.25229797868E-01  0.00000000000E+00 0. -1.
     999901    1    3    3    0    0  0.50353797342E-01 -0.84043620858E-01 -0.45054748432E-01  0.88658263319E+00  0.88000000000E+00 0. -1.
        -11    1    4    4    0    0 -0.39591510555E-01  0.57985910887E-01  0.51625977932E-01  0.87151341285E-01  0.51100000000E-03 0. -1.
         11    1    4    4    0    0 -0.28560292311E-01  0.33325808743E-01  0.97673273543E-02  0.44966227659E-01  0.51100000000E-03 0.  1.
</event>
<event>
 8    1  0.1123191E+005  0.1043930E+01  0.7957747E-01            NaN
         13   -1    0    0    0    0  0.00000000000E+00  0.00000000000E+00  0.74505805969E-08  0.10566000000E+00  0.10566000000E+00 0.  1.
     999900   -1    0    0    0    0 -0.00000000000E+00 -0.00000000000E+00 -0.74505805969E-08  0.93827000000E+00  0.93827000000E+00 0.  1.
     999902    2    1    2    0    0  0.18435729469E-01  0.26341833333E-02 -0.14483327638E-01  0.10203380136E+01  0.10200652333E+01 0.  0.
     999903    2    3    3    0    0  0.46388875393E-01 -0.11999141354E+00  0.13994314176E-01  0.13093968245E+00  0.19987309149E-01 0.  0.
         14    1    1    2    0    0 -0.18435729469E-01 -0.26341833333E-02  0.14483327638E-01  0.23591986401E-01  0.00000000000E+00 0.  1.
     999901    1    3    3    0    0 -0.27953145924E-01  0.12262559687E+00 -0.28477641814E-01  0.88939833115E+00  0.88000000000E+00 0.  1.
        -11    1    4    4    0    0  0.20511180026E-01 -0.47342869245E-01 -0.39811957215E-02  0.51751007863E-01  0.51100000000E-03 0.  1.
         11    1    4    4    0    0  0.25877695368E-01 -0.72648544291E-01  0.17975509897E-01  0.79188674583E-01  0.51100000000E-03 0. -1.
</event>
<event>
 8    1  0.1123191E+005  0.1043930E+01  0.7957747E-01            NaN
         13   -1    0    0    0    0  0.00000000000E+00  0.00000000000E+00  0.74505805969E-08  0.10566000000E+00  0.10566000000E+00 0. -1.
     999900   -1    0    0    0    0 -0.00000000000E+00 -0.00000000000E+00 -0.74505805969E-08  0.93827000000E+00  0.93827000000E+00 0.  1.
     999902    2    1    2    0    0 -0.32789751265E-01  0.45142231065E-02  0.13329698516E-01  0.10082476954E+01  0.10076160918E+01 0.  0.
     999903    2    3    3    0    0  0.85408528102E-01  0.75614377552E-01  0.18998588228E-01  0.11748498766E+00  0.20727402291E-01 0.  0.
         14    1    1    2    0    0  0.32789751265E-01 -0.45142231065E-02 -0.13329698516E-01  0.35682304589E-01  0.00000000000E+00 0.  1.
     999901    1    3    3    0    0 -0.11819827937E+00 -0.71100154445E-01 -0.56688897130E-02  0.89076270775E+00  0.88000000000E+00 0. -1.
        -11    1    4    4    0    0  0.76219959833E-02  0.24689822833E-02  0.57817354468E-02  0.98934464198E-02  0.51100000000E-03 0.  1.
         11    1    4    4    0    0  0.77786532119E-01  0.73145395269E-01  0.13216852782E-01  0.10759154124E+00  0.51100000000E-03 0. -1.
</event>
<event>
 8    1  0.1123191E+005  0.1043930E+01  0.7957747E-01            NaN
         13   -1    0    0    0    0  0.00000000000E+00  0.00000000000E+00  0.74505805969E-08  0.10566000000E+00  0.10566000000E+00 0.  1.
     999900   -1    0    0    0    0 -0.00000000000E+00 -0.00000000000E+00 -0.74505805969E-08  0.93827000000E+00  0.93827000000E+00 0.  1.
     999902    2    1    2    0    0  0.73238691229E-02 -0.13437312004E-01  0.19392878468E-01  0.10192260702E+01  0.10189266401E+01 0.  0.
     999903    2    3    3    0    0  0.67473270069E-01  0.10551295542E+00 -0.19302728589E-01  0.12834758995E+00  0.20368666623E-01 0.  0.
         14    1    1    2    0    0 -0.73238691229E-02  0.13437312004E-01 -0.19392878468E-01  0.24703929811E-01  0.00000000000E+00 0. -1.
     999901    1    3    3    0    0 -0.60149400946E-01 -0.11895026742E+00  0.38695607057E-01  0.89087848024E+00  0.88000000000E+00 0.  1.
        -11    1    4    4    0    0  0.47648459443E-01  0.62533726299E-01 -0.44819217461E-02  0.78747643493E-01  0.51100000000E-03 0. -1.
         11    1    4    4    0    0  0.19824810625E-01  0.42979229116E-01 -0.14820806843E-01  0.49599946454E-01  0.51100000000E-03 0.  1.
</event>
<event>
 8    1  0.1123191E+005  0.1043930E+01  0.7957747E-01            NaN
         13   -1    0    0    0    0  0.00000000000E+00  0.00000000000E+00  0.74505805969E-08  0.10566000000E+00  0.10566000000E+00 0. -1.
     999900   -1    0    0    0    0 -0.00000000000E+00 -0.00000000000E+00 -0.74505805969E-08  0.93827000000E+00  0.93827000000E+00 0.  1.
     999902    2    1    2    0    0  0.62797381372E-02  0.22586076808E-01 -0.10679749948E-02  0.10204628624E+01  0.10201929950E+01 0.  0.
     999903    2    3    3    0    0  0.10836833086E+00 -0.28076377545E-01  0.64419641449E-01  0.13070031376E+00  0.20017584839E-01 0.  0.
         14    1    1    2    0    0 -0.62797381372E-02 -0.22586076808E-01  0.10679749948E-02  0.23467137603E-01  0.00000000000E+00 0.  1.
     999901    1    3    3    0    0 -0.10208859273E+00  0.50662454354E-01 -0.65487616443E-01  0.88976254864E+00  0.88000000000E+00 0.  1.
        -11    1    4    4    0    0  0.67597980171E-01 -0.19470507438E-01  0.51110330374E-01  0.86954669657E-01  0.51100000000E-03 0. -1.
         11    1    4    4    0    0  0.40770350693E-01 -0.86058701077E-02  0.13309311074E-01  0.43745644106E-01  0.51100000000E-03 0.  1.
</event>
<event>
 8    1  0.1123191E+005  0.1043930E+01  0.7957747E-01            NaN
         13   -1    0    0    0    0  0.00000000000E+00  0.00000000000E+00  0.74505805969E-08  0.10566000000E+00  0.10566000000E+00 0.  1.
     999900   -1    0    0    0    0 -0.00000000000E+00 -0.00000000000E+00 -0.74505805969E-08  0.93827000000E+00  0.93827000000E+00 0. -1.
     999902    2    1    2    0    0  0.27904803262E-02  0.24152936012E-01 -0.16876127701E-03  0.10196158153E+01  0.10193258709E+01 0.  0.
     999903    2    3    3    0    0  0.17687054274E-01  0.50282502265E-01 -0.11817741661E+00  0.13122924126E+00  0.20348219639E-01 0.  0.
         14    1    1    2    0    0 -0.27904803262E-02 -0.24152936012E-01  0.16876127701E-03  0.24314184725E-01  0.00000000000E+00 0.  1.
     999901    1    3    3    0    0 -0.14896573948E-01 -0.26129566252E-01  0.11800865534E+00  0.88838657401E+00  0.88000000000E+00 0.  1.
        -11    1    4    4    0    0  0.18400811187E-02  0.22077194989E-01 -0.68041236271E-01  0.71558782770E-01  0.51100000000E-03 0. -1.
         11    1    4    4    0    0  0.15846973155E-01  0.28205307276E-01 -0.50136180342E-01  0.59670458495E-01  0.51100000000E-03 0.  1.
</event>
<event>
 8    1  0.1123191E+005  0.1043930E+01  0.7957747E-01            NaN
         13   -1    0    0    0    0  0.00000000000E+00  0.00000000000E+00  0.74505805969E-08  0.10566000000E+00  0.10566000000E+00 0. -1.
     999900   -1    0    0    0    0 -0.00000000000E+00 -0.00000000000E+00 -0.74505805969E-08  0.93827000000E+00  0.93827000000E+00 0.  1.
     999902    2    1    2    0    0 -0.14342294681E-01 -0.35874758620E-02 -0.17605396181E-01  0.10209404073E+01  0.10206815340E+01 0.  0.
     999903    2    3    3    0    0  0.12064530690E+00  0.68558450789E-02  0.39281896308E-01  0.12877064786E+00  0.20893053479E-01 0.  0.
         14    1    1    2    0    0  0.14342294681E-01  0.35874758620E-02  0.17605396181E-01  0.22989592742E-01  0.00000000000E+00 0. -1.
     999901    1    3    3    0    0 -0.13498760158E+00 -0.10443320941E-01 -0.56887292488E-01  0.89216975940E+00  0.88000000000E+00 0.  1.
        -11    1    4    4    0    0  0.30751838307E-01 -0.96573237682E-03  0.11014339989E-02  0.30790947958E-01  0.51100000000E-03 0. -1.
         11    1    4    4    0    0  0.89893468596E-01  0.78215774558E-02  0.38180462309E-01  0.97979699904E-01  0.51100000000E-03 0.  1.
</event>
<event>
 8    1  0.1123191E+005  0.1043930E+01  0.7957747E-01            NaN
         13   -1    0    0    0    0  0.00000000000E+00  0.00000000000E+00  0.74505805969E-08  0.10566000000E+00  0.10566000000E+00 0.  1.
     999900   -1    0    0    0    0 -0.00000000000E+00 -0.00000000000E+00 -0.74505805969E-08  0.93827000000E+00  0.93827000000E+00 0.  1.
     999902    2    1    2    0    0  0.34491671814E-02  0.18820536603E-01 -0.14705348297E-01  0.10197979338E+01  0.10195123683E+01 0.  0.
     999903    2    3    3    0    0 -0.47063759090E-01  0.52878005687E-01  0.10648963921E+00  0.12940493518E+00  0.19862353467E-01 0.  0.
         14    1    1    2    0    0 -0.34491671814E-02 -0.18820536603E-01  0.14705348297E-01  0.24132066236E-01  0.00000000000E+00 0.  1.
     999901    1    3    3    0    0  0.50512926271E-01 -0.34057469083E-01 -0.12119498751E+00  0.89039299858E+00  0.88000000000E+00 0.  1.
        -11    1    4    4    0    0 -0.15045708471E-01  0.15858245700E-01  0.18176499050E-01  0.28434196644E-01  0.51100000000E-03 0. -1.
         11    1    4    4    0    0 -0.32018050618E-01  0.37019759987E-01  0.88313140163E-01  0.10097073854E+00  0.51100000000E-03 0.  1.
</event>
<event>
 8    1  0.1123191E+005  0.1043930E+01  0.7957747E-01            NaN
         13   -1    0    0    0    0  0.00000000000E+00  0.00000000000E+00  0.74505805969E-08  0.10566000000E+00  0.10566000000E+00 0.  1.
     999900   -1    0    0    0    0 -0.00000000000E+00 -0.00000000000E+00 -0.74505805969E-08  0.93827000000E+00  0.93827000000E+00 0.  1.
     999902    2    1    2    0    0  0.12328370192E-01  0.16785976082E-01 -0.83026875731E-02  0.10215091988E+01  0.10212631154E+01 0.  0.
     999903    2    3    3    0    0  0.12473097143E+00 -0.22977833023E-01 -0.34693123658E-01  0.13307689392E+00  0.20495141402E-01 0.  0.
         14    1    1    2    0    0 -0.12328370192E-01 -0.16785976082E-01  0.83026875731E-02  0.22420801180E-01  0.00000000000E+00 0.  1.
     999901    1    3    3    0    0 -0.11240260124E+00  0.39763809105E-01  0.26390436085E-01  0.88843230490E+00  0.88000000000E+00 0.  1.
        -11    1    4    4    0    0  0.47231232689E-01  0.11465446715E-02 -0.14694573835E-01  0.49480253912E-01  0.51100000000E-03 0.  1.
         11    1    4    4    0    0  0.77499738741E-01 -0.24124377695E-01 -0.19998549823E-01  0.83596640005E-01  0.51100000000E-03 0. -1.
</event>
<event>
 8    1  0.1123191E+005  0.1043930E+01  0.7957747E-01            NaN
         13   -1    0    0    0    0  0.00000000000E+00  0.00000000000E+00  0.74505805969E-08  0.10566000000E+00  0.10566000000E+00 0. -1.
     999900   -1    0    0    0    0 -0.00000000000E+00 -0.00000000000E+00 -0.74505805969E-08  0.93827000000E+00  0.93827000000E+00 0. -1.
     999902    2    1    2    0    0 -0.21069852223E-03 -0.21774840833E-01 -0.13114996692E-01  0.10185097084E+01  0.10181924351E+01 0.  0.
     999903    2    3    3    0    0  0.30484676303E-01 -0.13103729327E-01  0.12157426964E+00  0.12769065119E+00  0.20580965726E-01 0.  0.
         14    1    1    2    0    0  0.21069852223E-03  0.21774840833E-01  0.13114996692E-01  0.25420291608E-01  0.00000000000E+00 0. -1.
     999901    1    3    3    0    0 -0.30695374826E-01 -0.86711115068E-02 -0.13468926634E+00  0.89081905720E+00  0.88000000000E+00 0. -1.
        -11    1    4    4    0    0  0.11982833105E-01 -0.16324684530E-01  0.62416180824E-01  0.65621066464E-01  0.51100000000E-03 0. -1.
         11    1    4    4    0    0  0.18501843199E-01  0.32209552038E-02  0.59158088820E-01  0.62069584725E-01  0.51100000000E-03 0.  1.
</event>
<event>
 7    1  0.1123191E+005  0.1043930E+01  0.7957747E-01            NaN
         13   -1    0    0    0    0  0.00000000000E+00  0.00000000000E+00  0.74505805969E-08  0.10566000000E+00  0.10566000000E+00 0. -1.
     999900   -1    0    0    0    0 -0.00000000000E+00 -0.00000000000E+00 -0.74505805969E-08  0.93827000000E+00  0.93827000000E+00 0. -1.
     999902    2    1    2    0    0  0.11362806406E-02 -0.23464201245E-01  0.84507700957E-02  0.10189645160E+01  0.10186586325E+01 0.  0.
         14    1    1    2    0    0 -0.11362806406E-02  0.23464201245E-01 -0.84507700957E-02  0.24965483953E-01  0.00000000000E+00 0. -1.
     999901    1    3    3    0    0 -0.21993809971E-01 -0.54130312074E-02 -0.11451578579E+00  0.88770878884E+00  0.88000000000E+00 0. -1.
        -11    1    3    3    0    0  0.28418107772E-01 -0.22552502114E-01  0.81541872718E-01  0.89249886993E-01  0.51100000000E-03 0.  1.
         11    1    3    3    0    0 -0.52880171600E-02  0.45013320764E-02  0.41424683166E-01  0.42005840217E-01  0.51100000000E-03 0. -1.
</event>
<event>
 8    1  0.1123191E+005  0.1043930E+01  0.7957747E-01            NaN
         13   -1    0    0    0    0  0.00000000000E+00  0.00000000000E+00  0.74505805969E-08  0.10566000000E+00  0.10566000000E+00 0. -1.
     999900   -1    0    0    0    0 -0.00000000000E+00 -0.00000000000E+00 -0.74505805969E-08  0.93827000000E+00  0.93827000000E+00 0. -1.
     999902    2    1    2    0    0 -0.84589262114E-02 -0.20344467744E-01  0.69447875416E-02  0.10208284660E+01  0.10205670365E+01 0.  0.
     999903    2    3    3    0    0  0.97071999909E-01  0.22063484845E-01  0.81741233355E-01  0.13036245364E+00  0.20074101695E-01 0.  0.
         14    1    1    2    0    0  0.84589262114E-02  0.20344467744E-01 -0.69447875416E-02  0.23101534028E-01  0.00000000000E+00 0. -1.
     999901    1    3    3    0    0 -0.10553092612E+00 -0.42407952590E-01 -0.74796445814E-01  0.89046601233E+00  0.88000000000E+00 0. -1.
        -11    1    4    4    0    0  0.37222692842E-01 -0.10303778492E-02  0.26542737172E-01  0.45731483231E-01  0.51100000000E-03 0.  1.
         11    1    4    4    0    0  0.59849307068E-01  0.23093862694E-01  0.55198496183E-01  0.84630970410E-01  0.51100000000E-03 0. -1.
</event>
<event>
 8    1  0.1123191E+005  0.1043930E+01  0.7957747E-01            NaN
         13   -1    0    0    0    0  0.00000000000E+00  0.00000000000E+00  0.74505805969E-08  0.10566000000E+00  0.10566000000E+00 0.  1.
     999900   -1    0    0    0    0 -0.00000000000E+00 -0.00000000000E+00 -0.74505805969E-08  0.93827000000E+00  0.93827000000E+00 0.  1.
     999902    2    1    2    0    0 -0.11512789850E-01 -0.17591824162E-01  0.11700715289E-01  0.10198691740E+01  0.10195853122E+01 0.  0.
     999903    2    3    3    0    0 -0.68368020699E-01  0.93363547673E-01  0.55846830925E-01  0.12998575958E+00  0.19659371308E-01 0.  0.
         14    1    1    2    0    0  0.11512789850E-01  0.17591824162E-01 -0.11700715289E-01  0.24060825957E-01  0.00000000000E+00 0. -1.
     999901    1    3    3    0    0  0.56855230848E-01 -0.11095537184E+00 -0.44146115636E-01  0.88988341446E+00  0.88000000000E+00 0.  1.
        -11    1    4    4    0    0 -0.24390686732E-01  0.25940191488E-01  0.26162569603E-01  0.44187558237E-01  0.51100000000E-03 0. -1.
         11    1    4    4    0    0 -0.43977333966E-01  0.67423356186E-01  0.29684261323E-01  0.85798201341E-01  0.51100000000E-03 0.  1.
</event>
<event>
 8    1  0.1123191E+005  0.1043930E+01  0.7957747E-01            NaN
         13   -1    0    0    0    0  0.00000000000E+00  0.00000000000E+00  0.74505805969E-08  0.10566000000E+00  0.10566000000E+00 0. -1.
     999900   -1    0    0    0    0 -0.00000000000E+00 -0.00000000000E+00 -0.74505805969E-08  0.93827000000E+00  0.93827000000E+00 0.  1.
     999902    2    1    2    0    0  0.43812856553E-02  0.22790070958E-01  0.97272107699E-02  0.10187665021E+01  0.10184556859E+01 0.  0.
     999903    2    3    3    0    0  0.90768308710E-01  0.54111532267E-01 -0.73348412199E-01  0.13009034575E+00  0.19405274942E-01 0.  0.
         14    1    1    2    0    0 -0.43812856553E-02 -0.22790070958E-01 -0.97272107699E-02  0.25163497921E-01  0.00000000000E+00 0.  1.
     999901    1    3    3    0    0 -0.86387023055E-01 -0.31321461310E-01  0.83075622969E-01  0.88867615633E+00  0.88000000000E+00 0.  1.
        -11    1    4    4    0    0  0.23629150163E-01  0.19362670167E-01 -0.30594565251E-01  0.43238157654E-01  0.51100000000E-03 0.  1.
         11    1    4    4    0    0  0.67139158548E-01  0.34748862100E-01 -0.42753846948E-01  0.86852188099E-01  0.51100000000E-03 0. -1.
</event>
<event>
 8    1  0.1123191E+005  0.1043930E+01  0.7957747E-01            NaN
         13   -1    0    0    0    0  0.00000000000E+00  0.00000000000E+00  0.74505805969E-08  0.10566000000E+00  0.10566000000E+00 0.  1.
     999900   -1    0    0    0    0 -0.00000000000E+00 -0.00000000000E+00 -0.74505805969E-08  0.93827000000E+00  0.93827000000E+00 0.  1.
     999902    2    1    2    0    0  0.10481143265E-01  0.37270023852E-02 -0.22453792477E-01  0.10188717138E+01  0.10185635235E+01 0.  0.
     999903    2    3    3    0    0  0.52299999679E-01 -0.92898779953E-01 -0.73644936311E-01  0.13111843063E+00  0.20074683648E-01 0.  0.
         14    1    1    2    0    0 -0.10481143265E-01 -0.37270023852E-02  0.22453792477E-01  0.25058286204E-01  0.00000000000E+00 0.  1.
     999901    1    3    3    0    0 -0.41818856414E-01  0.96625782338E-01  0.51191143834E-01  0.88775328317E+00  0.88000000000E+00 0.  1.
        -11    1    4    4    0    0  0.17208918597E-01 -0.50958824227E-01 -0.35743158600E-01  0.64581600735E-01  0.51100000000E-03 0.  1.
         11    1    4    4    0    0  0.35091081082E-01 -0.41939955727E-01 -0.37901777711E-01  0.66536829895E-01  0.51100000000E-03 0. -1.
</event>
<event>
 8    1  0.1123191E+005  0.1043930E+01  0.7957747E-01            NaN
         13   -1    0    0    0    0  0.00000000000E+00  0.00000000000E+00  0.74505805969E-08  0.10566000000E+00  0.10566000000E+00 0. -1.
     999900   -1    0    0    0    0 -0.00000000000E+00 -0.00000000000E+00 -0.74505805969E-08  0.93827000000E+00  0.93827000000E+00 0.  1.
     999902    2    1    2    0    0 -0.23184513946E-02  0.94320769655E-02  0.21734816762E-01  0.10201236657E+01  0.10198458471E+01 0.  0.
     999903    2    3    3    0    0  0.11064799984E+00 -0.46556670169E-01  0.48105531778E-01  0.13074659521E+00  0.19236074584E-01 0.  0.
         14    1    1    2    0    0  0.23184513946E-02 -0.94320769655E-02 -0.21734816762E-01  0.23806334292E-01  0.00000000000E+00 0.  1.
     999901    1    3    3    0    0 -0.11296645124E+00  0.55988747135E-01 -0.26370715016E-01  0.88937707049E+00  0.88000000000E+00 0. -1.
        -11    1    4    4    0    0  0.61568778438E-01 -0.32933029851E-01  0.35217992923E-01  0.78204009361E-01  0.51100000000E-03 0.  1.
         11    1    4    4    0    0  0.49079221406E-01 -0.13623640318E-01  0.12887538855E-01  0.52542585853E-01  0.51100000000E-03 0. -1.
</event>
<event>
 8    1  0.1123191E+005  0.1043930E+01  0.7957747E-01            NaN
         13   -1    0    0    0    0  0.00000000000E+00  0.00000000000E+00  0.74505805969E-08  0.10566000000E+00  0.10566000000E+00 0.  1.
     999900   -1    0    0    0    0 -0.00000000000E+00 -0.00000000000E+00 -0.74505805969E-08  0.93827000000E+00  0.93827000000E+00 0.  1.
     999902    2    1    2    0    0 -0.13519577353E-01  0.18114624089E-01 -0.11501218289E-01  0.10185686791E+01  0.10182528946E+01 0.  0.
     999903    2    3    3    0    0 -0.18545242366E-01  0.69025411376E-01  0.10563316483E+00  0.12933438525E+00  0.21461227066E-01 0.  0.
         14    1    1    2    0    0  0.13519577353E-01 -0.18114624089E-01  0.11501218289E-01  0.25361320940E-01  0.00000000000E+00 0. -1.
     999901    1    3    3    0    0  0.50256650126E-02 -0.50910787287E-01 -0.11713438312E+00  0.88923429381E+00  0.88000000000E+00 0.  1.
        -11    1    4    4    0    0 -0.17796295601E-01  0.34187959327E-01  0.43708181035E-01  0.58276847122E-01  0.51100000000E-03 0. -1.
         11    1    4    4    0    0 -0.74894676510E-03  0.34837452049E-01  0.61924983795E-01  0.71057538133E-01  0.51100000000E-03 0.  1.
</event>
<event>
 8    1  0.1123191E+005  0.1043930E+01  0.7957747E-01            NaN
         13   -1    0    0    0    0  0.00000000000E+00  0.00000000000E+00  0.74505805969E-08  0.10566000000E+00  0.10566000000E+00 0.  1.
     999900   -1    0    0    0    0 -0.00000000000E+00 -0.00000000000E+00 -0.74505805969E-08  0.93827000000E+00  0.93827000000E+00 0.  1.
     999902    2    1    2    0    0 -0.12967646148E-01  0.61850400992E-02 -0.19217091940E-01  0.10199360176E+01  0.10196537495E+01 0.  0.
     999903    2    3    3    0    0  0.76133656058E-02  0.92855137868E-01  0.87127560514E-01  0.12906876096E+00  0.19684849256E-01 0.  0.
         14    1    1    2    0    0  0.12967646148E-01 -0.61850400992E-02  0.19217091940E-01  0.23993982376E-01  0.00000000000E+00 0.  1.
     999901    1    3    3    0    0 -0.20581011754E-01 -0.86670097769E-01 -0.10634465245E+00  0.89086725666E+00  0.88000000000E+00 0.  1.
        -11    1    4    4    0    0  0.12942009254E-01  0.39276429703E-01  0.36501162567E-01  0.55160942011E-01  0.51100000000E-03 0. -1.
         11    1    4    4    0    0 -0.53286436478E-02  0.53578708165E-01  0.50626397946E-01  0.73907818949E-01  0.51100000000E-03 0.  1.
</event>
<event>
 8    1  0.1123191E+005  0.1043930E+01  0.7957747E-01            NaN
         13   -1    0    0    0    0  0.00000000000E+00  0.00000000000E+00  0.74505805969E-08  0.10566000000E+00  0.10566000000E+00 0. -1.
     999900   -1    0    0    0    0 -0.00000000000E+00 -0.00000000000E+00 -0.74505805969E-08  0.93827000000E+00  0.93827000000E+00 0.  1.
     999902    2    1    2    0    0 -0.21737871085E-01  0.28015978941E-02  0.93852529741E-02  0.10200874548E+01  0.10198087803E+01 0.  0.
     999903    2    3    3    0    0  0.65123176126E-01  0.86913989175E-01  0.67391203461E-01  0.12992767911E+00  0.23335764676E-01 0.  0.
         14    1    1    2    0    0  0.21737871085E-01 -0.28015978941E-02 -0.93852529741E-02  0.23842545239E-01  0.00000000000E+00 0.  1.
     999901    1    3    3    0    0 -0.86861047211E-01 -0.84112391280E-01 -0.58005950486E-01  0.89015977565E+00  0.88000000000E+00 0.  1.
        -11    1    4    4    0    0  0.36998955078E-01  0.62451126190E-01  0.53376759832E-01  0.90102194482E-01  0.51100000000E-03 0. -1.
         11    1    4    4    0    0  0.28124221048E-01  0.24462862985E-01  0.14014443628E-01  0.39825484632E-01  0.51100000000E-03 0.  1.
</event>
<event>
 8    1  0.1123191E+005  0.1043930E+01  0.7957747E-01            NaN
         13   -1    0    0    0    0  0.00000000000E+00  0.00000000000E+00  0.74505805969E-08  0.10566000000E+00  0.10566000000E+00 0. -1.
     999900   -1    0    0    0    0 -0.00000000000E+00 -0.00000000000E+00 -0.74505805969E-08  0.93827000000E+00  0.93827000000E+00 0.  1.
     999902    2    1    2    0    0  0.12711783595E-01 -0.11257090331E-01 -0.16630547490E-01  0.10201626561E+01  0.10198857575E+01 0.  0.
     999903    2    3    3    0    0  0.90881634210E-01  0.12287615956E-01 -0.94119370066E-01  0.13299333950E+00  0.20452764797E-01 0.  0.
         14    1    1    2    0    0 -0.12711783595E-01  0.11257090331E-01  0.16630547490E-01  0.23767343871E-01  0.00000000000E+00 0. -1.
     999901    1    3    3    0    0 -0.78169850614E-01 -0.23544706287E-01  0.77488822576E-01  0.88716931663E+00  0.88000000000E+00 0. -1.
        -11    1    4    4    0    0  0.46203916147E-01 -0.37353205481E-02 -0.42911635563E-01  0.63169803503E-01  0.51100000000E-03 0.  1.
         11    1    4    4    0    0  0.44677718062E-01  0.16022936504E-01 -0.51207734503E-01  0.69823535999E-01  0.51100000000E-03 0. -1.
</event>
<event>
 8    1  0.1123191E+005  0.1043930E+01  0.7957747E-01            NaN
         13   -1    0    0    0    0  0.00000000000E+00  0.00000000000E+00  0.74505805969E-08  0.10566000000E+00  0.10566000000E+00 0.  1.
     999900   -1    0    0    0    0 -0.00000000000E+00 -0.00000000000E+00 -0.74505805969E-08  0.93827000000E+00  0.93827000000E+00 0.  1.
     999902    2    1    2    0    0 -0.17966916799E-01  0.14896874779E-01 -0.73579842948E-02  0.10194582426E+01  0.10191644821E+01 0.  0.
     999903    2    3    3    0    0 -0.42999814543E-01  0.98997767292E-01  0.74100235442E-01  0.13135067724E+00  0.10611952612E-01 0.  0.
         14    1    1    2    0    0  0.17966916799E-01 -0.14896874779E-01  0.73579842948E-02  0.24471757402E-01  0.00000000000E+00 0.  1.
     999901    1    3    3    0    0  0.25032897744E-01 -0.84100892513E-01 -0.81458219737E-01  0.88810756536E+00  0.88000000000E+00 0.  1.
        -11    1    4    4    0    0 -0.27119425886E-01  0.68877421499E-01  0.45595677220E-01  0.86941298327E-01  0.51100000000E-03 0.  1.
         11    1    4    4    0    0 -0.15880388657E-01  0.30120345793E-01  0.28504558223E-01  0.44409378909E-01  0.51100000000E-03 0. -1.
</event>
<event>
 8    1  0.1123191E+005  0.1043930E+01  0.7957747E-01            NaN
         13   -1    0    0    0    0  0.00000000000E+00  0.00000000000E+00  0.74505805969E-08  0.10566000000E+00  0.10566000000E+00 0.  1.
     999900   -1    0    0    0    0 -0.00000000000E+00 -0.00000000000E+00 -0.74505805969E-08  0.93827000000E+00  0.93827000000E+00 0. -1.
     999902    2    1    2    0    0  0.18014786054E-01  0.14210624494E-01  0.83493372061E-02  0.10195130838E+01  0.10192206543E+01 0.  0.
     999903    2    3    3    0    0  0.69337371718E-01 -0.10545938441E+00 -0.20379690348E-01  0.12946798614E+00  0.20427304759E-01 0.  0.
         14    1    1    2    0    0 -0.18014786054E-01 -0.14210624494E-01 -0.83493372061E-02  0.24416916203E-01  0.00000000000E+00 0. -1.
     999901    1    3    3    0    0 -0.51322585664E-01  0.11967000891E+00  0.28729027554E-01  0.89004509765E+00  0.88000000000E+00 0.  1.
        -11    1    4    4    0    0 -0.17767816655E-03 -0.84319642800E-02 -0.50714713819E-03  0.84645088676E-02  0.51100000000E-03 0. -1.
         11    1    4    4    0    0  0.69515049884E-01 -0.97027420135E-01 -0.19872543210E-01  0.12100347728E+00  0.51100000000E-03 0.  1.
</event>
<event>
 8    1  0.1123191E+005  0.1043930E+01  0.7957747E-01            NaN
         13   -1    0    0    0    0  0.00000000000E+00  0.00000000000E+00  0.74505805969E-08  0.10566000000E+00  0.10566000000E+00 0.  1.
     999900   -1    0    0    0    0 -0.00000000000E+00 -0.00000000000E+00 -0.74505805969E-08  0.93827000000E+00  0.93827000000E+00 0. -1.
     999902    2    1    2    0    0 -0.23245510597E-02 -0.14489263134E-01  0.17448888480E-01  0.10211307458E+01  0.10208761894E+01 0.  0.
     999903    2    3    3    0    0 -0.74955413498E-01  0.96816545776E-01 -0.37159685899E-01  0.12947704525E+00  0.19791549751E-01 0.  0.
         14    1    1    2    0    0  0.23245510597E-02  0.14489263134E-01 -0.17448888480E-01  0.22799254220E-01  0.00000000000E+00 0. -1.
     999901    1    3    3    0    0  0.72630862439E-01 -0.11130580891E+00  0.54608574379E-01  0.89165370053E+00  0.88000000000E+00 0. -1.
        -11    1    4    4    0    0 -0.64290045570E-01  0.83362055105E-01 -0.38857449426E-01  0.11221677543E+00  0.51100000000E-03 0.  1.
         11    1    4    4    0    0 -0.10665367929E-01  0.13454490671E-01  0.16977635276E-02  0.17260269820E-01  0.51100000000E-03 0. -1.
</event>
<event>
 8    1  0.1123191E+005  0.1043930E+01  0.7957747E-01            NaN
         13   -1    0    0    0    0  0.00000000000E+00  0.00000000000E+00  0.74505805969E-08  0.10566000000E+00  0.10566000000E+00 0.  1.
     999900   -1    0    0    0    0 -0.00000000000E+00 -0.00000000000E+00 -0.74505805969E-08  0.93827000000E+00  0.93827000000E+00 0.  1.
     999902    2    1    2    0    0 -0.23441702841E-01 -0.14572449828E-02  0.25489766395E-02  0.10203051344E+01  0.10200315843E+01 0.  0.
     999903    2    3    3    0    0 -0.12827231088E+00 -0.12934468570E-01  0.28821611401E-01  0.13361948860E+00  0.20059816383E-01 0.  0.
         14    1    1    2    0    0  0.23441702841E-01  0.14572449828E-02 -0.25489766395E-02  0.23624865649E-01  0.00000000000E+00 0. -1.
     999901    1    3    3    0    0  0.10483060804E+00  0.11477223587E-01 -0.26272634761E-01  0.88668564575E+00  0.88000000000E+00 0.  1.
        -11    1    4    4    0    0 -0.49679224904E-01 -0.32458595782E-03  0.23691837992E-02  0.49739369678E-01  0.51100000000E-03 0.  1.
         11    1    4    4    0    0 -0.78593085980E-01 -0.12609882612E-01  0.26452427602E-01  0.83880118922E-01  0.51100000000E-03 0. -1.
</event>
<event>
 8    1  0.1123191E+005  0.1043930E+01  0.7957747E-01            NaN
         13   -1    0    0    0    0  0.00000000000E+00  0.00000000000E+00  0.74505805969E-08  0.10566000000E+00  0.10566000000E+00 0. -1.
     999900   -1    0    0    0    0 -0.00000000000E+00 -0.00000000000E+00 -0.74505805969E-08  0.93827000000E+00  0.93827000000E+00 0.  1.
     999902    2    1    2    0    0  0.18062172603E-01  0.74937479580E-02 -0.18423647642E-01  0.10170631221E+01  0.10167082006E+01 0.  0.
     999903    2    3    3    0    0 -0.19152891126E-01  0.11535216517E+00 -0.51269085596E-01  0.12908946146E+00  0.19042444009E-01 0.  0.
         14    1    1    2    0    0 -0.18062172603E-01 -0.74937479580E-02  0.18423647642E-01  0.26866877936E-01  0.00000000000E+00 0.  1.
     999901    1    3    3    0    0  0.37215063729E-01 -0.10785841721E+00  0.32845437954E-01  0.88797366060E+00  0.88000000000E+00 0.  1.
        -11    1    4    4    0    0 -0.17197567698E-01  0.53151371315E-01 -0.19161001483E-01  0.59061236918E-01  0.51100000000E-03 0. -1.
         11    1    4    4    0    0 -0.19553234276E-02  0.62200793856E-01 -0.32108084113E-01  0.70028224542E-01  0.51100000000E-03 0.  1.
</event>
<event>
 8    1  0.1123191E+005  0.1043930E+01  0.7957747E-01            NaN
         13   -1    0    0    0    0  0.00000000000E+00  0.00000000000E+00  0.74505805969E-08  0.10566000000E+00  0.10566000000E+00 0.  1.
     999900   -1    0    0    0    0 -0.00000000000E+00 -0.00000000000E+00 -0.74505805969E-08  0.93827000000E+00  0.93827000000E+00 0.  1.
     999902    2    1    2    0    0  0.19656673744E-01 -0.33341678686E-02  0.12376852221E-01  0.10204632582E+01  0.10201934000E+01 0.  0.
     999903    2    3    3    0    0  0.69283252075E-01  0.10731891104E+00  0.28066942311E-01  0.13200781193E+00  0.17910652554E-01 0.  0.
         14    1    1    2    0    0 -0.19656673744E-01  0.33341678686E-02 -0.12376852221E-01  0.23466741762E-01  0.00000000000E+00 0. -1.
     999901    1    3    3    0    0 -0.49626578331E-01 -0.11065307891E+00 -0.15690090090E-01  0.88845544631E+00  0.88000000000E+00 0.  1.
        -11    1    4    4    0    0  0.44092113500E-01  0.63288639700E-01  0.25393706686E-01  0.81207560290E-01  0.51100000000E-03 0. -1.
         11    1    4    4    0    0  0.25191138575E-01  0.44030271339E-01  0.26732356246E-02  0.50800251639E-01  0.51100000000E-03 0.  1.
</event>
<event>
 8    1  0.1123191E+005  0.1043930E+01  0.7957747E-01            NaN
         13   -1    0    0    0    0  0.00000000000E+00  0.00000000000E+00  0.74505805969E-08  0.10566000000E+00  0.10566000000E+00 0. -1.
     999900   -1    0    0    0    0 -0.00000000000E+00 -0.00000000000E+00 -0.74505805969E-08  0.93827000000E+00  0.93827000000E+00 0.  1.
     999902    2    1    2    0    0  0.22409043605E-01 -0.12655540896E-02  0.79772193186E-02  0.10201097798E+01  0.10198316331E+01 0.  0.
     999903    2    3    3    0    0 -0.35994269759E-01 -0.11128771760E+00  0.53257388662E-01  0.13018499803E+00  0.20766336210E-01 0.  0.
         14    1    1    2    0    0 -0.22409043605E-01  0.12655540896E-02 -0.79772193186E-02  0.23820220202E-01  0.00000000000E+00 0.  1.
     999901    1    3    3    0    0  0.58403313364E-01  0.11002216351E+00 -0.45280169343E-01  0.88992478177E+00  0.88000000000E+00 0. -1.
        -11    1    4    4    0    0 -0.21029220535E-01 -0.36780870610E-01  0.24395567769E-01  0.48892385981E-01  0.51100000000E-03 0. -1.
         11    1    4    4    0    0 -0.14965049224E-01 -0.74506846991E-01  0.28861820892E-01  0.81292612045E-01  0.51100000000E-03 0.  1.
</event>
<event>
 8    1  0.1123191E+005  0.1043930E+01  0.7957747E-01            NaN
         13   -1    0    0    0    0  0.00000000000E+00  0.00000000000E+00  0.74505805969E-08  0.10566000000E+00  0.10566000000E+00 0. -1.
     999900   -1    0    0    0    0 -0.00000000000E+00 -0.00000000000E+00 -0.74505805969E-08  0.93827000000E+00  0.93827000000E+00 0.  1.
     999902    2    1    2    0    0 -0.61272417301E-02  0.60935404494E-02  0.21515149730E-01  0.10207443149E+01  0.10204809554E+01 0.  0.
     999903    2    3    3    0    0  0.91387250681E-01  0.60267006844E-01  0.71876650352E-01  0.13227365052E+00  0.18609783844E-01 0.  0.
         14    1    1    2    0    0  0.61272417301E-02 -0.60935404494E-02 -0.21515149730E-01  0.23185685117E-01  0.00000000000E+00 0.  1.
     999901    1    3    3    0    0 -0.97514492412E-01 -0.54173466394E-01 -0.50361500621E-01  0.88847066436E+00  0.88000000000E+00 0.  1.
        -11    1    4    4    0    0  0.40135254031E-01  0.33125099262E-01  0.42877157602E-01  0.67430131115E-01  0.51100000000E-03 0.  1.
         11    1    4    4    0    0  0.51251996651E-01  0.27141907582E-01  0.28999492750E-01  0.64843519403E-01  0.51100000000E-03 0. -1.
</event>
<event>
 8    1  0.1123191E+005  0.1043930E+01  0.7957747E-01            NaN
         13   -1    0    0    0    0  0.00000000000E+00  0.00000000000E+00  0.74505805969E-08  0.10566000000E+00  0.10566000000E+00 0.  1.
     999900   -1    0    0    0    0 -0.00000000000E+00 -0.00000000000E+00 -0.74505805969E-08  0.93827000000E+00  0.93827000000E+00 0.  1.
     999902    2    1    2    0    0 -0.18753406652E-03 -0.90311679867E-02 -0.22736864592E-01  0.10194644696E+01  0.10191708604E+01 0.  0.
     999903    2    3    3    0    0  0.49369108081E-01  0.84839755395E-01  0.78425654376E-01  0.12733137067E+00  0.20678533899E-01 0.  0.
         14    1    1    2    0    0  0.18753406652E-03  0.90311679867E-02  0.22736864592E-01  0.24465530358E-01  0.00000000000E+00 0.  1.
     999901    1    3    3    0    0 -0.49556642148E-01 -0.93870923381E-01 -0.10116251897E+00  0.89213309897E+00  0.88000000000E+00 0.  1.
        -11    1    4    4    0    0  0.37038096367E-01  0.56227093595E-01  0.41834166527E-01  0.79269573272E-01  0.51100000000E-03 0.  1.
         11    1    4    4    0    0  0.12331011714E-01  0.28612661800E-01  0.36591487849E-01  0.48061797398E-01  0.51100000000E-03 0. -1.
</event>
<event>
 8    1  0.1123191E+005  0.1043930E+01  0.7957747E-01            NaN
         13   -1    0    0    0    0  0.00000000000E+00  0.00000000000E+00  0.74505805969E-08  0.10566000000E+00  0.10566000000E+00 0. -1.
     999900   -1    0    0    0    0 -0.00000000000E+00 -0.00000000000E+00 -0.74505805969E-08  0.93827000000E+00  0.93827000000E+00 0.  1.
     999902    2    1    2    0    0 -0.22653216943E-01 -0.41183702875E-02 -0.58563037038E-02  0.10201723590E+01  0.10198956891E+01 0.  0.
     999903    2    3    3    0    0 -0.96753410142E-02  0.12542320355E+00  0.26050686944E-01  0.13002209043E+00  0.20062739035E-01 0.  0.
         14    1    1    2    0    0  0.22653216943E-01  0.41183702875E-02  0.58563037038E-02  0.23757640977E-01  0.00000000000E+00 0.  1.
     999901    1    3    3    0    0 -0.12977875929E-01 -0.12954157384E+00 -0.31906990648E-01  0.89015026859E+00  0.88000000000E+00 0.  1.
        -11    1    4    4    0    0 -0.53924821935E-02  0.30279992039E-01  0.14746324312E-01  0.34112636717E-01  0.51100000000E-03 0.  1.
         11    1    4    4    0    0 -0.42828588208E-02  0.95143211514E-01  0.11304362632E-01  0.95909453717E-01  0.51100000000E-03 0. -1.
</event>
<event>
 8    1  0.1123191E+005  0.1043930E+01  0.7957747E-01            NaN
         13   -1    0    0    0    0  0.00000000000E+00  0.00000000000E+00  0.74505805969E-08  0.10566000000E+00  0.10566000000E+00 0.  1.
     999900   -1    0    0    0    0 -0.00000000000E+00 -0.00000000000E+00 -0.74505805969E-08  0.93827000000E+00  0.93827000000E+00 0. -1.
     999902    2    1    2    0    0  0.43518989891E-02  0.22995874709E-01  0.80594876066E-03  0.10205120831E+01  0.10202433597E+01 0.  0.
     999903    2    3    3    0    0  0.90507380509E-02 -0.11058426549E+00 -0.61299617159E-01  0.12825492608E+00  0.19516335870E-01 0.  0.
         14    1    1    2    0    0 -0.43518989891E-02 -0.22995874709E-01 -0.80594876066E-03  0.23417916898E-01  0.00000000000E+00 0. -1.
     999901    1    3    3    0    0 -0.46988390618E-02  0.13358014020E+00  0.62105565920E-01  0.89225715703E+00  0.88000000000E+00 0.  1.
        -11    1    4    4    0    0  0.87740585719E-02 -0.49771983614E-01 -0.37561694950E-01  0.62971235538E-01  0.51100000000E-03 0.  1.
         11    1    4    4    0    0  0.27667947908E-03 -0.60812281876E-01 -0.23737922209E-01  0.65283690539E-01  0.51100000000E-03 0. -1.
</event>
<event>
 8    1  0.1123191E+005  0.1043930E+01  0.7957747E-01            NaN
         13   -1    0    0    0    0  0.00000000000E+00  0.00000000000E+00  0.74505805969E-08  0.10566000000E+00  0.10566000000E+00 0. -1.
     999900   -1    0    0    0    0 -0.00000000000E+00 -0.00000000000E+00 -0.74505805969E-08  0.93827000000E+00  0.93827000000E+00 0. -1.
     999902    2    1    2    0    0  0.14477195944E-01  0.28287062054E-04  0.20263970544E-01  0.10190258135E+01  0.10187214487E+01 0.  0.
     999903    2    3    3    0    0  0.55798269458E-02  0.12702737061E+00  0.17374371128E-01  0.12985975467E+00  0.19864535187E-01 0.  0.
         14    1    1    2    0    0 -0.14477195944E-01 -0.28287062054E-04 -0.20263970544E-01  0.24904186491E-01  0.00000000000E+00 0.  1.
     999901    1    3    3    0    0  0.88973689982E-02 -0.12699908355E+00  0.28895994167E-02  0.88916605883E+00  0.88000000000E+00 0.  1.
        -11    1    4    4    0    0  0.28511818207E-02  0.23447353999E-01  0.10960517386E-01  0.26044226034E-01  0.51100000000E-03 0. -1.
         11    1    4    4    0    0  0.27286451251E-02  0.10358001661E+00  0.64138537419E-02  0.10381552864E+00  0.51100000000E-03 0.  1.
</event>
<event>
 7    1  0.1123191E+005  0.1043930E+01  0.7957747E-01            NaN
         13   -1    0    0    0    0  0.00000000000E+00  0.00000000000E+00  0.74505805969E-08  0.10566000000E+00  0.10566000000E+00 0.  1.
     999900   -1    0    0    0    0 -0.00000000000E+00 -0.00000000000E+00 -0.74505805969E-08  0.93827000000E+00  0.93827000000E+00 0. -1.
     999903    2    1    2    0    0 -0.40852011043E-01  0.53945548884E-01  0.91826716529E-01  0.11574964604E+00  0.19667883475E-01 0.  0.
         14    1    1    2    0    0  0.95290675792E-02 -0.38047049442E-01  0.12866569313E-01  0.41278683435E-01  0.00000000000E+00 0. -1.
     999901    1    1    2    0    0  0.31322943464E-01 -0.15898499441E-01 -0.10469328584E+00  0.88690167052E+00  0.88000000000E+00 0. -1.
        -11    1    3    3    0    0 -0.12703610704E-01  0.28590531083E-01  0.52672893567E-01  0.61265773726E-01  0.51100000000E-03 0. -1.
         11    1    3    3    0    0 -0.28148400339E-01  0.25355017801E-01  0.39153822962E-01  0.54483872319E-01  0.51100000000E-03 0.  1.
</event>
<event>
 8    1  0.1123191E+005  0.1043930E+01  0.7957747E-01            NaN
         13   -1    0    0    0    0  0.00000000000E+00  0.00000000000E+00  0.74505805969E-08  0.10566000000E+00  0.10566000000E+00 0. -1.
     999900   -1    0    0    0    0 -0.00000000000E+00 -0.00000000000E+00 -0.74505805969E-08  0.93827000000E+00  0.93827000000E+00 0.  1.
     999902    2    1    2    0    0 -0.94968158037E-02 -0.10040186958E-01  0.18545309489E-01  0.10208015896E+01  0.10205395445E+01 0.  0.
     999903    2    3    3    0    0 -0.11225567626E+00 -0.73204109016E-02 -0.64156870708E-01  0.13096653116E+00  0.19524419513E-01 0.  0.
         14    1    1    2    0    0  0.94968158037E-02  0.10040186958E-01 -0.18545309489E-01  0.23128410421E-01  0.00000000000E+00 0.  1.
     999901    1    3    3    0    0  0.10275886045E+00 -0.27197760563E-02  0.82702180197E-01  0.88983505842E+00  0.88000000000E+00 0. -1.
        -11    1    4    4    0    0 -0.99632587443E-01 -0.17800403916E-02 -0.51167923024E-01  0.11201892024E+00  0.51100000000E-03 0. -1.
         11    1    4    4    0    0 -0.12623088814E-01 -0.55403705100E-02 -0.12988947683E-01  0.18947610918E-01  0.51100000000E-03 0.  1.
</event>
<event>
 8    1  0.1123191E+005  0.1043930E+01  0.7957747E-01            NaN
         13   -1    0    0    0    0  0.00000000000E+00  0.00000000000E+00  0.74505805969E-08  0.10566000000E+00  0.10566000000E+00 0.  1.
     999900   -1    0    0    0    0 -0.00000000000E+00 -0.00000000000E+00 -0.74505805969E-08  0.93827000000E+00  0.93827000000E+00 0. -1.
     999902    2    1    2    0    0  0.21527709842E-01  0.90180833522E-02  0.39136606073E-02  0.10202638880E+01  0.10199893707E+01 0.  0.
     999903    2    3    3    0    0  0.88228982487E-01 -0.89049203660E-01  0.34955789866E-01  0.13176522938E+00  0.20641085392E-01 0.  0.
         14    1    1    2    0    0 -0.21527709842E-01 -0.90180833522E-02 -0.39136606073E-02  0.23666112011E-01  0.00000000000E+00 0.  1.
     999901    1    3    3    0    0 -0.66701272646E-01  0.98067287012E-01 -0.31042129259E-01  0.88849865861E+00  0.88000000000E+00 0.  1.
        -11    1    4    4    0    0  0.51656082871E-01 -0.56761562956E-01  0.11413360080E-01  0.77593503827E-01  0.51100000000E-03 0.  1.
         11    1    4    4    0    0  0.36572899616E-01 -0.32287640704E-01  0.23542429787E-01  0.54171725557E-01  0.51100000000E-03 0. -1.
</event>
<event>
 8    1  0.1123191E+005  0.1043930E+01  0.7957747E-01            NaN
         13   -1    0    0    0    0  0.00000000000E+00  0.00000000000E+00  0.74505805969E-08  0.10566000000E+00  0.10566000000E+00 0. -1.
     999900   -1    0    0    0    0 -0.00000000000E+00 -0.00000000000E+00 -0.74505805969E-08  0.93827000000E+00  0.93827000000E+00 0. -1.
     999902    2    1    2    0    0  0.14392041258E-03 -0.23366468095E-01 -0.38758175254E-03  0.10205598745E+01  0.10202922595E+01 0.  0.
     999903    2    3    3    0    0 -0.69658016242E-01 -0.29501305625E-01  0.10568959792E+00  0.13142416238E+00  0.19479555663E-01 0.  0.
         14    1    1    2    0    0 -0.14392041258E-03  0.23366468095E-01  0.38758175254E-03  0.23370125458E-01  0.00000000000E+00 0. -1.
     999901    1    3    3    0    0  0.69801936655E-01  0.61348375303E-02 -0.10607717967E+00  0.88913571216E+00  0.88000000000E+00 0. -1.
        -11    1    4    4    0    0 -0.38524685576E-02 -0.37718080210E-02  0.16545197896E-02  0.56627384249E-02  0.51100000000E-03 0. -1.
         11    1    4    4    0    0 -0.65805547685E-01 -0.25729497604E-01  0.10403507813E+00  0.12576142396E+00  0.51100000000E-03 0.  1.
</event>
<event>
 8    1  0.1165599E+005  0.1043930E+01  0.7957747E-01            NaN
         13   -1    0    0    0    0  0.00000000000E+00  0.00000000000E+00  0.74505805969E-08  0.10566000000E+00  0.10566000000E+00 0.  1.
     999900   -1    0    0    0    0 -0.00000000000E+00 -0.00000000000E+00 -0.74505805969E-08  0.93827000000E+00  0.93827000000E+00 0. -1.
     999902    2    1    2    0    0  0.46397381118E-02 -0.23053534360E-01 -0.19564213621E-02  0.10203329620E+01  0.10200600635E+01 0.  0.
     999903    2    3    3    0    0 -0.12740204400E+00  0.24648396758E-03 -0.17402998317E-01  0.13004282965E+00  0.19414726952E-01 0.  0.
         14    1    1    2    0    0 -0.46397381118E-02  0.23053534360E-01  0.19564213621E-02  0.23597037966E-01  0.00000000000E+00 0.  1.
     999901    1    3    3    0    0  0.13204178212E+00 -0.23300018328E-01  0.15446576955E-01  0.89029013238E+00  0.88000000000E+00 0.  1.
        -11    1    4    4    0    0 -0.35896237634E-01 -0.30630922563E-02  0.32465033414E-02  0.36176281117E-01  0.51100000000E-03 0. -1.
         11    1    4    4    0    0 -0.91505806369E-01  0.33095762239E-02 -0.20649501658E-01  0.93866548535E-01  0.51100000000E-03 0.  1.
</event>
<event>
 8    1  0.1123191E+005  0.1043930E+01  0.7957747E-01            NaN
         13   -1    0    0    0    0  0.00000000000E+00  0.00000000000E+00  0.74505805969E-08  0.10566000000E+00  0.10566000000E+00 0. -1.
     999900   -1    0    0    0    0 -0.00000000000E+00 -0.00000000000E+00 -0.74505805969E-08  0.93827000000E+00  0.93827000000E+00 0. -1.
     999902    2    1    2    0    0 -0.33038839554E-02  0.18696008696E-01 -0.13730180043E-01  0.10204998008E+01  0.10202307921E+01 0.  0.
     999903    2    3    3    0    0  0.90046328931E-01  0.92896624268E-01  0.17720787992E-01  0.13190025265E+00  0.18588334156E-01 0.  0.
         14    1    1    2    0    0  0.33038839554E-02 -0.18696008696E-01  0.13730180043E-01  0.23430199196E-01  0.00000000000E+00 0.  1.
     999901    1    3    3    0    0 -0.93350212886E-01 -0.74200615572E-01 -0.31450968035E-01  0.88859954816E+00  0.88000000000E+00 0. -1.
        -11    1    4    4    0    0  0.31811201999E-01  0.21691030672E-01  0.86522386305E-02  0.39466134071E-01  0.51100000000E-03 0. -1.
         11    1    4    4    0    0  0.58235126932E-01  0.71205593595E-01  0.90685493613E-02  0.92434118574E-01  0.51100000000E-03 0.  1.
</event>
<event>
 8    1  0.1123191E+005  0.1043930E+01  0.7957747E-01            NaN
         13   -1    0    0    0    0  0.00000000000E+00  0.00000000000E+00  0.74505805969E-08  0.10566000000E+00  0.10566000000E+00 0.  1.
     999900   -1    0    0    0    0 -0.00000000000E+00 -0.00000000000E+00 -0.74505805969E-08  0.93827000000E+00  0.93827000000E+00 0. -1.
     999902    2    1    2    0    0  0.88146677828E-02  0.16435007724E-01 -0.15722537308E-01  0.10195372546E+01  0.10192454109E+01 0.  0.
     999903    2    3    3    0    0 -0.11403729049E+00 -0.45888499657E-02 -0.58342377703E-01  0.12973331160E+00  0.20033420481E-01 0.  0.
         14    1    1    2    0    0 -0.88146677828E-02 -0.16435007724E-01  0.15722537308E-01  0.24392745364E-01  0.00000000000E+00 0.  1.
     999901    1    3    3    0    0  0.12285195828E+00  0.21023857690E-01  0.42619840395E-01  0.88980394303E+00  0.88000000000E+00 0. -1.
        -11    1    4    4    0    0 -0.56737235146E-01 -0.38083431056E-02 -0.17992624545E-01  0.59645729002E-01  0.51100000000E-03 0. -1.
         11    1    4    4    0    0 -0.57300055347E-01 -0.78050686008E-03 -0.40349753157E-01  0.70087582599E-01  0.51100000000E-03 0.  1.
</event>
<event>
 8    1  0.1123191E+005  0.1043930E+01  0.7957747E-01            NaN
         13   -1    0    0    0    0  0.00000000000E+00  0.00000000000E+00  0.74505805969E-08  0.10566000000E+00  0.10566000000E+00 0.  1.
     999900   -1    0    0    0    0 -0.00000000000E+00 -0.00000000000E+00 -0.74505805969E-08  0.93827000000E+00  0.93827000000E+00 0. -1.
     999902    2    1    2    0    0 -0.11165962650E-01  0.20634270212E-01 -0.37687095186E-02  0.10201675296E+01  0.10198907458E+01 0.  0.
     999903    2    3    3    0    0  0.45151414199E-01 -0.52543302357E-01 -0.10708751260E+00  0.12932445747E+00  0.21392314462E-01 0.  0.
         14    1    1    2    0    0  0.11165962650E-01 -0.20634270212E-01  0.37687095186E-02  0.23762470421E-01  0.00000000000E+00 0.  1.
     999901    1    3    3    0    0 -0.56317376849E-01  0.73177572569E-01  0.10331880308E+00  0.89084307211E+00  0.88000000000E+00 0.  1.
        -11    1    4    4    0    0  0.94836346876E-02 -0.26103124893E-01 -0.35355369686E-01  0.44961936598E-01  0.51100000000E-03 0. -1.
         11    1    4    4    0    0  0.35667779512E-01 -0.26440177465E-01 -0.71732142910E-01  0.84362520868E-01  0.51100000000E-03 0.  1.
</event>
<event>
 8    1  0.1123191E+005  0.1043930E+01  0.7957747E-01            NaN
         13   -1    0    0    0    0  0.00000000000E+00  0.00000000000E+00  0.74505805969E-08  0.10566000000E+00  0.10566000000E+00 0.  1.
     999900   -1    0    0    0    0 -0.00000000000E+00 -0.00000000000E+00 -0.74505805969E-08  0.93827000000E+00  0.93827000000E+00 0. -1.
     999902    2    1    2    0    0  0.99850396094E-02  0.10408182714E-01  0.18590407677E-01  0.10204005601E+01  0.10201292411E+01 0.  0.
     999903    2    3    3    0    0  0.28201767481E-01  0.21480081358E-01  0.12719818664E+00  0.13346759435E+00  0.19429011122E-01 0.  0.
         14    1    1    2    0    0 -0.99850396094E-02 -0.10408182714E-01 -0.18590407677E-01  0.23529439879E-01  0.00000000000E+00 0. -1.
     999901    1    3    3    0    0 -0.18216727871E-01 -0.11071898644E-01 -0.10860777896E+00  0.88693296577E+00  0.88000000000E+00 0. -1.
        -11    1    4    4    0    0  0.20393285651E-01  0.33702290074E-02  0.67246026400E-01  0.70352922689E-01  0.51100000000E-03 0. -1.
         11    1    4    4    0    0  0.78084818293E-02  0.18109852351E-01  0.59952160242E-01  0.63114671665E-01  0.51100000000E-03 0.  1.
</event>
<event>
 8    1  0.1123191E+005  0.1043930E+01  0.7957747E-01            NaN
         13   -1    0    0    0    0  0.00000000000E+00  0.00000000000E+00  0.74505805969E-08  0.10566000000E+00  0.10566000000E+00 0.  1.
     999900   -1    0    0    0    0 -0.00000000000E+00 -0.00000000000E+00 -0.74505805969E-08  0.93827000000E+00  0.93827000000E+00 0.  1.
     999902    2    1    2    0    0  0.18727111018E-02  0.21827334858E-01 -0.80336807397E-02  0.10205959129E+01  0.10203291321E+01 0.  0.
     999903    2    3    3    0    0  0.91895316023E-01  0.24112642978E-02  0.90104719708E-01  0.13036437065E+00  0.20626325900E-01 0.  0.
         14    1    1    2    0    0 -0.18727111018E-02 -0.21827334858E-01  0.80336807397E-02  0.23334087085E-01  0.00000000000E+00 0. -1.
     999901    1    3    3    0    0 -0.90022604921E-01  0.19416070560E-01 -0.98138400448E-01  0.89023154226E+00  0.88000000000E+00 0. -1.
        -11    1    4    4    0    0  0.29709164362E-01  0.11485260723E-02  0.43270408119E-01  0.52502789441E-01  0.51100000000E-03 0. -1.
         11    1    4    4    0    0  0.62186151660E-01  0.12627382254E-02  0.46834311589E-01  0.77861581214E-01  0.51100000000E-03 0.  1.
</event>
<event>
 8    1  0.1123191E+005  0.1043930E+01  0.7957747E-01            NaN
         13   -1    0    0    0    0  0.00000000000E+00  0.00000000000E+00  0.74505805969E-08  0.10566000000E+00  0.10566000000E+00 0. -1.
     999900   -1    0    0    0    0 -0.00000000000E+00 -0.00000000000E+00 -0.74505805969E-08  0.93827000000E+00  0.93827000000E+00 0. -1.
     999902    2    1    2    0    0 -0.21859146479E-01 -0.91069377622E-02 -0.20431139562E-02  0.10201616825E+01  0.10198847609E+01 0.  0.
     999903    2    3    3    0    0  0.15284534195E-01  0.57648618443E-01 -0.11365960556E+00  0.12982792574E+00  0.19488565156E-01 0.  0.
         14    1    1    2    0    0  0.21859146479E-01  0.91069377622E-02  0.20431139562E-02  0.23768317459E-01  0.00000000000E+00 0. -1.
     999901    1    3    3    0    0 -0.37143680674E-01 -0.66755556205E-01  0.11161649161E+00  0.89033375680E+00  0.88000000000E+00 0.  1.
        -11    1    4    4    0    0  0.98566612688E-02  0.38376964535E-01 -0.92819838447E-01  0.10092437123E+00  0.51100000000E-03 0.  1.
         11    1    4    4    0    0  0.54278729259E-02  0.19271653908E-01 -0.20839767115E-01  0.28903554509E-01  0.51100000000E-03 0. -1.
</event>
<event>
 8    1  0.1123191E+005  0.1043930E+01  0.7957747E-01            NaN
         13   -1    0    0    0    0  0.00000000000E+00  0.00000000000E+00  0.74505805969E-08  0.10566000000E+00  0.10566000000E+00 0.  1.
     999900   -1    0    0    0    0 -0.00000000000E+00 -0.00000000000E+00 -0.74505805969E-08  0.93827000000E+00  0.93827000000E+00 0. -1.
     999902    2    1    2    0    0  0.74547967425E-02  0.22492426882E-01  0.33898321339E-03  0.10202319374E+01  0.10199566696E+01 0.  0.
     999903    2    3    3    0    0  0.40845554095E-01  0.46295021396E-02  0.12271377215E+00  0.13095716787E+00  0.20032931933E-01 0.  0.
         14    1    1    2    0    0 -0.74547967425E-02 -0.22492426882E-01 -0.33898321339E-03  0.23698062603E-01  0.00000000000E+00 0. -1.
     999901    1    3    3    0    0 -0.33390757353E-01  0.17862924742E-01 -0.12237478893E+00  0.88927476953E+00  0.88000000000E+00 0. -1.
        -11    1    4    4    0    0 -0.29732548658E-03  0.28574404778E-02  0.23629363281E-02  0.37547247062E-02  0.51100000000E-03 0. -1.
         11    1    4    4    0    0  0.41142879582E-01  0.17720616619E-02  0.12035083582E+00  0.12720244316E+00  0.51100000000E-03 0.  1.
</event>
<event>
 8    1  0.1123191E+005  0.1043930E+01  0.7957747E-01            NaN
         13   -1    0    0    0    0  0.00000000000E+00  0.00000000000E+00  0.74505805969E-08  0.10566000000E+00  0.10566000000E+00 0.  1.
     999900   -1    0    0    0    0 -0.00000000000E+00 -0.00000000000E+00 -0.74505805969E-08  0.93827000000E+00  0.93827000000E+00 0.  1.
     999902    2    1    2    0    0 -0.22012582337E-01  0.61434613014E-02 -0.78630102306E-02  0.10197613669E+01  0.10194749249E+01 0.  0.
     999903    2    3    3    0    0 -0.71210119149E-01 -0.10563073430E+00 -0.24221074797E-01  0.13117740645E+00  0.19801979713E-01 0.  0.
         14    1    1    2    0    0  0.22012582337E-01 -0.61434613014E-02  0.78630102306E-02  0.24168633138E-01  0.00000000000E+00 0.  1.
     999901    1    3    3    0    0  0.49197536812E-01  0.11177419560E+00  0.16358064566E-01  0.88858396041E+00  0.88000000000E+00 0. -1.
        -11    1    4    4    0    0 -0.82021813787E-02 -0.17139159810E-01  0.28567191936E-02  0.19221044299E-01  0.51100000000E-03 0.  1.
         11    1    4    4    0    0 -0.63007937770E-01 -0.88491574486E-01 -0.27077793990E-01  0.11195636215E+00  0.51100000000E-03 0. -1.
</event>
<event>
 8    1  0.1123191E+005  0.1043930E+01  0.7957747E-01            NaN
         13   -1    0    0    0    0  0.00000000000E+00  0.00000000000E+00  0.74505805969E-08  0.10566000000E+00  0.10566000000E+00 0. -1.
     999900   -1    0    0    0    0 -0.00000000000E+00 -0.00000000000E+00 -0.74505805969E-08  0.93827000000E+00  0.93827000000E+00 0.  1.
     999902    2    1    2    0    0  0.84479972671E-02  0.14918254564E-01  0.16588942703E-01  0.10200738478E+01  0.10197948514E+01 0.  0.
     999903    2    3    3    0    0  0.48366291497E-01  0.11017280823E+00 -0.49428367213E-01  0.13157782339E+00  0.19804400963E-01 0.  0.
         14    1    1    2    0    0 -0.84479972671E-02 -0.14918254564E-01 -0.16588942703E-01  0.23856152185E-01  0.00000000000E+00 0.  1.
     999901    1    3    3    0    0 -0.39918294230E-01 -0.95254553662E-01  0.66017309916E-01  0.88849602442E+00  0.88000000000E+00 0. -1.
        -11    1    4    4    0    0  0.42159747395E-01  0.10677646525E+00 -0.47398877854E-01  0.12419972856E+00  0.51100000000E-03 0. -1.
         11    1    4    4    0    0  0.62065441022E-02  0.33963429808E-02 -0.20294893584E-02  0.73780948348E-02  0.51100000000E-03 0.  1.
</event>
<event>
 8    1  0.1123191E+005  0.1043930E+01  0.7957747E-01            NaN
         13   -1    0    0    0    0  0.00000000000E+00  0.00000000000E+00  0.74505805969E-08  0.10566000000E+00  0.10566000000E+00 0.  1.
     999900   -1    0    0    0    0 -0.00000000000E+00 -0.00000000000E+00 -0.74505805969E-08  0.93827000000E+00  0.93827000000E+00 0.  1.
     999902    2    1    2    0    0  0.23248547995E-01  0.13900345017E-02 -0.87103325156E-02  0.10190644199E+01  0.10187610097E+01 0.  0.
     999903    2    3    3    0    0 -0.97864379870E-01  0.62393653611E-02  0.77433110955E-01  0.12658890197E+00  0.20310019734E-01 0.  0.
         14    1    1    2    0    0 -0.23248547995E-01 -0.13900345017E-02  0.87103325156E-02  0.24865580072E-01  0.00000000000E+00 0. -1.
     999901    1    3    3    0    0  0.12111292787E+00 -0.48493308594E-02 -0.86143443471E-01  0.89247551796E+00  0.88000000000E+00 0.  1.
        -11    1    4    4    0    0 -0.58154169078E-01  0.13331750416E-01  0.49429449987E-01  0.77480156152E-01  0.51100000000E-03 0. -1.
         11    1    4    4    0    0 -0.39710210792E-01 -0.70923850552E-02  0.28003660968E-01  0.49108745815E-01  0.51100000000E-03 0.  1.
</event>
<event>
 8    1  0.1123191E+005  0.1043930E+01  0.7957747E-01            NaN
         13   -1    0    0    0    0  0.00000000000E+00  0.00000000000E+00  0.74505805969E-08  0.10566000000E+00  0.10566000000E+00 0. -1.
     999900   -1    0    0    0    0 -0.00000000000E+00 -0.00000000000E+00 -0.74505805969E-08  0.93827000000E+00  0.93827000000E+00 0. -1.
     999902    2    1    2    0    0 -0.15535012930E-01 -0.40369372074E-02  0.19063547572E-01  0.10190090784E+01  0.10187042993E+01 0.  0.
     999903    2    3    3    0    0 -0.55069375305E-01 -0.79098331325E-01  0.89197947494E-01  0.13215169821E+00  0.14785648033E-01 0.  0.
         14    1    1    2    0    0  0.15535012930E-01  0.40369372074E-02 -0.19063547572E-01  0.24920921628E-01  0.00000000000E+00 0.  1.
     999901    1    3    3    0    0  0.39534362374E-01  0.75061394118E-01 -0.70134399922E-01  0.88685738016E+00  0.88000000000E+00 0. -1.
        -11    1    4    4    0    0 -0.45892457557E-01 -0.66316040324E-01  0.66508074236E-01  0.10453477854E+00  0.51100000000E-03 0. -1.
         11    1    4    4    0    0 -0.91769177481E-02 -0.12782291001E-01  0.22689873257E-01  0.27616919670E-01  0.51100000000E-03 0.  1.
</event>
<event>
 8    1  0.1123191E+005  0.1043930E+01  0.7957747E-01            NaN
         13   -1    0    0    0    0  0.00000000000E+00  0.00000000000E+00  0.74505805969E-08  0.10566000000E+00  0.10566000000E+00 0.  1.
     999900   -1    0    0    0    0 -0.00000000000E+00 -0.00000000000E+00 -0.74505805969E-08  0.93827000000E+00  0.93827000000E+00 0. -1.
     999902    2    1    2    0    0 -0.70396155621E-02 -0.22236601637E-01 -0.67021155830E-02  0.10196618935E+01  0.10193730603E+01 0.  0.
     999903    2    3    3    0    0 -0.12777684652E+00  0.35693877746E-02  0.17389821363E-01  0.13071653554E+00  0.21088948292E-01 0.  0.
         14    1    1    2    0    0  0.70396155621E-02  0.22236601637E-01  0.67021155830E-02  0.24268106496E-01  0.00000000000E+00 0.  1.
     999901    1    3    3    0    0  0.12073723096E+00 -0.25805989411E-01 -0.24091936946E-01  0.88894535797E+00  0.88000000000E+00 0.  1.
        -11    1    4    4    0    0 -0.44895280825E-01 -0.85450236267E-02  0.84281422629E-02  0.46474706800E-01  0.51100000000E-03 0. -1.
         11    1    4    4    0    0 -0.82881565693E-01  0.12114411401E-01  0.89616791001E-02  0.84241828735E-01  0.51100000000E-03 0.  1.
</event>
<event>
 8    1  0.1123191E+005  0.1043930E+01  0.7957747E-01            NaN
         13   -1    0    0    0    0  0.00000000000E+00  0.00000000000E+00  0.74505805969E-08  0.10566000000E+00  0.10566000000E+00 0. -1.
     999900   -1    0    0    0    0 -0.00000000000E+00 -0.00000000000E+00 -0.74505805969E-08  0.93827000000E+00  0.93827000000E+00 0. -1.
     999902    2    1    2    0    0 -0.23972334602E-01 -0.75771130640E-02 -0.16921661232E-02  0.10187318077E+01  0.10184201231E+01 0.  0.
     999903    2    3    3    0    0  0.16731622010E-01  0.73856935458E-01 -0.10186726887E+00  0.12838167009E+00  0.19238468171E-01 0.  0.
         14    1    1    2    0    0  0.23972334602E-01  0.75771130640E-02  0.16921661232E-02  0.25198192294E-01  0.00000000000E+00 0. -1.
     999901    1    3    3    0    0 -0.40703956613E-01 -0.81434048522E-01  0.10017510275E+00  0.89035013762E+00  0.88000000000E+00 0.  1.
        -11    1    4    4    0    0  0.20477861339E-01  0.60222740378E-01 -0.87878930712E-01  0.10848543150E+00  0.51100000000E-03 0. -1.
         11    1    4    4    0    0 -0.37462393283E-02  0.13634195080E-01 -0.13988338158E-01  0.19896238590E-01  0.51100000000E-03 0.  1.
</event>
<event>
 8    1  0.1123191E+005  0.1043930E+01  0.7957747E-01            NaN
         13   -1    0    0    0    0  0.00000000000E+00  0.00000000000E+00  0.74505805969E-08  0.10566000000E+00  0.10566000000E+00 0.  1.
     999900   -1    0    0    0    0 -0.00000000000E+00 -0.00000000000E+00 -0.74505805969E-08  0.93827000000E+00  0.93827000000E+00 0. -1.
     999902    2    1    2    0    0 -0.13164647130E-01 -0.98573816287E-02 -0.18209100599E-01  0.10193933488E+01  0.10190980092E+01 0.  0.
     999903    2    3    3    0    0  0.46949913091E-01 -0.64328564417E-01  0.98261369191E-01  0.12802011586E+00  0.19783701609E-01 0.  0.
         14    1    1    2    0    0  0.13164647130E-01  0.98573816287E-02  0.18209100599E-01  0.24536651183E-01  0.00000000000E+00 0.  1.
     999901    1    3    3    0    0 -0.60114560221E-01  0.54471182789E-01 -0.11647046979E+00  0.89137323296E+00  0.88000000000E+00 0. -1.
        -11    1    4    4    0    0  0.16507494355E-02 -0.12065612382E-01  0.92780785532E-02  0.15318219168E-01  0.51100000000E-03 0. -1.
         11    1    4    4    0    0  0.45299163655E-01 -0.52262952035E-01  0.88983290638E-01  0.11270189669E+00  0.51100000000E-03 0.  1.
</event>
<event>
 8    1  0.1123191E+005  0.1043930E+01  0.7957747E-01            NaN
         13   -1    0    0    0    0  0.00000000000E+00  0.00000000000E+00  0.74505805969E-08  0.10566000000E+00  0.10566000000E+00 0.  1.
     999900   -1    0    0    0    0 -0.00000000000E+00 -0.00000000000E+00 -0.74505805969E-08  0.93827000000E+00  0.93827000000E+00 0. -1.
     999902    2    1    2    0    0  0.37903203322E-02  0.21325836741E-01  0.99645171930E-02  0.10200878222E+01  0.10198091564E+01 0.  0.
     999903    2    3    3    0    0  0.42467823768E-01 -0.89663948729E-01  0.80677040263E-01  0.12946167014E+00  0.20208895401E-01 0.  0.
         14    1    1    2    0    0 -0.37903203322E-02 -0.21325836741E-01 -0.99645171930E-02  0.23842177833E-01  0.00000000000E+00 0. -1.
     999901    1    3    3    0    0 -0.38677503436E-01  0.11098978547E+00 -0.70712523070E-01  0.89062615202E+00  0.88000000000E+00 0.  1.
        -11    1    4    4    0    0  0.92901203318E-02 -0.39183244349E-01  0.25653592421E-01  0.47749354955E-01  0.51100000000E-03 0. -1.
         11    1    4    4    0    0  0.33177703436E-01 -0.50480704380E-01  0.55023447841E-01  0.81712315188E-01  0.51100000000E-03 0.  1.
</event>
<event>
 8    1  0.1123191E+005  0.1043930E+01  0.7957747E-01            NaN
         13   -1    0    0    0    0  0.00000000000E+00  0.00000000000E+00  0.74505805969E-08  0.10566000000E+00  0.10566000000E+00 0.  1.
     999900   -1    0    0    0    0 -0.00000000000E+00 -0.00000000000E+00 -0.74505805969E-08  0.93827000000E+00  0.93827000000E+00 0. -1.
     999902    2    1    2    0    0  0.23013861412E-01  0.18714842464E-03  0.39359266377E-02  0.10205812450E+01  0.10203141248E+01 0.  0.
     999903    2    3    3    0    0 -0.56740755492E-01  0.72063239952E-01  0.89810700950E-01  0.12990652979E+00  0.19927884745E-01 0.  0.
         14    1    1    2    0    0 -0.23013861412E-01 -0.18714842464E-03 -0.39359266377E-02  0.23348755002E-01  0.00000000000E+00 0. -1.
     999901    1    3    3    0    0  0.79754616904E-01 -0.71876091528E-01 -0.85874774312E-01  0.89067471521E+00  0.88000000000E+00 0. -1.
        -11    1    4    4    0    0 -0.17692124706E-01  0.37985700553E-01  0.43476401739E-01  0.60385290860E-01  0.51100000000E-03 0. -1.
         11    1    4    4    0    0 -0.39048630786E-01  0.34077539399E-01  0.46334299211E-01  0.69521238928E-01  0.51100000000E-03 0.  1.
</event>
<event>
 8    1  0.1123191E+005  0.1043930E+01  0.7957747E-01            NaN
         13   -1    0    0    0    0  0.00000000000E+00  0.00000000000E+00  0.74505805969E-08  0.10566000000E+00  0.10566000000E+00 0.  1.
     999900   -1    0    0    0    0 -0.00000000000E+00 -0.00000000000E+00 -0.74505805969E-08  0.93827000000E+00  0.93827000000E+00 0. -1.
     999902    2    1    2    0    0  0.12852683384E-01  0.20782897792E-01  0.47073677353E-03  0.10194894210E+01  0.10191964175E+01 0.  0.
     999903    2    3    3    0    0 -0.61078414785E-01 -0.10928831136E+00  0.20033439409E-02  0.12686034031E+00  0.20372157574E-01 0.  0.
         14    1    1    2    0    0 -0.12852683384E-01 -0.20782897792E-01 -0.47073677353E-03  0.24440579042E-01  0.00000000000E+00 0.  1.
     999901    1    3    3    0    0  0.73931098169E-01  0.13007120916E+00 -0.15326071674E-02  0.89262908064E+00  0.88000000000E+00 0.  1.
        -11    1    4    4    0    0 -0.52478886042E-01 -0.83654691218E-01  0.82743243893E-02  0.99100284602E-01  0.51100000000E-03 0.  1.
         11    1    4    4    0    0 -0.85995287428E-02 -0.25633620145E-01 -0.62709804483E-02  0.27760055712E-01  0.51100000000E-03 0. -1.
</event>
<event>
 8    1  0.1123191E+005  0.1043930E+01  0.7957747E-01            NaN
         13   -1    0    0    0    0  0.00000000000E+00  0.00000000000E+00  0.74505805969E-08  0.10566000000E+00  0.10566000000E+00 0. -1.
     999900   -1    0    0    0    0 -0.00000000000E+00 -0.00000000000E+00 -0.74505805969E-08  0.93827000000E+00  0.93827000000E+00 0.  1.
     999902    2    1    2    0    0 -0.10350978512E-01 -0.21183201986E-01  0.13165573541E-02  0.10203163572E+01  0.10200430700E+01 0.  0.
     999903    2    3    3    0    0 -0.34742337862E-01 -0.12280196751E+00  0.34363504595E-01  0.13351682370E+00  0.18935112827E-01 0.  0.
         14    1    1    2    0    0  0.10350978512E-01  0.21183201986E-01 -0.13165573541E-02  0.23613642790E-01  0.00000000000E+00 0.  1.
     999901    1    3    3    0    0  0.24391359350E-01  0.10161876552E+00 -0.33046947241E-01  0.88679953351E+00  0.88000000000E+00 0.  1.
        -11    1    4    4    0    0 -0.30064866385E-01 -0.94249137391E-01  0.33895356551E-01  0.10457510414E+00  0.51100000000E-03 0. -1.
         11    1    4    4    0    0 -0.46774714770E-02 -0.28552830118E-01  0.46814804466E-03  0.28941719555E-01  0.51100000000E-03 0.  1.
</event>
<event>
 8    1  0.1123191E+005  0.1043930E+01  0.7957747E-01            NaN
         13   -1    0    0    0    0  0.00000000000E+00  0.00000000000E+00  0.74505805969E-08  0.10566000000E+00  0.10566000000E+00 0.  1.
     999900   -1    0    0    0    0 -0.00000000000E+00 -0.00000000000E+00 -0.74505805969E-08  0.93827000000E+00  0.93827000000E+00 0. -1.
     999902    2    1    2    0    0  0.83314257259E-02 -0.14529448265E-01  0.17868762858E-01  0.10194389770E+01  0.10191447481E+01 0.  0.
     999903    2    3    3    0    0 -0.44386506786E-01  0.11644167419E+00 -0.17228324680E-01  0.12749479664E+00  0.20719134286E-01 0.  0.
         14    1    1    2    0    0 -0.83314257259E-02  0.14529448265E-01 -0.17868762858E-01  0.24491023000E-01  0.00000000000E+00 0. -1.
     999901    1    3    3    0    0  0.52717932512E-01 -0.13097112246E+00  0.35097087538E-01  0.89194418036E+00  0.88000000000E+00 0. -1.
        -11    1    4    4    0    0 -0.17306906383E-01  0.73299237526E-01 -0.12348882854E-01  0.76322102036E-01  0.51100000000E-03 0. -1.
         11    1    4    4    0    0 -0.27079600403E-01  0.43142436666E-01 -0.48794418257E-02  0.51172694604E-01  0.51100000000E-03 0.  1.
</event>
<event>
 8    1  0.1379547E+005  0.1043930E+01  0.7957747E-01            NaN
         13   -1    0    0    0    0  0.00000000000E+00  0.00000000000E+00  0.74505805969E-08  0.10566000000E+00  0.10566000000E+00 0. -1.
     999900   -1    0    0    0    0 -0.00000000000E+00 -0.00000000000E+00 -0.74505805969E-08  0.93827000000E+00  0.93827000000E+00 0. -1.
     999902    2    1    2    0    0  0.93851740281E-03  0.46850420697E-02  0.22774170186E-01  0.10206599922E+01  0.10203946915E+01 0.  0.
     999903    2    3    3    0    0  0.35288107321E-01 -0.11546675447E+00  0.48580736019E-01  0.13145679420E+00  0.18519690121E-01 0.  0.
         14    1    1    2    0    0 -0.93851740281E-03 -0.46850420697E-02 -0.22774170186E-01  0.23270007773E-01  0.00000000000E+00 0.  1.
     999901    1    3    3    0    0 -0.34349589918E-01  0.12015179654E+00 -0.25806565834E-01  0.88920319803E+00  0.88000000000E+00 0. -1.
        -11    1    4    4    0    0  0.12764653327E-01 -0.49696471149E-01  0.30225352147E-01  0.59552570496E-01  0.51100000000E-03 0.  1.
         11    1    4    4    0    0  0.22523453994E-01 -0.65770283325E-01  0.18355383872E-01  0.71904223705E-01  0.51100000000E-03 0. -1.
</event>
<event>
 8    1  0.1123191E+005  0.1043930E+01  0.7957747E-01            NaN
         13   -1    0    0    0    0  0.00000000000E+00  0.00000000000E+00  0.74505805969E-08  0.10566000000E+00  0.10566000000E+00 0.  1.
     999900   -1    0    0    0    0 -0.00000000000E+00 -0.00000000000E+00 -0.74505805969E-08  0.93827000000E+00  0.93827000000E+00 0. -1.
     999902    2    1    2    0    0  0.40517775708E-02 -0.20435537451E-01  0.12280765295E-01  0.10197464252E+01  0.10194596247E+01 0.  0.
     999903    2    3    3    0    0  0.12171773692E+00  0.39323095445E-01  0.69980077547E-02  0.12989009991E+00  0.21469807303E-01 0.  0.
         14    1    1    2    0    0 -0.40517775708E-02  0.20435537451E-01 -0.12280765295E-01  0.24183574769E-01  0.00000000000E+00 0. -1.
     999901    1    3    3    0    0 -0.11766595935E+00 -0.59758632896E-01  0.52827575401E-02  0.88985632533E+00  0.88000000000E+00 0.  1.
        -11    1    4    4    0    0  0.62477602722E-01  0.27478340340E-01 -0.44503362519E-02  0.68400121663E-01  0.51100000000E-03 0. -1.
         11    1    4    4    0    0  0.59240134194E-01  0.11844755105E-01  0.11448344007E-01  0.61489978243E-01  0.51100000000E-03 0.  1.
</event>
<event>
 8    1  0.1123191E+005  0.1043930E+01  0.7957747E-01            NaN
         13   -1    0    0    0    0  0.00000000000E+00  0.00000000000E+00  0.74505805969E-08  0.10566000000E+00  0.10566000000E+00 0.  1.
     999900   -1    0    0    0    0 -0.00000000000E+00 -0.00000000000E+00 -0.74505805969E-08  0.93827000000E+00  0.93827000000E+00 0. -1.
     999902    2    1    2    0    0  0.12251994401E-02  0.33888051128E-02 -0.23324389776E-01  0.10203288926E+01  0.10200558988E+01 0.  0.
     999903    2    3    3    0    0 -0.36877884938E-01 -0.24190376544E-01 -0.12416918543E+00  0.13332149174E+00  0.20284990426E-01 0.  0.
         14    1    1    2    0    0 -0.12251994401E-02 -0.33888051128E-02  0.23324389776E-01  0.23601107436E-01  0.00000000000E+00 0.  1.
     999901    1    3    3    0    0  0.38103084378E-01  0.27579181657E-01  0.10084479565E+00  0.88700740082E+00  0.88000000000E+00 0.  1.
        -11    1    4    4    0    0 -0.16851189006E-01 -0.20569181133E-01 -0.53009574688E-01  0.59307081474E-01  0.51100000000E-03 0. -1.
         11    1    4    4    0    0 -0.20026695932E-01 -0.36211954111E-02 -0.71159610738E-01  0.74014410270E-01  0.51100000000E-03 0.  1.
</event>
<event>
 8    1  0.1123191E+005  0.1043930E+01  0.7957747E-01            NaN
         13   -1    0    0    0    0  0.00000000000E+00  0.00000000000E+00  0.74505805969E-08  0.10566000000E+00  0.10566000000E+00 0. -1.
     999900   -1    0    0    0    0 -0.00000000000E+00 -0.00000000000E+00 -0.74505805969E-08  0.93827000000E+00  0.93827000000E+00 0.  1.
     999902    2    1    2    0    0 -0.99010072049E-02  0.27398212907E-02 -0.20892516065E-01  0.10206483808E+01  0.10203828122E+01 0.  0.
     999903    2    3    3    0    0  0.12327996473E+00 -0.12057904461E-02 -0.37411681769E-01  0.13046546592E+00  0.20547511525E-01 0.  0.
         14    1    1    2    0    0  0.99010072049E-02 -0.27398212907E-02  0.20892516065E-01  0.23281619186E-01  0.00000000000E+00 0. -1.
     999901    1    3    3    0    0 -0.13318097194E+00  0.39456117369E-02  0.16519165704E-01  0.89018291490E+00  0.88000000000E+00 0. -1.
        -11    1    4    4    0    0  0.27820942825E-01  0.46022173936E-02 -0.12859857622E-02  0.28232962030E-01  0.51100000000E-03 0.  1.
         11    1    4    4    0    0  0.95459021905E-01 -0.58080078397E-02 -0.36125696007E-01  0.10223250389E+00  0.51100000000E-03 0. -1.
</event>
<event>
 8    1  0.1123191E+005  0.1043930E+01  0.7957747E-01            NaN
         13   -1    0    0    0    0  0.00000000000E+00  0.00000000000E+00  0.74505805969E-08  0.10566000000E+00  0.10566000000E+00 0.  1.
     999900   -1    0    0    0    0 -0.00000000000E+00 -0.00000000000E+00 -0.74505805969E-08  0.93827000000E+00  0.93827000000E+00 0.  1.
     999902    2    1    2    0    0  0.93817281430E-02 -0.15725347928E-01  0.15664942463E-01  0.10198324106E+01  0.10195476703E+01 0.  0.
     999903    2    3    3    0    0 -0.60741359677E-01 -0.46070165631E-02 -0.11071425625E+00  0.12797335978E+00  0.20218726452E-01 0.  0.
         14    1    1    2    0    0 -0.93817281430E-02  0.15725347928E-01 -0.15664942463E-01  0.24097589356E-01  0.00000000000E+00 0. -1.
     999901    1    3    3    0    0  0.70123087820E-01 -0.11118331365E-01  0.12637919871E+00  0.89185905086E+00  0.88000000000E+00 0.  1.
        -11    1    4    4    0    0 -0.50803766374E-01  0.26863624906E-02 -0.79238102342E-01  0.94165690169E-01  0.51100000000E-03 0. -1.
         11    1    4    4    0    0 -0.99375933026E-02 -0.72933790537E-02 -0.31476153909E-01  0.33807669612E-01  0.51100000000E-03 0.  1.
</event>
<event>
 8    1  0.1123191E+005  0.1043930E+01  0.7957747E-01            NaN
         13   -1    0    0    0    0  0.00000000000E+00  0.00000000000E+00  0.74505805969E-08  0.10566000000E+00  0.10566000000E+00 0. -1.
     999900   -1    0    0    0    0 -0.00000000000E+00 -0.00000000000E+00 -0.74505805969E-08  0.93827000000E+00  0.93827000000E+00 0.  1.
     999902    2    1    2    0    0 -0.21649715420E-01  0.47734017901E-02  0.95588713406E-02  0.10197873497E+01  0.10195015307E+01 0.  0.
     999903    2    3    3    0    0 -0.11446613164E+00  0.64104886131E-01 -0.47666960138E-02  0.13280350879E+00  0.20052900959E-01 0.  0.
         14    1    1    2    0    0  0.21649715420E-01 -0.47734017901E-02 -0.95588713406E-02  0.24142650305E-01  0.00000000000E+00 0.  1.
     999901    1    3    3    0    0  0.92816416218E-01 -0.59331484341E-01  0.14325567354E-01  0.88698384091E+00  0.88000000000E+00 0.  1.
        -11    1    4    4    0    0 -0.87514157436E-01  0.38952961070E-01 -0.17086207813E-02  0.95808357850E-01  0.51100000000E-03 0. -1.
         11    1    4    4    0    0 -0.26951974202E-01  0.25151925061E-01 -0.30580752326E-02  0.36995150936E-01  0.51100000000E-03 0.  1.
</event>
<event>
 8    1  0.1123191E+005  0.1043930E+01  0.7957747E-01            NaN
         13   -1    0    0    0    0  0.00000000000E+00  0.00000000000E+00  0.74505805969E-08  0.10566000000E+00  0.10566000000E+00 0.  1.
     999900   -1    0    0    0    0 -0.00000000000E+00 -0.00000000000E+00 -0.74505805969E-08  0.93827000000E+00  0.93827000000E+00 0. -1.
     999902    2    1    2    0    0 -0.12543890884E-01  0.19243053468E-01 -0.48296983528E-02  0.10204572436E+01  0.10201872455E+01 0.  0.
     999903    2    3    3    0    0  0.19102318533E-01  0.10375976674E+00 -0.78321241558E-01  0.13279426462E+00  0.19212289520E-01 0.  0.
         14    1    1    2    0    0  0.12543890884E-01 -0.19243053468E-01  0.48296983528E-02  0.23472756367E-01  0.00000000000E+00 0. -1.
     999901    1    3    3    0    0 -0.31646209417E-01 -0.84516713272E-01  0.73491543205E-01  0.88766297902E+00  0.88000000000E+00 0.  1.
        -11    1    4    4    0    0  0.81140699153E-02  0.51820015608E-01 -0.27180695919E-01  0.59077944276E-01  0.51100000000E-03 0.  1.
         11    1    4    4    0    0  0.10988248618E-01  0.51939751132E-01 -0.51140545639E-01  0.73716320341E-01  0.51100000000E-03 0. -1.
</event>
<event>
 8    1  0.1123191E+005  0.1043930E+01  0.7957747E-01            NaN
         13   -1    0    0    0    0  0.00000000000E+00  0.00000000000E+00  0.74505805969E-08  0.10566000000E+00  0.10566000000E+00 0. -1.
     999900   -1    0    0    0    0 -0.00000000000E+00 -0.00000000000E+00 -0.74505805969E-08  0.93827000000E+00  0.93827000000E+00 0.  1.
     999902    2    1    2    0    0 -0.13260026467E-02  0.71943657747E-02 -0.23047032543E-01  0.10197497831E+01  0.10194630632E+01 0.  0.
     999903    2    3    3    0    0 -0.11179087296E+00  0.48395767057E-01 -0.45294034882E-01  0.13160848116E+00  0.20733865292E-01 0.  0.
         14    1    1    2    0    0  0.13260026467E-02 -0.71943657747E-02  0.23047032543E-01  0.24180216933E-01  0.00000000000E+00 0. -1.
     999901    1    3    3    0    0  0.11046487032E+00 -0.41201401282E-01  0.22247002340E-01  0.88814130191E+00  0.88000000000E+00 0. -1.
        -11    1    4    4    0    0  0.16296134139E-03  0.18920810344E-02 -0.21921275304E-02  0.29450078352E-02  0.51100000000E-03 0.  1.
         11    1    4    4    0    0 -0.11195383431E+00  0.46503686023E-01 -0.43101907352E-01  0.12866347332E+00  0.51100000000E-03 0. -1.
</event>
<event>
 8    1  0.1123191E+005  0.1043930E+01  0.7957747E-01            NaN
         13   -1    0    0    0    0  0.00000000000E+00  0.00000000000E+00  0.74505805969E-08  0.10566000000E+00  0.10566000000E+00 0. -1.
     999900   -1    0    0    0    0 -0.00000000000E+00 -0.00000000000E+00 -0.74505805969E-08  0.93827000000E+00  0.93827000000E+00 0.  1.
     999902    2    1    2    0    0 -0.19324467389E-01 -0.49633013531E-02 -0.11582395557E-01  0.10208600783E+01  0.10205993720E+01 0.  0.
     999903    2    3    3    0    0  0.83925568811E-01  0.94970973754E-01  0.98189216882E-02  0.12894895846E+00  0.21643375657E-01 0.  0.
         14    1    1    2    0    0  0.19324467389E-01  0.49633013531E-02  0.11582395557E-01  0.23069921695E-01  0.00000000000E+00 0.  1.
     999901    1    3    3    0    0 -0.10325003620E+00 -0.99934275107E-01 -0.21401317245E-01  0.89191111984E+00  0.88000000000E+00 0. -1.
        -11    1    4    4    0    0  0.28041613699E-01  0.45644055991E-01  0.94937165531E-02  0.54406835243E-01  0.51100000000E-03 0. -1.
         11    1    4    4    0    0  0.55883955112E-01  0.49326917762E-01  0.32520513509E-03  0.74542123221E-01  0.51100000000E-03 0.  1.
</event>
<event>
 8    1  0.1123191E+005  0.1043930E+01  0.7957747E-01            NaN
         13   -1    0    0    0    0  0.00000000000E+00  0.00000000000E+00  0.74505805969E-08  0.10566000000E+00  0.10566000000E+00 0. -1.
     999900   -1    0    0    0    0 -0.00000000000E+00 -0.00000000000E+00 -0.74505805969E-08  0.93827000000E+00  0.93827000000E+00 0. -1.
     999902    2    1    2    0    0  0.58745700525E-02  0.63836466726E-02  0.22359814430E-01  0.10199461967E+01  0.10196641709E+01 0.  0.
     999903    2    3    3    0    0 -0.47658927615E-01  0.10070581251E+00 -0.62178443647E-01  0.12926711680E+00  0.20755591463E-01 0.  0.
         14    1    1    2    0    0 -0.58745700525E-02 -0.63836466726E-02 -0.22359814430E-01  0.23983803274E-01  0.00000000000E+00 0.  1.
     999901    1    3    3    0    0  0.53533497667E-01 -0.94322165835E-01  0.84538258077E-01  0.89067907993E+00  0.88000000000E+00 0.  1.
        -11    1    4    4    0    0 -0.38567410991E-01  0.58345652209E-01 -0.36333289185E-01  0.78816428150E-01  0.51100000000E-03 0.  1.
         11    1    4    4    0    0 -0.90915166235E-02  0.42360160299E-01 -0.25845154462E-01  0.50450688649E-01  0.51100000000E-03 0. -1.
</event>
<event>
 8    1  0.1123191E+005  0.1043930E+01  0.7957747E-01            NaN
         13   -1    0    0    0    0  0.00000000000E+00  0.00000000000E+00  0.74505805969E-08  0.10566000000E+00  0.10566000000E+00 0.  1.
     999900   -1    0    0    0    0 -0.00000000000E+00 -0.00000000000E+00 -0.74505805969E-08  0.93827000000E+00  0.93827000000E+00 0. -1.
     999902    2    1    2    0    0 -0.10499253747E-01 -0.16920268482E-01  0.16908394865E-01  0.10178067607E+01  0.10174714632E+01 0.  0.
     999903    2    3    3    0    0  0.13728926980E-01  0.89618292008E-01 -0.84224393363E-01  0.12530168482E+00  0.19668301473E-01 0.  0.
         14    1    1    2    0    0  0.10499253747E-01  0.16920268482E-01 -0.16908394865E-01  0.26123239303E-01  0.00000000000E+00 0. -1.
     999901    1    3    3    0    0 -0.24228180727E-01 -0.10653856049E+00  0.10113278823E+00  0.89250507588E+00  0.88000000000E+00 0.  1.
        -11    1    4    4    0    0  0.28454963151E-02  0.57164481384E-01 -0.42278031675E-01  0.71158751145E-01  0.51100000000E-03 0.  1.
         11    1    4    4    0    0  0.10883430665E-01  0.32453810624E-01 -0.41946361688E-01  0.54142933675E-01  0.51100000000E-03 0. -1.
</event>
<event>
 8    1  0.1123191E+005  0.1043930E+01  0.7957747E-01            NaN
         13   -1    0    0    0    0  0.00000000000E+00  0.00000000000E+00  0.74505805969E-08  0.10566000000E+00  0.10566000000E+00 0.  1.
     999900   -1    0    0    0    0 -0.00000000000E+00 -0.00000000000E+00 -0.74505805969E-08  0.93827000000E+00  0.93827000000E+00 0. -1.
     999902    2    1    2    0    0 -0.98152668861E-03  0.65899739168E-02  0.24070539663E-01  0.10189543713E+01  0.10186482360E+01 0.  0.
     999903    2    3    3    0    0  0.84492352855E-02 -0.10366980935E+00 -0.70276888177E-01  0.12701962241E+00  0.19399085527E-01 0.  0.
         14    1    1    2    0    0  0.98152668861E-03 -0.65899739168E-02 -0.24070539663E-01  0.24975628732E-01  0.00000000000E+00 0. -1.
     999901    1    3    3    0    0 -0.94307619742E-02  0.11025978326E+00  0.94347427840E-01  0.89193474886E+00  0.88000000000E+00 0.  1.
        -11    1    4    4    0    0  0.78480164342E-02 -0.21270718430E-01 -0.21571372174E-01  0.31298882455E-01  0.51100000000E-03 0. -1.
         11    1    4    4    0    0  0.60121885135E-03 -0.82399090916E-01 -0.48705516003E-01  0.95720739957E-01  0.51100000000E-03 0.  1.
</event>
<event>
 8    1  0.1123191E+005  0.1043930E+01  0.7957747E-01            NaN
         13   -1    0    0    0    0  0.00000000000E+00  0.00000000000E+00  0.74505805969E-08  0.10566000000E+00  0.10566000000E+00 0.  1.
     999900   -1    0    0    0    0 -0.00000000000E+00 -0.00000000000E+00 -0.74505805969E-08  0.93827000000E+00  0.93827000000E+00 0. -1.
     999902    2    1    2    0    0 -0.10796452642E-01 -0.15004062964E-01  0.15028426666E-01  0.10201069250E+01  0.10198287109E+01 0.  0.
     999903    2    3    3    0    0 -0.57919249364E-01 -0.11691155990E+00 -0.12152444611E-01  0.13255721051E+00  0.20019487113E-01 0.  0.
         14    1    1    2    0    0  0.10796452642E-01  0.15004062964E-01 -0.15028426666E-01  0.23823075014E-01  0.00000000000E+00 0. -1.
     999901    1    3    3    0    0  0.47122796722E-01  0.10190749693E+00  0.27180871277E-01  0.88754971448E+00  0.88000000000E+00 0.  1.
        -11    1    4    4    0    0 -0.50883052596E-01 -0.83196153563E-01 -0.77519913692E-02  0.97831689653E-01  0.51100000000E-03 0.  1.
         11    1    4    4    0    0 -0.70361967687E-02 -0.33715406333E-01 -0.44004532415E-02  0.34725520858E-01  0.51100000000E-03 0. -1.
</event>
<event>
 8    1  0.1123191E+005  0.1043930E+01  0.7957747E-01            NaN
         13   -1    0    0    0    0  0.00000000000E+00  0.00000000000E+00  0.74505805969E-08  0.10566000000E+00  0.10566000000E+00 0.  1.
     999900   -1    0    0    0    0 -0.00000000000E+00 -0.00000000000E+00 -0.74505805969E-08  0.93827000000E+00  0.93827000000E+00 0.  1.
     999902    2    1    2    0    0 -0.21056812747E-01  0.36217294386E-02 -0.10650717079E-01  0.10200564988E+01  0.10197770916E+01 0.  0.
     999903    2    3    3    0    0  0.75492385814E-01  0.96870968255E-01  0.33006167566E-01  0.12880844582E+00  0.20472513569E-01 0.  0.
         14    1    1    2    0    0  0.21056812747E-01 -0.36217294386E-02  0.10650717079E-01  0.23873501241E-01  0.00000000000E+00 0.  1.
     999901    1    3    3    0    0 -0.96549198561E-01 -0.93249238816E-01 -0.43656884645E-01  0.89124805293E+00  0.88000000000E+00 0. -1.
        -11    1    4    4    0    0  0.31880344436E-01  0.52798485444E-01  0.23855613047E-01  0.66131594729E-01  0.51100000000E-03 0. -1.
         11    1    4    4    0    0  0.43612041378E-01  0.44072482811E-01  0.91505545193E-02  0.62676851096E-01  0.51100000000E-03 0.  1.
</event>
<event>
 8    1  0.1123191E+005  0.1043930E+01  0.7957747E-01            NaN
         13   -1    0    0    0    0  0.00000000000E+00  0.00000000000E+00  0.74505805969E-08  0.10566000000E+00  0.10566000000E+00 0. -1.
     999900   -1    0    0    0    0 -0.00000000000E+00 -0.00000000000E+00 -0.74505805969E-08  0.93827000000E+00  0.93827000000E+00 0.  1.
     999902    2    1    2    0    0 -0.22421759975E-01 -0.10155209329E-01  0.91824190447E-02  0.10176587150E+01  0.10173195564E+01 0.  0.
     999903    2    3    3    0    0 -0.98411542551E-01  0.72958377532E-01  0.38546107719E-01  0.12999631205E+00  0.20136587740E-01 0.  0.
         14    1    1    2    0    0  0.22421759975E-01  0.10155209329E-01 -0.91824190447E-02  0.26271285016E-01  0.00000000000E+00 0.  1.
     999901    1    3    3    0    0  0.75989782576E-01 -0.83113586861E-01 -0.29363688674E-01  0.88766240294E+00  0.88000000000E+00 0. -1.
        -11    1    4    4    0    0 -0.88567068909E-01  0.71539402831E-01  0.37984234781E-01  0.12002114424E+00  0.51100000000E-03 0.  1.
         11    1    4    4    0    0 -0.98444736419E-02  0.14189747010E-02  0.56187293794E-03  0.99751678024E-02  0.51100000000E-03 0. -1.
</event>
<event>
 8    1  0.1123191E+005  0.1043930E+01  0.7957747E-01            NaN
         13   -1    0    0    0    0  0.00000000000E+00  0.00000000000E+00  0.74505805969E-08  0.10566000000E+00  0.10566000000E+00 0.  1.
     999900   -1    0    0    0    0 -0.00000000000E+00 -0.00000000000E+00 -0.74505805969E-08  0.93827000000E+00  0.93827000000E+00 0.  1.
     999902    2    1    2    0    0 -0.16923842119E-01 -0.76093578541E-02 -0.14401695938E-01  0.10204411174E+01  0.10201707438E+01 0.  0.
     999903    2    3    3    0    0  0.57491336302E-01  0.11031381424E+00  0.25454055663E-01  0.12857118619E+00  0.20205187607E-01 0.  0.
         14    1    1    2    0    0  0.16923842119E-01  0.76093578541E-02  0.14401695938E-01  0.23488882581E-01  0.00000000000E+00 0. -1.
     999901    1    3    3    0    0 -0.74415178421E-01 -0.11792317209E+00 -0.39855751601E-01  0.89186993123E+00  0.88000000000E+00 0.  1.
        -11    1    4    4    0    0  0.47902047835E-01  0.78147199050E-01  0.12157605117E-01  0.92464368215E-01  0.51100000000E-03 0.  1.
         11    1    4    4    0    0  0.95892884674E-02  0.32166615190E-01  0.13296450546E-01  0.36106817974E-01  0.51100000000E-03 0. -1.
</event>
<event>
 7    1  0.1123191E+005  0.1043930E+01  0.7957747E-01            NaN
         13   -1    0    0    0    0  0.00000000000E+00  0.00000000000E+00  0.74505805969E-08  0.10566000000E+00  0.10566000000E+00 0.  1.
     999900   -1    0    0    0    0 -0.00000000000E+00 -0.00000000000E+00 -0.74505805969E-08  0.93827000000E+00  0.93827000000E+00 0. -1.
     999903    2    1    2    0    0  0.40139395139E-01 -0.71813483703E-01 -0.47166180290E-02  0.84883790584E-01  0.20363298716E-01 0.  0.
         14    1    1    2    0    0 -0.21030383116E-01  0.27318286567E-01  0.67174150259E-01  0.75504518130E-01  0.00000000000E+00 0.  1.
     999901    1    1    2    0    0 -0.19109012023E-01  0.44495197136E-01 -0.62457532230E-01  0.88354169129E+00  0.88000000000E+00 0. -1.
        -11    1    3    3    0    0  0.18694118440E-01 -0.16150078753E-01 -0.50927823850E-02  0.25228806183E-01  0.51100000000E-03 0.  1.
         11    1    3    3    0    0  0.21445276699E-01 -0.55663404949E-01  0.37616435599E-03  0.59654984401E-01  0.51100000000E-03 0. -1.
</event>
<event>
 8    1  0.1123191E+005  0.1043930E+01  0.7957747E-01            NaN
         13   -1    0    0    0    0  0.00000000000E+00  0.00000000000E+00  0.74505805969E-08  0.10566000000E+00  0.10566000000E+00 0. -1.
     999900   -1    0    0    0    0 -0.00000000000E+00 -0.00000000000E+00 -0.74505805969E-08  0.93827000000E+00  0.93827000000E+00 0. -1.
     999902    2    1    2    0    0 -0.20103005588E-01  0.28594065078E-03 -0.12565786452E-01  0.10202211075E+01  0.10199455851E+01 0.  0.
     999903    2    3    3    0    0 -0.50678660871E-01  0.94421438228E-01 -0.75306908136E-01  0.13245266303E+00  0.19719099011E-01 0.  0.
         14    1    1    2    0    0  0.20103005588E-01 -0.28594065078E-03  0.12565786452E-01  0.23708892528E-01  0.00000000000E+00 0. -1.
     999901    1    3    3    0    0  0.30575655282E-01 -0.94135497577E-01  0.62741121684E-01  0.88776844444E+00  0.88000000000E+00 0.  1.
        -11    1    4    4    0    0 -0.35291295448E-01  0.72464827067E-01 -0.65631390388E-01  0.10394405813E+00  0.51100000000E-03 0.  1.
         11    1    4    4    0    0 -0.15387365422E-01  0.21956611161E-01 -0.96755177474E-02  0.28508604894E-01  0.51100000000E-03 0. -1.
</event>
<event>
 7    1  0.1123191E+005  0.1043930E+01  0.7957747E-01            NaN
         13   -1    0    0    0    0  0.00000000000E+00  0.00000000000E+00  0.74505805969E-08  0.10566000000E+00  0.10566000000E+00 0.  1.
     999900   -1    0    0    0    0 -0.00000000000E+00 -0.00000000000E+00 -0.74505805969E-08  0.93827000000E+00  0.93827000000E+00 0.  1.
     999902    2    1    2    0    0 -0.22596276830E-01  0.85182487404E-02 -0.76208738448E-02  0.10186074803E+01  0.10182926735E+01 0.  0.
         14    1    1    2    0    0  0.22596276830E-01 -0.85182487404E-02  0.76208738448E-02  0.25322519747E-01  0.00000000000E+00 0. -1.
     999901    1    3    3    0    0 -0.73991126733E-01  0.10231570329E+00 -0.64120929370E-01  0.89132187427E+00  0.88000000000E+00 0.  1.
        -11    1    3    3    0    0  0.41481311988E-02 -0.38671120690E-01  0.32891986542E-01  0.50939242903E-01  0.51100000000E-03 0.  1.
         11    1    3    3    0    0  0.47246718704E-01 -0.55126333858E-01  0.23608068983E-01  0.76346363077E-01  0.51100000000E-03 0. -1.
</event>
<event>
 8    1  0.1123191E+005  0.1043930E+01  0.7957747E-01            NaN
         13   -1    0    0    0    0  0.00000000000E+00  0.00000000000E+00  0.74505805969E-08  0.10566000000E+00  0.10566000000E+00 0.  1.
     999900   -1    0    0    0    0 -0.00000000000E+00 -0.00000000000E+00 -0.74505805969E-08  0.93827000000E+00  0.93827000000E+00 0. -1.
     999902    2    1    2    0    0 -0.67819466686E-02  0.11933796731E-01  0.19397350106E-01  0.10201672667E+01  0.10198904767E+01 0.  0.
     999903    2    3    3    0    0  0.11870488536E+00 -0.46733230210E-01  0.44181259510E-02  0.12920534703E+00  0.19991429409E-01 0.  0.
         14    1    1    2    0    0  0.67819466686E-02 -0.11933796731E-01 -0.19397350106E-01  0.23762733348E-01  0.00000000000E+00 0. -1.
     999901    1    3    3    0    0 -0.12548683203E+00  0.58667026941E-01  0.14979224155E-01  0.89096191962E+00  0.88000000000E+00 0.  1.
        -11    1    4    4    0    0  0.85799622383E-01 -0.40436899364E-01 -0.29514829038E-02  0.94898316126E-01  0.51100000000E-03 0. -1.
         11    1    4    4    0    0  0.32905262976E-01 -0.62963308457E-02  0.73696088548E-02  0.34307030902E-01  0.51100000000E-03 0.  1.
</event>
<event>
 8    1  0.1123191E+005  0.1043930E+01  0.7957747E-01            NaN
         13   -1    0    0    0    0  0.00000000000E+00  0.00000000000E+00  0.74505805969E-08  0.10566000000E+00  0.10566000000E+00 0. -1.
     999900   -1    0    0    0    0 -0.00000000000E+00 -0.00000000000E+00 -0.74505805969E-08  0.93827000000E+00  0.93827000000E+00 0. -1.
     999902    2    1    2    0    0  0.22471412371E-01 -0.16220447875E-01 -0.84546003481E-02  0.10149550527E+01  0.10145413799E+01 0.  0.
     999903    2    3    3    0    0  0.10162278223E+00  0.52193077930E-01 -0.53262326097E-01  0.12762586794E+00  0.20004487872E-01 0.  0.
         14    1    1    2    0    0 -0.22471412371E-01  0.16220447875E-01  0.84546003481E-02  0.28974947287E-01  0.00000000000E+00 0. -1.
     999901    1    3    3    0    0 -0.79151369855E-01 -0.68413525806E-01  0.44807725749E-01  0.88732918477E+00  0.88000000000E+00 0.  1.
        -11    1    4    4    0    0  0.77667621616E-01  0.35097588264E-01 -0.30896856783E-01  0.90658573943E-01  0.51100000000E-03 0. -1.
         11    1    4    4    0    0  0.23955160610E-01  0.17095489667E-01 -0.22365469315E-01  0.36967293997E-01  0.51100000000E-03 0.  1.
</event>
<event>
 7    1  0.1123191E+005  0.1043930E+01  0.7957747E-01            NaN
         13   -1    0    0    0    0  0.00000000000E+00  0.00000000000E+00  0.74505805969E-08  0.10566000000E+00  0.10566000000E+00 0. -1.
     999900   -1    0    0    0    0 -0.00000000000E+00 -0.00000000000E+00 -0.74505805969E-08  0.93827000000E+00  0.93827000000E+00 0.  1.
     999902    2    1    2    0    0  0.15852111770E-01  0.31094890220E-02  0.15040961923E-01  0.10218576439E+01  0.10216192321E+01 0.  0.
         14    1    1    2    0    0 -0.15852111770E-01 -0.31094890220E-02 -0.15040961923E-01  0.22072356130E-01  0.00000000000E+00 0. -1.
     999901    1    3    3    0    0  0.73627184167E-01  0.11524362920E+00  0.10973175260E-01  0.89063037614E+00  0.88000000000E+00 0. -1.
        -11    1    3    3    0    0 -0.47581057997E-01 -0.60906742894E-01 -0.77328209894E-02  0.77676547628E-01  0.51100000000E-03 0. -1.
         11    1    3    3    0    0 -0.10194014400E-01 -0.51227397284E-01  0.11800607652E-01  0.53550720107E-01  0.51100000000E-03 0.  1.
</event>
<event>
 8    1  0.1123191E+005  0.1043930E+01  0.7957747E-01            NaN
         13   -1    0    0    0    0  0.00000000000E+00  0.00000000000E+00  0.74505805969E-08  0.10566000000E+00  0.10566000000E+00 0.  1.
     999900   -1    0    0    0    0 -0.00000000000E+00 -0.00000000000E+00 -0.74505805969E-08  0.93827000000E+00  0.93827000000E+00 0. -1.
     999902    2    1    2    0    0 -0.33769566609E-02  0.20613443612E-01 -0.11042923028E-01  0.10203023881E+01  0.10200287737E+01 0.  0.
     999903    2    3    3    0    0  0.53305095865E-01 -0.73154486311E-01  0.88192705214E-01  0.12797229804E+00  0.20148044578E-01 0.  0.
         14    1    1    2    0    0  0.33769566609E-02 -0.20613443612E-01  0.11042923028E-01  0.23627611873E-01  0.00000000000E+00 0.  1.
     999901    1    3    3    0    0 -0.56682052525E-01  0.93767929923E-01 -0.99235628241E-01  0.89233009009E+00  0.88000000000E+00 0. -1.
        -11    1    4    4    0    0  0.46392516684E-01 -0.59520385306E-01  0.82082172332E-01  0.11150195517E+00  0.51100000000E-03 0. -1.
         11    1    4    4    0    0  0.69125791801E-02 -0.13634101005E-01  0.61105328817E-02  0.16470342869E-01  0.51100000000E-03 0.  1.
</event>
<event>
 8    1  0.1123191E+005  0.1043930E+01  0.7957747E-01            NaN
         13   -1    0    0    0    0  0.00000000000E+00  0.00000000000E+00  0.74505805969E-08  0.10566000000E+00  0.10566000000E+00 0.  1.
     999900   -1    0    0    0    0 -0.00000000000E+00 -0.00000000000E+00 -0.74505805969E-08  0.93827000000E+00  0.93827000000E+00 0. -1.
     999902    2    1    2    0    0 -0.14824633400E-01 -0.12559046142E-01  0.13885335381E-01  0.10200490048E+01  0.10197694201E+01 0.  0.
     999903    2    3    3    0    0 -0.38423863410E-01 -0.10674300321E+00 -0.63237431190E-01  0.13135588418E+00  0.19619724540E-01 0.  0.
         14    1    1    2    0    0  0.14824633400E-01  0.12559046142E-01 -0.13885335381E-01  0.23880995250E-01  0.00000000000E+00 0.  1.
     999901    1    3    3    0    0  0.23599230010E-01  0.94183957069E-01  0.77122766572E-01  0.88869312057E+00  0.88000000000E+00 0.  1.
        -11    1    4    4    0    0 -0.24372398109E-01 -0.61530781732E-01 -0.25955336102E-01  0.71091430449E-01  0.51100000000E-03 0. -1.
         11    1    4    4    0    0 -0.14051465301E-01 -0.45212221480E-01 -0.37282095089E-01  0.60264453731E-01  0.51100000000E-03 0.  1.
</event>
<event>
 8    1  0.1123191E+005  0.1043930E+01  0.7957747E-01            NaN
         13   -1    0    0    0    0  0.00000000000E+00  0.00000000000E+00  0.74505805969E-08  0.10566000000E+00  0.10566000000E+00 0. -1.
     999900   -1    0    0    0    0 -0.00000000000E+00 -0.00000000000E+00 -0.74505805969E-08  0.93827000000E+00  0.93827000000E+00 0.  1.
     999902    2    1    2    0    0  0.21753639597E-01  0.84052942753E-02  0.35858082699E-04  0.10206089560E+01  0.10203424768E+01 0.  0.
     999903    2    3    3    0    0 -0.54068203660E-01  0.45975455093E-01 -0.10727013735E+00  0.13006134607E+00  0.19286219341E-01 0.  0.
         14    1    1    2    0    0 -0.21753639597E-01 -0.84052942753E-02 -0.35858082699E-04  0.23321044003E-01  0.00000000000E+00 0.  1.
     999901    1    3    3    0    0  0.75821843257E-01 -0.37570160817E-01  0.10730599543E+00  0.89054760993E+00  0.88000000000E+00 0. -1.
        -11    1    4    4    0    0 -0.30373171336E-01  0.31238494512E-01 -0.49789591572E-01  0.66163718353E-01  0.51100000000E-03 0.  1.
         11    1    4    4    0    0 -0.23695032325E-01  0.14736960581E-01 -0.57480545774E-01  0.63897627714E-01  0.51100000000E-03 0. -1.
</event>
<event>
 8    1  0.1123191E+005  0.1043930E+01  0.7957747E-01            NaN
         13   -1    0    0    0    0  0.00000000000E+00  0.00000000000E+00  0.74505805969E-08  0.10566000000E+00  0.10566000000E+00 0. -1.
     999900   -1    0    0    0    0 -0.00000000000E+00 -0.00000000000E+00 -0.74505805969E-08  0.93827000000E+00  0.93827000000E+00 0.  1.
     999902    2    1    2    0    0  0.94599611483E-02  0.54842055604E-02  0.20565026837E-01  0.10206386346E+01  0.10203728410E+01 0.  0.
     999903    2    3    3    0    0 -0.30239279945E-01  0.73675164728E-01 -0.99446029496E-01  0.12899482097E+00  0.20191758363E-01 0.  0.
         14    1    1    2    0    0 -0.94599611483E-02 -0.54842055604E-02 -0.20565026837E-01  0.23291365447E-01  0.00000000000E+00 0.  1.
     999901    1    3    3    0    0  0.39699241093E-01 -0.68190959168E-01  0.12001105633E+00  0.89164381358E+00  0.88000000000E+00 0. -1.
        -11    1    4    4    0    0 -0.83107494324E-02  0.35054979952E-01 -0.57794283204E-01  0.68105509819E-01  0.51100000000E-03 0. -1.
         11    1    4    4    0    0 -0.21928530512E-01  0.38620184776E-01 -0.41651746291E-01  0.60889311153E-01  0.51100000000E-03 0.  1.
</event>
<event>
 8    1  0.1123191E+005  0.1043930E+01  0.7957747E-01            NaN
         13   -1    0    0    0    0  0.00000000000E+00  0.00000000000E+00  0.74505805969E-08  0.10566000000E+00  0.10566000000E+00 0.  1.
     999900   -1    0    0    0    0 -0.00000000000E+00 -0.00000000000E+00 -0.74505805969E-08  0.93827000000E+00  0.93827000000E+00 0.  1.
     999902    2    1    2    0    0 -0.23177719600E-01  0.29459086913E-02  0.87449563589E-03  0.10205494567E+01  0.10202816002E+01 0.  0.
     999903    2    3    3    0    0 -0.29737843672E-01 -0.83778068831E-01 -0.94725065824E-01  0.13110954321E+00  0.17713555863E-01 0.  0.
         14    1    1    2    0    0  0.23177719600E-01 -0.29459086913E-02 -0.87449563589E-03  0.23380543332E-01  0.00000000000E+00 0.  1.
     999901    1    3    3    0    0  0.65601240717E-02  0.86723977523E-01  0.95599561460E-01  0.88943991346E+00  0.88000000000E+00 0. -1.
        -11    1    4    4    0    0 -0.22291738569E-01 -0.58978688424E-01 -0.54900132550E-01  0.83604383687E-01  0.51100000000E-03 0. -1.
         11    1    4    4    0    0 -0.74461051029E-02 -0.24799380407E-01 -0.39824933274E-01  0.47505159521E-01  0.51100000000E-03 0.  1.
</event>
<event>
 8    1  0.1123191E+005  0.1043930E+01  0.7957747E-01            NaN
         13   -1    0    0    0    0  0.00000000000E+00  0.00000000000E+00  0.74505805969E-08  0.10566000000E+00  0.10566000000E+00 0. -1.
     999900   -1    0    0    0    0 -0.00000000000E+00 -0.00000000000E+00 -0.74505805969E-08  0.93827000000E+00  0.93827000000E+00 0. -1.
     999902    2    1    2    0    0 -0.19681907294E-01  0.51595557072E-02 -0.12944191427E-01  0.10198146401E+01  0.10195294746E+01 0.  0.
     999903    2    3    3    0    0 -0.10079152331E+00  0.54384677539E-01 -0.64970640127E-01  0.13318696529E+00  0.20023968719E-01 0.  0.
         14    1    1    2    0    0  0.19681907294E-01 -0.51595557072E-02  0.12944191427E-01  0.24115359867E-01  0.00000000000E+00 0. -1.
     999901    1    3    3    0    0  0.81109616015E-01 -0.49225121832E-01  0.52026448700E-01  0.88662767484E+00  0.88000000000E+00 0. -1.
        -11    1    4    4    0    0 -0.53677649746E-01  0.32048231976E-01 -0.24368354084E-01  0.67100350645E-01  0.51100000000E-03 0.  1.
         11    1    4    4    0    0 -0.47113873563E-01  0.22336445563E-01 -0.40602286043E-01  0.66086614646E-01  0.51100000000E-03 0. -1.
</event>
<event>
 8    1  0.1123191E+005  0.1043930E+01  0.7957747E-01            NaN
         13   -1    0    0    0    0  0.00000000000E+00  0.00000000000E+00  0.74505805969E-08  0.10566000000E+00  0.10566000000E+00 0.  1.
     999900   -1    0    0    0    0 -0.00000000000E+00 -0.00000000000E+00 -0.74505805969E-08  0.93827000000E+00  0.93827000000E+00 0. -1.
     999902    2    1    2    0    0 -0.11485102210E-01 -0.17849753764E-01  0.10601101774E-01  0.10202043885E+01  0.10199284728E+01 0.  0.
     999903    2    3    3    0    0 -0.10974517478E+00 -0.69924672677E-01  0.19705008507E-01  0.13315888789E+00  0.20237065668E-01 0.  0.
         14    1    1    2    0    0  0.11485102210E-01  0.17849753764E-01 -0.10601101774E-01  0.23725611500E-01  0.00000000000E+00 0.  1.
     999901    1    3    3    0    0  0.98260072569E-01  0.52074918912E-01 -0.91039067331E-02  0.88704550061E+00  0.88000000000E+00 0. -1.
        -11    1    4    4    0    0 -0.45090760369E-01 -0.38836617834E-01  0.14345395637E-01  0.61216918024E-01  0.51100000000E-03 0.  1.
         11    1    4    4    0    0 -0.64654414410E-01 -0.31088054843E-01  0.53596128700E-02  0.71941969863E-01  0.51100000000E-03 0. -1.
</event>
<event>
 8    1  0.1123191E+005  0.1043930E+01  0.7957747E-01            NaN
         13   -1    0    0    0    0  0.00000000000E+00  0.00000000000E+00  0.74505805969E-08  0.10566000000E+00  0.10566000000E+00 0.  1.
     999900   -1    0    0    0    0 -0.00000000000E+00 -0.00000000000E+00 -0.74505805969E-08  0.93827000000E+00  0.93827000000E+00 0.  1.
     999902    2    1    2    0    0  0.41236149636E-02 -0.21767627163E-01 -0.57484153773E-02  0.10210416171E+01  0.10207850439E+01 0.  0.
     999903    2    3    3    0    0 -0.38263477773E-01  0.10637938274E+00  0.57506541417E-01  0.12850617727E+00  0.20643848662E-01 0.  0.
         14    1    1    2    0    0 -0.41236149636E-02  0.21767627163E-01  0.57484153773E-02  0.22888382905E-01  0.00000000000E+00 0. -1.
     999901    1    3    3    0    0  0.42387092736E-01 -0.12814700991E+00 -0.63254956794E-01  0.89253543982E+00  0.88000000000E+00 0.  1.
        -11    1    4    4    0    0  0.17772862391E-02  0.96965330869E-02  0.81608225919E-02  0.12807874400E-01  0.51100000000E-03 0.  1.
         11    1    4    4    0    0 -0.40040764012E-01  0.96682849657E-01  0.49345718825E-01  0.11569830287E+00  0.51100000000E-03 0. -1.
</event>
<event>
 8    1  0.1123191E+005  0.1043930E+01  0.7957747E-01            NaN
         13   -1    0    0    0    0  0.00000000000E+00  0.00000000000E+00  0.74505805969E-08  0.10566000000E+00  0.10566000000E+00 0. -1.
     999900   -1    0    0    0    0 -0.00000000000E+00 -0.00000000000E+00 -0.74505805969E-08  0.93827000000E+00  0.93827000000E+00 0. -1.
     999902    2    1    2    0    0  0.99087305219E-02  0.17154325785E-02  0.21695797489E-01  0.10200169643E+01  0.10197366200E+01 0.  0.
     999903    2    3    3    0    0 -0.41927615301E-01 -0.15687223485E-01  0.12280698322E+00  0.13254114427E+00  0.21945065296E-01 0.  0.
         14    1    1    2    0    0 -0.99087305219E-02 -0.17154325785E-02 -0.21695797489E-01  0.23913035737E-01  0.00000000000E+00 0.  1.
     999901    1    3    3    0    0  0.51836345823E-01  0.17402656064E-01 -0.10111118574E+00  0.88747581999E+00  0.88000000000E+00 0. -1.
        -11    1    4    4    0    0 -0.18457635961E-01 -0.16470223029E-01  0.79670616325E-01  0.83424341763E-01  0.51100000000E-03 0. -1.
         11    1    4    4    0    0 -0.23469979340E-01  0.78299954398E-03  0.43136366900E-01  0.49116802510E-01  0.51100000000E-03 0.  1.
</event>
<event>
 8    1  0.1123191E+005  0.1043930E+01  0.7957747E-01            NaN
         13   -1    0    0    0    0  0.00000000000E+00  0.00000000000E+00  0.74505805969E-08  0.10566000000E+00  0.10566000000E+00 0.  1.
     999900   -1    0    0    0    0 -0.00000000000E+00 -0.00000000000E+00 -0.74505805969E-08  0.93827000000E+00  0.93827000000E+00 0.  1.
     999902    2    1    2    0    0 -0.21839409597E-02  0.22519997009E-01 -0.21866980926E-02  0.10211989307E+01  0.10209459117E+01 0.  0.
     999903    2    3    3    0    0 -0.47499132101E-01 -0.17619516062E-01 -0.11997063747E+00  0.13129011321E+00  0.16659083814E-01 0.  0.
         14    1    1    2    0    0  0.21839409597E-02 -0.22519997009E-01  0.21866980926E-02  0.22731069309E-01  0.00000000000E+00 0.  1.
     999901    1    3    3    0    0  0.45315191142E-01  0.40139513070E-01  0.11778393938E+00  0.88990881748E+00  0.88000000000E+00 0. -1.
        -11    1    4    4    0    0 -0.46053086356E-02 -0.39002444578E-03 -0.27694524463E-01  0.28082179277E-01  0.51100000000E-03 0. -1.
         11    1    4    4    0    0 -0.42893823466E-01 -0.17229491616E-01 -0.92276113011E-01  0.10320793393E+00  0.51100000000E-03 0.  1.
</event>
<event>
 8    1  0.1123191E+005  0.1043930E+01  0.7957747E-01            NaN
         13   -1    0    0    0    0  0.00000000000E+00  0.00000000000E+00  0.74505805969E-08  0.10566000000E+00  0.10566000000E+00 0. -1.
     999900   -1    0    0    0    0 -0.00000000000E+00 -0.00000000000E+00 -0.74505805969E-08  0.93827000000E+00  0.93827000000E+00 0. -1.
     999902    2    1    2    0    0 -0.11770216293E-01 -0.16897130810E-01  0.12199401046E-01  0.10199951633E+01  0.10197143015E+01 0.  0.
     999903    2    3    3    0    0 -0.10114093752E+00 -0.81194928103E-02 -0.79859785533E-01  0.13064761226E+00  0.19894668550E-01 0.  0.
         14    1    1    2    0    0  0.11770216293E-01  0.16897130810E-01 -0.12199401046E-01  0.23934836684E-01  0.00000000000E+00 0.  1.
     999901    1    3    3    0    0  0.89370721228E-01 -0.87776379998E-02  0.92059186580E-01  0.88934755106E+00  0.88000000000E+00 0.  1.
        -11    1    4    4    0    0 -0.82036019093E-02 -0.14725240451E-02 -0.14840634049E-01  0.17028592171E-01  0.51100000000E-03 0.  1.
         11    1    4    4    0    0 -0.92937335612E-01 -0.66469687652E-02 -0.65019151484E-01  0.11361902009E+00  0.51100000000E-03 0. -1.
</event>
<event>
 8    1  0.1123191E+005  0.1043930E+01  0.7957747E-01            NaN
         13   -1    0    0    0    0  0.00000000000E+00  0.00000000000E+00  0.74505805969E-08  0.10566000000E+00  0.10566000000E+00 0. -1.
     999900   -1    0    0    0    0 -0.00000000000E+00 -0.00000000000E+00 -0.74505805969E-08  0.93827000000E+00  0.93827000000E+00 0.  1.
     999902    2    1    2    0    0 -0.10183036663E-01  0.49043550768E-02  0.21103430991E-01  0.10199904567E+01  0.10197094831E+01 0.  0.
     999903    2    3    3    0    0 -0.62676029571E-01  0.63482981662E-01  0.97066538813E-01  0.13322252563E+00  0.19182146272E-01 0.  0.
         14    1    1    2    0    0  0.10183036663E-01 -0.49043550768E-02 -0.21103430991E-01  0.23939543312E-01  0.00000000000E+00 0.  1.
     999901    1    3    3    0    0  0.52492992907E-01 -0.58578626585E-01 -0.75963107822E-01  0.88676793105E+00  0.88000000000E+00 0.  1.
        -11    1    4    4    0    0 -0.82564756815E-02  0.19801648277E-01  0.23400127020E-01  0.31750617800E-01  0.51100000000E-03 0. -1.
         11    1    4    4    0    0 -0.54419553889E-01  0.43681333385E-01  0.73666411793E-01  0.10147190783E+00  0.51100000000E-03 0.  1.
</event>
<event>
 7    1  0.1123191E+005  0.1043930E+01  0.7957747E-01            NaN
         13   -1    0    0    0    0  0.00000000000E+00  0.00000000000E+00  0.74505805969E-08  0.10566000000E+00  0.10566000000E+00 0.  1.
     999900   -1    0    0    0    0 -0.00000000000E+00 -0.00000000000E+00 -0.74505805969E-08  0.93827000000E+00  0.93827000000E+00 0. -1.
     999903    2    1    2    0    0 -0.87902349959E-01  0.30178651227E-01  0.37366892172E-01  0.10180025778E+00  0.18150309498E-01 0.  0.
         14    1    1    2    0    0 -0.15037890670E-01 -0.11250501349E-01 -0.52541641126E-01  0.55797275817E-01  0.00000000000E+00 0. -1.
     999901    1    1    2    0    0  0.10294024063E+00 -0.18928149878E-01  0.15174748954E-01  0.88633246641E+00  0.88000000000E+00 0.  1.
        -11    1    3    3    0    0 -0.45120055836E-01  0.83309366700E-02  0.11793756495E-01  0.47376974974E-01  0.51100000000E-03 0. -1.
         11    1    3    3    0    0 -0.42782294123E-01  0.21847714557E-01  0.25573135677E-01  0.54423282804E-01  0.51100000000E-03 0.  1.
</event>
<event>
 8    1  0.1123191E+005  0.1043930E+01  0.7957747E-01            NaN
         13   -1    0    0    0    0  0.00000000000E+00  0.00000000000E+00  0.74505805969E-08  0.10566000000E+00  0.10566000000E+00 0. -1.
     999900   -1    0    0    0    0 -0.00000000000E+00 -0.00000000000E+00 -0.74505805969E-08  0.93827000000E+00  0.93827000000E+00 0.  1.
     999902    2    1    2    0    0  0.47052005896E-02  0.17115360331E-01  0.14039118925E-01  0.10212987974E+01  0.10210480215E+01 0.  0.
     999903    2    3    3    0    0  0.22608672351E-01  0.59996845970E-01 -0.11260194091E+00  0.13101945125E+00  0.19393965981E-01 0.  0.
         14    1    1    2    0    0 -0.47052005896E-02 -0.17115360331E-01 -0.14039118925E-01  0.22631202621E-01  0.00000000000E+00 0.  1.
     999901    1    3    3    0    0 -0.17903471762E-01 -0.42881485639E-01  0.12664105984E+00  0.89027934613E+00  0.88000000000E+00 0. -1.
        -11    1    4    4    0    0  0.12375486261E-01  0.53215507533E-01 -0.89725736502E-01  0.10505242412E+00  0.51100000000E-03 0.  1.
         11    1    4    4    0    0  0.10233186091E-01  0.67813384377E-02 -0.22876204409E-01  0.25967027126E-01  0.51100000000E-03 0. -1.
</event>
<event>
 8    1  0.1123191E+005  0.1043930E+01  0.7957747E-01            NaN
         13   -1    0    0    0    0  0.00000000000E+00  0.00000000000E+00  0.74505805969E-08  0.10566000000E+00  0.10566000000E+00 0.  1.
     999900   -1    0    0    0    0 -0.00000000000E+00 -0.00000000000E+00 -0.74505805969E-08  0.93827000000E+00  0.93827000000E+00 0.  1.
     999902    2    1    2    0    0  0.44852003929E-02 -0.11173087724E-01 -0.17877925227E-01  0.10223759952E+01  0.10221487663E+01 0.  0.
     999903    2    3    3    0    0 -0.11019704745E+00  0.43939072038E-01  0.51095358562E-01  0.13055388179E+00  0.18961779046E-01 0.  0.
         14    1    1    2    0    0 -0.44852003929E-02  0.11173087724E-01  0.17877925227E-01  0.21554004785E-01  0.00000000000E+00 0.  1.
     999901    1    3    3    0    0  0.11468224784E+00 -0.55112159762E-01 -0.68973283789E-01  0.89182211343E+00  0.88000000000E+00 0.  1.
        -11    1    4    4    0    0 -0.73485214924E-01  0.30700030689E-01  0.24502027143E-01  0.83325741232E-01  0.51100000000E-03 0.  1.
         11    1    4    4    0    0 -0.36711832526E-01  0.13239041350E-01  0.26593331419E-01  0.47228140554E-01  0.51100000000E-03 0. -1.
</event>
<event>
 8    1  0.1123191E+005  0.1043930E+01  0.7957747E-01            NaN
         13   -1    0    0    0    0  0.00000000000E+00  0.00000000000E+00  0.74505805969E-08  0.10566000000E+00  0.10566000000E+00 0. -1.
     999900   -1    0    0    0    0 -0.00000000000E+00 -0.00000000000E+00 -0.74505805969E-08  0.93827000000E+00  0.93827000000E+00 0. -1.
     999902    2    1    2    0    0 -0.55725809656E-02  0.23722759779E-01 -0.24425474132E-02  0.10194394094E+01  0.10191451910E+01 0.  0.
     999903    2    3    3    0    0  0.72512115606E-01  0.70861870946E-01  0.80713179485E-01  0.13082577538E+00  0.17926363232E-01 0.  0.
         14    1    1    2    0    0  0.55725809656E-02 -0.23722759779E-01  0.24425474132E-02  0.24490590602E-01  0.00000000000E+00 0.  1.
     999901    1    3    3    0    0 -0.78084696571E-01 -0.47139111166E-01 -0.83155726898E-01  0.88861363401E+00  0.88000000000E+00 0. -1.
        -11    1    4    4    0    0  0.25591040796E-01  0.24733360981E-01  0.17831181427E-01  0.39810208070E-01  0.51100000000E-03 0.  1.
         11    1    4    4    0    0  0.46921074809E-01  0.46128509964E-01  0.62881998058E-01  0.91015567314E-01  0.51100000000E-03 0. -1.
</event>
<event>
 8    1  0.1123191E+005  0.1043930E+01  0.7957747E-01            NaN
         13   -1    0    0    0    0  0.00000000000E+00  0.00000000000E+00  0.74505805969E-08  0.10566000000E+00  0.10566000000E+00 0. -1.
     999900   -1    0    0    0    0 -0.00000000000E+00 -0.00000000000E+00 -0.74505805969E-08  0.93827000000E+00  0.93827000000E+00 0.  1.
     999902    2    1    2    0    0  0.83241075825E-02  0.14169399131E-01  0.16626959971E-01  0.10205522662E+01  0.10202844749E+01 0.  0.
     999903    2    3    3    0    0 -0.33266786847E-01  0.12744504349E-01 -0.12121745003E+00  0.12885000975E+00  0.25289391533E-01 0.  0.
         14    1    1    2    0    0 -0.83241075825E-02 -0.14169399131E-01 -0.16626959971E-01  0.23377733780E-01  0.00000000000E+00 0.  1.
     999901    1    3    3    0    0  0.41590894429E-01  0.14248947816E-02  0.13784441000E+00  0.89170225647E+00  0.88000000000E+00 0. -1.
        -11    1    4    4    0    0 -0.93029679573E-02  0.11348389039E-01 -0.78373822405E-01  0.79737370825E-01  0.51100000000E-03 0. -1.
         11    1    4    4    0    0 -0.23963818889E-01  0.13961153102E-02 -0.42843627620E-01  0.49112638927E-01  0.51100000000E-03 0.  1.
</event>
<event>
 8    1  0.1123191E+005  0.1043930E+01  0.7957747E-01            NaN
         13   -1    0    0    0    0  0.00000000000E+00  0.00000000000E+00  0.74505805969E-08  0.10566000000E+00  0.10566000000E+00 0.  1.
     999900   -1    0    0    0    0 -0.00000000000E+00 -0.00000000000E+00 -0.74505805969E-08  0.93827000000E+00  0.93827000000E+00 0.  1.
     999902    2    1    2    0    0 -0.15587547550E-01  0.33226584321E-02  0.17382372227E-01  0.10203469857E+01  0.10200744153E+01 0.  0.
     999903    2    3    3    0    0  0.11021047281E+00 -0.39323746700E-01 -0.47808340375E-01  0.12799409208E+00  0.20103353626E-01 0.  0.
         14    1    1    2    0    0  0.15587547550E-01 -0.33226584321E-02 -0.17382372227E-01  0.23583014267E-01  0.00000000000E+00 0. -1.
     999901    1    3    3    0    0 -0.12579802036E+00  0.42646405132E-01  0.65190712602E-01  0.89235289365E+00  0.88000000000E+00 0. -1.
        -11    1    4    4    0    0  0.12247821686E-01  0.18516038571E-02 -0.36984382681E-02  0.12937431720E-01  0.51100000000E-03 0. -1.
         11    1    4    4    0    0  0.97962651124E-01 -0.41175350557E-01 -0.44109902106E-01  0.11505666036E+00  0.51100000000E-03 0.  1.
</event>
<event>
 8    1  0.1123191E+005  0.1043930E+01  0.7957747E-01            NaN
         13   -1    0    0    0    0  0.00000000000E+00  0.00000000000E+00  0.74505805969E-08  0.10566000000E+00  0.10566000000E+00 0. -1.
     999900   -1    0    0    0    0 -0.00000000000E+00 -0.00000000000E+00 -0.74505805969E-08  0.93827000000E+00  0.93827000000E+00 0.  1.
     999902    2    1    2    0    0  0.19125340144E-01 -0.38808078824E-02  0.17387043419E-01  0.10177928888E+01  0.10174572305E+01 0.  0.
     999903    2    3    3    0    0  0.10173511611E+00 -0.11971862127E-01  0.80338898972E-01  0.13164799295E+00  0.19583054567E-01 0.  0.
         14    1    1    2    0    0 -0.19125340144E-01  0.38808078824E-02 -0.17387043419E-01  0.26137111247E-01  0.00000000000E+00 0.  1.
     999901    1    3    3    0    0 -0.82609775968E-01  0.80910542450E-02 -0.62951855552E-01  0.88614489581E+00  0.88000000000E+00 0. -1.
        -11    1    4    4    0    0  0.65000477170E-01 -0.75074396622E-02  0.39051022593E-01  0.76201490597E-01  0.51100000000E-03 0.  1.
         11    1    4    4    0    0  0.36734638942E-01 -0.44644224651E-02  0.41287876378E-01  0.55446502351E-01  0.51100000000E-03 0. -1.
</event>
<event>
 8    1  0.1123191E+005  0.1043930E+01  0.7957747E-01            NaN
         13   -1    0    0    0    0  0.00000000000E+00  0.00000000000E+00  0.74505805969E-08  0.10566000000E+00  0.10566000000E+00 0.  1.
     999900   -1    0    0    0    0 -0.00000000000E+00 -0.00000000000E+00 -0.74505805969E-08  0.93827000000E+00  0.93827000000E+00 0. -1.
     999902    2    1    2    0    0 -0.22222713290E-01  0.42871931021E-02  0.69160437952E-02  0.10202643990E+01  0.10199898936E+01 0.  0.
     999903    2    3    3    0    0 -0.93526782395E-01  0.48390048541E-01  0.79105111655E-01  0.13333678430E+00  0.20789986420E-01 0.  0.
         14    1    1    2    0    0  0.22222713290E-01 -0.42871931021E-02 -0.69160437952E-02  0.23665601037E-01  0.00000000000E+00 0.  1.
     999901    1    3    3    0    0  0.71304069106E-01 -0.44102855438E-01 -0.72189067860E-01  0.88692761466E+00  0.88000000000E+00 0. -1.
        -11    1    4    4    0    0 -0.11924903343E-01  0.94705358256E-02  0.38762154073E-02  0.15721976194E-01  0.51100000000E-03 0. -1.
         11    1    4    4    0    0 -0.81601879052E-01  0.38919512715E-01  0.75228896248E-01  0.11761480811E+00  0.51100000000E-03 0.  1.
</event>
<event>
 8    1  0.1123191E+005  0.1043930E+01  0.7957747E-01            NaN
         13   -1    0    0    0    0  0.00000000000E+00  0.00000000000E+00  0.74505805969E-08  0.10566000000E+00  0.10566000000E+00 0.  1.
     999900   -1    0    0    0    0 -0.00000000000E+00 -0.00000000000E+00 -0.74505805969E-08  0.93827000000E+00  0.93827000000E+00 0.  1.
     999902    2    1    2    0    0 -0.78666438435E-03  0.24502353278E-02 -0.26512040590E-01  0.10172933563E+01  0.10169445717E+01 0.  0.
     999903    2    3    3    0    0 -0.37478697115E-01 -0.11421164711E+00  0.34957318792E-01  0.12671220766E+00  0.19621833744E-01 0.  0.
         14    1    1    2    0    0  0.78666438435E-03 -0.24502353278E-02  0.26512040590E-01  0.26636643750E-01  0.00000000000E+00 0.  1.
     999901    1    3    3    0    0  0.36692032730E-01  0.11666188244E+00 -0.61469359382E-01  0.89058114859E+00  0.88000000000E+00 0.  1.
        -11    1    4    4    0    0 -0.33727283797E-01 -0.73133688353E-01  0.23658635706E-01  0.83940801812E-01  0.51100000000E-03 0. -1.
         11    1    4    4    0    0 -0.37514133176E-02 -0.41077958760E-01  0.11298683086E-01  0.42771405848E-01  0.51100000000E-03 0.  1.
</event>
<event>
 8    1  0.1123191E+005  0.1043930E+01  0.7957747E-01            NaN
         13   -1    0    0    0    0  0.00000000000E+00  0.00000000000E+00  0.74505805969E-08  0.10566000000E+00  0.10566000000E+00 0. -1.
     999900   -1    0    0    0    0 -0.00000000000E+00 -0.00000000000E+00 -0.74505805969E-08  0.93827000000E+00  0.93827000000E+00 0.  1.
     999902    2    1    2    0    0 -0.19701352590E-01 -0.27612873872E-02 -0.13352024129E-01  0.10199707732E+01  0.10196893319E+01 0.  0.
     999903    2    3    3    0    0 -0.11415860215E+00  0.56916733281E-01 -0.30783053574E-01  0.13273490885E+00  0.19981458121E-01 0.  0.
         14    1    1    2    0    0  0.19701352590E-01  0.27612873872E-02  0.13352024129E-01  0.23959226829E-01  0.00000000000E+00 0. -1.
     999901    1    3    3    0    0  0.94457249560E-01 -0.59678020669E-01  0.17431029445E-01  0.88723586432E+00  0.88000000000E+00 0.  1.
        -11    1    4    4    0    0 -0.24950507561E-01  0.21029852340E-01 -0.37485512679E-02  0.32849585608E-01  0.51100000000E-03 0. -1.
         11    1    4    4    0    0 -0.89208094588E-01  0.35886880941E-01 -0.27034502306E-01  0.99885323245E-01  0.51100000000E-03 0.  1.
</event>
<event>
 8    1  0.1123191E+005  0.1043930E+01  0.7957747E-01            NaN
         13   -1    0    0    0    0  0.00000000000E+00  0.00000000000E+00  0.74505805969E-08  0.10566000000E+00  0.10566000000E+00 0.  1.
     999900   -1    0    0    0    0 -0.00000000000E+00 -0.00000000000E+00 -0.74505805969E-08  0.93827000000E+00  0.93827000000E+00 0. -1.
     999902    2    1    2    0    0 -0.20683991135E-02 -0.18609682160E-01  0.91722197540E-02  0.10230798643E+01  0.10228673817E+01 0.  0.
     999903    2    3    3    0    0  0.59938577426E-01 -0.11048178566E+00 -0.43974446468E-01  0.13453615871E+00  0.19166847252E-01 0.  0.
         14    1    1    2    0    0  0.20683991135E-02  0.18609682160E-01 -0.91722197540E-02  0.20850135736E-01  0.00000000000E+00 0. -1.
     999901    1    3    3    0    0 -0.62006976539E-01  0.91872103497E-01  0.53146666222E-01  0.88854370555E+00  0.88000000000E+00 0.  1.
        -11    1    4    4    0    0 -0.14313444184E-02 -0.29177491600E-02 -0.80607700447E-03  0.33871652074E-02  0.51100000000E-03 0. -1.
         11    1    4    4    0    0  0.61369921844E-01 -0.10756403650E+00 -0.43168369463E-01  0.13114899351E+00  0.51100000000E-03 0.  1.
</event>
<event>
 8    1  0.1123191E+005  0.1043930E+01  0.7957747E-01            NaN
         13   -1    0    0    0    0  0.00000000000E+00  0.00000000000E+00  0.74505805969E-08  0.10566000000E+00  0.10566000000E+00 0.  1.
     999900   -1    0    0    0    0 -0.00000000000E+00 -0.00000000000E+00 -0.74505805969E-08  0.93827000000E+00  0.93827000000E+00 0. -1.
     999902    2    1    2    0    0  0.67557009960E-02 -0.14617516424E-01  0.17992163888E-01  0.10197840015E+01  0.10194981022E+01 0.  0.
     999903    2    3    3    0    0  0.64296338453E-02 -0.10781334684E+00  0.75086229706E-01  0.13302287161E+00  0.19801124532E-01 0.  0.
         14    1    1    2    0    0 -0.67557009960E-02  0.14617516424E-01 -0.17992163888E-01  0.24145998504E-01  0.00000000000E+00 0. -1.
     999901    1    3    3    0    0  0.32606715074E-03  0.93195830411E-01 -0.57094065818E-01  0.88676112989E+00  0.88000000000E+00 0. -1.
        -11    1    4    4    0    0 -0.61596392744E-02 -0.46435799732E-01  0.27271599472E-01  0.54205404818E-01  0.51100000000E-03 0. -1.
         11    1    4    4    0    0  0.12589273120E-01 -0.61377547104E-01  0.47814630234E-01  0.78817466792E-01  0.51100000000E-03 0.  1.
</event>
<event>
 8    1  0.1123191E+005  0.1043930E+01  0.7957747E-01            NaN
         13   -1    0    0    0    0  0.00000000000E+00  0.00000000000E+00  0.74505805969E-08  0.10566000000E+00  0.10566000000E+00 0. -1.
     999900   -1    0    0    0    0 -0.00000000000E+00 -0.00000000000E+00 -0.74505805969E-08  0.93827000000E+00  0.93827000000E+00 0.  1.
     999902    2    1    2    0    0  0.41733773867E-02  0.20654351812E-01  0.12647593253E-01  0.10193539763E+01  0.10190576765E+01 0.  0.
     999903    2    3    3    0    0 -0.72742017071E-01 -0.37759181174E-01  0.98957092859E-01  0.12987241464E+00  0.18899234050E-01 0.  0.
         14    1    1    2    0    0 -0.41733773867E-02 -0.20654351812E-01 -0.12647593253E-01  0.24576023736E-01  0.00000000000E+00 0.  1.
     999901    1    3    3    0    0  0.76915394457E-01  0.58413532986E-01 -0.86309499606E-01  0.88948156162E+00  0.88000000000E+00 0.  1.
        -11    1    4    4    0    0 -0.52031526933E-01 -0.35912940623E-01  0.71873325451E-01  0.95723848291E-01  0.51100000000E-03 0. -1.
         11    1    4    4    0    0 -0.20710490138E-01 -0.18462405509E-02  0.27083767408E-01  0.34148566353E-01  0.51100000000E-03 0.  1.
</event>
<event>
 8    1  0.1123191E+005  0.1043930E+01  0.7957747E-01            NaN
         13   -1    0    0    0    0  0.00000000000E+00  0.00000000000E+00  0.74505805969E-08  0.10566000000E+00  0.10566000000E+00 0. -1.
     999900   -1    0    0    0    0 -0.00000000000E+00 -0.00000000000E+00 -0.74505805969E-08  0.93827000000E+00  0.93827000000E+00 0.  1.
     999902    2    1    2    0    0  0.59060706671E-03  0.16674986939E-01  0.18129700855E-01  0.10192908024E+01  0.10189929586E+01 0.  0.
     999903    2    3    3    0    0  0.29859353246E-01  0.10355460881E+00  0.74833767434E-01  0.13271306785E+00  0.19938095386E-01 0.  0.
         14    1    1    2    0    0 -0.59060706671E-03 -0.16674986939E-01 -0.18129700855E-01  0.24639197617E-01  0.00000000000E+00 0.  1.
     999901    1    3    3    0    0 -0.29268746180E-01 -0.86879621875E-01 -0.56704066579E-01  0.88657773453E+00  0.88000000000E+00 0.  1.
        -11    1    4    4    0    0  0.65190200731E-02  0.43075132330E-01  0.39863579019E-01  0.59053625639E-01  0.51100000000E-03 0. -1.
         11    1    4    4    0    0  0.23340333173E-01  0.60479476483E-01  0.34970188415E-01  0.73659442213E-01  0.51100000000E-03 0.  1.
</event>
<event>
 8    1  0.1123191E+005  0.1043930E+01  0.7957747E-01            NaN
         13   -1    0    0    0    0  0.00000000000E+00  0.00000000000E+00  0.74505805969E-08  0.10566000000E+00  0.10566000000E+00 0.  1.
     999900   -1    0    0    0    0 -0.00000000000E+00 -0.00000000000E+00 -0.74505805969E-08  0.93827000000E+00  0.93827000000E+00 0. -1.
     999902    2    1    2    0    0 -0.18423348401E-01  0.36172673980E-02 -0.14802839580E-01  0.10200212474E+01  0.10197410047E+01 0.  0.
     999903    2    3    3    0    0 -0.73100236496E-01 -0.20351208486E-01  0.10366865270E+00  0.13007768495E+00  0.20376415448E-01 0.  0.
         14    1    1    2    0    0  0.18423348401E-01 -0.36172673980E-02  0.14802839580E-01  0.23908752568E-01  0.00000000000E+00 0.  1.
     999901    1    3    3    0    0  0.54676888095E-01  0.23968475884E-01 -0.11847149228E+00  0.88994356249E+00  0.88000000000E+00 0. -1.
        -11    1    4    4    0    0 -0.89906745150E-02 -0.92649678185E-02  0.23617170496E-01  0.26920321695E-01  0.51100000000E-03 0. -1.
         11    1    4    4    0    0 -0.64109561981E-01 -0.11086240667E-01  0.80051482199E-01  0.10315736325E+00  0.51100000000E-03 0.  1.
</event>
<event>
 8    1  0.1123191E+005  0.1043930E+01  0.7957747E-01            NaN
         13   -1    0    0    0    0  0.00000000000E+00  0.00000000000E+00  0.74505805969E-08  0.10566000000E+00  0.10566000000E+00 0. -1.
     999900   -1    0    0    0    0 -0.00000000000E+00 -0.00000000000E+00 -0.74505805969E-08  0.93827000000E+00  0.93827000000E+00 0.  1.
     999902    2    1    2    0    0  0.69295824535E-02 -0.14686152809E-01 -0.16862958382E-01  0.10205192853E+01  0.10202507290E+01 0.  0.
     999903    2    3    3    0    0 -0.44572541173E-01  0.79563124325E-01  0.87311082072E-01  0.12788967248E+00  0.20384825138E-01 0.  0.
         14    1    1    2    0    0 -0.69295824535E-02  0.14686152809E-01  0.16862958382E-01  0.23410714699E-01  0.00000000000E+00 0. -1.
     999901    1    3    3    0    0  0.51502123627E-01 -0.94249277134E-01 -0.10417404045E+00  0.89262961282E+00  0.88000000000E+00 0. -1.
        -11    1    4    4    0    0 -0.26286674597E-01  0.61783060636E-01  0.70384527066E-01  0.97274758361E-01  0.51100000000E-03 0.  1.
         11    1    4    4    0    0 -0.18285866576E-01  0.17780063688E-01  0.16926555006E-01  0.30614914120E-01  0.51100000000E-03 0. -1.
</event>
<event>
 8    1  0.1123191E+005  0.1043930E+01  0.7957747E-01            NaN
         13   -1    0    0    0    0  0.00000000000E+00  0.00000000000E+00  0.74505805969E-08  0.10566000000E+00  0.10566000000E+00 0.  1.
     999900   -1    0    0    0    0 -0.00000000000E+00 -0.00000000000E+00 -0.74505805969E-08  0.93827000000E+00  0.93827000000E+00 0. -1.
     999902    2    1    2    0    0  0.21026650670E-01 -0.82273036350E-02  0.61385778505E-02  0.10205314808E+01  0.10202632075E+01 0.  0.
     999903    2    3    3    0    0 -0.91894759917E-01  0.48143331590E-01  0.73650676991E-01  0.12896725034E+00  0.21111659364E-01 0.  0.
         14    1    1    2    0    0 -0.21026650670E-01  0.82273036350E-02 -0.61385778505E-02  0.23398519216E-01  0.00000000000E+00 0. -1.
     999901    1    3    3    0    0  0.11292141059E+00 -0.56370635225E-01 -0.67512099140E-01  0.89156423045E+00  0.88000000000E+00 0. -1.
        -11    1    4    4    0    0 -0.58406751368E-01  0.31555169023E-01  0.34408879967E-01  0.74775058937E-01  0.51100000000E-03 0. -1.
         11    1    4    4    0    0 -0.33488008548E-01  0.16588162567E-01  0.39241797023E-01  0.54192191398E-01  0.51100000000E-03 0.  1.
</event>
<event>
 8    1  0.1123191E+005  0.1043930E+01  0.7957747E-01            NaN
         13   -1    0    0    0    0  0.00000000000E+00  0.00000000000E+00  0.74505805969E-08  0.10566000000E+00  0.10566000000E+00 0. -1.
     999900   -1    0    0    0    0 -0.00000000000E+00 -0.00000000000E+00 -0.74505805969E-08  0.93827000000E+00  0.93827000000E+00 0. -1.
     999902    2    1    2    0    0 -0.84861846671E-02  0.96090204381E-02  0.19640625264E-01  0.10204757304E+01  0.10202061622E+01 0.  0.
     999903    2    3    3    0    0 -0.86707816336E-01  0.29258811053E-01 -0.90228622603E-01  0.12998373737E+00  0.19499851452E-01 0.  0.
         14    1    1    2    0    0  0.84861846671E-02 -0.96090204381E-02 -0.19640625264E-01  0.23454269649E-01  0.00000000000E+00 0.  1.
     999901    1    3    3    0    0  0.78221631669E-01 -0.19649790615E-01  0.10986924787E+00  0.89049199298E+00  0.88000000000E+00 0.  1.
        -11    1    4    4    0    0 -0.74156218097E-01  0.31631448707E-01 -0.80379964211E-01  0.11384591779E+00  0.51100000000E-03 0. -1.
         11    1    4    4    0    0 -0.12551598239E-01 -0.23726376542E-02 -0.98486583922E-02  0.16137819584E-01  0.51100000000E-03 0.  1.
</event>
<event>
 8    1  0.1123191E+005  0.1043930E+01  0.7957747E-01            NaN
         13   -1    0    0    0    0  0.00000000000E+00  0.00000000000E+00  0.74505805969E-08  0.10566000000E+00  0.10566000000E+00 0.  1.
     999900   -1    0    0    0    0 -0.00000000000E+00 -0.00000000000E+00 -0.74505805969E-08  0.93827000000E+00  0.93827000000E+00 0.  1.
     999902    2    1    2    0    0  0.42516607433E-02  0.80335804427E-03 -0.24325618113E-01  0.10192225578E+01  0.10189230416E+01 0.  0.
     999903    2    3    3    0    0  0.99899162813E-01 -0.80228863094E-01 -0.11853293642E-01  0.13025111597E+00  0.20207410479E-01 0.  0.
         14    1    1    2    0    0 -0.42516607433E-02 -0.80335804427E-03  0.24325618113E-01  0.24707442194E-01  0.00000000000E+00 0.  1.
     999901    1    3    3    0    0 -0.95647502069E-01  0.81032221138E-01 -0.12472324470E-01  0.88897144183E+00  0.88000000000E+00 0. -1.
        -11    1    4    4    0    0  0.24398747067E-01 -0.29918293058E-01 -0.80694500018E-02  0.39443380463E-01  0.51100000000E-03 0. -1.
         11    1    4    4    0    0  0.75500415745E-01 -0.50310570036E-01 -0.37838436404E-02  0.90807735511E-01  0.51100000000E-03 0.  1.
</event>
<event>
 8    1  0.1123191E+005  0.1043930E+01  0.7957747E-01            NaN
         13   -1    0    0    0    0  0.00000000000E+00  0.00000000000E+00  0.74505805969E-08  0.10566000000E+00  0.10566000000E+00 0.  1.
     999900   -1    0    0    0    0 -0.00000000000E+00 -0.00000000000E+00 -0.74505805969E-08  0.93827000000E+00  0.93827000000E+00 0.  1.
     999902    2    1    2    0    0 -0.13790355229E-01  0.19103975114E-01  0.20400596454E-02  0.10202805263E+01  0.10200063994E+01 0.  0.
     999903    2    3    3    0    0 -0.59524108898E-01 -0.62666244788E-02  0.11538191971E+00  0.13147142375E+00  0.19732150040E-01 0.  0.
         14    1    1    2    0    0  0.13790355229E-01 -0.19103975114E-01 -0.20400596454E-02  0.23649473691E-01  0.00000000000E+00 0. -1.
     999901    1    3    3    0    0  0.45733753669E-01  0.25370599593E-01 -0.11334186006E+00  0.88880910256E+00  0.88000000000E+00 0.  1.
        -11    1    4    4    0    0 -0.45711393783E-01 -0.11201748141E-01  0.98039706702E-01  0.10875226846E+00  0.51100000000E-03 0.  1.
         11    1    4    4    0    0 -0.13812715115E-01  0.49351236617E-02  0.17342213005E-01  0.22719155295E-01  0.51100000000E-03 0. -1.
</event>
<event>
 8    1  0.1123191E+005  0.1043930E+01  0.7957747E-01            NaN
         13   -1    0    0    0    0  0.00000000000E+00  0.00000000000E+00  0.74505805969E-08  0.10566000000E+00  0.10566000000E+00 0.  1.
     999900   -1    0    0    0    0 -0.00000000000E+00 -0.00000000000E+00 -0.74505805969E-08  0.93827000000E+00  0.93827000000E+00 0. -1.
     999902    2    1    2    0    0 -0.20456624310E-02  0.12887287032E-01 -0.19753610402E-01  0.10202557096E+01  0.10199810003E+01 0.  0.
     999903    2    3    3    0    0 -0.56402045721E-01  0.50466297732E-01  0.10293468995E+00  0.12929038060E+00  0.19809446035E-01 0.  0.
         14    1    1    2    0    0  0.20456624310E-02 -0.12887287032E-01  0.19753610402E-01  0.23674290396E-01  0.00000000000E+00 0.  1.
     999901    1    3    3    0    0  0.54356383290E-01 -0.37579010700E-01 -0.12268830035E+00  0.89096532901E+00  0.88000000000E+00 0. -1.
        -11    1    4    4    0    0 -0.12855056368E-01  0.96509950616E-02  0.37049438777E-01  0.40389555762E-01  0.51100000000E-03 0.  1.
         11    1    4    4    0    0 -0.43546989352E-01  0.40815302670E-01  0.65885251170E-01  0.88900824836E-01  0.51100000000E-03 0. -1.
</event>
<event>
 8    1  0.1123191E+005  0.1043930E+01  0.7957747E-01            NaN
         13   -1    0    0    0    0  0.00000000000E+00  0.00000000000E+00  0.74505805969E-08  0.10566000000E+00  0.10566000000E+00 0. -1.
     999900   -1    0    0    0    0 -0.00000000000E+00 -0.00000000000E+00 -0.74505805969E-08  0.93827000000E+00  0.93827000000E+00 0.  1.
     999902    2    1    2    0    0  0.14242052784E-01 -0.11254708010E-01 -0.16437817251E-01  0.10194410973E+01  0.10191469200E+01 0.  0.
     999903    2    3    3    0    0  0.96003243960E-01 -0.46471210519E-02  0.84767608762E-01  0.12985069107E+00  0.20914968112E-01 0.  0.
         14    1    1    2    0    0 -0.14242052784E-01  0.11254708010E-01  0.16437817251E-01  0.24488902708E-01  0.00000000000E+00 0. -1.
     999901    1    3    3    0    0 -0.81761191176E-01 -0.66075869580E-02 -0.10120542601E+00  0.88959040622E+00  0.88000000000E+00 0.  1.
        -11    1    4    4    0    0  0.91233306063E-01 -0.85785795070E-02  0.75678508154E-01  0.11884698515E+00  0.51100000000E-03 0. -1.
         11    1    4    4    0    0  0.47699378962E-02  0.39314584550E-02  0.90891006081E-02  0.11003705920E-01  0.51100000000E-03 0.  1.
</event>
<event>
 8    1  0.1123191E+005  0.1043930E+01  0.7957747E-01            NaN
         13   -1    0    0    0    0  0.00000000000E+00  0.00000000000E+00  0.74505805969E-08  0.10566000000E+00  0.10566000000E+00 0. -1.
     999900   -1    0    0    0    0 -0.00000000000E+00 -0.00000000000E+00 -0.74505805969E-08  0.93827000000E+00  0.93827000000E+00 0.  1.
     999902    2    1    2    0    0  0.38936074773E-02 -0.17251895596E-01  0.16512188251E-01  0.10197341235E+01  0.10194470276E+01 0.  0.
     999903    2    3    3    0    0 -0.10164584626E+00  0.65829003017E-01  0.40098771541E-01  0.12923014316E+00  0.20668399108E-01 0.  0.
         14    1    1    2    0    0 -0.38936074773E-02  0.17251895596E-01 -0.16512188251E-01  0.24195876543E-01  0.00000000000E+00 0. -1.
     999901    1    3    3    0    0  0.10553945374E+00 -0.83080898613E-01 -0.23586583290E-01  0.89050398030E+00  0.88000000000E+00 0.  1.
        -11    1    4    4    0    0 -0.61952534812E-01  0.35368513831E-01  0.33317722747E-01  0.78736142338E-01  0.51100000000E-03 0. -1.
         11    1    4    4    0    0 -0.39693311452E-01  0.30460489186E-01  0.67810487939E-02  0.50494000824E-01  0.51100000000E-03 0.  1.
</event>
<event>
 8    1  0.1123191E+005  0.1043930E+01  0.7957747E-01            NaN
         13   -1    0    0    0    0  0.00000000000E+00  0.00000000000E+00  0.74505805969E-08  0.10566000000E+00  0.10566000000E+00 0. -1.
     999900   -1    0    0    0    0 -0.00000000000E+00 -0.00000000000E+00 -0.74505805969E-08  0.93827000000E+00  0.93827000000E+00 0.  1.
     999902    2    1    2    0    0  0.16771252635E-01 -0.12949024427E-01  0.10153080684E-01  0.10204345282E+01  0.10201640011E+01 0.  0.
     999903    2    3    3    0    0 -0.90827882564E-01  0.55242554542E-01 -0.68136136493E-01  0.12782214486E+00  0.19862616556E-01 0.  0.
         14    1    1    2    0    0 -0.16771252635E-01  0.12949024427E-01 -0.10153080684E-01  0.23495471818E-01  0.00000000000E+00 0.  1.
     999901    1    3    3    0    0  0.10759913520E+00 -0.68191578969E-01  0.78289217177E-01  0.89261238332E+00  0.88000000000E+00 0. -1.
        -11    1    4    4    0    0 -0.38414857467E-01  0.33302195583E-01 -0.26169945761E-01  0.57182730671E-01  0.51100000000E-03 0. -1.
         11    1    4    4    0    0 -0.52413025097E-01  0.21940358959E-01 -0.41966190732E-01  0.70639414187E-01  0.51100000000E-03 0.  1.
</event>
<event>
 8    1  0.1123191E+005  0.1043930E+01  0.7957747E-01            NaN
         13   -1    0    0    0    0  0.00000000000E+00  0.00000000000E+00  0.74505805969E-08  0.10566000000E+00  0.10566000000E+00 0.  1.
     999900   -1    0    0    0    0 -0.00000000000E+00 -0.00000000000E+00 -0.74505805969E-08  0.93827000000E+00  0.93827000000E+00 0. -1.
     999902    2    1    2    0    0 -0.81743624564E-02  0.12604728445E-01  0.18624819140E-01  0.10200012878E+01  0.10197205714E+01 0.  0.
     999903    2    3    3    0    0  0.35445893282E-01 -0.74477701376E-01 -0.95343949427E-01  0.12732275857E+00  0.17812265574E-01 0.  0.
         14    1    1    2    0    0  0.81743624564E-02 -0.12604728445E-01 -0.18624819140E-01  0.23928712225E-01  0.00000000000E+00 0. -1.
     999901    1    3    3    0    0 -0.43620255739E-01  0.87082429822E-01  0.11396876857E+00  0.89267852920E+00  0.88000000000E+00 0.  1.
        -11    1    4    4    0    0 -0.13051824876E-02 -0.96891354067E-02 -0.91215678389E-02  0.13380843288E-01  0.51100000000E-03 0.  1.
         11    1    4    4    0    0  0.36751075770E-01 -0.64788565969E-01 -0.86222381588E-01  0.11394191528E+00  0.51100000000E-03 0. -1.
</event>
<event>
 8    1  0.1123191E+005  0.1043930E+01  0.7957747E-01            NaN
         13   -1    0    0    0    0  0.00000000000E+00  0.00000000000E+00  0.74505805969E-08  0.10566000000E+00  0.10566000000E+00 0. -1.
     999900   -1    0    0    0    0 -0.00000000000E+00 -0.00000000000E+00 -0.74505805969E-08  0.93827000000E+00  0.93827000000E+00 0. -1.
     999902    2    1    2    0    0  0.19615867238E-01 -0.53583361394E-02 -0.11415820643E-01  0.10206101592E+01  0.10203437078E+01 0.  0.
     999903    2    3    3    0    0 -0.25418470248E-01  0.60728904414E-01  0.10909109009E+00  0.12880438974E+00  0.18857529479E-01 0.  0.
         14    1    1    2    0    0 -0.19615867238E-01  0.53583361394E-02  0.11415820643E-01  0.23319840794E-01  0.00000000000E+00 0. -1.
     999901    1    3    3    0    0  0.45034337486E-01 -0.66087240553E-01 -0.12050691074E+00  0.89180576947E+00  0.88000000000E+00 0. -1.
        -11    1    4    4    0    0 -0.86998779858E-02  0.56872018503E-02  0.11414178022E-01  0.15445929003E-01  0.51100000000E-03 0.  1.
         11    1    4    4    0    0 -0.16718592262E-01  0.55041702563E-01  0.97676912070E-01  0.11335846074E+00  0.51100000000E-03 0. -1.
</event>
<event>
 8    1  0.1123191E+005  0.1043930E+01  0.7957747E-01            NaN
         13   -1    0    0    0    0  0.00000000000E+00  0.00000000000E+00  0.74505805969E-08  0.10566000000E+00  0.10566000000E+00 0. -1.
     999900   -1    0    0    0    0 -0.00000000000E+00 -0.00000000000E+00 -0.74505805969E-08  0.93827000000E+00  0.93827000000E+00 0.  1.
     999902    2    1    2    0    0 -0.38420049220E-02  0.19106097443E-01  0.12963576760E-01  0.10205236273E+01  0.10202551718E+01 0.  0.
     999903    2    3    3    0    0  0.26232382086E-02  0.97959435729E-02 -0.12745889584E+00  0.12931829228E+00  0.19354810739E-01 0.  0.
         14    1    1    2    0    0  0.38420049220E-02 -0.19106097443E-01 -0.12963576760E-01  0.23406372717E-01  0.00000000000E+00 0.  1.
     999901    1    3    3    0    0 -0.64652431306E-02  0.93101538703E-02  0.14042247260E+00  0.89120533501E+00  0.88000000000E+00 0. -1.
        -11    1    4    4    0    0 -0.35728219183E-02  0.10042551949E-01 -0.33611853423E-01  0.35265219659E-01  0.51100000000E-03 0. -1.
         11    1    4    4    0    0  0.61960601269E-02 -0.24660837618E-03 -0.93847042419E-01  0.94053072616E-01  0.51100000000E-03 0.  1.
</event>
<event>
 8    1  0.1123191E+005  0.1043930E+01  0.7957747E-01            NaN
         13   -1    0    0    0    0  0.00000000000E+00  0.00000000000E+00  0.74505805969E-08  0.10566000000E+00  0.10566000000E+00 0. -1.
     999900   -1    0    0    0    0 -0.00000000000E+00 -0.00000000000E+00 -0.74505805969E-08  0.93827000000E+00  0.93827000000E+00 0. -1.
     999902    2    1    2    0    0  0.17492938231E-01  0.18566012621E-01 -0.47082169032E-03  0.10184168390E+01  0.10180972137E+01 0.  0.
     999903    2    3    3    0    0 -0.61738777429E-01  0.20545576676E-01 -0.10860079412E+00  0.12826310260E+00  0.20578961239E-01 0.  0.
         14    1    1    2    0    0 -0.17492938231E-01 -0.18566012621E-01  0.47082169032E-03  0.25513161028E-01  0.00000000000E+00 0.  1.
     999901    1    3    3    0    0  0.79231715660E-01 -0.19795640557E-02  0.10812997243E+00  0.89015373637E+00  0.88000000000E+00 0.  1.
        -11    1    4    4    0    0 -0.20332866039E-01 -0.20378411598E-02 -0.25194418082E-01  0.32443767683E-01  0.51100000000E-03 0.  1.
         11    1    4    4    0    0 -0.41405911389E-01  0.22583417836E-01 -0.83406376038E-01  0.95819334917E-01  0.51100000000E-03 0. -1.
</event>
<event>
 8    1  0.1123191E+005  0.1043930E+01  0.7957747E-01            NaN
         13   -1    0    0    0    0  0.00000000000E+00  0.00000000000E+00  0.74505805969E-08  0.10566000000E+00  0.10566000000E+00 0. -1.
     999900   -1    0    0    0    0 -0.00000000000E+00 -0.00000000000E+00 -0.74505805969E-08  0.93827000000E+00  0.93827000000E+00 0.  1.
     999902    2    1    2    0    0  0.13556572431E-01 -0.27749938584E-01  0.20474981666E-01  0.10068751134E+01  0.10061930378E+01 0.  0.
     999903    2    3    3    0    0  0.93486320751E-01  0.19737631165E-01 -0.65923966688E-01  0.11776960096E+00  0.19860596063E-01 0.  0.
         14    1    1    2    0    0 -0.13556572431E-01  0.27749938584E-01 -0.20474981666E-01  0.37054886611E-01  0.00000000000E+00 0.  1.
     999901    1    3    3    0    0 -0.79929748320E-01 -0.47487569750E-01  0.86398948354E-01  0.88910551242E+00  0.88000000000E+00 0. -1.
        -11    1    4    4    0    0  0.44573133645E-01  0.65957032942E-02 -0.42587003243E-01  0.62001463782E-01  0.51100000000E-03 0. -1.
         11    1    4    4    0    0  0.48913187106E-01  0.13141927871E-01 -0.23336963445E-01  0.55768137183E-01  0.51100000000E-03 0.  1.
</event>
<event>
 8    1  0.1123191E+005  0.1043930E+01  0.7957747E-01            NaN
         13   -1    0    0    0    0  0.00000000000E+00  0.00000000000E+00  0.74505805969E-08  0.10566000000E+00  0.10566000000E+00 0. -1.
     999900   -1    0    0    0    0 -0.00000000000E+00 -0.00000000000E+00 -0.74505805969E-08  0.93827000000E+00  0.93827000000E+00 0. -1.
     999902    2    1    2    0    0 -0.17745303767E-01 -0.15591367378E-01 -0.47824818783E-02  0.10198289902E+01  0.10195441680E+01 0.  0.
     999903    2    3    3    0    0 -0.26867197771E-01  0.79046394087E-01 -0.97488574077E-01  0.12986610645E+00  0.19773841176E-01 0.  0.
         14    1    1    2    0    0  0.17745303767E-01  0.15591367378E-01  0.47824818783E-02  0.24101009842E-01  0.00000000000E+00 0. -1.
     999901    1    3    3    0    0  0.91218940043E-02 -0.94637761465E-01  0.92706092199E-01  0.88996288371E+00  0.88000000000E+00 0.  1.
        -11    1    4    4    0    0 -0.18970889534E-01  0.34957456781E-01 -0.56859914845E-01  0.69391854504E-01  0.51100000000E-03 0.  1.
         11    1    4    4    0    0 -0.78963082378E-02  0.44088937306E-01 -0.40628659232E-01  0.60474251947E-01  0.51100000000E-03 0. -1.
</event>
<event>
 8    1  0.1123191E+005  0.1043930E+01  0.7957747E-01            NaN
         13   -1    0    0    0    0  0.00000000000E+00  0.00000000000E+00  0.74505805969E-08  0.10566000000E+00  0.10566000000E+00 0. -1.
     999900   -1    0    0    0    0 -0.00000000000E+00 -0.00000000000E+00 -0.74505805969E-08  0.93827000000E+00  0.93827000000E+00 0.  1.
     999902    2    1    2    0    0  0.14957486124E-01  0.15397586019E-01 -0.52056055866E-02  0.10218413066E+01  0.10216025379E+01 0.  0.
     999903    2    3    3    0    0  0.81186659255E-01  0.10113594676E+00 -0.32163221190E-01  0.13478771019E+00  0.17705949646E-01 0.  0.
         14    1    1    2    0    0 -0.14957486124E-01 -0.15397586019E-01  0.52056055866E-02  0.22088693395E-01  0.00000000000E+00 0. -1.
     999901    1    3    3    0    0 -0.66229173130E-01 -0.85738360741E-01  0.26957615603E-01  0.88705359642E+00  0.88000000000E+00 0.  1.
        -11    1    4    4    0    0  0.28353533085E-01  0.46562267965E-01 -0.18752803909E-01  0.57653242857E-01  0.51100000000E-03 0.  1.
         11    1    4    4    0    0  0.52833126169E-01  0.54573678794E-01 -0.13410417281E-01  0.77134467332E-01  0.51100000000E-03 0. -1.
</event>
<event>
 8    1  0.1123191E+005  0.1043930E+01  0.7957747E-01            NaN
         13   -1    0    0    0    0  0.00000000000E+00  0.00000000000E+00  0.74505805969E-08  0.10566000000E+00  0.10566000000E+00 0.  1.
     999900   -1    0    0    0    0 -0.00000000000E+00 -0.00000000000E+00 -0.74505805969E-08  0.93827000000E+00  0.93827000000E+00 0. -1.
     999902    2    1    2    0    0  0.14717800165E-01 -0.11908713236E-01 -0.12910462498E-01  0.10210146965E+01  0.10207575125E+01 0.  0.
     999903    2    3    3    0    0  0.57245279371E-01  0.11010009474E+00  0.34948605833E-01  0.13029295199E+00  0.18862540043E-01 0.  0.
         14    1    1    2    0    0 -0.14717800165E-01  0.11908713236E-01  0.12910462498E-01  0.22915303501E-01  0.00000000000E+00 0.  1.
     999901    1    3    3    0    0 -0.42527479206E-01 -0.12200880798E+00 -0.47859068331E-01  0.89072174450E+00  0.88000000000E+00 0. -1.
        -11    1    4    4    0    0  0.45114320337E-01  0.95112062078E-01  0.23497402034E-01  0.10786099979E+00  0.51100000000E-03 0. -1.
         11    1    4    4    0    0  0.12130959035E-01  0.14988032665E-01  0.11451203799E-01  0.22431952205E-01  0.51100000000E-03 0.  1.
</event>
<event>
 8    1  0.1123191E+005  0.1043930E+01  0.7957747E-01            NaN
         13   -1    0    0    0    0  0.00000000000E+00  0.00000000000E+00  0.74505805969E-08  0.10566000000E+00  0.10566000000E+00 0.  1.
     999900   -1    0    0    0    0 -0.00000000000E+00 -0.00000000000E+00 -0.74505805969E-08  0.93827000000E+00  0.93827000000E+00 0. -1.
     999902    2    1    2    0    0 -0.11251737363E-01 -0.20568702096E-01  0.23855354250E-02  0.10203638404E+01  0.10200916640E+01 0.  0.
     999903    2    3    3    0    0 -0.26751770538E-01  0.69911501801E-01 -0.10405945845E+00  0.12920871638E+00  0.16224863127E-01 0.  0.
         14    1    1    2    0    0  0.11251737363E-01  0.20568702096E-01 -0.23855354250E-02  0.23566159612E-01  0.00000000000E+00 0. -1.
     999901    1    3    3    0    0  0.15500033175E-01 -0.90480203896E-01  0.10644499388E+00  0.89115512401E+00  0.88000000000E+00 0.  1.
        -11    1    4    4    0    0 -0.22033024420E-01  0.42178231952E-01 -0.55715340411E-01  0.73272898767E-01  0.51100000000E-03 0.  1.
         11    1    4    4    0    0 -0.47187461175E-02  0.27733269849E-01 -0.48344118044E-01  0.55935817612E-01  0.51100000000E-03 0. -1.
</event>
<event>
 8    1  0.1123191E+005  0.1043930E+01  0.7957747E-01            NaN
         13   -1    0    0    0    0  0.00000000000E+00  0.00000000000E+00  0.74505805969E-08  0.10566000000E+00  0.10566000000E+00 0.  1.
     999900   -1    0    0    0    0 -0.00000000000E+00 -0.00000000000E+00 -0.74505805969E-08  0.93827000000E+00  0.93827000000E+00 0. -1.
     999902    2    1    2    0    0 -0.13586170187E-01  0.18519724399E-01  0.79631418272E-02  0.10196200053E+01  0.10193301622E+01 0.  0.
     999903    2    3    3    0    0  0.12503336153E+00 -0.34423133475E-02  0.21150748696E-01  0.12840082992E+00  0.19855174073E-01 0.  0.
         14    1    1    2    0    0  0.13586170187E-01 -0.18519724399E-01 -0.79631418272E-02  0.24309994650E-01  0.00000000000E+00 0. -1.
     999901    1    3    3    0    0 -0.13861953172E+00  0.21962037746E-01 -0.13187606869E-01  0.89121917543E+00  0.88000000000E+00 0. -1.
        -11    1    4    4    0    0  0.92636208752E-01  0.61080167674E-02  0.14296908187E-01  0.93933155730E-01  0.51100000000E-03 0.  1.
         11    1    4    4    0    0  0.32397152778E-01 -0.95503301149E-02  0.68538405088E-02  0.34467674191E-01  0.51100000000E-03 0. -1.
</event>
<event>
 8    1  0.1123191E+005  0.1043930E+01  0.7957747E-01            NaN
         13   -1    0    0    0    0  0.00000000000E+00  0.00000000000E+00  0.74505805969E-08  0.10566000000E+00  0.10566000000E+00 0. -1.
     999900   -1    0    0    0    0 -0.00000000000E+00 -0.00000000000E+00 -0.74505805969E-08  0.93827000000E+00  0.93827000000E+00 0. -1.
     999902    2    1    2    0    0 -0.11369715888E-01  0.19884899423E-01  0.71095896526E-02  0.10199461319E+01  0.10196641045E+01 0.  0.
     999903    2    3    3    0    0  0.10444329606E+00 -0.69631986300E-01  0.13583280522E-01  0.12783188179E+00  0.19986717647E-01 0.  0.
         14    1    1    2    0    0  0.11369715888E-01 -0.19884899423E-01 -0.71095896526E-02  0.23983868109E-01  0.00000000000E+00 0. -1.
     999901    1    3    3    0    0 -0.11581301195E+00  0.89516885723E-01 -0.64736908698E-02  0.89211425011E+00  0.88000000000E+00 0. -1.
        -11    1    4    4    0    0  0.68642918371E-01 -0.42920950746E-01 -0.61062409755E-03  0.80961053836E-01  0.51100000000E-03 0. -1.
         11    1    4    4    0    0  0.35800377693E-01 -0.26711035554E-01  0.14193904620E-01  0.46870827949E-01  0.51100000000E-03 0.  1.
</event>
<event>
 8    1  0.1123191E+005  0.1043930E+01  0.7957747E-01            NaN
         13   -1    0    0    0    0  0.00000000000E+00  0.00000000000E+00  0.74505805969E-08  0.10566000000E+00  0.10566000000E+00 0. -1.
     999900   -1    0    0    0    0 -0.00000000000E+00 -0.00000000000E+00 -0.74505805969E-08  0.93827000000E+00  0.93827000000E+00 0.  1.
     999902    2    1    2    0    0  0.22245758742E-01 -0.79618629370E-02  0.34408031362E-02  0.10200531457E+01  0.10197736592E+01 0.  0.
     999903    2    3    3    0    0  0.12806802611E+00  0.28812608903E-01  0.34523245332E-02  0.13295071975E+00  0.20793979782E-01 0.  0.
         14    1    1    2    0    0 -0.22245758742E-01  0.79618629370E-02 -0.34408031362E-02  0.23876854266E-01  0.00000000000E+00 0.  1.
     999901    1    3    3    0    0 -0.10582226737E+00 -0.36774471840E-01 -0.11521397059E-04  0.88710242598E+00  0.88000000000E+00 0. -1.
        -11    1    4    4    0    0  0.28483071650E-01  0.15239329321E-01 -0.12728196873E-02  0.32332703564E-01  0.51100000000E-03 0. -1.
         11    1    4    4    0    0  0.99584954457E-01  0.13573279582E-01  0.47251442205E-02  0.10061801619E+00  0.51100000000E-03 0.  1.
</event>
<event>
 8    1  0.1123191E+005  0.1043930E+01  0.7957747E-01            NaN
         13   -1    0    0    0    0  0.00000000000E+00  0.00000000000E+00  0.74505805969E-08  0.10566000000E+00  0.10566000000E+00 0. -1.
     999900   -1    0    0    0    0 -0.00000000000E+00 -0.00000000000E+00 -0.74505805969E-08  0.93827000000E+00  0.93827000000E+00 0. -1.
     999902    2    1    2    0    0  0.21092452885E-01  0.27175841323E-02  0.10122185710E-01  0.10203771769E+01  0.10201053120E+01 0.  0.
     999903    2    3    3    0    0  0.12541540253E+00  0.39391234023E-01  0.10509940819E-01  0.13345644495E+00  0.20480999298E-01 0.  0.
         14    1    1    2    0    0 -0.21092452885E-01 -0.27175841323E-02 -0.10122185710E-01  0.23552823096E-01  0.00000000000E+00 0.  1.
     999901    1    3    3    0    0 -0.10432294965E+00 -0.36673649891E-01 -0.38775510923E-03  0.88692073196E+00  0.88000000000E+00 0. -1.
        -11    1    4    4    0    0  0.21637037121E-01  0.98439900278E-02 -0.54104425008E-02  0.24384411498E-01  0.51100000000E-03 0.  1.
         11    1    4    4    0    0  0.10377836541E+00  0.29547243995E-01  0.15920383320E-01  0.10907203345E+00  0.51100000000E-03 0. -1.
</event>
<event>
 8    1  0.1123191E+005  0.1043930E+01  0.7957747E-01            NaN
         13   -1    0    0    0    0  0.00000000000E+00  0.00000000000E+00  0.74505805969E-08  0.10566000000E+00  0.10566000000E+00 0.  1.
     999900   -1    0    0    0    0 -0.00000000000E+00 -0.00000000000E+00 -0.74505805969E-08  0.93827000000E+00  0.93827000000E+00 0. -1.
     999902    2    1    2    0    0  0.23114091595E-01 -0.22154225643E-02 -0.57298517617E-02  0.10200134675E+01  0.10197330402E+01 0.  0.
     999903    2    3    3    0    0 -0.98971887301E-01  0.64146770834E-01  0.44784951784E-01  0.12767907256E+00  0.19647162087E-01 0.  0.
         14    1    1    2    0    0 -0.23114091595E-01  0.22154225643E-02  0.57298517617E-02  0.23916532538E-01  0.00000000000E+00 0. -1.
     999901    1    3    3    0    0  0.12208597890E+00 -0.66362193399E-01 -0.50514803546E-01  0.89233439491E+00  0.88000000000E+00 0.  1.
        -11    1    4    4    0    0 -0.85140422885E-01  0.57100051427E-01  0.45436253337E-01  0.11213394544E+00  0.51100000000E-03 0.  1.
         11    1    4    4    0    0 -0.13831464416E-01  0.70467194069E-02 -0.65130155250E-03  0.15545127114E-01  0.51100000000E-03 0. -1.
</event>
<event>
 8    1  0.1123191E+005  0.1043930E+01  0.7957747E-01            NaN
         13   -1    0    0    0    0  0.00000000000E+00  0.00000000000E+00  0.74505805969E-08  0.10566000000E+00  0.10566000000E+00 0.  1.
     999900   -1    0    0    0    0 -0.00000000000E+00 -0.00000000000E+00 -0.74505805969E-08  0.93827000000E+00  0.93827000000E+00 0. -1.
     999902    2    1    2    0    0 -0.10044549564E-03 -0.11516333826E-01  0.20745647942E-01  0.10202020009E+01  0.10199260290E+01 0.  0.
     999903    2    3    3    0    0 -0.11412351298E+00  0.58425548656E-01 -0.22296864239E-02  0.12979704085E+00  0.20114158219E-01 0.  0.
         14    1    1    2    0    0  0.10044549564E-03  0.11516333826E-01 -0.20745647942E-01  0.23727999128E-01  0.00000000000E+00 0. -1.
     999901    1    3    3    0    0  0.11402306749E+00 -0.69941882482E-01  0.22975334366E-01  0.89040496002E+00  0.88000000000E+00 0.  1.
        -11    1    4    4    0    0 -0.73899036585E-01  0.44531877881E-01  0.58434863327E-02  0.86478686446E-01  0.51100000000E-03 0.  1.
         11    1    4    4    0    0 -0.40224476395E-01  0.13893670776E-01 -0.80731727566E-02  0.43318354404E-01  0.51100000000E-03 0. -1.
</event>
<event>
 8    1  0.1123191E+005  0.1043930E+01  0.7957747E-01            NaN
         13   -1    0    0    0    0  0.00000000000E+00  0.00000000000E+00  0.74505805969E-08  0.10566000000E+00  0.10566000000E+00 0. -1.
     999900   -1    0    0    0    0 -0.00000000000E+00 -0.00000000000E+00 -0.74505805969E-08  0.93827000000E+00  0.93827000000E+00 0. -1.
     999902    2    1    2    0    0  0.66594634820E-02 -0.24879980572E-01 -0.74136960651E-02  0.10171284184E+01  0.10167752430E+01 0.  0.
     999903    2    3    3    0    0 -0.35813319170E-01  0.79667430771E-01  0.87099131552E-01  0.12490267730E+00  0.19619549557E-01 0.  0.
         14    1    1    2    0    0 -0.66594634820E-02  0.24879980572E-01  0.74136960651E-02  0.26801581604E-01  0.00000000000E+00 0.  1.
     999901    1    3    3    0    0  0.42472782652E-01 -0.10454741134E+00 -0.94512827617E-01  0.89222574109E+00  0.88000000000E+00 0. -1.
        -11    1    4    4    0    0 -0.16047976733E-01  0.15266661973E-01  0.21457198521E-01  0.30842843812E-01  0.51100000000E-03 0.  1.
         11    1    4    4    0    0 -0.19765342436E-01  0.64400768797E-01  0.65641933031E-01  0.94059833491E-01  0.51100000000E-03 0. -1.
</event>
<event>
 8    1  0.1123191E+005  0.1043930E+01  0.7957747E-01            NaN
         13   -1    0    0    0    0  0.00000000000E+00  0.00000000000E+00  0.74505805969E-08  0.10566000000E+00  0.10566000000E+00 0. -1.
     999900   -1    0    0    0    0 -0.00000000000E+00 -0.00000000000E+00 -0.74505805969E-08  0.93827000000E+00  0.93827000000E+00 0. -1.
     999902    2    1    2    0    0  0.21421615429E-01  0.10095345927E-01 -0.67700570027E-02  0.10193000327E+01  0.10190024148E+01 0.  0.
     999903    2    3    3    0    0 -0.30270391826E-01  0.85539762261E-01 -0.91688496605E-01  0.13049461815E+00  0.19715917586E-01 0.  0.
         14    1    1    2    0    0 -0.21421615429E-01 -0.10095345927E-01  0.67700570027E-02  0.24629967292E-01  0.00000000000E+00 0. -1.
     999901    1    3    3    0    0  0.51692007256E-01 -0.75444416334E-01  0.84918439602E-01  0.88880541456E+00  0.88000000000E+00 0.  1.
        -11    1    4    4    0    0 -0.16211835753E-01  0.58883096396E-01 -0.49344401359E-01  0.78518620252E-01  0.51100000000E-03 0. -1.
         11    1    4    4    0    0 -0.14058556074E-01  0.26656665865E-01 -0.42344095246E-01  0.51975997894E-01  0.51100000000E-03 0.  1.
</event>
<event>
 8    1  0.1123191E+005  0.1043930E+01  0.7957747E-01            NaN
         13   -1    0    0    0    0  0.00000000000E+00  0.00000000000E+00  0.74505805969E-08  0.10566000000E+00  0.10566000000E+00 0.  1.
     999900   -1    0    0    0    0 -0.00000000000E+00 -0.00000000000E+00 -0.74505805969E-08  0.93827000000E+00  0.93827000000E+00 0. -1.
     999902    2    1    2    0    0 -0.11751358384E-01  0.12966923057E-01 -0.15361846854E-01  0.10206443423E+01  0.10203786805E+01 0.  0.
     999903    2    3    3    0    0  0.34591756096E-01  0.78915346624E-01 -0.99274920725E-01  0.13298546477E+00  0.20134607816E-01 0.  0.
         14    1    1    2    0    0  0.11751358384E-01 -0.12966923057E-01  0.15361846854E-01  0.23285657737E-01  0.00000000000E+00 0.  1.
     999901    1    3    3    0    0 -0.46343114480E-01 -0.65948423567E-01  0.83913073871E-01  0.88765887750E+00  0.88000000000E+00 0.  1.
        -11    1    4    4    0    0  0.97179635446E-03  0.22058334627E-01 -0.30153763739E-01  0.37376798997E-01  0.51100000000E-03 0. -1.
         11    1    4    4    0    0  0.33619959741E-01  0.56857011998E-01 -0.69121156987E-01  0.95608665771E-01  0.51100000000E-03 0.  1.
</event>
<event>
 8    1  0.1123191E+005  0.1043930E+01  0.7957747E-01            NaN
         13   -1    0    0    0    0  0.00000000000E+00  0.00000000000E+00  0.74505805969E-08  0.10566000000E+00  0.10566000000E+00 0. -1.
     999900   -1    0    0    0    0 -0.00000000000E+00 -0.00000000000E+00 -0.74505805969E-08  0.93827000000E+00  0.93827000000E+00 0. -1.
     999902    2    1    2    0    0 -0.46847949044E-02 -0.77222899953E-02  0.21777761440E-01  0.10203534871E+01  0.10200810687E+01 0.  0.
     999903    2    3    3    0    0  0.91618265631E-01  0.49788502438E-01 -0.72024107688E-01  0.12828815243E+00  0.19939317767E-01 0.  0.
         14    1    1    2    0    0  0.46847949044E-02  0.77222899953E-02 -0.21777761440E-01  0.23576512876E-01  0.00000000000E+00 0.  1.
     999901    1    3    3    0    0 -0.96303060535E-01 -0.57510792433E-01  0.93801869127E-01  0.89206533470E+00  0.88000000000E+00 0.  1.
        -11    1    4    4    0    0  0.18986168473E-01  0.19490318161E-01 -0.22420779576E-01  0.35260453388E-01  0.51100000000E-03 0.  1.
         11    1    4    4    0    0  0.72632097158E-01  0.30298184276E-01 -0.49603328112E-01  0.93027699040E-01  0.51100000000E-03 0. -1.
</event>
<event>
 8    1  0.1123191E+005  0.1043930E+01  0.7957747E-01            NaN
         13   -1    0    0    0    0  0.00000000000E+00  0.00000000000E+00  0.74505805969E-08  0.10566000000E+00  0.10566000000E+00 0.  1.
     999900   -1    0    0    0    0 -0.00000000000E+00 -0.00000000000E+00 -0.74505805969E-08  0.93827000000E+00  0.93827000000E+00 0.  1.
     999902    2    1    2    0    0  0.15420260396E-01  0.18049999458E-01 -0.27847039377E-02  0.10200272494E+01  0.10197471490E+01 0.  0.
     999903    2    3    3    0    0 -0.40091365467E-01 -0.93780507151E-01  0.74581837851E-01  0.12785395646E+00  0.19546931695E-01 0.  0.
         14    1    1    2    0    0 -0.15420260396E-01 -0.18049999458E-01  0.27847039377E-02  0.23902750619E-01  0.00000000000E+00 0.  1.
     999901    1    3    3    0    0  0.55511625863E-01  0.11183050661E+00 -0.77366541789E-01  0.89217329292E+00  0.88000000000E+00 0. -1.
        -11    1    4    4    0    0 -0.32703523734E-01 -0.70244702144E-01  0.46065248470E-01  0.90144921552E-01  0.51100000000E-03 0.  1.
         11    1    4    4    0    0 -0.73878417327E-02 -0.23535805007E-01  0.28516589381E-01  0.37709034908E-01  0.51100000000E-03 0. -1.
</event>
<event>
 8    1  0.1123191E+005  0.1043930E+01  0.7957747E-01            NaN
         13   -1    0    0    0    0  0.00000000000E+00  0.00000000000E+00  0.74505805969E-08  0.10566000000E+00  0.10566000000E+00 0.  1.
     999900   -1    0    0    0    0 -0.00000000000E+00 -0.00000000000E+00 -0.74505805969E-08  0.93827000000E+00  0.93827000000E+00 0.  1.
     999902    2    1    2    0    0  0.85266712657E-02 -0.18384335866E-01 -0.12658192363E-01  0.10200361145E+01  0.10197562244E+01 0.  0.
     999903    2    3    3    0    0  0.17383824897E-01  0.12500573591E+00 -0.12828031062E-01  0.12838641276E+00  0.19745410158E-01 0.  0.
         14    1    1    2    0    0 -0.85266712657E-02  0.18384335866E-01  0.12658192363E-01  0.23893885453E-01  0.00000000000E+00 0. -1.
     999901    1    3    3    0    0 -0.88571536308E-02 -0.14339007177E+00  0.16983869883E-03  0.89164970179E+00  0.88000000000E+00 0.  1.
        -11    1    4    4    0    0  0.19856877934E-01  0.76888340280E-01 -0.10971971815E-01  0.80167061558E-01  0.51100000000E-03 0. -1.
         11    1    4    4    0    0 -0.24730530380E-02  0.48117395628E-01 -0.18560592478E-02  0.48219351201E-01  0.51100000000E-03 0.  1.
</event>
<event>
 8    1  0.1123191E+005  0.1043930E+01  0.7957747E-01            NaN
         13   -1    0    0    0    0  0.00000000000E+00  0.00000000000E+00  0.74505805969E-08  0.10566000000E+00  0.10566000000E+00 0.  1.
     999900   -1    0    0    0    0 -0.00000000000E+00 -0.00000000000E+00 -0.74505805969E-08  0.93827000000E+00  0.93827000000E+00 0. -1.
     999902    2    1    2    0    0 -0.50106286465E-02 -0.76948527009E-02  0.22067628420E-01  0.10200281720E+01  0.10197480935E+01 0.  0.
     999903    2    3    3    0    0 -0.10868880039E-01  0.94188942144E-01  0.89095033665E-01  0.13159849003E+00  0.19762291825E-01 0.  0.
         14    1    1    2    0    0  0.50106286465E-02  0.76948527009E-02 -0.22067628420E-01  0.23901827997E-01  0.00000000000E+00 0. -1.
     999901    1    3    3    0    0  0.58582513924E-02 -0.10188379484E+00 -0.67027405245E-01  0.88842968198E+00  0.88000000000E+00 0. -1.
        -11    1    4    4    0    0  0.29324734996E-03  0.65939909511E-01  0.67212445201E-01  0.94159075884E-01  0.51100000000E-03 0. -1.
         11    1    4    4    0    0 -0.11162127389E-01  0.28249032632E-01  0.21882588464E-01  0.37439414143E-01  0.51100000000E-03 0.  1.
</event>
<event>
 8    1  0.1123191E+005  0.1043930E+01  0.7957747E-01            NaN
         13   -1    0    0    0    0  0.00000000000E+00  0.00000000000E+00  0.74505805969E-08  0.10566000000E+00  0.10566000000E+00 0. -1.
     999900   -1    0    0    0    0 -0.00000000000E+00 -0.00000000000E+00 -0.74505805969E-08  0.93827000000E+00  0.93827000000E+00 0. -1.
     999902    2    1    2    0    0 -0.14441471654E-01 -0.15359008939E-01  0.12461789618E-01  0.10194401764E+01  0.10191459767E+01 0.  0.
     999903    2    3    3    0    0 -0.10568521427E+00  0.65139627315E-01 -0.32972825779E-01  0.12990672831E+00  0.19391112902E-01 0.  0.
         14    1    1    2    0    0  0.14441471654E-01  0.15359008939E-01 -0.12461789618E-01  0.24489823592E-01  0.00000000000E+00 0.  1.
     999901    1    3    3    0    0  0.91243742613E-01 -0.80498636253E-01  0.45434615398E-01  0.88953344810E+00  0.88000000000E+00 0. -1.
        -11    1    4    4    0    0 -0.67122267379E-01  0.34563802902E-01 -0.27646694021E-01  0.80403084894E-01  0.51100000000E-03 0.  1.
         11    1    4    4    0    0 -0.38562946887E-01  0.30575824413E-01 -0.53261317582E-02  0.49503643418E-01  0.51100000000E-03 0. -1.
</event>
<event>
 8    1  0.1123191E+005  0.1043930E+01  0.7957747E-01            NaN
         13   -1    0    0    0    0  0.00000000000E+00  0.00000000000E+00  0.74505805969E-08  0.10566000000E+00  0.10566000000E+00 0.  1.
     999900   -1    0    0    0    0 -0.00000000000E+00 -0.00000000000E+00 -0.74505805969E-08  0.93827000000E+00  0.93827000000E+00 0. -1.
     999902    2    1    2    0    0  0.12598106229E-01 -0.20531761640E-01  0.27067871148E-02  0.10196896986E+01  0.10194015348E+01 0.  0.
     999903    2    3    3    0    0  0.12991171921E+00 -0.66845404877E-02 -0.49130105735E-02  0.13176386235E+00  0.20392152387E-01 0.  0.
         14    1    1    2    0    0 -0.12598106229E-01  0.20531761640E-01 -0.27067871148E-02  0.24240301423E-01  0.00000000000E+00 0.  1.
     999901    1    3    3    0    0 -0.11731361298E+00 -0.13847221152E-01  0.76197976883E-02  0.88792583623E+00  0.88000000000E+00 0. -1.
        -11    1    4    4    0    0  0.62544687810E-01 -0.13120420113E-01 -0.47997474441E-02  0.64088080746E-01  0.51100000000E-03 0. -1.
         11    1    4    4    0    0  0.67367031399E-01  0.64358796255E-02 -0.11326312940E-03  0.67675781603E-01  0.51100000000E-03 0.  1.
</event>
<event>
 8    1  0.1123191E+005  0.1043930E+01  0.7957747E-01            NaN
         13   -1    0    0    0    0  0.00000000000E+00  0.00000000000E+00  0.74505805969E-08  0.10566000000E+00  0.10566000000E+00 0.  1.
     999900   -1    0    0    0    0 -0.00000000000E+00 -0.00000000000E+00 -0.74505805969E-08  0.93827000000E+00  0.93827000000E+00 0.  1.
     999902    2    1    2    0    0 -0.90070411287E-02  0.14767953630E-01  0.19991106024E-01  0.10174939722E+01  0.10171504903E+01 0.  0.
     999903    2    3    3    0    0 -0.10216709741E+00  0.63675908254E-01 -0.42206883399E-01  0.12904623938E+00  0.19462112067E-01 0.  0.
         14    1    1    2    0    0  0.90070411287E-02 -0.14767953630E-01 -0.19991106024E-01  0.26436027773E-01  0.00000000000E+00 0. -1.
     999901    1    3    3    0    0  0.93160056285E-01 -0.48907954624E-01  0.62197989423E-01  0.88844773285E+00  0.88000000000E+00 0. -1.
        -11    1    4    4    0    0 -0.27537179377E-01  0.89929059080E-02 -0.14900068340E-01  0.32579775356E-01  0.51100000000E-03 0.  1.
         11    1    4    4    0    0 -0.74629918036E-01  0.54683002346E-01 -0.27306815059E-01  0.96466464024E-01  0.51100000000E-03 0. -1.
</event>
<event>
 8    1  0.1123191E+005  0.1043930E+01  0.7957747E-01            NaN
         13   -1    0    0    0    0  0.00000000000E+00  0.00000000000E+00  0.74505805969E-08  0.10566000000E+00  0.10566000000E+00 0.  1.
     999900   -1    0    0    0    0 -0.00000000000E+00 -0.00000000000E+00 -0.74505805969E-08  0.93827000000E+00  0.93827000000E+00 0.  1.
     999902    2    1    2    0    0  0.15161425746E-01 -0.14334777456E-02  0.13042756999E-01  0.10238791347E+01  0.10236827855E+01 0.  0.
     999903    2    3    3    0    0 -0.11573803846E+00  0.55976274123E-01  0.24236473305E-01  0.13227616890E+00  0.19517720399E-01 0.  0.
         14    1    1    2    0    0 -0.15161425746E-01  0.14334777456E-02 -0.13042756999E-01  0.20050865299E-01  0.00000000000E+00 0. -1.
     999901    1    3    3    0    0  0.13089946421E+00 -0.57409751869E-01 -0.11193716307E-01  0.89160296580E+00  0.88000000000E+00 0.  1.
        -11    1    4    4    0    0 -0.68584238943E-01  0.43572645171E-01  0.14031972764E-01  0.82459266424E-01  0.51100000000E-03 0.  1.
         11    1    4    4    0    0 -0.47153799517E-01  0.12403628952E-01  0.10204500541E-01  0.49816902477E-01  0.51100000000E-03 0. -1.
</event>
<event>
 8    1  0.1123191E+005  0.1043930E+01  0.7957747E-01            NaN
         13   -1    0    0    0    0  0.00000000000E+00  0.00000000000E+00  0.74505805969E-08  0.10566000000E+00  0.10566000000E+00 0.  1.
     999900   -1    0    0    0    0 -0.00000000000E+00 -0.00000000000E+00 -0.74505805969E-08  0.93827000000E+00  0.93827000000E+00 0.  1.
     999902    2    1    2    0    0  0.21312825231E-01  0.93796595199E-02  0.61497898457E-02  0.10198460957E+01  0.10195616825E+01 0.  0.
     999903    2    3    3    0    0 -0.10227343109E+00 -0.58741848505E-01 -0.43192456224E-01  0.12723825354E+00  0.20335324363E-01 0.  0.
         14    1    1    2    0    0 -0.21312825231E-01 -0.93796595199E-02 -0.61497898457E-02  0.24083904318E-01  0.00000000000E+00 0.  1.
     999901    1    3    3    0    0  0.12358625632E+00  0.68121508025E-01  0.49342246069E-01  0.89260784214E+00  0.88000000000E+00 0.  1.
        -11    1    4    4    0    0 -0.21296543568E-01 -0.22381998613E-01 -0.12089688903E-01  0.33180089340E-01  0.51100000000E-03 0. -1.
         11    1    4    4    0    0 -0.80976887521E-01 -0.36359849892E-01 -0.31102767321E-01  0.94058164200E-01  0.51100000000E-03 0.  1.
</event>
<event>
 8    1  0.1123191E+005  0.1043930E+01  0.7957747E-01            NaN
         13   -1    0    0    0    0  0.00000000000E+00  0.00000000000E+00  0.74505805969E-08  0.10566000000E+00  0.10566000000E+00 0.  1.
     999900   -1    0    0    0    0 -0.00000000000E+00 -0.00000000000E+00 -0.74505805969E-08  0.93827000000E+00  0.93827000000E+00 0. -1.
     999902    2    1    2    0    0  0.23589022552E-01 -0.80414541901E-03 -0.31780394840E-02  0.10201142789E+01  0.10198362386E+01 0.  0.
     999903    2    3    3    0    0  0.97599762596E-01 -0.23484787163E-01  0.84049355324E-01  0.13242028912E+00  0.19839101622E-01 0.  0.
         14    1    1    2    0    0 -0.23589022552E-01  0.80414541901E-03  0.31780394840E-02  0.23815721064E-01  0.00000000000E+00 0.  1.
     999901    1    3    3    0    0 -0.74010740044E-01  0.22680641744E-01 -0.87227394808E-01  0.88769398982E+00  0.88000000000E+00 0.  1.
        -11    1    4    4    0    0  0.44226260805E-01 -0.14438176231E-01  0.50807842811E-01  0.68892097440E-01  0.51100000000E-03 0.  1.
         11    1    4    4    0    0  0.53373501792E-01 -0.90466109314E-02  0.33241512513E-01  0.63528191679E-01  0.51100000000E-03 0. -1.
</event>
<event>
 8    1  0.1123191E+005  0.1043930E+01  0.7957747E-01            NaN
         13   -1    0    0    0    0  0.00000000000E+00  0.00000000000E+00  0.74505805969E-08  0.10566000000E+00  0.10566000000E+00 0. -1.
     999900   -1    0    0    0    0 -0.00000000000E+00 -0.00000000000E+00 -0.74505805969E-08  0.93827000000E+00  0.93827000000E+00 0. -1.
     999902    2    1    2    0    0 -0.48861349172E-02  0.28938586325E-02 -0.23446652319E-01  0.10198054433E+01  0.10195200576E+01 0.  0.
     999903    2    3    3    0    0  0.82215189398E-01  0.34143054172E-01  0.89468477567E-01  0.12777798883E+00  0.19937914541E-01 0.  0.
         14    1    1    2    0    0  0.48861349172E-02 -0.28938586325E-02  0.23446652319E-01  0.24124556725E-01  0.00000000000E+00 0. -1.
     999901    1    3    3    0    0 -0.87101324316E-01 -0.31249195539E-01 -0.11291512989E+00  0.89202745444E+00  0.88000000000E+00 0. -1.
        -11    1    4    4    0    0  0.51740486373E-01  0.27038110695E-01  0.46589186508E-01  0.74692374313E-01  0.51100000000E-03 0.  1.
         11    1    4    4    0    0  0.30474703025E-01  0.71049434767E-02  0.42879291059E-01  0.53085614521E-01  0.51100000000E-03 0. -1.
</event>
<event>
 8    1  0.1123191E+005  0.1043930E+01  0.7957747E-01            NaN
         13   -1    0    0    0    0  0.00000000000E+00  0.00000000000E+00  0.74505805969E-08  0.10566000000E+00  0.10566000000E+00 0.  1.
     999900   -1    0    0    0    0 -0.00000000000E+00 -0.00000000000E+00 -0.74505805969E-08  0.93827000000E+00  0.93827000000E+00 0.  1.
     999902    2    1    2    0    0  0.24292377911E-03 -0.63618243075E-02  0.23754733777E-01  0.10193369279E+01  0.10190402118E+01 0.  0.
     999903    2    3    3    0    0 -0.43977389858E-02 -0.37568171351E-02 -0.12508224995E+00  0.12682319153E+00  0.20127068190E-01 0.  0.
         14    1    1    2    0    0 -0.24292377911E-03  0.63618243075E-02 -0.23754733777E-01  0.24593072140E-01  0.00000000000E+00 0. -1.
     999901    1    3    3    0    0  0.46406627649E-02 -0.26050071724E-02  0.14883698373E+00  0.89251373633E+00  0.88000000000E+00 0. -1.
        -11    1    4    4    0    0 -0.39061980215E-02  0.32151102099E-02 -0.11077694406E+00  0.11089358761E+00  0.51100000000E-03 0. -1.
         11    1    4    4    0    0 -0.49154096430E-03 -0.69719273450E-02 -0.14305305888E-01  0.15929603918E-01  0.51100000000E-03 0.  1.
</event>
<event>
 8    1  0.1123191E+005  0.1043930E+01  0.7957747E-01            NaN
         13   -1    0    0    0    0  0.00000000000E+00  0.00000000000E+00  0.74505805969E-08  0.10566000000E+00  0.10566000000E+00 0. -1.
     999900   -1    0    0    0    0 -0.00000000000E+00 -0.00000000000E+00 -0.74505805969E-08  0.93827000000E+00  0.93827000000E+00 0. -1.
     999902    2    1    2    0    0 -0.18688492580E-01 -0.16668162002E-01  0.58241466863E-02  0.10182199229E+01  0.10178952811E+01 0.  0.
     999903    2    3    3    0    0 -0.11915194793E+00  0.35667927482E-01  0.35605241304E-01  0.13045932133E+00  0.16808139854E-01 0.  0.
         14    1    1    2    0    0  0.18688492580E-01  0.16668162002E-01 -0.58241466863E-02  0.25710077091E-01  0.00000000000E+00 0.  1.
     999901    1    3    3    0    0  0.10046345535E+00 -0.52336089484E-01 -0.29781094617E-01  0.88776060158E+00  0.88000000000E+00 0. -1.
        -11    1    4    4    0    0 -0.20358217074E-01  0.52384562061E-02 -0.28976867084E-03  0.21029586604E-01  0.51100000000E-03 0. -1.
         11    1    4    4    0    0 -0.98793730861E-01  0.30429471276E-01  0.35895009975E-01  0.10942973472E+00  0.51100000000E-03 0.  1.
</event>
<event>
 8    1  0.1123191E+005  0.1043930E+01  0.7957747E-01            NaN
         13   -1    0    0    0    0  0.00000000000E+00  0.00000000000E+00  0.74505805969E-08  0.10566000000E+00  0.10566000000E+00 0. -1.
     999900   -1    0    0    0    0 -0.00000000000E+00 -0.00000000000E+00 -0.74505805969E-08  0.93827000000E+00  0.93827000000E+00 0. -1.
     999902    2    1    2    0    0  0.18502619784E-01  0.72268629854E-02  0.12431913509E-01  0.10204965418E+01  0.10202274575E+01 0.  0.
     999903    2    3    3    0    0  0.70153025158E-01  0.10655951907E+00  0.32206423912E-01  0.13318274606E+00  0.20591553209E-01 0.  0.
         14    1    1    2    0    0 -0.18502619784E-01 -0.72268629854E-02 -0.12431913509E-01  0.23433458152E-01  0.00000000000E+00 0.  1.
     999901    1    3    3    0    0 -0.51650405374E-01 -0.99332656081E-01 -0.19774510403E-01  0.88731379579E+00  0.88000000000E+00 0. -1.
        -11    1    4    4    0    0  0.65969346238E-01  0.99587177573E-01  0.24448198942E-01  0.12193250646E+00  0.51100000000E-03 0. -1.
         11    1    4    4    0    0  0.41836789191E-02  0.69723414934E-02  0.77582249707E-02  0.11250239593E-01  0.51100000000E-03 0.  1.
</event>
<event>
 8    1  0.1123191E+005  0.1043930E+01  0.7957747E-01            NaN
         13   -1    0    0    0    0  0.00000000000E+00  0.00000000000E+00  0.74505805969E-08  0.10566000000E+00  0.10566000000E+00 0. -1.
     999900   -1    0    0    0    0 -0.00000000000E+00 -0.00000000000E+00 -0.74505805969E-08  0.93827000000E+00  0.93827000000E+00 0.  1.
     999902    2    1    2    0    0  0.19594170569E-01  0.12031202123E-01 -0.52297343125E-02  0.10203496805E+01  0.10200771731E+01 0.  0.
     999903    2    3    3    0    0  0.79257511918E-01  0.13232177160E-01  0.10263895905E+00  0.13175707892E+00  0.19191879129E-01 0.  0.
         14    1    1    2    0    0 -0.19594170569E-01 -0.12031202123E-01  0.52297343125E-02  0.23580319460E-01  0.00000000000E+00 0. -1.
     999901    1    3    3    0    0 -0.59663341349E-01 -0.12009750369E-02 -0.10786869336E+00  0.88859260162E+00  0.88000000000E+00 0.  1.
        -11    1    4    4    0    0  0.27144851827E-01 -0.38341596422E-02  0.28588333327E-01  0.39611837679E-01  0.51100000000E-03 0. -1.
         11    1    4    4    0    0  0.52112660091E-01  0.17066336803E-01  0.74050625719E-01  0.92145241245E-01  0.51100000000E-03 0.  1.
</event>
<event>
 8    1  0.1123191E+005  0.1043930E+01  0.7957747E-01            NaN
         13   -1    0    0    0    0  0.00000000000E+00  0.00000000000E+00  0.74505805969E-08  0.10566000000E+00  0.10566000000E+00 0.  1.
     999900   -1    0    0    0    0 -0.00000000000E+00 -0.00000000000E+00 -0.74505805969E-08  0.93827000000E+00  0.93827000000E+00 0. -1.
     999902    2    1    2    0    0 -0.21400442476E-01  0.18110335513E-01  0.76256913602E-02  0.10148763538E+01  0.10144603980E+01 0.  0.
     999903    2    3    3    0    0  0.49050547632E-01  0.11064877251E+00 -0.30799108930E-01  0.12639271880E+00  0.19427485008E-01 0.  0.
         14    1    1    2    0    0  0.21400442476E-01 -0.18110335513E-01 -0.76256913602E-02  0.29053646230E-01  0.00000000000E+00 0.  1.
     999901    1    3    3    0    0 -0.70450990108E-01 -0.92538436999E-01  0.38424800290E-01  0.88848363497E+00  0.88000000000E+00 0. -1.
        -11    1    4    4    0    0  0.47675791746E-01  0.10556419761E+00 -0.33322791566E-01  0.12052987387E+00  0.51100000000E-03 0. -1.
         11    1    4    4    0    0  0.13747558866E-02  0.50845748972E-02  0.25236826358E-02  0.58628449306E-02  0.51100000000E-03 0.  1.
</event>
<event>
 8    1  0.1123191E+005  0.1043930E+01  0.7957747E-01            NaN
         13   -1    0    0    0    0  0.00000000000E+00  0.00000000000E+00  0.74505805969E-08  0.10566000000E+00  0.10566000000E+00 0. -1.
     999900   -1    0    0    0    0 -0.00000000000E+00 -0.00000000000E+00 -0.74505805969E-08  0.93827000000E+00  0.93827000000E+00 0. -1.
     999902    2    1    2    0    0  0.41659895106E-02  0.20911974143E-02  0.22821933296E-01  0.10206368848E+01  0.10203710509E+01 0.  0.
     999903    2    3    3    0    0  0.12025352259E+00  0.38100561709E-01  0.33955565337E-01  0.13221302910E+00  0.20365219104E-01 0.  0.
         14    1    1    2    0    0 -0.41659895106E-02 -0.20911974143E-02 -0.22821933296E-01  0.23293115176E-01  0.00000000000E+00 0.  1.
     999901    1    3    3    0    0 -0.11608753308E+00 -0.36009364294E-01 -0.11133632041E-01  0.88842385572E+00  0.88000000000E+00 0.  1.
        -11    1    4    4    0    0  0.63248607965E-01  0.93812913437E-02  0.17445941630E-01  0.66279838844E-01  0.51100000000E-03 0.  1.
         11    1    4    4    0    0  0.57004914625E-01  0.28719270365E-01  0.16509623708E-01  0.65933190258E-01  0.51100000000E-03 0. -1.
</event>
<event>
 8    1  0.1123191E+005  0.1043930E+01  0.7957747E-01            NaN
         13   -1    0    0    0    0  0.00000000000E+00  0.00000000000E+00  0.74505805969E-08  0.10566000000E+00  0.10566000000E+00 0.  1.
     999900   -1    0    0    0    0 -0.00000000000E+00 -0.00000000000E+00 -0.74505805969E-08  0.93827000000E+00  0.93827000000E+00 0.  1.
     999902    2    1    2    0    0  0.31774706903E-02  0.21039428338E-01  0.69679015118E-02  0.10215401470E+01  0.10212947500E+01 0.  0.
     999903    2    3    3    0    0  0.40880824997E-02  0.12697053387E+00 -0.37288532922E-01  0.13408262110E+00  0.21201077867E-01 0.  0.
         14    1    1    2    0    0 -0.31774706903E-02 -0.21039428338E-01 -0.69679015118E-02  0.22389852976E-01  0.00000000000E+00 0.  1.
     999901    1    3    3    0    0 -0.91061180942E-03 -0.10593110553E+00  0.44256434434E-01  0.88745752593E+00  0.88000000000E+00 0. -1.
        -11    1    4    4    0    0 -0.28988238810E-02  0.91829364715E-01 -0.18873610569E-01  0.93795040918E-01  0.51100000000E-03 0.  1.
         11    1    4    4    0    0  0.69869063807E-02  0.35141169158E-01 -0.18414922353E-01  0.40287580181E-01  0.51100000000E-03 0. -1.
</event>
<event>
 8    1  0.1123191E+005  0.1043930E+01  0.7957747E-01            NaN
         13   -1    0    0    0    0  0.00000000000E+00  0.00000000000E+00  0.74505805969E-08  0.10566000000E+00  0.10566000000E+00 0. -1.
     999900   -1    0    0    0    0 -0.00000000000E+00 -0.00000000000E+00 -0.74505805969E-08  0.93827000000E+00  0.93827000000E+00 0.  1.
     999902    2    1    2    0    0 -0.22542146630E-01  0.91853283045E-02  0.20069015441E-02  0.10195057030E+01  0.10192130946E+01 0.  0.
     999903    2    3    3    0    0 -0.17554311205E-01  0.15990878256E-01 -0.12725414475E+00  0.13002292513E+00  0.12185305650E-01 0.  0.
         14    1    1    2    0    0  0.22542146630E-01 -0.91853283045E-02 -0.20069015441E-02  0.24424297013E-01  0.00000000000E+00 0.  1.
     999901    1    3    3    0    0 -0.49878354258E-02 -0.68055499516E-02  0.12926104630E+00  0.88948277786E+00  0.88000000000E+00 0. -1.
        -11    1    4    4    0    0 -0.12745262777E-01  0.73068581401E-02 -0.49518826763E-01  0.51654692179E-01  0.51100000000E-03 0. -1.
         11    1    4    4    0    0 -0.48090484280E-02  0.86840201160E-02 -0.77735317989E-01  0.78368232952E-01  0.51100000000E-03 0.  1.
</event>
<event>
 8    1  0.1123191E+005  0.1043930E+01  0.7957747E-01            NaN
         13   -1    0    0    0    0  0.00000000000E+00  0.00000000000E+00  0.74505805969E-08  0.10566000000E+00  0.10566000000E+00 0.  1.
     999900   -1    0    0    0    0 -0.00000000000E+00 -0.00000000000E+00 -0.74505805969E-08  0.93827000000E+00  0.93827000000E+00 0.  1.
     999902    2    1    2    0    0  0.19196011794E-02 -0.18061781989E-01  0.15738898059E-01  0.10198961541E+01  0.10196129361E+01 0.  0.
     999903    2    3    3    0    0  0.65674600654E-01 -0.11105682772E+00  0.23937021461E-01  0.13266451144E+00  0.19496652113E-01 0.  0.
         14    1    1    2    0    0 -0.19196011794E-02  0.18061781989E-01 -0.15738898059E-01  0.24033845914E-01  0.00000000000E+00 0.  1.
     999901    1    3    3    0    0 -0.63754999475E-01  0.92995045734E-01 -0.81981234019E-02  0.88723164265E+00  0.88000000000E+00 0.  1.
        -11    1    4    4    0    0  0.50435737835E-02 -0.20539418970E-01  0.18330389526E-03  0.21156561380E-01  0.51100000000E-03 0. -1.
         11    1    4    4    0    0  0.60631026870E-01 -0.90517408754E-01  0.23753717565E-01  0.11150795006E+00  0.51100000000E-03 0.  1.
</event>
<event>
 8    1  0.1123191E+005  0.1043930E+01  0.7957747E-01            NaN
         13   -1    0    0    0    0  0.00000000000E+00  0.00000000000E+00  0.74505805969E-08  0.10566000000E+00  0.10566000000E+00 0. -1.
     999900   -1    0    0    0    0 -0.00000000000E+00 -0.00000000000E+00 -0.74505805969E-08  0.93827000000E+00  0.93827000000E+00 0. -1.
     999902    2    1    2    0    0  0.23278116427E-01 -0.85910468048E-03  0.45099676470E-02  0.10202034627E+01  0.10199275252E+01 0.  0.
     999903    2    3    3    0    0 -0.80391457924E-01 -0.56362032312E-01  0.81358130927E-01  0.12906172545E+00  0.19957913603E-01 0.  0.
         14    1    1    2    0    0 -0.23278116427E-01  0.85910468048E-03 -0.45099676470E-02  0.23726537324E-01  0.00000000000E+00 0. -1.
     999901    1    3    3    0    0  0.10366957435E+00  0.55502927632E-01 -0.76848163280E-01  0.89114173722E+00  0.88000000000E+00 0. -1.
        -11    1    4    4    0    0 -0.43164518941E-01 -0.27166459541E-01  0.29743468686E-01  0.59043435452E-01  0.51100000000E-03 0. -1.
         11    1    4    4    0    0 -0.37226938983E-01 -0.29195572771E-01  0.51614662241E-01  0.70018290001E-01  0.51100000000E-03 0.  1.
</event>
<event>
 8    1  0.1123191E+005  0.1043930E+01  0.7957747E-01            NaN
         13   -1    0    0    0    0  0.00000000000E+00  0.00000000000E+00  0.74505805969E-08  0.10566000000E+00  0.10566000000E+00 0. -1.
     999900   -1    0    0    0    0 -0.00000000000E+00 -0.00000000000E+00 -0.74505805969E-08  0.93827000000E+00  0.93827000000E+00 0.  1.
     999902    2    1    2    0    0 -0.22984774333E-01  0.26516181280E-02 -0.46539936142E-02  0.10203293520E+01  0.10200563690E+01 0.  0.
     999903    2    3    3    0    0  0.10994743188E+00  0.45531300263E-01  0.39502549181E-01  0.12821980779E+00  0.26801690925E-01 0.  0.
         14    1    1    2    0    0  0.22984774333E-01 -0.26516181280E-02  0.46539936142E-02  0.23600648008E-01  0.00000000000E+00 0.  1.
     999901    1    3    3    0    0 -0.13293220621E+00 -0.42879682135E-01 -0.44156542795E-01  0.89210954420E+00  0.88000000000E+00 0.  1.
        -11    1    4    4    0    0  0.48651392546E-01  0.61752928362E-02  0.18367054587E-01  0.52370812992E-01  0.51100000000E-03 0. -1.
         11    1    4    4    0    0  0.61296039335E-01  0.39356007426E-01  0.21135494594E-01  0.75848994795E-01  0.51100000000E-03 0.  1.
</event>
<event>
 8    1  0.1123191E+005  0.1043930E+01  0.7957747E-01            NaN
         13   -1    0    0    0    0  0.00000000000E+00  0.00000000000E+00  0.74505805969E-08  0.10566000000E+00  0.10566000000E+00 0. -1.
     999900   -1    0    0    0    0 -0.00000000000E+00 -0.00000000000E+00 -0.74505805969E-08  0.93827000000E+00  0.93827000000E+00 0. -1.
     999902    2    1    2    0    0  0.18621473371E-01 -0.11887668518E-01 -0.10536595338E-01  0.10194535670E+01  0.10191596928E+01 0.  0.
     999903    2    3    3    0    0  0.78752680252E-01  0.46035255762E-01 -0.92800924798E-01  0.13168206082E+00  0.20172359286E-01 0.  0.
         14    1    1    2    0    0 -0.18621473371E-01  0.11887668518E-01  0.10536595338E-01  0.24476433045E-01  0.00000000000E+00 0. -1.
     999901    1    3    3    0    0 -0.60131206881E-01 -0.57922924280E-01  0.82264329460E-01  0.88777150613E+00  0.88000000000E+00 0.  1.
        -11    1    4    4    0    0  0.47717094987E-01  0.33362916967E-01 -0.46489825171E-01  0.74508860868E-01  0.51100000000E-03 0. -1.
         11    1    4    4    0    0  0.31035585265E-01  0.12672338795E-01 -0.46311099627E-01  0.57173199954E-01  0.51100000000E-03 0.  1.
</event>
<event>
 8    1  0.1123191E+005  0.1043930E+01  0.7957747E-01            NaN
         13   -1    0    0    0    0  0.00000000000E+00  0.00000000000E+00  0.74505805969E-08  0.10566000000E+00  0.10566000000E+00 0.  1.
     999900   -1    0    0    0    0 -0.00000000000E+00 -0.00000000000E+00 -0.74505805969E-08  0.93827000000E+00  0.93827000000E+00 0. -1.
     999902    2    1    2    0    0 -0.65228650066E-02  0.18802306152E-01  0.13731335557E-01  0.10197509996E+01  0.10194643089E+01 0.  0.
     999903    2    3    3    0    0 -0.12024356664E+00 -0.39727734369E-01 -0.16525690646E-01  0.12999055360E+00  0.24241232978E-01 0.  0.
         14    1    1    2    0    0  0.65228650066E-02 -0.18802306152E-01 -0.13731335557E-01  0.24179000408E-01  0.00000000000E+00 0. -1.
     999901    1    3    3    0    0  0.11372070163E+00  0.58530040521E-01  0.30257026203E-01  0.88976044600E+00  0.88000000000E+00 0. -1.
        -11    1    4    4    0    0 -0.55613104459E-01 -0.17057831773E-01 -0.19717331353E-01  0.61423295980E-01  0.51100000000E-03 0. -1.
         11    1    4    4    0    0 -0.64630462183E-01 -0.22669902596E-01  0.31916407077E-02  0.68567257617E-01  0.51100000000E-03 0.  1.
</event>
<event>
 8    1  0.1123191E+005  0.1043930E+01  0.7957747E-01            NaN
         13   -1    0    0    0    0  0.00000000000E+00  0.00000000000E+00  0.74505805969E-08  0.10566000000E+00  0.10566000000E+00 0.  1.
     999900   -1    0    0    0    0 -0.00000000000E+00 -0.00000000000E+00 -0.74505805969E-08  0.93827000000E+00  0.93827000000E+00 0. -1.
     999902    2    1    2    0    0 -0.16639709622E-01 -0.11719184770E-01 -0.53450108727E-02  0.10228874629E+01  0.10226709995E+01 0.  0.
     999903    2    3    3    0    0  0.22827400692E-01  0.46355882537E-01  0.11922694157E+00  0.13134467781E+00  0.19141648992E-01 0.  0.
         14    1    1    2    0    0  0.16639709622E-01  0.11719184770E-01  0.53450108727E-02  0.21042537138E-01  0.00000000000E+00 0.  1.
     999901    1    3    3    0    0 -0.39467110314E-01 -0.58075067307E-01 -0.12457195244E+00  0.89154278505E+00  0.88000000000E+00 0. -1.
        -11    1    4    4    0    0  0.10213755896E-01  0.38395113075E-01  0.78798906833E-01  0.88249840547E-01  0.51100000000E-03 0.  1.
         11    1    4    4    0    0  0.12613644797E-01  0.79607694621E-02  0.40428034734E-01  0.43094837266E-01  0.51100000000E-03 0. -1.
</event>
<event>
 8    1  0.1123191E+005  0.1043930E+01  0.7957747E-01            NaN
         13   -1    0    0    0    0  0.00000000000E+00  0.00000000000E+00  0.74505805969E-08  0.10566000000E+00  0.10566000000E+00 0.  1.
     999900   -1    0    0    0    0 -0.00000000000E+00 -0.00000000000E+00 -0.74505805969E-08  0.93827000000E+00  0.93827000000E+00 0.  1.
     999902    2    1    2    0    0  0.21256100805E-01 -0.10111972025E-01  0.36680711427E-02  0.10201071424E+01  0.10198289334E+01 0.  0.
     999903    2    3    3    0    0  0.11487809705E+00  0.48951891637E-01  0.40219560429E-01  0.13241934278E+00  0.18000122892E-01 0.  0.
         14    1    1    2    0    0 -0.21256100805E-01  0.10111972025E-01 -0.36680711427E-02  0.23822857629E-01  0.00000000000E+00 0. -1.
     999901    1    3    3    0    0 -0.93621996247E-01 -0.59063863662E-01 -0.36551489287E-01  0.88768779959E+00  0.88000000000E+00 0. -1.
        -11    1    4    4    0    0  0.46226020101E-01  0.16259640740E-01  0.24430229626E-01  0.54756899949E-01  0.51100000000E-03 0. -1.
         11    1    4    4    0    0  0.68652076952E-01  0.32692250897E-01  0.15789330803E-01  0.77662442832E-01  0.51100000000E-03 0.  1.
</event>
<event>
 8    1  0.1123191E+005  0.1043930E+01  0.7957747E-01            NaN
         13   -1    0    0    0    0  0.00000000000E+00  0.00000000000E+00  0.74505805969E-08  0.10566000000E+00  0.10566000000E+00 0.  1.
     999900   -1    0    0    0    0 -0.00000000000E+00 -0.00000000000E+00 -0.74505805969E-08  0.93827000000E+00  0.93827000000E+00 0. -1.
     999902    2    1    2    0    0 -0.44999546169E-02 -0.21189771554E-01  0.11285432837E-01  0.10195042553E+01  0.10192116118E+01 0.  0.
     999903    2    3    3    0    0 -0.10384615666E+00  0.73427617671E-01 -0.12693916933E-02  0.12878558937E+00  0.20210823445E-01 0.  0.
         14    1    1    2    0    0  0.44999546169E-02  0.21189771554E-01 -0.11285432837E-01  0.24425744705E-01  0.00000000000E+00 0. -1.
     999901    1    3    3    0    0  0.99346202046E-01 -0.94617389224E-01  0.12554824531E-01  0.89071866592E+00  0.88000000000E+00 0. -1.
        -11    1    4    4    0    0 -0.83317468890E-01  0.55952155180E-01  0.69306776409E-02  0.10060188718E+00  0.51100000000E-03 0. -1.
         11    1    4    4    0    0 -0.20528687773E-01  0.17475462491E-01 -0.82000693342E-02  0.28183702188E-01  0.51100000000E-03 0.  1.
</event>
<event>
 8    1  0.1123191E+005  0.1043930E+01  0.7957747E-01            NaN
         13   -1    0    0    0    0  0.00000000000E+00  0.00000000000E+00  0.74505805969E-08  0.10566000000E+00  0.10566000000E+00 0. -1.
     999900   -1    0    0    0    0 -0.00000000000E+00 -0.00000000000E+00 -0.74505805969E-08  0.93827000000E+00  0.93827000000E+00 0. -1.
     999902    2    1    2    0    0 -0.16662166012E-01 -0.28355917557E-02 -0.18321364943E-01  0.10190032920E+01  0.10186983697E+01 0.  0.
     999903    2    3    3    0    0  0.30256966916E-01  0.87688674486E-01  0.84943201319E-01  0.12711786303E+00  0.18406954439E-01 0.  0.
         14    1    1    2    0    0  0.16662166012E-01  0.28355917557E-02  0.18321364943E-01  0.24926707969E-01  0.00000000000E+00 0. -1.
     999901    1    3    3    0    0 -0.46919132928E-01 -0.90524266242E-01 -0.10326456626E+00  0.89188542900E+00  0.88000000000E+00 0. -1.
        -11    1    4    4    0    0  0.12106427486E-01  0.46832419407E-01  0.32875064047E-01  0.58488221474E-01  0.51100000000E-03 0. -1.
         11    1    4    4    0    0  0.18150539430E-01  0.40856255079E-01  0.52068137272E-01  0.68629641560E-01  0.51100000000E-03 0.  1.
</event>
<event>
 8    1  0.1123191E+005  0.1043930E+01  0.7957747E-01            NaN
         13   -1    0    0    0    0  0.00000000000E+00  0.00000000000E+00  0.74505805969E-08  0.10566000000E+00  0.10566000000E+00 0.  1.
     999900   -1    0    0    0    0 -0.00000000000E+00 -0.00000000000E+00 -0.74505805969E-08  0.93827000000E+00  0.93827000000E+00 0. -1.
     999902    2    1    2    0    0  0.13354543587E-01 -0.18485743896E-01  0.61698208554E-02  0.10203051561E+01  0.10200316065E+01 0.  0.
     999903    2    3    3    0    0 -0.74417497434E-01 -0.48836755046E-01  0.94104265533E-01  0.13105964349E+00  0.19950558710E-01 0.  0.
         14    1    1    2    0    0 -0.13354543587E-01  0.18485743896E-01 -0.61698208554E-02  0.23624843940E-01  0.00000000000E+00 0.  1.
     999901    1    3    3    0    0  0.87772041021E-01  0.30351011150E-01 -0.87934444678E-01  0.88924551257E+00  0.88000000000E+00 0.  1.
        -11    1    4    4    0    0 -0.13824849835E-01 -0.22359927322E-02  0.21291262344E-01  0.25489313636E-01  0.51100000000E-03 0.  1.
         11    1    4    4    0    0 -0.60592647599E-01 -0.46600762314E-01  0.72813003189E-01  0.10557032986E+00  0.51100000000E-03 0. -1.
</event>
<event>
 8    1  0.1123191E+005  0.1043930E+01  0.7957747E-01            NaN
         13   -1    0    0    0    0  0.00000000000E+00  0.00000000000E+00  0.74505805969E-08  0.10566000000E+00  0.10566000000E+00 0.  1.
     999900   -1    0    0    0    0 -0.00000000000E+00 -0.00000000000E+00 -0.74505805969E-08  0.93827000000E+00  0.93827000000E+00 0. -1.
     999902    2    1    2    0    0 -0.23289942823E-01  0.27052664807E-03 -0.87815912013E-02  0.10190380140E+01  0.10187339511E+01 0.  0.
     999903    2    3    3    0    0  0.24490380961E-01  0.12482930494E+00 -0.35803786937E-02  0.12896784758E+00  0.20922534915E-01 0.  0.
         14    1    1    2    0    0  0.23289942823E-01 -0.27052664807E-03  0.87815912013E-02  0.24891985967E-01  0.00000000000E+00 0. -1.
     999901    1    3    3    0    0 -0.47780323784E-01 -0.12455877829E+00 -0.52012125077E-02  0.89007016645E+00  0.88000000000E+00 0. -1.
        -11    1    4    4    0    0  0.21237526018E-01  0.80896108877E-01  0.60977259895E-02  0.83860934445E-01  0.51100000000E-03 0.  1.
         11    1    4    4    0    0  0.32528549434E-02  0.43933196063E-01 -0.96781046831E-02  0.45106913138E-01  0.51100000000E-03 0. -1.
</event>
<event>
 8    1  0.1123191E+005  0.1043930E+01  0.7957747E-01            NaN
         13   -1    0    0    0    0  0.00000000000E+00  0.00000000000E+00  0.74505805969E-08  0.10566000000E+00  0.10566000000E+00 0. -1.
     999900   -1    0    0    0    0 -0.00000000000E+00 -0.00000000000E+00 -0.74505805969E-08  0.93827000000E+00  0.93827000000E+00 0.  1.
     999902    2    1    2    0    0  0.14017992406E-01 -0.15984374364E-01 -0.78414130017E-02  0.10212696361E+01  0.10210182063E+01 0.  0.
     999903    2    3    3    0    0  0.19165681744E-02 -0.11343918092E+00 -0.67907170208E-01  0.13377215497E+00  0.20285085123E-01 0.  0.
         14    1    1    2    0    0 -0.14017992406E-01  0.15984374364E-01  0.78414130017E-02  0.22660363915E-01  0.00000000000E+00 0.  1.
     999901    1    3    3    0    0  0.12101424232E-01  0.97454806560E-01  0.60065757206E-01  0.88749748111E+00  0.88000000000E+00 0.  1.
        -11    1    4    4    0    0  0.65119368351E-02 -0.68163292846E-01 -0.50338735999E-01  0.84987583069E-01  0.51100000000E-03 0. -1.
         11    1    4    4    0    0 -0.45953686606E-02 -0.45275888078E-01 -0.17568434209E-01  0.48784571905E-01  0.51100000000E-03 0.  1.
</event>
<event>
 8    1  0.1123191E+005  0.1043930E+01  0.7957747E-01            NaN
         13   -1    0    0    0    0  0.00000000000E+00  0.00000000000E+00  0.74505805969E-08  0.10566000000E+00  0.10566000000E+00 0.  1.
     999900   -1    0    0    0    0 -0.00000000000E+00 -0.00000000000E+00 -0.74505805969E-08  0.93827000000E+00  0.93827000000E+00 0. -1.
     999902    2    1    2    0    0  0.18641930422E-01 -0.90657976241E-02 -0.84853896206E-02  0.10215310694E+01  0.10212854712E+01 0.  0.
     999903    2    3    3    0    0  0.51300105244E-01  0.53325418806E-01  0.10652504864E+00  0.13125772866E+00  0.20142101553E-01 0.  0.
         14    1    1    2    0    0 -0.18641930422E-01  0.90657976241E-02  0.84853896206E-02  0.22398930632E-01  0.00000000000E+00 0.  1.
     999901    1    3    3    0    0 -0.32658174821E-01 -0.62391216430E-01 -0.11501043826E+00  0.89027334071E+00  0.88000000000E+00 0. -1.
        -11    1    4    4    0    0  0.21261438246E-01  0.34172771448E-01  0.65926934465E-01  0.77242791726E-01  0.51100000000E-03 0.  1.
         11    1    4    4    0    0  0.30038666998E-01  0.19152647358E-01  0.40598114179E-01  0.54014936932E-01  0.51100000000E-03 0. -1.
</event>
<event>
 8    1  0.1123191E+005  0.1043930E+01  0.7957747E-01            NaN
         13   -1    0    0    0    0  0.00000000000E+00  0.00000000000E+00  0.74505805969E-08  0.10566000000E+00  0.10566000000E+00 0.  1.
     999900   -1    0    0    0    0 -0.00000000000E+00 -0.00000000000E+00 -0.74505805969E-08  0.93827000000E+00  0.93827000000E+00 0. -1.
     999902    2    1    2    0    0 -0.19172013154E-01 -0.71353596441E-03  0.13279994114E-01  0.10205969019E+01  0.10203301440E+01 0.  0.
     999903    2    3    3    0    0 -0.72736286069E-01  0.51573266518E-01  0.97375717381E-01  0.13342435292E+00  0.19226504763E-01 0.  0.
         14    1    1    2    0    0  0.19172013154E-01  0.71353596441E-03 -0.13279994114E-01  0.23333098071E-01  0.00000000000E+00 0.  1.
     999901    1    3    3    0    0  0.53564272916E-01 -0.52286802483E-01 -0.84095723267E-01  0.88717254901E+00  0.88000000000E+00 0. -1.
        -11    1    4    4    0    0 -0.60962110087E-01  0.50879202887E-01  0.85093720228E-01  0.11638846376E+00  0.51100000000E-03 0. -1.
         11    1    4    4    0    0 -0.11774175982E-01  0.69406363150E-03  0.12281997153E-01  0.17035889159E-01  0.51100000000E-03 0.  1.
</event>
<event>
 8    1  0.1123191E+005  0.1043930E+01  0.7957747E-01            NaN
         13   -1    0    0    0    0  0.00000000000E+00  0.00000000000E+00  0.74505805969E-08  0.10566000000E+00  0.10566000000E+00 0. -1.
     999900   -1    0    0    0    0 -0.00000000000E+00 -0.00000000000E+00 -0.74505805969E-08  0.93827000000E+00  0.93827000000E+00 0. -1.
     999902    2    1    2    0    0  0.51879525069E-02  0.22079844413E-01  0.66436353250E-02  0.10202958664E+01  0.10200220991E+01 0.  0.
     999903    2    3    3    0    0 -0.98702697902E-01  0.85240185300E-01 -0.17586241359E-02  0.13189669156E+00  0.19634987187E-01 0.  0.
         14    1    1    2    0    0 -0.51879525069E-02 -0.22079844413E-01 -0.66436353250E-02  0.23634133596E-01  0.00000000000E+00 0. -1.
     999901    1    3    3    0    0  0.10389065041E+00 -0.63160340887E-01  0.84022594609E-02  0.88839917485E+00  0.88000000000E+00 0.  1.
        -11    1    4    4    0    0 -0.30429330809E-01  0.15866093902E-01 -0.38646608557E-02  0.34538005642E-01  0.51100000000E-03 0.  1.
         11    1    4    4    0    0 -0.68273367093E-01  0.69374091398E-01  0.21060367198E-02  0.97358685916E-01  0.51100000000E-03 0. -1.
</event>
<event>
 8    1  0.1123191E+005  0.1043930E+01  0.7957747E-01            NaN
         13   -1    0    0    0    0  0.00000000000E+00  0.00000000000E+00  0.74505805969E-08  0.10566000000E+00  0.10566000000E+00 0.  1.
     999900   -1    0    0    0    0 -0.00000000000E+00 -0.00000000000E+00 -0.74505805969E-08  0.93827000000E+00  0.93827000000E+00 0.  1.
     999902    2    1    2    0    0 -0.12380029909E-01 -0.28764104233E-02  0.19258710325E-01  0.10208554079E+01  0.10205945948E+01 0.  0.
     999903    2    3    3    0    0  0.10186760847E+00  0.42767475688E-01 -0.62934072553E-01  0.12850371670E+00  0.18612927961E-01 0.  0.
         14    1    1    2    0    0  0.12380029909E-01  0.28764104233E-02 -0.19258710325E-01  0.23074592106E-01  0.00000000000E+00 0.  1.
     999901    1    3    3    0    0 -0.11424763837E+00 -0.45643886111E-01  0.82192782879E-01  0.89235169119E+00  0.88000000000E+00 0. -1.
        -11    1    4    4    0    0  0.42415711021E-01  0.10576590978E-01 -0.31860201407E-01  0.54095197318E-01  0.51100000000E-03 0. -1.
         11    1    4    4    0    0  0.59451897444E-01  0.32190884711E-01 -0.31073871146E-01  0.74408519386E-01  0.51100000000E-03 0.  1.
</event>
<event>
 8    1  0.1123191E+005  0.1043930E+01  0.7957747E-01            NaN
         13   -1    0    0    0    0  0.00000000000E+00  0.00000000000E+00  0.74505805969E-08  0.10566000000E+00  0.10566000000E+00 0. -1.
     999900   -1    0    0    0    0 -0.00000000000E+00 -0.00000000000E+00 -0.74505805969E-08  0.93827000000E+00  0.93827000000E+00 0. -1.
     999902    2    1    2    0    0 -0.21232107848E-01 -0.10316230126E-01  0.41227860679E-02  0.10199670208E+01  0.10196854903E+01 0.  0.
     999903    2    3    3    0    0 -0.51287361277E-01  0.11755930711E+00 -0.12874871503E-01  0.13005444551E+00  0.17257240936E-01 0.  0.
         14    1    1    2    0    0  0.21232107848E-01  0.10316230126E-01 -0.41227860679E-02  0.23962979210E-01  0.00000000000E+00 0.  1.
     999901    1    3    3    0    0  0.30055253429E-01 -0.12787553724E+00  0.16997657571E-01  0.88991257528E+00  0.88000000000E+00 0. -1.
        -11    1    4    4    0    0 -0.36720135512E-01  0.87743811121E-01 -0.16950254736E-01  0.96617374207E-01  0.51100000000E-03 0. -1.
         11    1    4    4    0    0 -0.14567225765E-01  0.29815495990E-01  0.40753832325E-02  0.33437071300E-01  0.51100000000E-03 0.  1.
</event>
<event>
 8    1  0.1123191E+005  0.1043930E+01  0.7957747E-01            NaN
         13   -1    0    0    0    0  0.00000000000E+00  0.00000000000E+00  0.74505805969E-08  0.10566000000E+00  0.10566000000E+00 0.  1.
     999900   -1    0    0    0    0 -0.00000000000E+00 -0.00000000000E+00 -0.74505805969E-08  0.93827000000E+00  0.93827000000E+00 0. -1.
     999902    2    1    2    0    0  0.15815136773E-01 -0.40103693228E-02 -0.17345161988E-01  0.10201170569E+01  0.10198390822E+01 0.  0.
     999903    2    3    3    0    0  0.38767410843E-01 -0.79862722226E-01 -0.97102248566E-01  0.13296341793E+00  0.19221271732E-01 0.  0.
         14    1    1    2    0    0 -0.15815136773E-01  0.40103693228E-02  0.17345161988E-01  0.23812943070E-01  0.00000000000E+00 0.  1.
     999901    1    3    3    0    0 -0.22952274070E-01  0.75852352903E-01  0.79757086578E-01  0.88715363900E+00  0.88000000000E+00 0.  1.
        -11    1    4    4    0    0  0.19144814563E-01 -0.26896917048E-01 -0.25252204878E-01  0.41568053160E-01  0.51100000000E-03 0. -1.
         11    1    4    4    0    0  0.19622596280E-01 -0.52965805178E-01 -0.71850043689E-01  0.91395364773E-01  0.51100000000E-03 0.  1.
</event>
<event>
 8    1  0.1123191E+005  0.1043930E+01  0.7957747E-01            NaN
         13   -1    0    0    0    0  0.00000000000E+00  0.00000000000E+00  0.74505805969E-08  0.10566000000E+00  0.10566000000E+00 0. -1.
     999900   -1    0    0    0    0 -0.00000000000E+00 -0.00000000000E+00 -0.74505805969E-08  0.93827000000E+00  0.93827000000E+00 0.  1.
     999902    2    1    2    0    0  0.86710832873E-02  0.74863947582E-02 -0.20495314429E-01  0.10204503981E+01  0.10201802406E+01 0.  0.
     999903    2    3    3    0    0 -0.11850414225E+00  0.29448290596E-01 -0.42671128953E-01  0.13076077266E+00  0.19160398557E-01 0.  0.
         14    1    1    2    0    0 -0.86710832873E-02 -0.74863947582E-02  0.20495314429E-01  0.23479601900E-01  0.00000000000E+00 0. -1.
     999901    1    3    3    0    0  0.12717522553E+00 -0.21961895838E-01  0.22175814525E-01  0.88968962544E+00  0.88000000000E+00 0.  1.
        -11    1    4    4    0    0 -0.17267459205E-01  0.44807807462E-02  0.62569152887E-03  0.17857635745E-01  0.51100000000E-03 0. -1.
         11    1    4    4    0    0 -0.10123668304E+00  0.24967509850E-01 -0.43296820482E-01  0.11290313692E+00  0.51100000000E-03 0.  1.
</event>
<event>
 8    1  0.1123191E+005  0.1043930E+01  0.7957747E-01            NaN
         13   -1    0    0    0    0  0.00000000000E+00  0.00000000000E+00  0.74505805969E-08  0.10566000000E+00  0.10566000000E+00 0.  1.
     999900   -1    0    0    0    0 -0.00000000000E+00 -0.00000000000E+00 -0.74505805969E-08  0.93827000000E+00  0.93827000000E+00 0. -1.
     999902    2    1    2    0    0 -0.20519494352E-01  0.42814470937E-02  0.88072728903E-02  0.10211934987E+01  0.10209403573E+01 0.  0.
     999903    2    3    3    0    0 -0.11714731455E+00  0.29947685415E-01 -0.52786666951E-01  0.13339312422E+00  0.19670694225E-01 0.  0.
         14    1    1    2    0    0  0.20519494352E-01 -0.42814470937E-02 -0.88072728903E-02  0.22736501346E-01  0.00000000000E+00 0. -1.
     999901    1    3    3    0    0  0.96627820202E-01 -0.25666238322E-01  0.61593939841E-01  0.88780037444E+00  0.88000000000E+00 0.  1.
        -11    1    4    4    0    0 -0.55450628934E-01  0.17110997741E-01 -0.35559218138E-01  0.68060837553E-01  0.51100000000E-03 0. -1.
         11    1    4    4    0    0 -0.61696685621E-01  0.12836687674E-01 -0.17227448813E-01  0.65332286663E-01  0.51100000000E-03 0.  1.
</event>
<event>
 8    1  0.1123191E+005  0.1043930E+01  0.7957747E-01            NaN
         13   -1    0    0    0    0  0.00000000000E+00  0.00000000000E+00  0.74505805969E-08  0.10566000000E+00  0.10566000000E+00 0. -1.
     999900   -1    0    0    0    0 -0.00000000000E+00 -0.00000000000E+00 -0.74505805969E-08  0.93827000000E+00  0.93827000000E+00 0.  1.
     999902    2    1    2    0    0 -0.39361479285E-02  0.22472142014E-01 -0.78129026463E-02  0.10198150280E+01  0.10195298718E+01 0.  0.
     999903    2    3    3    0    0  0.44794590304E-01  0.12082598995E+00  0.22299758623E-01  0.13248479824E+00  0.21200645344E-01 0.  0.
         14    1    1    2    0    0  0.39361479285E-02 -0.22472142014E-01  0.78129026463E-02  0.24114972009E-01  0.00000000000E+00 0. -1.
     999901    1    3    3    0    0 -0.48730738232E-01 -0.98353847937E-01 -0.30112661269E-01  0.88733022975E+00  0.88000000000E+00 0.  1.
        -11    1    4    4    0    0  0.17743813102E-01  0.67476767250E-01  0.20169080180E-01  0.72629263649E-01  0.51100000000E-03 0. -1.
         11    1    4    4    0    0  0.27050777201E-01  0.53349222702E-01  0.21306784431E-02  0.59855534596E-01  0.51100000000E-03 0.  1.
</event>
<event>
 8    1  0.1123191E+005  0.1043930E+01  0.7957747E-01            NaN
         13   -1    0    0    0    0  0.00000000000E+00  0.00000000000E+00  0.74505805969E-08  0.10566000000E+00  0.10566000000E+00 0. -1.
     999900   -1    0    0    0    0 -0.00000000000E+00 -0.00000000000E+00 -0.74505805969E-08  0.93827000000E+00  0.93827000000E+00 0. -1.
     999902    2    1    2    0    0 -0.77907142997E-03 -0.22396464371E-01  0.83074527669E-02  0.10200297418E+01  0.10197497006E+01 0.  0.
     999903    2    3    3    0    0 -0.10456888079E+00 -0.24472840610E-01 -0.70807362625E-01  0.13040297185E+00  0.21393496862E-01 0.  0.
         14    1    1    2    0    0  0.77907142997E-03  0.22396464371E-01 -0.83074527669E-02  0.23900258159E-01  0.00000000000E+00 0. -1.
     999901    1    3    3    0    0  0.10378980936E+00  0.20763762391E-02  0.79114815392E-01  0.88962676999E+00  0.88000000000E+00 0.  1.
        -11    1    4    4    0    0 -0.36307816872E-01 -0.10972390379E-01 -0.37190886123E-01  0.53123196894E-01  0.51100000000E-03 0. -1.
         11    1    4    4    0    0 -0.68261063921E-01 -0.13500450231E-01 -0.33616476502E-01  0.77279774958E-01  0.51100000000E-03 0.  1.
</event>
<event>
 8    1  0.1123191E+005  0.1043930E+01  0.7957747E-01            NaN
         13   -1    0    0    0    0  0.00000000000E+00  0.00000000000E+00  0.74505805969E-08  0.10566000000E+00  0.10566000000E+00 0. -1.
     999900   -1    0    0    0    0 -0.00000000000E+00 -0.00000000000E+00 -0.74505805969E-08  0.93827000000E+00  0.93827000000E+00 0.  1.
     999902    2    1    2    0    0 -0.13379309321E-01 -0.19548495331E-01 -0.15451030027E-01  0.10156477809E+01  0.10152539244E+01 0.  0.
     999903    2    3    3    0    0 -0.10028039515E+00 -0.79030142443E-01  0.28265277763E-02  0.12918067257E+00  0.19435427450E-01 0.  0.
         14    1    1    2    0    0  0.13379309321E-01  0.19548495331E-01  0.15451030027E-01  0.28282219088E-01  0.00000000000E+00 0.  1.
     999901    1    3    3    0    0  0.86901085825E-01  0.59481647112E-01 -0.18277557803E-01  0.88646710835E+00  0.88000000000E+00 0. -1.
        -11    1    4    4    0    0 -0.78013848787E-01 -0.64804351676E-01 -0.52219535440E-02  0.10155439192E+00  0.51100000000E-03 0. -1.
         11    1    4    4    0    0 -0.22266546359E-01 -0.14225790767E-01  0.80484813203E-02  0.27626280645E-01  0.51100000000E-03 0.  1.
</event>
<event>
 8    1  0.1123191E+005  0.1043930E+01  0.7957747E-01            NaN
         13   -1    0    0    0    0  0.00000000000E+00  0.00000000000E+00  0.74505805969E-08  0.10566000000E+00  0.10566000000E+00 0.  1.
     999900   -1    0    0    0    0 -0.00000000000E+00 -0.00000000000E+00 -0.74505805969E-08  0.93827000000E+00  0.93827000000E+00 0. -1.
     999902    2    1    2    0    0 -0.21084228339E-01 -0.20996281354E-02  0.13746921709E-01  0.10186727044E+01  0.10183595376E+01 0.  0.
     999903    2    3    3    0    0  0.45199207653E-01  0.15344879951E-01  0.11891620816E+00  0.12976416945E+00  0.20475385130E-01 0.  0.
         14    1    1    2    0    0  0.21084228339E-01  0.20996281354E-02 -0.13746921709E-01  0.25257295569E-01  0.00000000000E+00 0. -1.
     999901    1    3    3    0    0 -0.66283435993E-01 -0.17444508086E-01 -0.10516928645E+00  0.88890853498E+00  0.88000000000E+00 0. -1.
        -11    1    4    4    0    0  0.16786211420E-01  0.16376713346E-01  0.56473106614E-01  0.61151014100E-01  0.51100000000E-03 0.  1.
         11    1    4    4    0    0  0.28412996233E-01 -0.10318333954E-02  0.62443101548E-01  0.68613155350E-01  0.51100000000E-03 0. -1.
</event>
<event>
 8    1  0.1123191E+005  0.1043930E+01  0.7957747E-01            NaN
         13   -1    0    0    0    0  0.00000000000E+00  0.00000000000E+00  0.74505805969E-08  0.10566000000E+00  0.10566000000E+00 0.  1.
     999900   -1    0    0    0    0 -0.00000000000E+00 -0.00000000000E+00 -0.74505805969E-08  0.93827000000E+00  0.93827000000E+00 0.  1.
     999902    2    1    2    0    0  0.14978415399E-01  0.92502266818E-02 -0.16745774671E-01  0.10196330745E+01  0.10193435466E+01 0.  0.
     999903    2    3    3    0    0  0.12844549173E+00 -0.60063243949E-02 -0.26113057000E-01  0.13216742118E+00  0.15874986513E-01 0.  0.
         14    1    1    2    0    0 -0.14978415399E-01 -0.92502266818E-02  0.16745774671E-01  0.24296925543E-01  0.00000000000E+00 0.  1.
     999901    1    3    3    0    0 -0.11346707633E+00  0.15256551077E-01  0.93672823284E-02  0.88746565327E+00  0.88000000000E+00 0.  1.
        -11    1    4    4    0    0  0.85893444352E-01 -0.49728463377E-03 -0.10640856679E-01  0.86552989703E-01  0.51100000000E-03 0.  1.
         11    1    4    4    0    0  0.42552047381E-01 -0.55090397611E-02 -0.15472200321E-01  0.45614431479E-01  0.51100000000E-03 0. -1.
</event>
<event>
 8    1  0.1123191E+005  0.1043930E+01  0.7957747E-01            NaN
         13   -1    0    0    0    0  0.00000000000E+00  0.00000000000E+00  0.74505805969E-08  0.10566000000E+00  0.10566000000E+00 0. -1.
     999900   -1    0    0    0    0 -0.00000000000E+00 -0.00000000000E+00 -0.74505805969E-08  0.93827000000E+00  0.93827000000E+00 0.  1.
     999902    2    1    2    0    0 -0.11776543091E-01  0.39888181734E-02 -0.20434424390E-01  0.10200100640E+01  0.10197295560E+01 0.  0.
     999903    2    3    3    0    0  0.10663448153E+00  0.61915673647E-01 -0.39038579034E-01  0.12999725180E+00  0.13069488397E-01 0.  0.
         14    1    1    2    0    0  0.11776543091E-01 -0.39888181734E-02  0.20434424390E-01  0.23919935989E-01  0.00000000000E+00 0. -1.
     999901    1    3    3    0    0 -0.11841102462E+00 -0.57926855474E-01  0.18604154645E-01  0.89001281222E+00  0.88000000000E+00 0. -1.
        -11    1    4    4    0    0  0.90491733458E-01  0.49972676286E-01 -0.28102480407E-01  0.10712624667E+00  0.51100000000E-03 0.  1.
         11    1    4    4    0    0  0.16142748072E-01  0.11942997362E-01 -0.10936098628E-01  0.22871005127E-01  0.51100000000E-03 0. -1.
</event>
<event>
 8    1  0.1123191E+005  0.1043930E+01  0.7957747E-01            NaN
         13   -1    0    0    0    0  0.00000000000E+00  0.00000000000E+00  0.74505805969E-08  0.10566000000E+00  0.10566000000E+00 0.  1.
     999900   -1    0    0    0    0 -0.00000000000E+00 -0.00000000000E+00 -0.74505805969E-08  0.93827000000E+00  0.93827000000E+00 0.  1.
     999902    2    1    2    0    0 -0.31794494117E-02 -0.13335562016E-01  0.19709970523E-01  0.10199210631E+01  0.10196384388E+01 0.  0.
     999903    2    3    3    0    0  0.12904663305E-01  0.15877987505E-01 -0.12446671632E+00  0.12756516595E+00  0.19033319986E-01 0.  0.
         14    1    1    2    0    0  0.31794494117E-02  0.13335562016E-01 -0.19709970523E-01  0.24008936896E-01  0.00000000000E+00 0. -1.
     999901    1    3    3    0    0 -0.16084112716E-01 -0.29213549520E-01  0.14417668684E+00  0.89235589715E+00  0.88000000000E+00 0. -1.
        -11    1    4    4    0    0  0.10294646012E-02  0.68953532489E-02 -0.86467449857E-01  0.86749563109E-01  0.51100000000E-03 0. -1.
         11    1    4    4    0    0  0.11875198704E-01  0.89826342559E-02 -0.37999266464E-01  0.40815602841E-01  0.51100000000E-03 0.  1.
</event>
<event>
 8    1  0.1123191E+005  0.1043930E+01  0.7957747E-01            NaN
         13   -1    0    0    0    0  0.00000000000E+00  0.00000000000E+00  0.74505805969E-08  0.10566000000E+00  0.10566000000E+00 0. -1.
     999900   -1    0    0    0    0 -0.00000000000E+00 -0.00000000000E+00 -0.74505805969E-08  0.93827000000E+00  0.93827000000E+00 0. -1.
     999902    2    1    2    0    0 -0.16497670987E-01 -0.16455980146E-01 -0.65531373515E-04  0.10206281390E+01  0.10203621031E+01 0.  0.
     999903    2    3    3    0    0  0.44489165076E-01  0.80433317953E-01  0.87992856085E-01  0.12885394683E+00  0.20292669767E-01 0.  0.
         14    1    1    2    0    0  0.16497670987E-01  0.16455980146E-01  0.65531373515E-04  0.23301860975E-01  0.00000000000E+00 0.  1.
     999901    1    3    3    0    0 -0.60986836063E-01 -0.96889298098E-01 -0.88058387458E-01  0.89177419219E+00  0.88000000000E+00 0. -1.
        -11    1    4    4    0    0  0.37232651202E-01  0.62507164566E-01  0.57472763116E-01  0.92718906156E-01  0.51100000000E-03 0. -1.
         11    1    4    4    0    0  0.72565138738E-02  0.17926153387E-01  0.30520092969E-01  0.36135040676E-01  0.51100000000E-03 0.  1.
</event>
<event>
 8    1  0.1123191E+005  0.1043930E+01  0.7957747E-01            NaN
         13   -1    0    0    0    0  0.00000000000E+00  0.00000000000E+00  0.74505805969E-08  0.10566000000E+00  0.10566000000E+00 0. -1.
     999900   -1    0    0    0    0 -0.00000000000E+00 -0.00000000000E+00 -0.74505805969E-08  0.93827000000E+00  0.93827000000E+00 0.  1.
     999902    2    1    2    0    0 -0.30018058899E-01 -0.17000550483E-01 -0.32327204525E-02  0.10092810021E+01  0.10086860701E+01 0.  0.
     999903    2    3    3    0    0 -0.13899364229E-01 -0.58860684099E-02 -0.11873876366E+00  0.12151696244E+00  0.20967594952E-01 0.  0.
         14    1    1    2    0    0  0.30018058899E-01  0.17000550483E-01  0.32327204525E-02  0.34648997941E-01  0.00000000000E+00 0. -1.
     999901    1    3    3    0    0 -0.16118694669E-01 -0.11114482074E-01  0.11550604320E+00  0.88776403962E+00  0.88000000000E+00 0. -1.
        -11    1    4    4    0    0  0.43420984859E-02 -0.58539981106E-02 -0.42586079337E-01  0.43208313870E-01  0.51100000000E-03 0. -1.
         11    1    4    4    0    0 -0.18241462715E-01 -0.32070299271E-04 -0.76152684319E-01  0.78308648567E-01  0.51100000000E-03 0.  1.
</event>
<event>
 8    1  0.1123191E+005  0.1043930E+01  0.7957747E-01            NaN
         13   -1    0    0    0    0  0.00000000000E+00  0.00000000000E+00  0.74505805969E-08  0.10566000000E+00  0.10566000000E+00 0. -1.
     999900   -1    0    0    0    0 -0.00000000000E+00 -0.00000000000E+00 -0.74505805969E-08  0.93827000000E+00  0.93827000000E+00 0.  1.
     999902    2    1    2    0    0  0.71904033081E-02  0.18898926859E-01  0.16039860368E-01  0.10181201481E+01  0.10177929492E+01 0.  0.
     999903    2    3    3    0    0 -0.52806443537E-01 -0.11285911240E+00 -0.35443563739E-02  0.12607567379E+00  0.18889503152E-01 0.  0.
         14    1    1    2    0    0 -0.71904033081E-02 -0.18898926859E-01 -0.16039860368E-01  0.25809851932E-01  0.00000000000E+00 0.  1.
     999901    1    3    3    0    0  0.59996846845E-01  0.13175803926E+00  0.19584216742E-01  0.89204447428E+00  0.88000000000E+00 0. -1.
        -11    1    4    4    0    0 -0.38532081652E-01 -0.73427275506E-01  0.57323534892E-02  0.83122843444E-01  0.51100000000E-03 0.  1.
         11    1    4    4    0    0 -0.14274361885E-01 -0.39431836893E-01 -0.92767098631E-02  0.42952830348E-01  0.51100000000E-03 0. -1.
</event>
<event>
 8    1  0.1123191E+005  0.1043930E+01  0.7957747E-01            NaN
         13   -1    0    0    0    0  0.00000000000E+00  0.00000000000E+00  0.74505805969E-08  0.10566000000E+00  0.10566000000E+00 0. -1.
     999900   -1    0    0    0    0 -0.00000000000E+00 -0.00000000000E+00 -0.74505805969E-08  0.93827000000E+00  0.93827000000E+00 0. -1.
     999902    2    1    2    0    0  0.92043054544E-02  0.12209048175E-01 -0.17596218404E-01  0.10206189083E+01  0.10203526591E+01 0.  0.
     999903    2    3    3    0    0  0.53318905794E-01 -0.10524120010E+00 -0.52478133021E-01  0.13103619330E+00  0.22313977549E-01 0.  0.
         14    1    1    2    0    0 -0.92043054544E-02 -0.12209048175E-01  0.17596218404E-01  0.23311091745E-01  0.00000000000E+00 0. -1.
     999901    1    3    3    0    0 -0.44114600339E-01  0.11745024828E+00  0.34881914616E-01  0.88958271496E+00  0.88000000000E+00 0. -1.
        -11    1    4    4    0    0  0.18450271939E-01 -0.60912683435E-01 -0.29013599689E-01  0.69948678513E-01  0.51100000000E-03 0.  1.
         11    1    4    4    0    0  0.34868633854E-01 -0.44328516669E-01 -0.23464533332E-01  0.61087514784E-01  0.51100000000E-03 0. -1.
</event>
<event>
 8    1  0.1123191E+005  0.1043930E+01  0.7957747E-01            NaN
         13   -1    0    0    0    0  0.00000000000E+00  0.00000000000E+00  0.74505805969E-08  0.10566000000E+00  0.10566000000E+00 0. -1.
     999900   -1    0    0    0    0 -0.00000000000E+00 -0.00000000000E+00 -0.74505805969E-08  0.93827000000E+00  0.93827000000E+00 0.  1.
     999902    2    1    2    0    0 -0.13126819119E-01  0.39916955926E-02 -0.19354191492E-01  0.10202059248E+01  0.10199300453E+01 0.  0.
     999903    2    3    3    0    0 -0.11144377595E+00  0.13090369515E-01  0.63985320160E-01  0.13077100082E+00  0.20392657688E-01 0.  0.
         14    1    1    2    0    0  0.13126819119E-01 -0.39916955926E-02  0.19354191492E-01  0.23724075160E-01  0.00000000000E+00 0.  1.
     999901    1    3    3    0    0  0.98316956828E-01 -0.90986739227E-02 -0.83339511652E-01  0.88943492402E+00  0.88000000000E+00 0.  1.
        -11    1    4    4    0    0 -0.88530369363E-01  0.67071559123E-02  0.41388005088E-01  0.97958360165E-01  0.51100000000E-03 0. -1.
         11    1    4    4    0    0 -0.22913406584E-01  0.63832136030E-02  0.22597315072E-01  0.32812640654E-01  0.51100000000E-03 0.  1.
</event>
<event>
 8    1  0.1123191E+005  0.1043930E+01  0.7957747E-01            NaN
         13   -1    0    0    0    0  0.00000000000E+00  0.00000000000E+00  0.74505805969E-08  0.10566000000E+00  0.10566000000E+00 0. -1.
     999900   -1    0    0    0    0 -0.00000000000E+00 -0.00000000000E+00 -0.74505805969E-08  0.93827000000E+00  0.93827000000E+00 0.  1.
     999902    2    1    2    0    0  0.16461740648E-01  0.16333774224E-01 -0.33756285999E-02  0.10204954965E+01  0.10202263878E+01 0.  0.
     999903    2    3    3    0    0 -0.18579566470E-01 -0.11699414773E+00  0.45288313154E-01  0.12843473220E+00  0.20288376837E-01 0.  0.
         14    1    1    2    0    0 -0.16461740648E-01 -0.16333774224E-01  0.33756285999E-02  0.23434503494E-01  0.00000000000E+00 0. -1.
     999901    1    3    3    0    0  0.35041307118E-01  0.13332792196E+00 -0.48663941754E-01  0.89206076430E+00  0.88000000000E+00 0. -1.
        -11    1    4    4    0    0  0.53389362720E-04 -0.38179918994E-01  0.68718157645E-02  0.38796804478E-01  0.51100000000E-03 0. -1.
         11    1    4    4    0    0 -0.18632955833E-01 -0.78814228737E-01  0.38416497389E-01  0.89637927727E-01  0.51100000000E-03 0.  1.
</event>
<event>
 8    1  0.1123191E+005  0.1043930E+01  0.7957747E-01            NaN
         13   -1    0    0    0    0  0.00000000000E+00  0.00000000000E+00  0.74505805969E-08  0.10566000000E+00  0.10566000000E+00 0.  1.
     999900   -1    0    0    0    0 -0.00000000000E+00 -0.00000000000E+00 -0.74505805969E-08  0.93827000000E+00  0.93827000000E+00 0.  1.
     999902    2    1    2    0    0 -0.98579211857E-02 -0.16624749766E-01 -0.84994800534E-02  0.10228159744E+01  0.10225980224E+01 0.  0.
     999903    2    3    3    0    0  0.39816776250E-01 -0.10584382836E+00 -0.70795421348E-01  0.13472340951E+00  0.18711325816E-01 0.  0.
         14    1    1    2    0    0  0.98579211857E-02  0.16624749766E-01  0.84994800534E-02  0.21114025577E-01  0.00000000000E+00 0.  1.
     999901    1    3    3    0    0 -0.49674697435E-01  0.89219078593E-01  0.62295941295E-01  0.88809256491E+00  0.88000000000E+00 0. -1.
        -11    1    4    4    0    0  0.12631741278E-01 -0.35659574732E-01 -0.13651190103E-01  0.40221664188E-01  0.51100000000E-03 0. -1.
         11    1    4    4    0    0  0.27185034972E-01 -0.70184253627E-01 -0.57144231245E-01  0.94501745324E-01  0.51100000000E-03 0.  1.
</event>
<event>
 8    1  0.1123191E+005  0.1043930E+01  0.7957747E-01            NaN
         13   -1    0    0    0    0  0.00000000000E+00  0.00000000000E+00  0.74505805969E-08  0.10566000000E+00  0.10566000000E+00 0. -1.
     999900   -1    0    0    0    0 -0.00000000000E+00 -0.00000000000E+00 -0.74505805969E-08  0.93827000000E+00  0.93827000000E+00 0. -1.
     999902    2    1    2    0    0  0.10390280569E-02 -0.18099012243E-01  0.14600868456E-01  0.10206525606E+01  0.10203870885E+01 0.  0.
     999903    2    3    3    0    0  0.10895669329E+00 -0.23641260384E-01  0.68540248351E-01  0.13240349890E+00  0.20061173240E-01 0.  0.
         14    1    1    2    0    0 -0.10390280569E-02  0.18099012243E-01 -0.14600868456E-01  0.23277439360E-01  0.00000000000E+00 0.  1.
     999901    1    3    3    0    0 -0.10791766523E+00  0.55422481406E-02 -0.53939379895E-01  0.88824906174E+00  0.88000000000E+00 0. -1.
        -11    1    4    4    0    0  0.27517327765E-01 -0.14840835973E-01  0.21436829573E-01  0.37911113448E-01  0.51100000000E-03 0.  1.
         11    1    4    4    0    0  0.81439365522E-01 -0.88004244106E-02  0.47103418777E-01  0.94492385450E-01  0.51100000000E-03 0. -1.
</event>
<event>
 8    1  0.1123191E+005  0.1043930E+01  0.7957747E-01            NaN
         13   -1    0    0    0    0  0.00000000000E+00  0.00000000000E+00  0.74505805969E-08  0.10566000000E+00  0.10566000000E+00 0. -1.
     999900   -1    0    0    0    0 -0.00000000000E+00 -0.00000000000E+00 -0.74505805969E-08  0.93827000000E+00  0.93827000000E+00 0. -1.
     999902    2    1    2    0    0 -0.17593246692E-02  0.14084347942E-01  0.18654307828E-01  0.10204897082E+01  0.10202204650E+01 0.  0.
     999903    2    3    3    0    0  0.83118968665E-01  0.40641719595E-01  0.93193786889E-01  0.13287168639E+00  0.20230936824E-01 0.  0.
         14    1    1    2    0    0  0.17593246692E-02 -0.14084347942E-01 -0.18654307828E-01  0.23440291823E-01  0.00000000000E+00 0.  1.
     999901    1    3    3    0    0 -0.84878293335E-01 -0.26557371653E-01 -0.74539479061E-01  0.88761802179E+00  0.88000000000E+00 0. -1.
        -11    1    4    4    0    0  0.24813128579E-01  0.51895228149E-02  0.34804044736E-01  0.43060482439E-01  0.51100000000E-03 0. -1.
         11    1    4    4    0    0  0.58305840087E-01  0.35452196780E-01  0.58389742153E-01  0.89811203947E-01  0.51100000000E-03 0.  1.
</event>
<event>
 8    1  0.1123191E+005  0.1043930E+01  0.7957747E-01            NaN
         13   -1    0    0    0    0  0.00000000000E+00  0.00000000000E+00  0.74505805969E-08  0.10566000000E+00  0.10566000000E+00 0.  1.
     999900   -1    0    0    0    0 -0.00000000000E+00 -0.00000000000E+00 -0.74505805969E-08  0.93827000000E+00  0.93827000000E+00 0.  1.
     999902    2    1    2    0    0  0.10116271681E-01  0.10947209842E-01  0.18204536057E-01  0.10204016025E+01  0.10201303078E+01 0.  0.
     999903    2    3    3    0    0 -0.24323874341E-02 -0.55604831247E-02 -0.12659365262E+00  0.12832734089E+00  0.20127544708E-01 0.  0.
         14    1    1    2    0    0 -0.10116271681E-01 -0.10947209842E-01 -0.18204536057E-01  0.23528397504E-01  0.00000000000E+00 0. -1.
     999901    1    3    3    0    0  0.12548659115E-01  0.16507692967E-01  0.14479818868E+00  0.89207426160E+00  0.88000000000E+00 0. -1.
        -11    1    4    4    0    0 -0.33179123837E-02 -0.10511024120E-01 -0.37481054845E-01  0.39071482745E-01  0.51100000000E-03 0. -1.
         11    1    4    4    0    0  0.88552494964E-03  0.49505409952E-02 -0.89112597774E-01  0.89255858147E-01  0.51100000000E-03 0.  1.
</event>
<event>
 7    1  0.1123191E+005  0.1043930E+01  0.7957747E-01            NaN
         13   -1    0    0    0    0  0.00000000000E+00  0.00000000000E+00  0.74505805969E-08  0.10566000000E+00  0.10566000000E+00 0. -1.
     999900   -1    0    0    0    0 -0.00000000000E+00 -0.00000000000E+00 -0.74505805969E-08  0.93827000000E+00  0.93827000000E+00 0. -1.
     999903    2    1    2    0    0 -0.10140171814E-01  0.73144241253E-01  0.42688310178E-02  0.76771544064E-01  0.20560737992E-01 0.  0.
         14    1    1    2    0    0 -0.16852472108E-01  0.18822709628E-01  0.74296434359E-01  0.78474584245E-01  0.00000000000E+00 0. -1.
     999901    1    1    2    0    0  0.26992643922E-01 -0.91966950881E-01 -0.78565265377E-01  0.88868387169E+00  0.88000000000E+00 0. -1.
        -11    1    3    3    0    0  0.60345079124E-02  0.26907495443E-01  0.32768618791E-02  0.27774584453E-01  0.51100000000E-03 0.  1.
         11    1    3    3    0    0 -0.16174679726E-01  0.46236745811E-01  0.99196913861E-03  0.48996959611E-01  0.51100000000E-03 0. -1.
</event>
<event>
 8    1  0.1123191E+005  0.1043930E+01  0.7957747E-01            NaN
         13   -1    0    0    0    0  0.00000000000E+00  0.00000000000E+00  0.74505805969E-08  0.10566000000E+00  0.10566000000E+00 0. -1.
     999900   -1    0    0    0    0 -0.00000000000E+00 -0.00000000000E+00 -0.74505805969E-08  0.93827000000E+00  0.93827000000E+00 0.  1.
     999902    2    1    2    0    0  0.56261771935E-02 -0.20063252221E-01 -0.11762912366E-01  0.10200018980E+01  0.10197211961E+01 0.  0.
     999903    2    3    3    0    0  0.39996594743E-01  0.11708014793E+00 -0.28195382293E-01  0.12856504441E+00  0.20651935341E-01 0.  0.
         14    1    1    2    0    0 -0.56261771935E-02  0.20063252221E-01  0.11762912366E-01  0.23928102032E-01  0.00000000000E+00 0. -1.
     999901    1    3    3    0    0 -0.34370417549E-01 -0.13714340015E+00  0.16432469927E-01  0.89143685355E+00  0.88000000000E+00 0. -1.
        -11    1    4    4    0    0  0.12391348981E-01  0.41606581554E-01 -0.55517504498E-04  0.43415634988E-01  0.51100000000E-03 0. -1.
         11    1    4    4    0    0  0.27605245762E-01  0.75473566372E-01 -0.28139864788E-01  0.85149409427E-01  0.51100000000E-03 0.  1.
</event>
<event>
 7    1  0.1123191E+005  0.1043930E+01  0.7957747E-01            NaN
         13   -1    0    0    0    0  0.00000000000E+00  0.00000000000E+00  0.74505805969E-08  0.10566000000E+00  0.10566000000E+00 0. -1.
     999900   -1    0    0    0    0 -0.00000000000E+00 -0.00000000000E+00 -0.74505805969E-08  0.93827000000E+00  0.93827000000E+00 0.  1.
     999903    2    1    2    0    0 -0.93736481236E-01 -0.27159705556E-01 -0.27060760647E-01  0.10336955766E+00  0.20707562975E-01 0.  0.
         14    1    1    2    0    0 -0.34177319246E-01 -0.21929120585E-01  0.29097301103E-01  0.49956264992E-01  0.00000000000E+00 0. -1.
     999901    1    1    2    0    0  0.12791380048E+00  0.49088826141E-01 -0.20365404561E-02  0.89060417734E+00  0.88000000000E+00 0. -1.
        -11    1    3    3    0    0 -0.62174878347E-01 -0.21086887112E-01 -0.27599263221E-01  0.71220451816E-01  0.51100000000E-03 0.  1.
         11    1    3    3    0    0 -0.31561602890E-01 -0.60728184434E-02  0.53850257360E-03  0.32149105848E-01  0.51100000000E-03 0. -1.
</event>
<event>
 8    1  0.1123191E+005  0.1043930E+01  0.7957747E-01            NaN
         13   -1    0    0    0    0  0.00000000000E+00  0.00000000000E+00  0.74505805969E-08  0.10566000000E+00  0.10566000000E+00 0. -1.
     999900   -1    0    0    0    0 -0.00000000000E+00 -0.00000000000E+00 -0.74505805969E-08  0.93827000000E+00  0.93827000000E+00 0. -1.
     999902    2    1    2    0    0 -0.17963347239E-01 -0.13821669604E-01 -0.60381507456E-02  0.10204740912E+01  0.10202044849E+01 0.  0.
     999903    2    3    3    0    0  0.49785481016E-01 -0.82094748964E-01  0.85905966909E-01  0.13047137327E+00  0.20610729364E-01 0.  0.
         14    1    1    2    0    0  0.17963347239E-01  0.13821669604E-01  0.60381507456E-02  0.23455908831E-01  0.00000000000E+00 0. -1.
     999901    1    3    3    0    0 -0.67748828255E-01  0.68273079360E-01 -0.91944117655E-01  0.89000271790E+00  0.88000000000E+00 0. -1.
        -11    1    4    4    0    0  0.46550439713E-01 -0.60547357324E-01  0.68122258291E-01  0.10234172713E+00  0.51100000000E-03 0. -1.
         11    1    4    4    0    0  0.32350413035E-02 -0.21547391641E-01  0.17783708619E-01  0.28129646141E-01  0.51100000000E-03 0.  1.
</event>
<event>
 8    1  0.1123191E+005  0.1043930E+01  0.7957747E-01            NaN
         13   -1    0    0    0    0  0.00000000000E+00  0.00000000000E+00  0.74505805969E-08  0.10566000000E+00  0.10566000000E+00 0.  1.
     999900   -1    0    0    0    0 -0.00000000000E+00 -0.00000000000E+00 -0.74505805969E-08  0.93827000000E+00  0.93827000000E+00 0. -1.
     999902    2    1    2    0    0  0.20407101982E-01 -0.88122443004E-02  0.60328737572E-02  0.10208973921E+01  0.10206375381E+01 0.  0.
     999903    2    3    3    0    0  0.23232203731E-01 -0.53475304840E-01  0.11736046761E+00  0.13275517188E+00  0.21239415877E-01 0.  0.
         14    1    1    2    0    0 -0.20407101982E-01  0.88122443004E-02 -0.60328737572E-02  0.23032607900E-01  0.00000000000E+00 0.  1.
     999901    1    3    3    0    0 -0.28251017491E-02  0.44663060539E-01 -0.11132759385E+00  0.88814222022E+00  0.88000000000E+00 0. -1.
        -11    1    4    4    0    0  0.10501379597E-02  0.10561593565E-02  0.11654503671E-01  0.11760392814E-01  0.51100000000E-03 0. -1.
         11    1    4    4    0    0  0.22182065771E-01 -0.54531464196E-01  0.10570596394E+00  0.12099477907E+00  0.51100000000E-03 0.  1.
</event>
<event>
 8    1  0.1123191E+005  0.1043930E+01  0.7957747E-01            NaN
         13   -1    0    0    0    0  0.00000000000E+00  0.00000000000E+00  0.74505805969E-08  0.10566000000E+00  0.10566000000E+00 0. -1.
     999900   -1    0    0    0    0 -0.00000000000E+00 -0.00000000000E+00 -0.74505805969E-08  0.93827000000E+00  0.93827000000E+00 0.  1.
     999902    2    1    2    0    0  0.92854019123E-02 -0.17426326281E-01  0.91857618417E-02  0.10221521728E+01  0.10219201489E+01 0.  0.
     999903    2    3    3    0    0 -0.46805165928E-01  0.10672865573E+00 -0.52808950284E-01  0.12951341291E+00  0.20080074210E-01 0.  0.
         14    1    1    2    0    0 -0.92854019123E-02  0.17426326281E-01 -0.91857618417E-02  0.21777827186E-01  0.00000000000E+00 0. -1.
     999901    1    3    3    0    0  0.56090567841E-01 -0.12415498201E+00  0.61994712126E-01  0.89263875991E+00  0.88000000000E+00 0. -1.
        -11    1    4    4    0    0 -0.32778851517E-01  0.56434003682E-01 -0.21934780649E-01  0.68852346376E-01  0.51100000000E-03 0. -1.
         11    1    4    4    0    0 -0.14026314411E-01  0.50294652051E-01 -0.30874169635E-01  0.60661066530E-01  0.51100000000E-03 0.  1.
</event>
<event>
 8    1  0.1123191E+005  0.1043930E+01  0.7957747E-01            NaN
         13   -1    0    0    0    0  0.00000000000E+00  0.00000000000E+00  0.74505805969E-08  0.10566000000E+00  0.10566000000E+00 0.  1.
     999900   -1    0    0    0    0 -0.00000000000E+00 -0.00000000000E+00 -0.74505805969E-08  0.93827000000E+00  0.93827000000E+00 0. -1.
     999902    2    1    2    0    0 -0.11494453245E-01  0.52393948474E-02 -0.21323246982E-01  0.10191458402E+01  0.10188444381E+01 0.  0.
     999903    2    3    3    0    0 -0.48306034257E-01  0.94871548032E-01 -0.76405514190E-01  0.13211536074E+00  0.16810186583E-01 0.  0.
         14    1    1    2    0    0  0.11494453245E-01 -0.52393948474E-02  0.21323246982E-01  0.24784159772E-01  0.00000000000E+00 0.  1.
     999901    1    3    3    0    0  0.36811581011E-01 -0.89632153185E-01  0.55082267208E-01  0.88703047949E+00  0.88000000000E+00 0. -1.
        -11    1    4    4    0    0 -0.12508526192E-01  0.37940798746E-01 -0.21981608294E-01  0.45600654175E-01  0.51100000000E-03 0.  1.
         11    1    4    4    0    0 -0.35797508064E-01  0.56930749286E-01 -0.54423905896E-01  0.86514706564E-01  0.51100000000E-03 0. -1.
</event>
<event>
 7    1  0.1123191E+005  0.1043930E+01  0.7957747E-01            NaN
         13   -1    0    0    0    0  0.00000000000E+00  0.00000000000E+00  0.74505805969E-08  0.10566000000E+00  0.10566000000E+00 0.  1.
     999900   -1    0    0    0    0 -0.00000000000E+00 -0.00000000000E+00 -0.74505805969E-08  0.93827000000E+00  0.93827000000E+00 0.  1.
     999903    2    1    2    0    0 -0.66497972836E-01 -0.86267909608E-01 -0.90017036661E-02  0.11106752439E+00  0.19769463494E-01 0.  0.
         14    1    1    2    0    0  0.15420668068E-01 -0.39189954470E-01  0.56488780288E-02  0.42491874024E-01  0.00000000000E+00 0.  1.
     999901    1    1    2    0    0  0.51077304768E-01  0.12545786408E+00  0.33528256373E-02  0.89037060158E+00  0.88000000000E+00 0.  1.
        -11    1    3    3    0    0 -0.40160874702E-01 -0.64855171254E-01 -0.10939763905E-01  0.77065093593E-01  0.51100000000E-03 0. -1.
         11    1    3    3    0    0 -0.26337098134E-01 -0.21412738354E-01  0.19380602384E-02  0.34002430801E-01  0.51100000000E-03 0.  1.
</event>
<event>
 8    1  0.1123191E+005  0.1043930E+01  0.7957747E-01            NaN
         13   -1    0    0    0    0  0.00000000000E+00  0.00000000000E+00  0.74505805969E-08  0.10566000000E+00  0.10566000000E+00 0. -1.
     999900   -1    0    0    0    0 -0.00000000000E+00 -0.00000000000E+00 -0.74505805969E-08  0.93827000000E+00  0.93827000000E+00 0.  1.
     999902    2    1    2    0    0 -0.13908786861E-01 -0.15465472922E-01  0.88876617951E-02  0.10213108546E+01  0.10210603489E+01 0.  0.
     999903    2    3    3    0    0 -0.25307300706E-01 -0.10285515570E+00  0.79712024877E-01  0.13407752953E+00  0.20078209383E-01 0.  0.
         14    1    1    2    0    0  0.13908786861E-01  0.15465472922E-01 -0.88876617951E-02  0.22619145360E-01  0.00000000000E+00 0.  1.
     999901    1    3    3    0    0  0.11398513845E-01  0.87389682780E-01 -0.70824363082E-01  0.88723332511E+00  0.88000000000E+00 0. -1.
        -11    1    4    4    0    0 -0.16227933893E-01 -0.68943729804E-01  0.41103373518E-01  0.81892198367E-01  0.51100000000E-03 0. -1.
         11    1    4    4    0    0 -0.90793668132E-02 -0.33911425898E-01  0.38608651359E-01  0.52185331166E-01  0.51100000000E-03 0.  1.
</event>
<event>
 8    1  0.1123191E+005  0.1043930E+01  0.7957747E-01            NaN
         13   -1    0    0    0    0  0.00000000000E+00  0.00000000000E+00  0.74505805969E-08  0.10566000000E+00  0.10566000000E+00 0. -1.
     999900   -1    0    0    0    0 -0.00000000000E+00 -0.00000000000E+00 -0.74505805969E-08  0.93827000000E+00  0.93827000000E+00 0. -1.
     999902    2    1    2    0    0  0.81502762262E-02  0.19617700328E-01  0.10111447511E-01  0.10204029403E+01  0.10201316768E+01 0.  0.
     999903    2    3    3    0    0  0.47549489153E-01  0.12260751841E+00  0.11610899712E-01  0.13351994406E+00  0.19980114631E-01 0.  0.
         14    1    1    2    0    0 -0.81502762262E-02 -0.19617700328E-01 -0.10111447511E-01  0.23527059729E-01  0.00000000000E+00 0. -1.
     999901    1    3    3    0    0 -0.39399212926E-01 -0.10298981808E+00 -0.14994522012E-02  0.88688299621E+00  0.88000000000E+00 0.  1.
        -11    1    4    4    0    0  0.48107769785E-01  0.10694815159E+00  0.88868946723E-02  0.11760740903E+00  0.51100000000E-03 0.  1.
         11    1    4    4    0    0 -0.55828063266E-03  0.15659366824E-01  0.27240050394E-02  0.15912535029E-01  0.51100000000E-03 0. -1.
</event>
<event>
 8    1  0.1123191E+005  0.1043930E+01  0.7957747E-01            NaN
         13   -1    0    0    0    0  0.00000000000E+00  0.00000000000E+00  0.74505805969E-08  0.10566000000E+00  0.10566000000E+00 0. -1.
     999900   -1    0    0    0    0 -0.00000000000E+00 -0.00000000000E+00 -0.74505805969E-08  0.93827000000E+00  0.93827000000E+00 0. -1.
     999902    2    1    2    0    0  0.24006180639E-02 -0.21513205818E-01  0.69782924934E-02  0.10211862633E+01  0.10209329590E+01 0.  0.
     999903    2    3    3    0    0 -0.80996415837E-01 -0.63292180867E-01  0.81991853477E-01  0.13308290090E+00  0.20544462487E-01 0.  0.
         14    1    1    2    0    0 -0.24006180639E-02  0.21513205818E-01 -0.69782924934E-02  0.22743736672E-01  0.00000000000E+00 0.  1.
     999901    1    3    3    0    0  0.83397033900E-01  0.41778975049E-01 -0.75013560984E-01  0.88810336243E+00  0.88000000000E+00 0. -1.
        -11    1    4    4    0    0 -0.18831082369E-01 -0.22715631220E-01  0.32288930424E-01  0.43742950447E-01  0.51100000000E-03 0. -1.
         11    1    4    4    0    0 -0.62165333468E-01 -0.40576549647E-01  0.49702923053E-01  0.89339950456E-01  0.51100000000E-03 0.  1.
</event>
<event>
 8    1  0.1123191E+005  0.1043930E+01  0.7957747E-01            NaN
         13   -1    0    0    0    0  0.00000000000E+00  0.00000000000E+00  0.74505805969E-08  0.10566000000E+00  0.10566000000E+00 0. -1.
     999900   -1    0    0    0    0 -0.00000000000E+00 -0.00000000000E+00 -0.74505805969E-08  0.93827000000E+00  0.93827000000E+00 0.  1.
     999902    2    1    2    0    0 -0.94288154153E-02  0.25097294134E-02 -0.21971175126E-01  0.10198897455E+01  0.10196063746E+01 0.  0.
     999903    2    3    3    0    0  0.30331577863E-01  0.30012167746E-01 -0.12407535568E+00  0.13266793741E+00  0.19630407583E-01 0.  0.
         14    1    1    2    0    0  0.94288154153E-02 -0.25097294134E-02  0.21971175126E-01  0.24040254539E-01  0.00000000000E+00 0.  1.
     999901    1    3    3    0    0 -0.39760393279E-01 -0.27502438332E-01  0.10210418056E+00  0.88722180805E+00  0.88000000000E+00 0. -1.
        -11    1    4    4    0    0  0.23000464627E-01  0.31851265972E-01 -0.10706657248E+00  0.11404839578E+00  0.51100000000E-03 0.  1.
         11    1    4    4    0    0  0.73311132363E-02 -0.18390982266E-02 -0.17008783206E-01  0.18619541635E-01  0.51100000000E-03 0. -1.
</event>
<event>
 8    1  0.1123191E+005  0.1043930E+01  0.7957747E-01            NaN
         13   -1    0    0    0    0  0.00000000000E+00  0.00000000000E+00  0.74505805969E-08  0.10566000000E+00  0.10566000000E+00 0.  1.
     999900   -1    0    0    0    0 -0.00000000000E+00 -0.00000000000E+00 -0.74505805969E-08  0.93827000000E+00  0.93827000000E+00 0.  1.
     999902    2    1    2    0    0 -0.17255937173E-01 -0.13999948392E-01 -0.87279862649E-02  0.10200565070E+01  0.10197771001E+01 0.  0.
     999903    2    3    3    0    0  0.12464245063E+00 -0.57989715869E-02  0.20915811267E-01  0.12815899990E+00  0.20442346352E-01 0.  0.
         14    1    1    2    0    0  0.17255937173E-01  0.13999948392E-01  0.87279862649E-02  0.23873492977E-01  0.00000000000E+00 0.  1.
     999901    1    3    3    0    0 -0.14189838780E+00 -0.82009768051E-02 -0.29643797531E-01  0.89189750712E+00  0.88000000000E+00 0.  1.
        -11    1    4    4    0    0  0.10588573170E+00 -0.11755759695E-01  0.14903836243E-01  0.10757495768E+00  0.51100000000E-03 0.  1.
         11    1    4    4    0    0  0.18756718928E-01  0.59567881086E-02  0.60119750232E-02  0.20584042222E-01  0.51100000000E-03 0. -1.
</event>
<event>
 8    1  0.1123191E+005  0.1043930E+01  0.7957747E-01            NaN
         13   -1    0    0    0    0  0.00000000000E+00  0.00000000000E+00  0.74505805969E-08  0.10566000000E+00  0.10566000000E+00 0.  1.
     999900   -1    0    0    0    0 -0.00000000000E+00 -0.00000000000E+00 -0.74505805969E-08  0.93827000000E+00  0.93827000000E+00 0. -1.
     999902    2    1    2    0    0 -0.46693327644E-02  0.11935097948E-01 -0.19840217697E-01  0.10203104431E+01  0.10200370173E+01 0.  0.
     999903    2    3    3    0    0 -0.53151841859E-01 -0.11502525874E+00  0.14608569564E-01  0.12921212930E+00  0.20650317479E-01 0.  0.
         14    1    1    2    0    0  0.46693327644E-02 -0.11935097948E-01  0.19840217697E-01  0.23619556934E-01  0.00000000000E+00 0.  1.
     999901    1    3    3    0    0  0.48482509094E-01  0.12696035669E+00 -0.34448787262E-01  0.89109831377E+00  0.88000000000E+00 0. -1.
        -11    1    4    4    0    0 -0.25899256566E-01 -0.38831589792E-01  0.12231063238E-01  0.48254780959E-01  0.51100000000E-03 0.  1.
         11    1    4    4    0    0 -0.27252585292E-01 -0.76193668946E-01  0.23775063266E-02  0.80957348338E-01  0.51100000000E-03 0. -1.
</event>
<event>
 7    1  0.1123191E+005  0.1043930E+01  0.7957747E-01            NaN
         13   -1    0    0    0    0  0.00000000000E+00  0.00000000000E+00  0.74505805969E-08  0.10566000000E+00  0.10566000000E+00 0. -1.
     999900   -1    0    0    0    0 -0.00000000000E+00 -0.00000000000E+00 -0.74505805969E-08  0.93827000000E+00  0.93827000000E+00 0. -1.
     999903    2    1    2    0    0  0.88908179193E-01 -0.21108686431E-01  0.72133280457E-01  0.11814610563E+00  0.20125882744E-01 0.  0.
         14    1    1    2    0    0 -0.19122736097E-01  0.33560622561E-01  0.75051127498E-02  0.39348712049E-01  0.00000000000E+00 0.  1.
     999901    1    1    2    0    0 -0.69785443096E-01 -0.12451936130E-01 -0.79638393206E-01  0.88643518232E+00  0.88000000000E+00 0. -1.
        -11    1    3    3    0    0  0.38764716355E-01 -0.16023820751E-01  0.42309635348E-01  0.59580470204E-01  0.51100000000E-03 0. -1.
         11    1    3    3    0    0  0.50143462838E-01 -0.50848656797E-02  0.29823645109E-01  0.58565635427E-01  0.51100000000E-03 0.  1.
</event>
<event>
 8    1  0.1123191E+005  0.1043930E+01  0.7957747E-01            NaN
         13   -1    0    0    0    0  0.00000000000E+00  0.00000000000E+00  0.74505805969E-08  0.10566000000E+00  0.10566000000E+00 0. -1.
     999900   -1    0    0    0    0 -0.00000000000E+00 -0.00000000000E+00 -0.74505805969E-08  0.93827000000E+00  0.93827000000E+00 0. -1.
     999902    2    1    2    0    0 -0.19514728846E-01  0.91117788963E-02  0.94979464402E-02  0.10203915178E+01  0.10201199878E+01 0.  0.
     999903    2    3    3    0    0  0.19380535387E-01  0.19465996796E-01 -0.12470871999E+00  0.12930707697E+00  0.20335317303E-01 0.  0.
         14    1    1    2    0    0  0.19514728846E-01 -0.91117788963E-02 -0.94979464402E-02  0.23538482177E-01  0.00000000000E+00 0. -1.
     999901    1    3    3    0    0 -0.38895264234E-01 -0.10354217900E-01  0.13420666643E+00  0.89108444085E+00  0.88000000000E+00 0.  1.
        -11    1    4    4    0    0  0.38236372807E-02  0.17701923711E-01 -0.57007138238E-01  0.59816830710E-01  0.51100000000E-03 0. -1.
         11    1    4    4    0    0  0.15556898107E-01  0.17640730859E-02 -0.67701581756E-01  0.69490246264E-01  0.51100000000E-03 0.  1.
</event>
<event>
 8    1  0.1123191E+005  0.1043930E+01  0.7957747E-01            NaN
         13   -1    0    0    0    0  0.00000000000E+00  0.00000000000E+00  0.74505805969E-08  0.10566000000E+00  0.10566000000E+00 0. -1.
     999900   -1    0    0    0    0 -0.00000000000E+00 -0.00000000000E+00 -0.74505805969E-08  0.93827000000E+00  0.93827000000E+00 0.  1.
     999902    2    1    2    0    0 -0.19193586807E-01 -0.69474011244E-02 -0.13290618976E-01  0.10195722351E+01  0.10192812379E+01 0.  0.
     999903    2    3    3    0    0  0.17540105771E-01  0.12593026399E+00 -0.55186989101E-02  0.12880501481E+00  0.19854196102E-01 0.  0.
         14    1    1    2    0    0  0.19193586807E-01  0.69474011244E-02  0.13290618976E-01  0.24357764874E-01  0.00000000000E+00 0. -1.
     999901    1    3    3    0    0 -0.36733692578E-01 -0.13287766511E+00 -0.77719200658E-02  0.89076722032E+00  0.88000000000E+00 0. -1.
        -11    1    4    4    0    0  0.87388929772E-02  0.89501825131E-01  0.43943176390E-02  0.90036193282E-01  0.51100000000E-03 0. -1.
         11    1    4    4    0    0  0.88012127939E-02  0.36428438857E-01 -0.99130165491E-02  0.38768821523E-01  0.51100000000E-03 0.  1.
</event>
<event>
 8    1  0.1123191E+005  0.1043930E+01  0.7957747E-01            NaN
         13   -1    0    0    0    0  0.00000000000E+00  0.00000000000E+00  0.74505805969E-08  0.10566000000E+00  0.10566000000E+00 0.  1.
     999900   -1    0    0    0    0 -0.00000000000E+00 -0.00000000000E+00 -0.74505805969E-08  0.93827000000E+00  0.93827000000E+00 0. -1.
     999902    2    1    2    0    0  0.67687700404E-02 -0.12340218945E-01  0.17998909220E-01  0.10210814118E+01  0.10208257400E+01 0.  0.
     999903    2    3    3    0    0  0.99727256087E-01 -0.22013673540E-02  0.86302492463E-01  0.13349510276E+00  0.20553603836E-01 0.  0.
         14    1    1    2    0    0 -0.67687700404E-02  0.12340218945E-01 -0.17998909220E-01  0.22848588240E-01  0.00000000000E+00 0. -1.
     999901    1    3    3    0    0 -0.92958486047E-01 -0.10138851591E-01 -0.68303583243E-01  0.88758630900E+00  0.88000000000E+00 0. -1.
        -11    1    4    4    0    0  0.40119017775E-01  0.17344772028E-02  0.47760768160E-01  0.62401090492E-01  0.51100000000E-03 0. -1.
         11    1    4    4    0    0  0.59608238312E-01 -0.39358445568E-02  0.38541724303E-01  0.71094012268E-01  0.51100000000E-03 0.  1.
</event>
<event>
 8    1  0.1123191E+005  0.1043930E+01  0.7957747E-01            NaN
         13   -1    0    0    0    0  0.00000000000E+00  0.00000000000E+00  0.74505805969E-08  0.10566000000E+00  0.10566000000E+00 0.  1.
     999900   -1    0    0    0    0 -0.00000000000E+00 -0.00000000000E+00 -0.74505805969E-08  0.93827000000E+00  0.93827000000E+00 0.  1.
     999902    2    1    2    0    0  0.10962461628E-03 -0.20775905670E-01  0.23359182962E-02  0.10230229010E+01  0.10228092438E+01 0.  0.
     999903    2    3    3    0    0  0.12410472211E+00 -0.29611695104E-01  0.34866762957E-01  0.13369106686E+00  0.19462159771E-01 0.  0.
         14    1    1    2    0    0 -0.10962461628E-03  0.20775905670E-01 -0.23359182962E-02  0.20907098991E-01  0.00000000000E+00 0. -1.
     999901    1    3    3    0    0 -0.12399509749E+00  0.88357894343E-02 -0.32530844660E-01  0.88933183415E+00  0.88000000000E+00 0.  1.
        -11    1    4    4    0    0  0.88869675611E-01 -0.29595840163E-01  0.28246079896E-01  0.97835755983E-01  0.51100000000E-03 0. -1.
         11    1    4    4    0    0  0.35235046495E-01 -0.15854940773E-04  0.66206830602E-02  0.35855310877E-01  0.51100000000E-03 0.  1.
</event>
<event>
 8    1  0.1123191E+005  0.1043930E+01  0.7957747E-01            NaN
         13   -1    0    0    0    0  0.00000000000E+00  0.00000000000E+00  0.74505805969E-08  0.10566000000E+00  0.10566000000E+00 0.  1.
     999900   -1    0    0    0    0 -0.00000000000E+00 -0.00000000000E+00 -0.74505805969E-08  0.93827000000E+00  0.93827000000E+00 0.  1.
     999902    2    1    2    0    0  0.27886837069E-02 -0.20924669277E-01  0.24250924438E-01  0.10117783923E+01  0.10112674173E+01 0.  0.
     999903    2    3    3    0    0 -0.65712609682E-01  0.60169215889E-01  0.83041850255E-01  0.12345130257E+00  0.20144319293E-01 0.  0.
         14    1    1    2    0    0 -0.27886837069E-02  0.20924669277E-01 -0.24250924438E-01  0.32151607694E-01  0.00000000000E+00 0. -1.
     999901    1    3    3    0    0  0.68501293388E-01 -0.81093885166E-01 -0.58790925817E-01  0.88832708974E+00  0.88000000000E+00 0. -1.
        -11    1    4    4    0    0 -0.41282444529E-01  0.30022532491E-01  0.58009316044E-01  0.77271822500E-01  0.51100000000E-03 0.  1.
         11    1    4    4    0    0 -0.24430165152E-01  0.30146683397E-01  0.25032534211E-01  0.46179480067E-01  0.51100000000E-03 0. -1.
</event>
<event>
 8    1  0.1123191E+005  0.1043930E+01  0.7957747E-01            NaN
         13   -1    0    0    0    0  0.00000000000E+00  0.00000000000E+00  0.74505805969E-08  0.10566000000E+00  0.10566000000E+00 0.  1.
     999900   -1    0    0    0    0 -0.00000000000E+00 -0.00000000000E+00 -0.74505805969E-08  0.93827000000E+00  0.93827000000E+00 0. -1.
     999902    2    1    2    0    0  0.16292014179E-01 -0.72309632118E-02  0.12974753848E-01  0.10218832136E+01  0.10216453599E+01 0.  0.
     999903    2    3    3    0    0  0.55938567987E-01 -0.10518392908E+00  0.58859267274E-01  0.13437432835E+00  0.19981602777E-01 0.  0.
         14    1    1    2    0    0 -0.16292014179E-01  0.72309632118E-02 -0.12974753848E-01  0.22046786441E-01  0.00000000000E+00 0. -1.
     999901    1    3    3    0    0 -0.39646553808E-01  0.97952965872E-01 -0.45884513425E-01  0.88750888521E+00  0.88000000000E+00 0. -1.
        -11    1    4    4    0    0  0.31176640335E-01 -0.40870010673E-01  0.19301153982E-01  0.54910257157E-01  0.51100000000E-03 0.  1.
         11    1    4    4    0    0  0.24761927652E-01 -0.64313918411E-01  0.39558113292E-01  0.79464071193E-01  0.51100000000E-03 0. -1.
</event>
<event>
 8    1  0.1123191E+005  0.1043930E+01  0.7957747E-01            NaN
         13   -1    0    0    0    0  0.00000000000E+00  0.00000000000E+00  0.74505805969E-08  0.10566000000E+00  0.10566000000E+00 0. -1.
     999900   -1    0    0    0    0 -0.00000000000E+00 -0.00000000000E+00 -0.74505805969E-08  0.93827000000E+00  0.93827000000E+00 0. -1.
     999902    2    1    2    0    0 -0.39122941982E-02  0.31022903129E-01 -0.45609577883E-02  0.10123304921E+01  0.10118371886E+01 0.  0.
     999903    2    3    3    0    0  0.97307711672E-01 -0.63090049441E-01  0.28129337986E-01  0.12094315043E+00  0.19668271170E-01 0.  0.
         14    1    1    2    0    0  0.39122941982E-02 -0.31022903129E-01  0.45609577883E-02  0.31599507914E-01  0.00000000000E+00 0.  1.
     999901    1    3    3    0    0 -0.10122000587E+00  0.94112952570E-01 -0.32690295775E-01  0.89138734166E+00  0.88000000000E+00 0.  1.
        -11    1    4    4    0    0  0.79784535533E-01 -0.43015988813E-01  0.25503525432E-01  0.94162828835E-01  0.51100000000E-03 0.  1.
         11    1    4    4    0    0  0.17523176139E-01 -0.20074060628E-01  0.26258125542E-02  0.26780321594E-01  0.51100000000E-03 0. -1.
</event>
<event>
 8    1  0.1123191E+005  0.1043930E+01  0.7957747E-01            NaN
         13   -1    0    0    0    0  0.00000000000E+00  0.00000000000E+00  0.74505805969E-08  0.10566000000E+00  0.10566000000E+00 0. -1.
     999900   -1    0    0    0    0 -0.00000000000E+00 -0.00000000000E+00 -0.74505805969E-08  0.93827000000E+00  0.93827000000E+00 0. -1.
     999902    2    1    2    0    0  0.87390201754E-02 -0.28594838491E-01 -0.10977630980E-01  0.10120780983E+01  0.10115767560E+01 0.  0.
     999903    2    3    3    0    0  0.60493803718E-01 -0.10769700356E+00 -0.20019737372E-01  0.12696936493E+00  0.21500811219E-01 0.  0.
         14    1    1    2    0    0 -0.87390201754E-02  0.28594838491E-01  0.10977630980E-01  0.31851901731E-01  0.00000000000E+00 0.  1.
     999901    1    3    3    0    0 -0.51754783543E-01  0.79102165068E-01  0.90421063919E-02  0.88510873334E+00  0.88000000000E+00 0. -1.
        -11    1    4    4    0    0  0.60461996852E-01 -0.98359386190E-01 -0.21668664290E-01  0.11747346104E+00  0.51100000000E-03 0. -1.
         11    1    4    4    0    0  0.31806866707E-04 -0.93376173698E-02  0.16489269181E-02  0.94959038961E-02  0.51100000000E-03 0.  1.
</event>
<event>
 8    1  0.1123191E+005  0.1043930E+01  0.7957747E-01            NaN
         13   -1    0    0    0    0  0.00000000000E+00  0.00000000000E+00  0.74505805969E-08  0.10566000000E+00  0.10566000000E+00 0. -1.
     999900   -1    0    0    0    0 -0.00000000000E+00 -0.00000000000E+00 -0.74505805969E-08  0.93827000000E+00  0.93827000000E+00 0.  1.
     999902    2    1    2    0    0  0.21213507458E-01 -0.71530068227E-02  0.70950936042E-05  0.10215429847E+01  0.10212976506E+01 0.  0.
     999903    2    3    3    0    0 -0.52477097264E-01  0.91790293313E-01 -0.72701530602E-01  0.12996762267E+00  0.20658332625E-01 0.  0.
         14    1    1    2    0    0 -0.21213507458E-01  0.71530068227E-02 -0.70950936041E-05  0.22387015335E-01  0.00000000000E+00 0. -1.
     999901    1    3    3    0    0  0.73690604722E-01 -0.98943300136E-01  0.72708625695E-01  0.89157536200E+00  0.88000000000E+00 0. -1.
        -11    1    4    4    0    0 -0.38855534697E-01  0.57096491026E-01 -0.56882667512E-01  0.89474358608E-01  0.51100000000E-03 0.  1.
         11    1    4    4    0    0 -0.13621562568E-01  0.34693802287E-01 -0.15818863090E-01  0.40493264062E-01  0.51100000000E-03 0. -1.
</event>
<event>
 8    1  0.1123191E+005  0.1043930E+01  0.7957747E-01            NaN
         13   -1    0    0    0    0  0.00000000000E+00  0.00000000000E+00  0.74505805969E-08  0.10566000000E+00  0.10566000000E+00 0. -1.
     999900   -1    0    0    0    0 -0.00000000000E+00 -0.00000000000E+00 -0.74505805969E-08  0.93827000000E+00  0.93827000000E+00 0. -1.
     999902    2    1    2    0    0  0.80236427600E-02  0.15271417585E-01  0.17081127100E-01  0.10196532634E+01  0.10193642222E+01 0.  0.
     999903    2    3    3    0    0  0.81153445730E-01  0.40576035631E-01 -0.90438691877E-01  0.12973820942E+00  0.20507305396E-01 0.  0.
         14    1    1    2    0    0 -0.80236427600E-02 -0.15271417585E-01 -0.17081127100E-01  0.24276736625E-01  0.00000000000E+00 0.  1.
     999901    1    3    3    0    0 -0.73129802970E-01 -0.25304618046E-01  0.10751981898E+00  0.88991505395E+00  0.88000000000E+00 0. -1.
        -11    1    4    4    0    0  0.38474398683E-01  0.13382012172E-01 -0.52686440780E-01  0.66599397646E-01  0.51100000000E-03 0. -1.
         11    1    4    4    0    0  0.42679047046E-01  0.27194023460E-01 -0.37752251097E-01  0.63138811777E-01  0.51100000000E-03 0.  1.
</event>
<event>
 8    1  0.1123191E+005  0.1043930E+01  0.7957747E-01            NaN
         13   -1    0    0    0    0  0.00000000000E+00  0.00000000000E+00  0.74505805969E-08  0.10566000000E+00  0.10566000000E+00 0. -1.
     999900   -1    0    0    0    0 -0.00000000000E+00 -0.00000000000E+00 -0.74505805969E-08  0.93827000000E+00  0.93827000000E+00 0. -1.
     999902    2    1    2    0    0 -0.35274280174E-02  0.92687919120E-02 -0.18007625879E-01  0.10233720857E+01  0.10231655770E+01 0.  0.
     999903    2    3    3    0    0  0.71572774797E-01 -0.48477520686E-02  0.10775332727E+00  0.13115286675E+00  0.21074442489E-01 0.  0.
         14    1    1    2    0    0  0.35274280174E-02 -0.92687919120E-02  0.18007625879E-01  0.20557914333E-01  0.00000000000E+00 0. -1.
     999901    1    3    3    0    0 -0.75100202814E-01  0.14116543981E-01 -0.12576095315E+00  0.89221921892E+00  0.88000000000E+00 0.  1.
        -11    1    4    4    0    0  0.34299360736E-01  0.50378994630E-02  0.64315472406E-01  0.73065502734E-01  0.51100000000E-03 0.  1.
         11    1    4    4    0    0  0.37273414060E-01 -0.98856515316E-02  0.43437854861E-01  0.58087364012E-01  0.51100000000E-03 0. -1.
</event>
<event>
 8    1  0.1123191E+005  0.1043930E+01  0.7957747E-01            NaN
         13   -1    0    0    0    0  0.00000000000E+00  0.00000000000E+00  0.74505805969E-08  0.10566000000E+00  0.10566000000E+00 0.  1.
     999900   -1    0    0    0    0 -0.00000000000E+00 -0.00000000000E+00 -0.74505805969E-08  0.93827000000E+00  0.93827000000E+00 0. -1.
     999902    2    1    2    0    0 -0.18594491806E-01  0.79425804250E-02 -0.12466200559E-01  0.10201761400E+01  0.10198995591E+01 0.  0.
     999903    2    3    3    0    0  0.43284431595E-01 -0.41846730404E-01  0.11127556100E+00  0.12797661062E+00  0.19263216924E-01 0.  0.
         14    1    1    2    0    0  0.18594491806E-01 -0.79425804250E-02  0.12466200559E-01  0.23753860017E-01  0.00000000000E+00 0.  1.
     999901    1    3    3    0    0 -0.61878923401E-01  0.49789310829E-01 -0.12374176156E+00  0.89219952936E+00  0.88000000000E+00 0. -1.
        -11    1    4    4    0    0  0.18124086581E-01 -0.26804677076E-01  0.44261893810E-01  0.54830188694E-01  0.51100000000E-03 0. -1.
         11    1    4    4    0    0  0.25160345014E-01 -0.15042053328E-01  0.67013667193E-01  0.73146421930E-01  0.51100000000E-03 0.  1.
</event>
<event>
 8    1  0.1205099E+005  0.1043930E+01  0.7957747E-01            NaN
         13   -1    0    0    0    0  0.00000000000E+00  0.00000000000E+00  0.74505805969E-08  0.10566000000E+00  0.10566000000E+00 0. -1.
     999900   -1    0    0    0    0 -0.00000000000E+00 -0.00000000000E+00 -0.74505805969E-08  0.93827000000E+00  0.93827000000E+00 0.  1.
     999902    2    1    2    0    0 -0.61248104036E-02 -0.18102000740E-01  0.11112890564E-01  0.10218236192E+01  0.10215844639E+01 0.  0.
     999903    2    3    3    0    0  0.10789419718E-01 -0.10327068854E+00  0.85149874992E-01  0.13445601131E+00  0.68316232653E-02 0.  0.
         14    1    1    2    0    0  0.61248104036E-02  0.18102000740E-01 -0.11112890564E-01  0.22106380752E-01  0.00000000000E+00 0. -1.
     999901    1    3    3    0    0 -0.16914230121E-01  0.85168687796E-01 -0.74036984428E-01  0.88736760794E+00  0.88000000000E+00 0.  1.
        -11    1    4    4    0    0  0.71322326913E-02 -0.55632569874E-01  0.49973937075E-01  0.75123279226E-01  0.51100000000E-03 0.  1.
         11    1    4    4    0    0  0.36571870263E-02 -0.47638118663E-01  0.35175937916E-01  0.59332732079E-01  0.51100000000E-03 0. -1.
</event>
<event>
 8    1  0.1123191E+005  0.1043930E+01  0.7957747E-01            NaN
         13   -1    0    0    0    0  0.00000000000E+00  0.00000000000E+00  0.74505805969E-08  0.10566000000E+00  0.10566000000E+00 0. -1.
     999900   -1    0    0    0    0 -0.00000000000E+00 -0.00000000000E+00 -0.74505805969E-08  0.93827000000E+00  0.93827000000E+00 0.  1.
     999902    2    1    2    0    0  0.22834348030E-02 -0.21438443490E-01  0.60950995451E-02  0.10215252868E+01  0.10212795604E+01 0.  0.
     999903    2    3    3    0    0 -0.11527978285E+00  0.51101702857E-01 -0.25793725925E-01  0.13017794703E+00  0.19497928813E-01 0.  0.
         14    1    1    2    0    0 -0.22834348030E-02  0.21438443490E-01 -0.60950995451E-02  0.22404713171E-01  0.00000000000E+00 0. -1.
     999901    1    3    3    0    0  0.11756321765E+00 -0.72540146347E-01  0.31888825470E-01  0.89134733980E+00  0.88000000000E+00 0. -1.
        -11    1    4    4    0    0 -0.47963743500E-01  0.23680992181E-01 -0.20534442564E-01  0.57299515998E-01  0.51100000000E-03 0. -1.
         11    1    4    4    0    0 -0.67316039347E-01  0.27420710675E-01 -0.52592833611E-02  0.72878431033E-01  0.51100000000E-03 0.  1.
</event>
<event>
 8    1  0.1123191E+005  0.1043930E+01  0.7957747E-01            NaN
         13   -1    0    0    0    0  0.00000000000E+00  0.00000000000E+00  0.74505805969E-08  0.10566000000E+00  0.10566000000E+00 0.  1.
     999900   -1    0    0    0    0 -0.00000000000E+00 -0.00000000000E+00 -0.74505805969E-08  0.93827000000E+00  0.93827000000E+00 0.  1.
     999902    2    1    2    0    0  0.49438038383E-02 -0.23907760816E-01 -0.17445306354E-02  0.10194541831E+01  0.10191603240E+01 0.  0.
     999903    2    3    3    0    0  0.38181985980E-01  0.54161898312E-01 -0.10850989082E+00  0.12894955623E+00  0.21499217720E-01 0.  0.
         14    1    1    2    0    0 -0.49438038383E-02  0.23907760816E-01  0.17445306354E-02  0.24475816856E-01  0.00000000000E+00 0.  1.
     999901    1    3    3    0    0 -0.33238182141E-01 -0.78069659128E-01  0.10676536019E+00  0.89050462692E+00  0.88000000000E+00 0. -1.
        -11    1    4    4    0    0  0.16699465691E-01  0.19297823992E-01 -0.23987056503E-01  0.35027391650E-01  0.51100000000E-03 0.  1.
         11    1    4    4    0    0  0.21482520289E-01  0.34864074320E-01 -0.84522834319E-01  0.93922164575E-01  0.51100000000E-03 0. -1.
</event>
<event>
 8    1  0.1123191E+005  0.1043930E+01  0.7957747E-01            NaN
         13   -1    0    0    0    0  0.00000000000E+00  0.00000000000E+00  0.74505805969E-08  0.10566000000E+00  0.10566000000E+00 0.  1.
     999900   -1    0    0    0    0 -0.00000000000E+00 -0.00000000000E+00 -0.74505805969E-08  0.93827000000E+00  0.93827000000E+00 0.  1.
     999902    2    1    2    0    0 -0.85524596269E-03 -0.20702942485E-02  0.18713746760E-01  0.10250826691E+01  0.10249093895E+01 0.  0.
     999903    2    3    3    0    0  0.86467292119E-01  0.10060258806E+00  0.16769892310E-02  0.13465737885E+00  0.23072148944E-01 0.  0.
         14    1    1    2    0    0  0.85524596269E-03  0.20702942485E-02 -0.18713746760E-01  0.18847330891E-01  0.00000000000E+00 0. -1.
     999901    1    3    3    0    0 -0.87322538081E-01 -0.10267288231E+00  0.17036757529E-01  0.89042529025E+00  0.88000000000E+00 0.  1.
        -11    1    4    4    0    0  0.41488323890E-02  0.68838564390E-02  0.56785762882E-02  0.98543208455E-02  0.51100000000E-03 0. -1.
         11    1    4    4    0    0  0.82318459730E-01  0.93718731618E-01 -0.40015870573E-02  0.12480305801E+00  0.51100000000E-03 0.  1.
</event>
<event>
 8    1  0.1123191E+005  0.1043930E+01  0.7957747E-01            NaN
         13   -1    0    0    0    0  0.00000000000E+00  0.00000000000E+00  0.74505805969E-08  0.10566000000E+00  0.10566000000E+00 0. -1.
     999900   -1    0    0    0    0 -0.00000000000E+00 -0.00000000000E+00 -0.74505805969E-08  0.93827000000E+00  0.93827000000E+00 0. -1.
     999902    2    1    2    0    0  0.21672651780E-01  0.31661447144E-02  0.90157634456E-02  0.10202443018E+01  0.10199693246E+01 0.  0.
     999903    2    3    3    0    0  0.81092329697E-02  0.73320271346E-01 -0.10520831958E+00  0.12999000728E+00  0.19672052115E-01 0.  0.
         14    1    1    2    0    0 -0.21672651780E-01 -0.31661447144E-02 -0.90157634456E-02  0.23685698175E-01  0.00000000000E+00 0.  1.
     999901    1    3    3    0    0  0.13563418810E-01 -0.70154126632E-01  0.11422408302E+00  0.89025429455E+00  0.88000000000E+00 0.  1.
        -11    1    4    4    0    0  0.11347169845E-02  0.33644718126E-01 -0.32109918508E-01  0.46524860322E-01  0.51100000000E-03 0. -1.
         11    1    4    4    0    0  0.69745159852E-02  0.39675553220E-01 -0.73098401071E-01  0.83465146958E-01  0.51100000000E-03 0.  1.
</event>
<event>
 8    1  0.1123191E+005  0.1043930E+01  0.7957747E-01            NaN
         13   -1    0    0    0    0  0.00000000000E+00  0.00000000000E+00  0.74505805969E-08  0.10566000000E+00  0.10566000000E+00 0.  1.
     999900   -1    0    0    0    0 -0.00000000000E+00 -0.00000000000E+00 -0.74505805969E-08  0.93827000000E+00  0.93827000000E+00 0. -1.
     999902    2    1    2    0    0 -0.65465064853E-02 -0.18892790179E-01  0.85950925568E-02  0.10221660416E+01  0.10219343163E+01 0.  0.
     999903    2    3    3    0    0 -0.75664381155E-01  0.18721365483E-01 -0.10405702296E+00  0.13150190491E+00  0.19730658062E-01 0.  0.
         14    1    1    2    0    0  0.65465064853E-02  0.18892790179E-01 -0.85950925568E-02  0.21763958371E-01  0.00000000000E+00 0.  1.
     999901    1    3    3    0    0  0.69117874670E-01 -0.37614155663E-01  0.11265211551E+00  0.89066413672E+00  0.88000000000E+00 0.  1.
        -11    1    4    4    0    0 -0.44073775285E-01  0.19291304853E-01 -0.54203554365E-01  0.72477158730E-01  0.51100000000E-03 0.  1.
         11    1    4    4    0    0 -0.31590605870E-01 -0.56993936965E-03 -0.49853468591E-01  0.59024746181E-01  0.51100000000E-03 0. -1.
</event>
<event>
 8    1  0.1123191E+005  0.1043930E+01  0.7957747E-01            NaN
         13   -1    0    0    0    0  0.00000000000E+00  0.00000000000E+00  0.74505805969E-08  0.10566000000E+00  0.10566000000E+00 0.  1.
     999900   -1    0    0    0    0 -0.00000000000E+00 -0.00000000000E+00 -0.74505805969E-08  0.93827000000E+00  0.93827000000E+00 0. -1.
     999902    2    1    2    0    0  0.89808095842E-02 -0.45995959739E-02 -0.20372385336E-01  0.10211957679E+01  0.10209426777E+01 0.  0.
     999903    2    3    3    0    0 -0.40045262989E-01 -0.91677080628E-01  0.79842782974E-01  0.12988823172E+00  0.22085573270E-01 0.  0.
         14    1    1    2    0    0 -0.89808095842E-02  0.45995959739E-02  0.20372385336E-01  0.22734232078E-01  0.00000000000E+00 0.  1.
     999901    1    3    3    0    0  0.49026072574E-01  0.87077484654E-01 -0.10021516831E+00  0.89130753620E+00  0.88000000000E+00 0.  1.
        -11    1    4    4    0    0 -0.35023095941E-01 -0.78491709935E-01  0.77183933964E-01  0.11552136842E+00  0.51100000000E-03 0.  1.
         11    1    4    4    0    0 -0.50221670486E-02 -0.13185370693E-01  0.26588490095E-02  0.14366863306E-01  0.51100000000E-03 0. -1.
</event>
<event>
 8    1  0.1123191E+005  0.1043930E+01  0.7957747E-01            NaN
         13   -1    0    0    0    0  0.00000000000E+00  0.00000000000E+00  0.74505805969E-08  0.10566000000E+00  0.10566000000E+00 0. -1.
     999900   -1    0    0    0    0 -0.00000000000E+00 -0.00000000000E+00 -0.74505805969E-08  0.93827000000E+00  0.93827000000E+00 0.  1.
     999902    2    1    2    0    0  0.20181886541E-02 -0.67969966776E-02 -0.25106421204E-01  0.10178415996E+01  0.10175072075E+01 0.  0.
     999903    2    3    3    0    0  0.85982679070E-01 -0.93325964058E-01 -0.17796608587E-01  0.12959009738E+00  0.19342114547E-01 0.  0.
         14    1    1    2    0    0 -0.20181886541E-02  0.67969966776E-02  0.25106421204E-01  0.26088400391E-01  0.00000000000E+00 0. -1.
     999901    1    3    3    0    0 -0.83964490416E-01  0.86528967380E-01 -0.73098126171E-02  0.88825150223E+00  0.88000000000E+00 0.  1.
        -11    1    4    4    0    0  0.41615689103E-01 -0.47213858425E-01  0.82273405257E-03  0.62944038790E-01  0.51100000000E-03 0.  1.
         11    1    4    4    0    0  0.44366989967E-01 -0.46112105633E-01 -0.18619342640E-01  0.66646058593E-01  0.51100000000E-03 0. -1.
</event>
<event>
 8    1  0.1123191E+005  0.1043930E+01  0.7957747E-01            NaN
         13   -1    0    0    0    0  0.00000000000E+00  0.00000000000E+00  0.74505805969E-08  0.10566000000E+00  0.10566000000E+00 0.  1.
     999900   -1    0    0    0    0 -0.00000000000E+00 -0.00000000000E+00 -0.74505805969E-08  0.93827000000E+00  0.93827000000E+00 0. -1.
     999902    2    1    2    0    0  0.18714701138E-01 -0.12230107381E-01  0.79463849960E-02  0.10202032092E+01  0.10199272658E+01 0.  0.
     999903    2    3    3    0    0  0.10981621794E+00 -0.64499255503E-01 -0.32082300461E-01  0.13305392875E+00  0.21314743066E-01 0.  0.
         14    1    1    2    0    0 -0.18714701138E-01  0.12230107381E-01 -0.79463849960E-02  0.23726790759E-01  0.00000000000E+00 0.  1.
     999901    1    3    3    0    0 -0.91101516797E-01  0.52269148122E-01  0.40028685457E-01  0.88714928049E+00  0.88000000000E+00 0.  1.
        -11    1    4    4    0    0  0.57374970527E-01 -0.45748985605E-01 -0.16405806744E-01  0.75194870455E-01  0.51100000000E-03 0.  1.
         11    1    4    4    0    0  0.52441247408E-01 -0.18750269898E-01 -0.15676493717E-01  0.57859058299E-01  0.51100000000E-03 0. -1.
</event>
<event>
 8    1  0.1123191E+005  0.1043930E+01  0.7957747E-01            NaN
         13   -1    0    0    0    0  0.00000000000E+00  0.00000000000E+00  0.74505805969E-08  0.10566000000E+00  0.10566000000E+00 0.  1.
     999900   -1    0    0    0    0 -0.00000000000E+00 -0.00000000000E+00 -0.74505805969E-08  0.93827000000E+00  0.93827000000E+00 0.  1.
     999902    2    1    2    0    0  0.10928284764E-01 -0.10873653290E-01 -0.17519808727E-01  0.10205931741E+01  0.10203263300E+01 0.  0.
     999903    2    3    3    0    0  0.11780647353E+00  0.53343159187E-01  0.11403374043E-01  0.13133320273E+00  0.19862410748E-01 0.  0.
         14    1    1    2    0    0 -0.10928284764E-01  0.10873653290E-01  0.17519808727E-01  0.23336825868E-01  0.00000000000E+00 0.  1.
     999901    1    3    3    0    0 -0.10687818877E+00 -0.64216812478E-01 -0.28923182770E-01  0.88925997140E+00  0.88000000000E+00 0. -1.
        -11    1    4    4    0    0  0.47223208816E-01  0.26631841970E-01 -0.37860443639E-02  0.54349624750E-01  0.51100000000E-03 0.  1.
         11    1    4    4    0    0  0.70583264718E-01  0.26711317217E-01  0.15189418407E-01  0.76983577978E-01  0.51100000000E-03 0. -1.
</event>
<event>
 8    1  0.1123191E+005  0.1043930E+01  0.7957747E-01            NaN
         13   -1    0    0    0    0  0.00000000000E+00  0.00000000000E+00  0.74505805969E-08  0.10566000000E+00  0.10566000000E+00 0. -1.
     999900   -1    0    0    0    0 -0.00000000000E+00 -0.00000000000E+00 -0.74505805969E-08  0.93827000000E+00  0.93827000000E+00 0. -1.
     999902    2    1    2    0    0 -0.22872590769E-01 -0.11353290321E-01 -0.55752673823E-02  0.10177931254E+01  0.10174574732E+01 0.  0.
     999903    2    3    3    0    0 -0.97349921873E-02 -0.28675817853E-01 -0.12456183262E+00  0.12951925477E+00  0.18507150186E-01 0.  0.
         14    1    1    2    0    0  0.22872590769E-01  0.11353290321E-01  0.55752673823E-02  0.26136874640E-01  0.00000000000E+00 0. -1.
     999901    1    3    3    0    0 -0.13137598581E-01  0.17322527532E-01  0.11898656524E+00  0.88827387059E+00  0.88000000000E+00 0.  1.
        -11    1    4    4    0    0 -0.49217245024E-02 -0.72107855116E-02 -0.72118048238E-01  0.72646354365E-01  0.51100000000E-03 0.  1.
         11    1    4    4    0    0 -0.48132676849E-02 -0.21465032341E-01 -0.52443784386E-01  0.56872900409E-01  0.51100000000E-03 0. -1.
</event>
<event>
 7    1  0.1151068E+005  0.1043930E+01  0.7957747E-01            NaN
         13   -1    0    0    0    0  0.00000000000E+00  0.00000000000E+00  0.74505805969E-08  0.10566000000E+00  0.10566000000E+00 0. -1.
     999900   -1    0    0    0    0 -0.00000000000E+00 -0.00000000000E+00 -0.74505805969E-08  0.93827000000E+00  0.93827000000E+00 0.  1.
     999903    2    1    2    0    0  0.63686616906E-01  0.73399695213E-01 -0.17475103399E-01  0.10076674320E+00  0.20126024574E-01 0.  0.
         14    1    1    2    0    0 -0.50286696717E-01 -0.21292976108E-01 -0.25929487756E-01  0.60452303790E-01  0.00000000000E+00 0. -1.
     999901    1    1    2    0    0 -0.13399920189E-01 -0.52106719105E-01  0.43404591155E-01  0.88271095301E+00  0.88000000000E+00 0. -1.
        -11    1    3    3    0    0  0.32429985908E-01  0.50092278946E-01 -0.52703175703E-02  0.59908077621E-01  0.51100000000E-03 0. -1.
         11    1    3    3    0    0  0.31256630998E-01  0.23307416267E-01 -0.12204785829E-01  0.40858665574E-01  0.51100000000E-03 0.  1.
</event>
<event>
 8    1  0.1123191E+005  0.1043930E+01  0.7957747E-01            NaN
         13   -1    0    0    0    0  0.00000000000E+00  0.00000000000E+00  0.74505805969E-08  0.10566000000E+00  0.10566000000E+00 0.  1.
     999900   -1    0    0    0    0 -0.00000000000E+00 -0.00000000000E+00 -0.74505805969E-08  0.93827000000E+00  0.93827000000E+00 0. -1.
     999902    2    1    2    0    0 -0.86897445054E-02 -0.21657776586E-01  0.26428163231E-02  0.10204447829E+01  0.10201744946E+01 0.  0.
     999903    2    3    3    0    0 -0.51643389189E-01  0.68186826951E-01 -0.94910847304E-01  0.12947127839E+00  0.20934659655E-01 0.  0.
         14    1    1    2    0    0  0.86897445054E-02  0.21657776586E-01 -0.26428163231E-02  0.23485217145E-01  0.00000000000E+00 0.  1.
     999901    1    3    3    0    0  0.42953644684E-01 -0.89844603537E-01  0.97553663627E-01  0.89097350447E+00  0.88000000000E+00 0.  1.
        -11    1    4    4    0    0 -0.47120990337E-01  0.55903765188E-01 -0.69469765375E-01  0.10085597709E+00  0.51100000000E-03 0.  1.
         11    1    4    4    0    0 -0.45223988520E-02  0.12283061763E-01 -0.25441081929E-01  0.28615301298E-01  0.51100000000E-03 0. -1.
</event>
<event>
 8    1  0.1123191E+005  0.1043930E+01  0.7957747E-01            NaN
         13   -1    0    0    0    0  0.00000000000E+00  0.00000000000E+00  0.74505805969E-08  0.10566000000E+00  0.10566000000E+00 0.  1.
     999900   -1    0    0    0    0 -0.00000000000E+00 -0.00000000000E+00 -0.74505805969E-08  0.93827000000E+00  0.93827000000E+00 0. -1.
     999902    2    1    2    0    0  0.25109405523E-02  0.16173190106E-01  0.17324863453E-01  0.10200966663E+01  0.10198182097E+01 0.  0.
     999903    2    3    3    0    0  0.10549450410E-01  0.90583736948E-01  0.95006992037E-01  0.13350991917E+00  0.21951439065E-01 0.  0.
         14    1    1    2    0    0 -0.25109405523E-02 -0.16173190106E-01 -0.17324863453E-01  0.23833333681E-01  0.00000000000E+00 0.  1.
     999901    1    3    3    0    0 -0.80385098579E-02 -0.74410546842E-01 -0.77682128584E-01  0.88658674715E+00  0.88000000000E+00 0. -1.
        -11    1    4    4    0    0  0.30884077769E-02  0.13082233850E-01  0.26851642417E-01  0.30032564436E-01  0.51100000000E-03 0. -1.
         11    1    4    4    0    0  0.74610426333E-02  0.77501503098E-01  0.68155349620E-01  0.10347735473E+00  0.51100000000E-03 0.  1.
</event>
<event>
 8    1  0.1123191E+005  0.1043930E+01  0.7957747E-01            NaN
         13   -1    0    0    0    0  0.00000000000E+00  0.00000000000E+00  0.74505805969E-08  0.10566000000E+00  0.10566000000E+00 0. -1.
     999900   -1    0    0    0    0 -0.00000000000E+00 -0.00000000000E+00 -0.74505805969E-08  0.93827000000E+00  0.93827000000E+00 0.  1.
     999902    2    1    2    0    0 -0.26395100639E-02 -0.23067967368E-01  0.43145128073E-02  0.10203140488E+01  0.10200407075E+01 0.  0.
     999903    2    3    3    0    0 -0.11955105948E+00  0.41212206306E-01 -0.19755684317E-01  0.12993231855E+00  0.22387911231E-01 0.  0.
         14    1    1    2    0    0  0.26395100639E-02  0.23067967368E-01 -0.43145128073E-02  0.23615951233E-01  0.00000000000E+00 0.  1.
     999901    1    3    3    0    0  0.11691154942E+00 -0.64280173674E-01  0.24070197125E-01  0.89038173022E+00  0.88000000000E+00 0. -1.
        -11    1    4    4    0    0 -0.10607044247E+00  0.37527263987E-01 -0.10159935012E-01  0.11297220769E+00  0.51100000000E-03 0.  1.
         11    1    4    4    0    0 -0.13480617007E-01  0.36849423184E-02 -0.95957493056E-02  0.16960110864E-01  0.51100000000E-03 0. -1.
</event>
<event>
 8    1  0.1123191E+005  0.1043930E+01  0.7957747E-01            NaN
         13   -1    0    0    0    0  0.00000000000E+00  0.00000000000E+00  0.74505805969E-08  0.10566000000E+00  0.10566000000E+00 0.  1.
     999900   -1    0    0    0    0 -0.00000000000E+00 -0.00000000000E+00 -0.74505805969E-08  0.93827000000E+00  0.93827000000E+00 0. -1.
     999902    2    1    2    0    0 -0.28864627962E-02  0.22967888138E-01 -0.23632118241E-02  0.10206611297E+01  0.10203958553E+01 0.  0.
     999903    2    3    3    0    0 -0.11799192126E+00 -0.50796731918E-01  0.19841075798E-02  0.13009424010E+00  0.20449282838E-01 0.  0.
         14    1    1    2    0    0  0.28864627962E-02 -0.22967888138E-01  0.23632118241E-02  0.23268870259E-01  0.00000000000E+00 0.  1.
     999901    1    3    3    0    0  0.11510545846E+00  0.73764620056E-01 -0.43473194038E-02  0.89056688964E+00  0.88000000000E+00 0. -1.
        -11    1    4    4    0    0 -0.62584958220E-01 -0.27159156189E-01 -0.91396168319E-02  0.68835241535E-01  0.51100000000E-03 0.  1.
         11    1    4    4    0    0 -0.55406963038E-01 -0.23637575728E-01  0.11123724412E-01  0.61258998565E-01  0.51100000000E-03 0. -1.
</event>
<event>
 8    1  0.1123191E+005  0.1043930E+01  0.7957747E-01            NaN
         13   -1    0    0    0    0  0.00000000000E+00  0.00000000000E+00  0.74505805969E-08  0.10566000000E+00  0.10566000000E+00 0. -1.
     999900   -1    0    0    0    0 -0.00000000000E+00 -0.00000000000E+00 -0.74505805969E-08  0.93827000000E+00  0.93827000000E+00 0.  1.
     999902    2    1    2    0    0 -0.20966278344E-01 -0.12484913948E-02 -0.11989299526E-01  0.10197455657E+01  0.10194587446E+01 0.  0.
     999903    2    3    3    0    0  0.16003485741E-01  0.10227494820E+00 -0.76997411565E-01  0.13052685211E+00  0.19808612976E-01 0.  0.
         14    1    1    2    0    0  0.20966278344E-01  0.12484913948E-02  0.11989299526E-01  0.24184434281E-01  0.00000000000E+00 0. -1.
     999901    1    3    3    0    0 -0.36969764086E-01 -0.10352343960E+00  0.65008112039E-01  0.88921871361E+00  0.88000000000E+00 0.  1.
        -11    1    4    4    0    0 -0.47078592282E-02  0.18712228939E-01 -0.14470804331E-01  0.24124194274E-01  0.51100000000E-03 0. -1.
         11    1    4    4    0    0  0.20711344970E-01  0.83562719263E-01 -0.62526607234E-01  0.10640265783E+00  0.51100000000E-03 0.  1.
</event>
<event>
 8    1  0.1123191E+005  0.1043930E+01  0.7957747E-01            NaN
         13   -1    0    0    0    0  0.00000000000E+00  0.00000000000E+00  0.74505805969E-08  0.10566000000E+00  0.10566000000E+00 0. -1.
     999900   -1    0    0    0    0 -0.00000000000E+00 -0.00000000000E+00 -0.74505805969E-08  0.93827000000E+00  0.93827000000E+00 0. -1.
     999902    2    1    2    0    0 -0.17105976186E-01 -0.39949404984E-02  0.15573730927E-01  0.10204541600E+01  0.10201840900E+01 0.  0.
     999903    2    3    3    0    0  0.50384457831E-02 -0.29328376613E-01  0.12815434787E+00  0.13264418382E+00  0.16893874998E-01 0.  0.
         14    1    1    2    0    0  0.17105976186E-01  0.39949404984E-02 -0.15573730927E-01  0.23475840046E-01  0.00000000000E+00 0.  1.
     999901    1    3    3    0    0 -0.22144421970E-01  0.25333436114E-01 -0.11258061695E+00  0.88780997613E+00  0.88000000000E+00 0. -1.
        -11    1    4    4    0    0  0.29431722289E-02 -0.11828568940E-01  0.87285766306E-01  0.88134235270E-01  0.51100000000E-03 0. -1.
         11    1    4    4    0    0  0.20952735542E-02 -0.17499807672E-01  0.40868581566E-01  0.44509948551E-01  0.51100000000E-03 0.  1.
</event>
<event>
 8    1  0.1123191E+005  0.1043930E+01  0.7957747E-01            NaN
         13   -1    0    0    0    0  0.00000000000E+00  0.00000000000E+00  0.74505805969E-08  0.10566000000E+00  0.10566000000E+00 0. -1.
     999900   -1    0    0    0    0 -0.00000000000E+00 -0.00000000000E+00 -0.74505805969E-08  0.93827000000E+00  0.93827000000E+00 0. -1.
     999902    2    1    2    0    0 -0.30800229949E-02  0.21599945828E-01  0.32095325447E-02  0.10218767621E+01  0.10216387677E+01 0.  0.
     999903    2    3    3    0    0  0.39344766439E-01 -0.79341468183E-01 -0.92690967875E-01  0.12992052004E+00  0.21086649386E-01 0.  0.
         14    1    1    2    0    0  0.30800229949E-02 -0.21599945828E-01 -0.32095325447E-02  0.22053237871E-01  0.00000000000E+00 0. -1.
     999901    1    3    3    0    0 -0.42424789434E-01  0.10094141401E+00  0.95900500420E-01  0.89195624209E+00  0.88000000000E+00 0.  1.
        -11    1    4    4    0    0  0.27235772783E-01 -0.65932944939E-01 -0.82884287819E-01  0.10935724409E+00  0.51100000000E-03 0. -1.
         11    1    4    4    0    0  0.12108993656E-01 -0.13408523243E-01 -0.98066800559E-02  0.20563275946E-01  0.51100000000E-03 0.  1.
</event>
<event>
 8    1  0.1123191E+005  0.1043930E+01  0.7957747E-01            NaN
         13   -1    0    0    0    0  0.00000000000E+00  0.00000000000E+00  0.74505805969E-08  0.10566000000E+00  0.10566000000E+00 0.  1.
     999900   -1    0    0    0    0 -0.00000000000E+00 -0.00000000000E+00 -0.74505805969E-08  0.93827000000E+00  0.93827000000E+00 0. -1.
     999902    2    1    2    0    0 -0.40530107209E-02 -0.10761178099E-02 -0.23082303960E-01  0.10204698704E+01  0.10202001660E+01 0.  0.
     999903    2    3    3    0    0 -0.59710408528E-02  0.94470888768E-01 -0.90699726600E-01  0.13271707532E+00  0.20663482819E-01 0.  0.
         14    1    1    2    0    0  0.40530107209E-02  0.10761178099E-02  0.23082303960E-01  0.23460129615E-01  0.00000000000E+00 0.  1.
     999901    1    3    3    0    0  0.19180301319E-02 -0.95547006577E-01  0.67617422640E-01  0.88775279507E+00  0.88000000000E+00 0.  1.
        -11    1    4    4    0    0  0.19363932193E-02  0.74873349367E-01 -0.62998449329E-01  0.97871516812E-01  0.51100000000E-03 0. -1.
         11    1    4    4    0    0 -0.79074340721E-02  0.19597539400E-01 -0.27701277271E-01  0.34845558506E-01  0.51100000000E-03 0.  1.
</event>
<event>
 8    1  0.1123191E+005  0.1043930E+01  0.7957747E-01            NaN
         13   -1    0    0    0    0  0.00000000000E+00  0.00000000000E+00  0.74505805969E-08  0.10566000000E+00  0.10566000000E+00 0.  1.
     999900   -1    0    0    0    0 -0.00000000000E+00 -0.00000000000E+00 -0.74505805969E-08  0.93827000000E+00  0.93827000000E+00 0.  1.
     999902    2    1    2    0    0  0.22966130152E-01  0.29794053946E-03  0.16121803268E-02  0.10209054256E+01  0.10206457549E+01 0.  0.
     999903    2    3    3    0    0  0.10735130480E+00  0.24677806864E-01  0.72933905463E-01  0.13366136440E+00  0.20315239928E-01 0.  0.
         14    1    1    2    0    0 -0.22966130152E-01 -0.29794053946E-03 -0.16121803268E-02  0.23024574439E-01  0.00000000000E+00 0.  1.
     999901    1    3    3    0    0 -0.84385174652E-01 -0.24379866325E-01 -0.71321725136E-01  0.88724406116E+00  0.88000000000E+00 0.  1.
        -11    1    4    4    0    0  0.17947405484E-01  0.11723533884E-01  0.17433022435E-01  0.27635520667E-01  0.51100000000E-03 0.  1.
         11    1    4    4    0    0  0.89403899319E-01  0.12954272980E-01  0.55500883028E-01  0.10602584374E+00  0.51100000000E-03 0. -1.
</event>
<event>
 8    1  0.1123191E+005  0.1043930E+01  0.7957747E-01            NaN
         13   -1    0    0    0    0  0.00000000000E+00  0.00000000000E+00  0.74505805969E-08  0.10566000000E+00  0.10566000000E+00 0.  1.
     999900   -1    0    0    0    0 -0.00000000000E+00 -0.00000000000E+00 -0.74505805969E-08  0.93827000000E+00  0.93827000000E+00 0. -1.
     999902    2    1    2    0    0  0.14977489539E-01  0.16939287471E-01 -0.24182523137E-03  0.10213175448E+01  0.10210671888E+01 0.  0.
     999903    2    3    3    0    0  0.57535377336E-01 -0.44528032990E-01  0.10778713864E+00  0.13156495985E+00  0.19955100533E-01 0.  0.
         14    1    1    2    0    0 -0.14977489539E-01 -0.16939287471E-01  0.24182523137E-03  0.22612455248E-01  0.00000000000E+00 0.  1.
     999901    1    3    3    0    0 -0.42557887797E-01  0.61467320461E-01 -0.10802896387E+00  0.88975258490E+00  0.88000000000E+00 0. -1.
        -11    1    4    4    0    0  0.76744410787E-02 -0.13097963872E-01  0.33117407721E-01  0.36434564889E-01  0.51100000000E-03 0. -1.
         11    1    4    4    0    0  0.49860936257E-01 -0.31430069118E-01  0.74669730921E-01  0.95130394964E-01  0.51100000000E-03 0.  1.
</event>
<event>
 8    1  0.1123191E+005  0.1043930E+01  0.7957747E-01            NaN
         13   -1    0    0    0    0  0.00000000000E+00  0.00000000000E+00  0.74505805969E-08  0.10566000000E+00  0.10566000000E+00 0. -1.
     999900   -1    0    0    0    0 -0.00000000000E+00 -0.00000000000E+00 -0.74505805969E-08  0.93827000000E+00  0.93827000000E+00 0. -1.
     999902    2    1    2    0    0  0.27055720862E-01  0.89069342825E-02  0.20355799710E-02  0.10153732303E+01  0.10149715798E+01 0.  0.
     999903    2    3    3    0    0 -0.15350420226E-01  0.98275242208E-01 -0.75699155825E-01  0.12642572656E+00  0.18958995529E-01 0.  0.
         14    1    1    2    0    0 -0.27055720862E-01 -0.89069342825E-02 -0.20355799710E-02  0.28556769696E-01  0.00000000000E+00 0. -1.
     999901    1    3    3    0    0  0.42406141088E-01 -0.89368307925E-01  0.77734735796E-01  0.88894750374E+00  0.88000000000E+00 0.  1.
        -11    1    4    4    0    0 -0.46057009286E-02  0.79109039966E-01 -0.57887697217E-01  0.98136126353E-01  0.51100000000E-03 0.  1.
         11    1    4    4    0    0 -0.10744719297E-01  0.19166202242E-01 -0.17811458607E-01  0.28289600207E-01  0.51100000000E-03 0. -1.
</event>
<event>
 8    1  0.1123191E+005  0.1043930E+01  0.7957747E-01            NaN
         13   -1    0    0    0    0  0.00000000000E+00  0.00000000000E+00  0.74505805969E-08  0.10566000000E+00  0.10566000000E+00 0.  1.
     999900   -1    0    0    0    0 -0.00000000000E+00 -0.00000000000E+00 -0.74505805969E-08  0.93827000000E+00  0.93827000000E+00 0. -1.
     999902    2    1    2    0    0  0.15856311001E-01  0.13952252602E-01 -0.63315285099E-02  0.10218805963E+01  0.10216426855E+01 0.  0.
     999903    2    3    3    0    0  0.11551478369E+00 -0.61184617759E-01  0.11083451769E-01  0.13290329510E+00  0.21288970004E-01 0.  0.
         14    1    1    2    0    0 -0.15856311001E-01 -0.13952252602E-01  0.63315285099E-02  0.22049403722E-01  0.00000000000E+00 0.  1.
     999901    1    3    3    0    0 -0.99658472693E-01  0.75136870361E-01 -0.17414980279E-01  0.88897730118E+00  0.88000000000E+00 0. -1.
        -11    1    4    4    0    0  0.27428768450E-01 -0.84684133780E-02 -0.45299197355E-02  0.29066005189E-01  0.51100000000E-03 0.  1.
         11    1    4    4    0    0  0.88086015244E-01 -0.52716204381E-01  0.15613371504E-01  0.10383728991E+00  0.51100000000E-03 0. -1.
</event>
<event>
 8    1  0.1123191E+005  0.1043930E+01  0.7957747E-01            NaN
         13   -1    0    0    0    0  0.00000000000E+00  0.00000000000E+00  0.74505805969E-08  0.10566000000E+00  0.10566000000E+00 0. -1.
     999900   -1    0    0    0    0 -0.00000000000E+00 -0.00000000000E+00 -0.74505805969E-08  0.93827000000E+00  0.93827000000E+00 0.  1.
     999902    2    1    2    0    0 -0.19254083773E-01 -0.24125179964E-02 -0.15549223350E-01  0.10190639924E+01  0.10187605717E+01 0.  0.
     999903    2    3    3    0    0  0.32260374632E-03  0.11598540631E+00 -0.55299112111E-01  0.13003003987E+00  0.19927391165E-01 0.  0.
         14    1    1    2    0    0  0.19254083773E-01  0.24125179964E-02  0.15549223350E-01  0.24866007557E-01  0.00000000000E+00 0. -1.
     999901    1    3    3    0    0 -0.19576687520E-01 -0.11839792430E+00  0.39749888760E-01  0.88903395257E+00  0.88000000000E+00 0. -1.
        -11    1    4    4    0    0  0.21035394507E-02  0.11035956409E+00 -0.47328419251E-01  0.12009953644E+00  0.51100000000E-03 0.  1.
         11    1    4    4    0    0 -0.17809357043E-02  0.56258422218E-02 -0.79706928594E-02  0.99305034286E-02  0.51100000000E-03 0. -1.
</event>
<event>
 8    1  0.1123191E+005  0.1043930E+01  0.7957747E-01            NaN
         13   -1    0    0    0    0  0.00000000000E+00  0.00000000000E+00  0.74505805969E-08  0.10566000000E+00  0.10566000000E+00 0. -1.
     999900   -1    0    0    0    0 -0.00000000000E+00 -0.00000000000E+00 -0.74505805969E-08  0.93827000000E+00  0.93827000000E+00 0.  1.
     999902    2    1    2    0    0  0.11681542960E-01  0.14398722995E-01 -0.12868140616E-01  0.10213607574E+01  0.10211113681E+01 0.  0.
     999903    2    3    3    0    0  0.37729418024E-01  0.11694821443E+00 -0.50014472369E-01  0.13424478978E+00  0.20489565528E-01 0.  0.
         14    1    1    2    0    0 -0.11681542960E-01 -0.14398722995E-01  0.12868140616E-01  0.22569242627E-01  0.00000000000E+00 0. -1.
     999901    1    3    3    0    0 -0.26047875064E-01 -0.10254949143E+00  0.37146331753E-01  0.88711596759E+00  0.88000000000E+00 0. -1.
        -11    1    4    4    0    0  0.56055721387E-02  0.36513985767E-02 -0.39926885177E-02  0.78075497544E-02  0.51100000000E-03 0.  1.
         11    1    4    4    0    0  0.32123845886E-01  0.11329681585E+00 -0.46021783851E-01  0.12643724003E+00  0.51100000000E-03 0. -1.
</event>
<event>
 8    1  0.1123191E+005  0.1043930E+01  0.7957747E-01            NaN
         13   -1    0    0    0    0  0.00000000000E+00  0.00000000000E+00  0.74505805969E-08  0.10566000000E+00  0.10566000000E+00 0. -1.
     999900   -1    0    0    0    0 -0.00000000000E+00 -0.00000000000E+00 -0.74505805969E-08  0.93827000000E+00  0.93827000000E+00 0. -1.
     999902    2    1    2    0    0  0.14182638862E-01  0.39086870502E-03  0.19823099849E-01  0.10195526476E+01  0.10192611765E+01 0.  0.
     999903    2    3    3    0    0 -0.45201225020E-01  0.18339762599E-01 -0.11553622476E+00  0.12704452278E+00  0.20302558935E-01 0.  0.
         14    1    1    2    0    0 -0.14182638862E-01 -0.39086870502E-03 -0.19823099849E-01  0.24377352421E-01  0.00000000000E+00 0.  1.
     999901    1    3    3    0    0  0.59383863883E-01 -0.17948893894E-01  0.13535932461E+00  0.89250812480E+00  0.88000000000E+00 0.  1.
        -11    1    4    4    0    0 -0.18694217661E-01  0.36345707156E-02 -0.24144503734E-01  0.30755520802E-01  0.51100000000E-03 0. -1.
         11    1    4    4    0    0 -0.26507007359E-01  0.14705191884E-01 -0.91391721028E-01  0.96289001973E-01  0.51100000000E-03 0.  1.
</event>
<event>
 8    1  0.1123191E+005  0.1043930E+01  0.7957747E-01            NaN
         13   -1    0    0    0    0  0.00000000000E+00  0.00000000000E+00  0.74505805969E-08  0.10566000000E+00  0.10566000000E+00 0. -1.
     999900   -1    0    0    0    0 -0.00000000000E+00 -0.00000000000E+00 -0.74505805969E-08  0.93827000000E+00  0.93827000000E+00 0.  1.
     999902    2    1    2    0    0  0.11382067072E-01 -0.16518556207E-01  0.13488481795E-01  0.10197565995E+01  0.10194700432E+01 0.  0.
     999903    2    3    3    0    0  0.39350404037E-01  0.74780183526E-01  0.97376116021E-01  0.13062510028E+00  0.20982819307E-01 0.  0.
         14    1    1    2    0    0 -0.11382067072E-01  0.16518556207E-01 -0.13488481795E-01  0.24173400487E-01  0.00000000000E+00 0.  1.
     999901    1    3    3    0    0 -0.27968336966E-01 -0.91298739733E-01 -0.83887634226E-01  0.88913149923E+00  0.88000000000E+00 0.  1.
        -11    1    4    4    0    0  0.26260223931E-01  0.49511657116E-01  0.48753237084E-01  0.74284202886E-01  0.51100000000E-03 0.  1.
         11    1    4    4    0    0  0.13090180106E-01  0.25268526410E-01  0.48622878938E-01  0.56340897396E-01  0.51100000000E-03 0. -1.
</event>
<event>
 8    1  0.1123191E+005  0.1043930E+01  0.7957747E-01            NaN
         13   -1    0    0    0    0  0.00000000000E+00  0.00000000000E+00  0.74505805969E-08  0.10566000000E+00  0.10566000000E+00 0. -1.
     999900   -1    0    0    0    0 -0.00000000000E+00 -0.00000000000E+00 -0.74505805969E-08  0.93827000000E+00  0.93827000000E+00 0.  1.
     999902    2    1    2    0    0 -0.24423424277E-01  0.27469715277E-02 -0.60675628323E-02  0.10186146919E+01  0.10183000666E+01 0.  0.
     999903    2    3    3    0    0  0.28786000455E-01  0.10167250407E+00 -0.72169427761E-01  0.12901536612E+00  0.16450121117E-01 0.  0.
         14    1    1    2    0    0  0.24423424277E-01 -0.27469715277E-02  0.60675628323E-02  0.25315308110E-01  0.00000000000E+00 0.  1.
     999901    1    3    3    0    0 -0.53209424731E-01 -0.98925532543E-01  0.66101864928E-01  0.88959932577E+00  0.88000000000E+00 0. -1.
        -11    1    4    4    0    0  0.78025259563E-02  0.49616347754E-01 -0.27379731539E-01  0.57206399955E-01  0.51100000000E-03 0. -1.
         11    1    4    4    0    0  0.20983474498E-01  0.52056156318E-01 -0.44789696222E-01  0.71808966162E-01  0.51100000000E-03 0.  1.
</event>
<event>
 8    1  0.1123191E+005  0.1043930E+01  0.7957747E-01            NaN
         13   -1    0    0    0    0  0.00000000000E+00  0.00000000000E+00  0.74505805969E-08  0.10566000000E+00  0.10566000000E+00 0. -1.
     999900   -1    0    0    0    0 -0.00000000000E+00 -0.00000000000E+00 -0.74505805969E-08  0.93827000000E+00  0.93827000000E+00 0. -1.
     999902    2    1    2    0    0 -0.22030477117E-01  0.49671608858E-02 -0.57557944411E-02  0.10206245547E+01  0.10203584360E+01 0.  0.
     999903    2    3    3    0    0 -0.12268192226E-01  0.12924468298E+00  0.92512230187E-02  0.13171206451E+00  0.20193716623E-01 0.  0.
         14    1    1    2    0    0  0.22030477117E-01 -0.49671608858E-02  0.57557944411E-02  0.23305445263E-01  0.00000000000E+00 0. -1.
     999901    1    3    3    0    0 -0.97622848908E-02 -0.12427752210E+00 -0.15007017460E-01  0.88891249022E+00  0.88000000000E+00 0. -1.
        -11    1    4    4    0    0 -0.77385479353E-02  0.74354148413E-01  0.15281661634E-01  0.76303439068E-01  0.51100000000E-03 0.  1.
         11    1    4    4    0    0 -0.45296442907E-02  0.54890534570E-01 -0.60304386148E-02  0.55408625444E-01  0.51100000000E-03 0. -1.
</event>
<event>
 8    1  0.1123191E+005  0.1043930E+01  0.7957747E-01            NaN
         13   -1    0    0    0    0  0.00000000000E+00  0.00000000000E+00  0.74505805969E-08  0.10566000000E+00  0.10566000000E+00 0.  1.
     999900   -1    0    0    0    0 -0.00000000000E+00 -0.00000000000E+00 -0.74505805969E-08  0.93827000000E+00  0.93827000000E+00 0. -1.
     999902    2    1    2    0    0  0.90428321225E-02 -0.12864227919E-01  0.17038179770E-01  0.10207446438E+01  0.10204812919E+01 0.  0.
     999903    2    3    3    0    0 -0.81251893781E-01 -0.10172982943E+00  0.46366102380E-02  0.13158547267E+00  0.18504324474E-01 0.  0.
         14    1    1    2    0    0 -0.90428321225E-02  0.12864227919E-01 -0.17038179770E-01  0.23185356211E-01  0.00000000000E+00 0. -1.
     999901    1    3    3    0    0  0.90294725903E-01  0.88865601512E-01  0.12401569532E-01  0.88915917112E+00  0.88000000000E+00 0. -1.
        -11    1    4    4    0    0 -0.43024722893E-01 -0.47121242172E-01 -0.59568380011E-02  0.64088090031E-01  0.51100000000E-03 0. -1.
         11    1    4    4    0    0 -0.38227170888E-01 -0.54608587259E-01  0.10593448239E-01  0.67497382639E-01  0.51100000000E-03 0.  1.
</event>
<event>
 8    1  0.1223326E+005  0.1043930E+01  0.7957747E-01            NaN
         13   -1    0    0    0    0  0.00000000000E+00  0.00000000000E+00  0.74505805969E-08  0.10566000000E+00  0.10566000000E+00 0.  1.
     999900   -1    0    0    0    0 -0.00000000000E+00 -0.00000000000E+00 -0.74505805969E-08  0.93827000000E+00  0.93827000000E+00 0. -1.
     999902    2    1    2    0    0  0.17720415996E-01 -0.14022412867E-01 -0.67804177375E-02  0.10203373047E+01  0.10200645078E+01 0.  0.
     999903    2    3    3    0    0  0.72734024659E-01  0.10557978278E+00 -0.20235107656E-01  0.13044281040E+00  0.12982231305E-01 0.  0.
         14    1    1    2    0    0 -0.17720415996E-01  0.14022412867E-01  0.67804177375E-02  0.23592695276E-01  0.00000000000E+00 0.  1.
     999901    1    3    3    0    0 -0.55013608663E-01 -0.11960219564E+00  0.13454689919E-01  0.88989449432E+00  0.88000000000E+00 0.  1.
        -11    1    4    4    0    0  0.26277434698E-01  0.41445718625E-01 -0.16851515549E-02  0.49105519277E-01  0.51100000000E-03 0.  1.
         11    1    4    4    0    0  0.46456589961E-01  0.64134064153E-01 -0.18549956102E-01  0.81337291127E-01  0.51100000000E-03 0. -1.
</event>
<event>
 8    1  0.1123191E+005  0.1043930E+01  0.7957747E-01            NaN
         13   -1    0    0    0    0  0.00000000000E+00  0.00000000000E+00  0.74505805969E-08  0.10566000000E+00  0.10566000000E+00 0.  1.
     999900   -1    0    0    0    0 -0.00000000000E+00 -0.00000000000E+00 -0.74505805969E-08  0.93827000000E+00  0.93827000000E+00 0. -1.
     999902    2    1    2    0    0  0.59364077426E-02  0.52111061114E-02 -0.22291927537E-01  0.10202799134E+01  0.10200057721E+01 0.  0.
     999903    2    3    3    0    0  0.15522792751E-01  0.11692195596E+00  0.51198749634E-01  0.13012706562E+00  0.20001009021E-01 0.  0.
         14    1    1    2    0    0 -0.59364077426E-02 -0.52111061114E-02  0.22291927537E-01  0.23650086620E-01  0.00000000000E+00 0.  1.
     999901    1    3    3    0    0 -0.95863850086E-02 -0.11171084985E+00 -0.73490677171E-01  0.89015284776E+00  0.88000000000E+00 0. -1.
        -11    1    4    4    0    0  0.11320187864E-01  0.33341030039E-01  0.87308579741E-02  0.36280296847E-01  0.51100000000E-03 0. -1.
         11    1    4    4    0    0  0.42026048868E-02  0.83580925919E-01  0.42467891660E-01  0.93846768769E-01  0.51100000000E-03 0.  1.
</event>
<event>
 8    1  0.1123191E+005  0.1043930E+01  0.7957747E-01            NaN
         13   -1    0    0    0    0  0.00000000000E+00  0.00000000000E+00  0.74505805969E-08  0.10566000000E+00  0.10566000000E+00 0.  1.
     999900   -1    0    0    0    0 -0.00000000000E+00 -0.00000000000E+00 -0.74505805969E-08  0.93827000000E+00  0.93827000000E+00 0. -1.
     999902    2    1    2    0    0 -0.20377566453E-01  0.12530398211E-01  0.39656361027E-02  0.10196816524E+01  0.10193932949E+01 0.  0.
     999903    2    3    3    0    0  0.57167473846E-01  0.11740124924E-01 -0.11283758263E+00  0.12858297672E+00  0.19882435704E-01 0.  0.
         14    1    1    2    0    0  0.20377566453E-01 -0.12530398211E-01 -0.39656361027E-02  0.24248347646E-01  0.00000000000E+00 0.  1.
     999901    1    3    3    0    0 -0.77545040299E-01  0.79027328686E-03  0.11680321873E+00  0.89109867563E+00  0.88000000000E+00 0.  1.
        -11    1    4    4    0    0  0.44740819071E-01  0.14707685329E-01 -0.74213137941E-01  0.87897143656E-01  0.51100000000E-03 0. -1.
         11    1    4    4    0    0  0.12426654775E-01 -0.29675604047E-02 -0.38624444690E-01  0.40685833066E-01  0.51100000000E-03 0.  1.
</event>
<event>
 8    1  0.1123191E+005  0.1043930E+01  0.7957747E-01            NaN
         13   -1    0    0    0    0  0.00000000000E+00  0.00000000000E+00  0.74505805969E-08  0.10566000000E+00  0.10566000000E+00 0.  1.
     999900   -1    0    0    0    0 -0.00000000000E+00 -0.00000000000E+00 -0.74505805969E-08  0.93827000000E+00  0.93827000000E+00 0. -1.
     999902    2    1    2    0    0  0.65851977164E-02 -0.19639480283E-01 -0.12793269989E-01  0.10195837113E+01  0.10192929916E+01 0.  0.
     999903    2    3    3    0    0 -0.91629694221E-01 -0.91365253529E-01 -0.41443643600E-02  0.13117752320E+00  0.21136613297E-01 0.  0.
         14    1    1    2    0    0 -0.65851977164E-02  0.19639480283E-01  0.12793269989E-01  0.24346288665E-01  0.00000000000E+00 0.  1.
     999901    1    3    3    0    0  0.98214891937E-01  0.71725773246E-01 -0.86489056293E-02  0.88840618813E+00  0.88000000000E+00 0. -1.
        -11    1    4    4    0    0 -0.34753408514E-01 -0.21829626384E-01  0.23251174091E-02  0.41109600866E-01  0.51100000000E-03 0.  1.
         11    1    4    4    0    0 -0.56876285707E-01 -0.69535627146E-01 -0.64694817690E-02  0.90067922335E-01  0.51100000000E-03 0. -1.
</event>
<event>
 8    1  0.1123191E+005  0.1043930E+01  0.7957747E-01            NaN
         13   -1    0    0    0    0  0.00000000000E+00  0.00000000000E+00  0.74505805969E-08  0.10566000000E+00  0.10566000000E+00 0. -1.
     999900   -1    0    0    0    0 -0.00000000000E+00 -0.00000000000E+00 -0.74505805969E-08  0.93827000000E+00  0.93827000000E+00 0. -1.
     999902    2    1    2    0    0 -0.93984788049E-02 -0.22172319684E-01 -0.33538402881E-02  0.10196155720E+01  0.10193256218E+01 0.  0.
     999903    2    3    3    0    0 -0.59848371942E-01 -0.89500853119E-01 -0.75023136751E-01  0.13270249217E+00  0.19729420838E-01 0.  0.
         14    1    1    2    0    0  0.93984788049E-02  0.22172319684E-01  0.33538402881E-02  0.24314427994E-01  0.00000000000E+00 0. -1.
     999901    1    3    3    0    0  0.50449893137E-01  0.67328533435E-01  0.71669296462E-01  0.88691307984E+00  0.88000000000E+00 0.  1.
        -11    1    4    4    0    0 -0.55097931480E-02 -0.84106096740E-02 -0.15146129741E-01  0.18186878312E-01  0.51100000000E-03 0.  1.
         11    1    4    4    0    0 -0.54338578794E-01 -0.81090243445E-01 -0.59877007010E-01  0.11451561386E+00  0.51100000000E-03 0. -1.
</event>
<event>
 8    1  0.1123191E+005  0.1043930E+01  0.7957747E-01            NaN
         13   -1    0    0    0    0  0.00000000000E+00  0.00000000000E+00  0.74505805969E-08  0.10566000000E+00  0.10566000000E+00 0.  1.
     999900   -1    0    0    0    0 -0.00000000000E+00 -0.00000000000E+00 -0.74505805969E-08  0.93827000000E+00  0.93827000000E+00 0. -1.
     999902    2    1    2    0    0  0.10020203585E-01  0.21674490897E-01  0.12788886715E-02  0.10200171668E+01  0.10197368273E+01 0.  0.
     999903    2    3    3    0    0  0.32281192545E-01  0.84550344668E-01 -0.94504623509E-01  0.13231034255E+00  0.19597619867E-01 0.  0.
         14    1    1    2    0    0 -0.10020203585E-01 -0.21674490897E-01 -0.12788886715E-02  0.23912833203E-01  0.00000000000E+00 0.  1.
     999901    1    3    3    0    0 -0.22260988960E-01 -0.62875853771E-01  0.95783512181E-01  0.88770682425E+00  0.88000000000E+00 0.  1.
        -11    1    4    4    0    0  0.18548137472E-01  0.38434758334E-01 -0.57494379633E-01  0.71603972392E-01  0.51100000000E-03 0.  1.
         11    1    4    4    0    0  0.13733055073E-01  0.46115586334E-01 -0.37010243876E-01  0.60706370154E-01  0.51100000000E-03 0. -1.
</event>
<event>
 8    1  0.1123191E+005  0.1043930E+01  0.7957747E-01            NaN
         13   -1    0    0    0    0  0.00000000000E+00  0.00000000000E+00  0.74505805969E-08  0.10566000000E+00  0.10566000000E+00 0. -1.
     999900   -1    0    0    0    0 -0.00000000000E+00 -0.00000000000E+00 -0.74505805969E-08  0.93827000000E+00  0.93827000000E+00 0.  1.
     999902    2    1    2    0    0  0.69497431651E-02  0.97702991187E-02 -0.21390349908E-01  0.10194084841E+01  0.10191135131E+01 0.  0.
     999903    2    3    3    0    0 -0.64356916826E-01 -0.10727468626E+00 -0.17771679134E-01  0.12879225743E+00  0.24938763780E-01 0.  0.
         14    1    1    2    0    0 -0.69497431651E-02 -0.97702991187E-02  0.21390349908E-01  0.24521515943E-01  0.00000000000E+00 0. -1.
     999901    1    3    3    0    0  0.71306659991E-01  0.11704498538E+00 -0.36186707748E-02  0.89061622663E+00  0.88000000000E+00 0. -1.
        -11    1    4    4    0    0 -0.77098470805E-02 -0.11468015627E-01 -0.10295130346E-01  0.17239720249E-01  0.51100000000E-03 0.  1.
         11    1    4    4    0    0 -0.56647069746E-01 -0.95806670629E-01 -0.74765487878E-02  0.11155253718E+00  0.51100000000E-03 0. -1.
</event>
<event>
 8    1  0.1123191E+005  0.1043930E+01  0.7957747E-01            NaN
         13   -1    0    0    0    0  0.00000000000E+00  0.00000000000E+00  0.74505805969E-08  0.10566000000E+00  0.10566000000E+00 0.  1.
     999900   -1    0    0    0    0 -0.00000000000E+00 -0.00000000000E+00 -0.74505805969E-08  0.93827000000E+00  0.93827000000E+00 0.  1.
     999902    2    1    2    0    0 -0.30284490321E-02 -0.20951379256E-01 -0.93155952029E-02  0.10208018330E+01  0.10205397935E+01 0.  0.
     999903    2    3    3    0    0  0.17033649724E-01  0.11992065757E+00 -0.38634324439E-01  0.12888983818E+00  0.21186552925E-01 0.  0.
         14    1    1    2    0    0  0.30284490321E-02  0.20951379256E-01  0.93155952029E-02  0.23128167032E-01  0.00000000000E+00 0. -1.
     999901    1    3    3    0    0 -0.20062098756E-01 -0.14087203683E+00  0.29318729236E-01  0.89191199479E+00  0.88000000000E+00 0.  1.
        -11    1    4    4    0    0  0.96455285171E-02  0.66197696334E-01 -0.32306425047E-01  0.74290897427E-01  0.51100000000E-03 0. -1.
         11    1    4    4    0    0  0.73881212069E-02  0.53722961239E-01 -0.63278993924E-02  0.54598940750E-01  0.51100000000E-03 0.  1.
</event>
<event>
 8    1  0.1123191E+005  0.1043930E+01  0.7957747E-01            NaN
         13   -1    0    0    0    0  0.00000000000E+00  0.00000000000E+00  0.74505805969E-08  0.10566000000E+00  0.10566000000E+00 0.  1.
     999900   -1    0    0    0    0 -0.00000000000E+00 -0.00000000000E+00 -0.74505805969E-08  0.93827000000E+00  0.93827000000E+00 0.  1.
     999902    2    1    2    0    0  0.10082982479E-03 -0.97343732401E-02  0.22210756413E-01  0.10196795177E+01  0.10193911090E+01 0.  0.
     999903    2    3    3    0    0  0.78125149698E-01  0.51922709482E-01 -0.83813192996E-01  0.12775437056E+00  0.22293970060E-01 0.  0.
         14    1    1    2    0    0 -0.10082982479E-03  0.97343732401E-02 -0.22210756413E-01  0.24250482253E-01  0.00000000000E+00 0. -1.
     999901    1    3    3    0    0 -0.78024319873E-01 -0.61657082722E-01  0.10602394941E+00  0.89192514719E+00  0.88000000000E+00 0. -1.
        -11    1    4    4    0    0  0.64651543866E-02 -0.19109093952E-02 -0.66846113115E-02  0.95076256418E-02  0.51100000000E-03 0.  1.
         11    1    4    4    0    0  0.71659995311E-01  0.53833618877E-01 -0.77128581685E-01  0.11824674492E+00  0.51100000000E-03 0. -1.
</event>
<event>
 8    1  0.1123191E+005  0.1043930E+01  0.7957747E-01            NaN
         13   -1    0    0    0    0  0.00000000000E+00  0.00000000000E+00  0.74505805969E-08  0.10566000000E+00  0.10566000000E+00 0.  1.
     999900   -1    0    0    0    0 -0.00000000000E+00 -0.00000000000E+00 -0.74505805969E-08  0.93827000000E+00  0.93827000000E+00 0.  1.
     999902    2    1    2    0    0 -0.16547411168E-01  0.43410460646E-02 -0.16056867500E-01  0.10204675941E+01  0.10201978367E+01 0.  0.
     999903    2    3    3    0    0 -0.56207129736E-01  0.33652559982E-01  0.11049774850E+00  0.13004739612E+00  0.20269104263E-01 0.  0.
         14    1    1    2    0    0  0.16547411168E-01 -0.43410460646E-02  0.16056867500E-01  0.23462405913E-01  0.00000000000E+00 0.  1.
     999901    1    3    3    0    0  0.39659718568E-01 -0.29311513917E-01 -0.12655461600E+00  0.89042019797E+00  0.88000000000E+00 0.  1.
        -11    1    4    4    0    0 -0.36352123947E-01  0.25866903998E-01  0.56536647622E-01  0.72022408202E-01  0.51100000000E-03 0. -1.
         11    1    4    4    0    0 -0.19855005789E-01  0.77856559838E-02  0.53961100874E-01  0.58024987914E-01  0.51100000000E-03 0.  1.
</event>
<event>
 8    1  0.1123191E+005  0.1043930E+01  0.7957747E-01            NaN
         13   -1    0    0    0    0  0.00000000000E+00  0.00000000000E+00  0.74505805969E-08  0.10566000000E+00  0.10566000000E+00 0. -1.
     999900   -1    0    0    0    0 -0.00000000000E+00 -0.00000000000E+00 -0.74505805969E-08  0.93827000000E+00  0.93827000000E+00 0. -1.
     999902    2    1    2    0    0  0.21522716838E-01 -0.12305378990E-02  0.22466826528E-02  0.10222553801E+01  0.10220255736E+01 0.  0.
     999903    2    3    3    0    0 -0.11860717080E+00  0.13861016350E-01  0.47431259659E-01  0.12989570689E+00  0.19062569004E-01 0.  0.
         14    1    1    2    0    0 -0.21522716838E-01  0.12305378990E-02 -0.22466826528E-02  0.21674619871E-01  0.00000000000E+00 0.  1.
     999901    1    3    3    0    0  0.14012988764E+00 -0.15091554249E-01 -0.45184577006E-01  0.89235967324E+00  0.88000000000E+00 0.  1.
        -11    1    4    4    0    0 -0.57488735952E-01  0.15655257475E-01  0.19723279300E-01  0.62763928456E-01  0.51100000000E-03 0.  1.
         11    1    4    4    0    0 -0.61118434848E-01 -0.17942411252E-02  0.27707980359E-01  0.67131778436E-01  0.51100000000E-03 0. -1.
</event>
<event>
 8    1  0.1123191E+005  0.1043930E+01  0.7957747E-01            NaN
         13   -1    0    0    0    0  0.00000000000E+00  0.00000000000E+00  0.74505805969E-08  0.10566000000E+00  0.10566000000E+00 0.  1.
     999900   -1    0    0    0    0 -0.00000000000E+00 -0.00000000000E+00 -0.74505805969E-08  0.93827000000E+00  0.93827000000E+00 0. -1.
     999902    2    1    2    0    0  0.11695532345E-01  0.20592880770E-01  0.24331145300E-02  0.10201230207E+01  0.10198451869E+01 0.  0.
     999903    2    3    3    0    0  0.21103252057E-01 -0.11863261312E+00  0.39740078169E-01  0.12834723453E+00  0.19357031165E-01 0.  0.
         14    1    1    2    0    0 -0.11695532345E-01 -0.20592880770E-01 -0.24331145300E-02  0.23806979261E-01  0.00000000000E+00 0.  1.
     999901    1    3    3    0    0 -0.94077197119E-02  0.13922549389E+00 -0.37306963639E-01  0.89177578621E+00  0.88000000000E+00 0.  1.
        -11    1    4    4    0    0  0.20552230359E-01 -0.65786300158E-01  0.18295703734E-01  0.71310766069E-01  0.51100000000E-03 0.  1.
         11    1    4    4    0    0  0.55102169782E-03 -0.52846312959E-01  0.21444374435E-01  0.57036468458E-01  0.51100000000E-03 0. -1.
</event>
<event>
 8    1  0.1123191E+005  0.1043930E+01  0.7957747E-01            NaN
         13   -1    0    0    0    0  0.00000000000E+00  0.00000000000E+00  0.74505805969E-08  0.10566000000E+00  0.10566000000E+00 0.  1.
     999900   -1    0    0    0    0 -0.00000000000E+00 -0.00000000000E+00 -0.74505805969E-08  0.93827000000E+00  0.93827000000E+00 0. -1.
     999902    2    1    2    0    0  0.80684673385E-03 -0.59620993626E-02  0.23323046787E-01  0.10198434448E+01  0.10195589682E+01 0.  0.
     999903    2    3    3    0    0 -0.87663296172E-01  0.39581178447E-02 -0.91334466670E-01  0.12795123029E+00  0.18138697248E-01 0.  0.
         14    1    1    2    0    0 -0.80684673385E-03  0.59620993626E-02 -0.23323046787E-01  0.24086555211E-01  0.00000000000E+00 0. -1.
     999901    1    3    3    0    0  0.88470142906E-01 -0.99202172073E-02  0.11465751346E+00  0.89189221450E+00  0.88000000000E+00 0.  1.
        -11    1    4    4    0    0 -0.59736408077E-01  0.10104955350E-01 -0.67675446844E-01  0.90833781156E-01  0.51100000000E-03 0. -1.
         11    1    4    4    0    0 -0.27926888095E-01 -0.61468375050E-02 -0.23659019826E-01  0.37117449132E-01  0.51100000000E-03 0.  1.
</event>
<event>
 8    1  0.1123191E+005  0.1043930E+01  0.7957747E-01            NaN
         13   -1    0    0    0    0  0.00000000000E+00  0.00000000000E+00  0.74505805969E-08  0.10566000000E+00  0.10566000000E+00 0. -1.
     999900   -1    0    0    0    0 -0.00000000000E+00 -0.00000000000E+00 -0.74505805969E-08  0.93827000000E+00  0.93827000000E+00 0.  1.
     999902    2    1    2    0    0 -0.22974128652E-01  0.22034339086E-03  0.49310256452E-02  0.10204316138E+01  0.10201610188E+01 0.  0.
     999903    2    3    3    0    0  0.37794270449E-01 -0.75094799717E-02  0.12232268993E+00  0.13052524160E+00  0.24273422795E-01 0.  0.
         14    1    1    2    0    0  0.22974128652E-01 -0.22034339086E-03 -0.49310256452E-02  0.23498386167E-01  0.00000000000E+00 0.  1.
     999901    1    3    3    0    0 -0.60768399100E-01  0.77298233626E-02 -0.11739166429E+00  0.88990637223E+00  0.88000000000E+00 0.  1.
        -11    1    4    4    0    0  0.39077462267E-01 -0.11917605671E-01  0.11185801471E+00  0.11908632985E+00  0.51100000000E-03 0.  1.
         11    1    4    4    0    0 -0.12831918181E-02  0.44081256996E-02  0.10464675222E-01  0.11438911746E-01  0.51100000000E-03 0. -1.
</event>
<event>
 8    1  0.1123191E+005  0.1043930E+01  0.7957747E-01            NaN
         13   -1    0    0    0    0  0.00000000000E+00  0.00000000000E+00  0.74505805969E-08  0.10566000000E+00  0.10566000000E+00 0. -1.
     999900   -1    0    0    0    0 -0.00000000000E+00 -0.00000000000E+00 -0.74505805969E-08  0.93827000000E+00  0.93827000000E+00 0. -1.
     999902    2    1    2    0    0 -0.24356908684E-02 -0.67097369912E-03  0.24001600087E-01  0.10197958001E+01  0.10195101836E+01 0.  0.
     999903    2    3    3    0    0 -0.53951068339E-01 -0.30821892538E-01  0.11586834915E+00  0.13300246932E+00  0.20086703923E-01 0.  0.
         14    1    1    2    0    0  0.24356908684E-02  0.67097369912E-03 -0.24001600087E-01  0.24134199851E-01  0.00000000000E+00 0.  1.
     999901    1    3    3    0    0  0.51515377470E-01  0.30150918839E-01 -0.91866749066E-01  0.88679333083E+00  0.88000000000E+00 0. -1.
        -11    1    4    4    0    0 -0.80537491928E-02  0.26342466281E-02  0.15960955966E-01  0.18078035505E-01  0.51100000000E-03 0. -1.
         11    1    4    4    0    0 -0.45897319146E-01 -0.33456139166E-01  0.99907393187E-01  0.11492443381E+00  0.51100000000E-03 0.  1.
</event>
<event>
 8    1  0.1123191E+005  0.1043930E+01  0.7957747E-01            NaN
         13   -1    0    0    0    0  0.00000000000E+00  0.00000000000E+00  0.74505805969E-08  0.10566000000E+00  0.10566000000E+00 0.  1.
     999900   -1    0    0    0    0 -0.00000000000E+00 -0.00000000000E+00 -0.74505805969E-08  0.93827000000E+00  0.93827000000E+00 0.  1.
     999902    2    1    2    0    0 -0.17603190761E-01 -0.10108315935E-01  0.13414117401E-01  0.10195991775E+01  0.10193088315E+01 0.  0.
     999903    2    3    3    0    0 -0.35200662082E-01  0.10262893376E+00  0.69056079150E-01  0.13048985559E+00  0.22069791347E-01 0.  0.
         14    1    1    2    0    0  0.17603190761E-01  0.10108315935E-01 -0.13414117401E-01  0.24330822462E-01  0.00000000000E+00 0. -1.
     999901    1    3    3    0    0  0.17597471321E-01 -0.11273724969E+00 -0.55641961749E-01  0.88910932195E+00  0.88000000000E+00 0.  1.
        -11    1    4    4    0    0 -0.27228289319E-01  0.45442632779E-01  0.33122803823E-01  0.62480347848E-01  0.51100000000E-03 0.  1.
         11    1    4    4    0    0 -0.79723727629E-02  0.57186300976E-01  0.35933275327E-01  0.68009507744E-01  0.51100000000E-03 0. -1.
</event>
<event>
 8    1  0.1123191E+005  0.1043930E+01  0.7957747E-01            NaN
         13   -1    0    0    0    0  0.00000000000E+00  0.00000000000E+00  0.74505805969E-08  0.10566000000E+00  0.10566000000E+00 0.  1.
     999900   -1    0    0    0    0 -0.00000000000E+00 -0.00000000000E+00 -0.74505805969E-08  0.93827000000E+00  0.93827000000E+00 0. -1.
     999902    2    1    2    0    0  0.71105590962E-02 -0.23137130026E-01 -0.17588331429E-02  0.10196610830E+01  0.10193722303E+01 0.  0.
     999903    2    3    3    0    0 -0.34626975072E-01 -0.64476970895E-01 -0.10776171042E+00  0.13135504670E+00  0.16889490279E-01 0.  0.
         14    1    1    2    0    0 -0.71105590962E-02  0.23137130026E-01  0.17588331429E-02  0.24268916962E-01  0.00000000000E+00 0. -1.
     999901    1    3    3    0    0  0.41737534168E-01  0.41339840869E-01  0.10600287728E+00  0.88830603634E+00  0.88000000000E+00 0.  1.
        -11    1    4    4    0    0 -0.13831897313E-01 -0.12183665435E-01 -0.32666872583E-01  0.37511981713E-01  0.51100000000E-03 0.  1.
         11    1    4    4    0    0 -0.20795077759E-01 -0.52293305460E-01 -0.75094837841E-01  0.93843064988E-01  0.51100000000E-03 0. -1.
</event>
<event>
 8    1  0.1123191E+005  0.1043930E+01  0.7957747E-01            NaN
         13   -1    0    0    0    0  0.00000000000E+00  0.00000000000E+00  0.74505805969E-08  0.10566000000E+00  0.10566000000E+00 0. -1.
     999900   -1    0    0    0    0 -0.00000000000E+00 -0.00000000000E+00 -0.74505805969E-08  0.93827000000E+00  0.93827000000E+00 0.  1.
     999902    2    1    2    0    0  0.12831901494E-01  0.34872013741E-02  0.17451826700E-01  0.10219895231E+01  0.10217539826E+01 0.  0.
     999903    2    3    3    0    0 -0.44356728532E-01 -0.12127094089E+00  0.13531835719E-01  0.13134340948E+00  0.19844902778E-01 0.  0.
         14    1    1    2    0    0 -0.12831901494E-01 -0.34872013741E-02 -0.17451826700E-01  0.21940476853E-01  0.00000000000E+00 0.  1.
     999901    1    3    3    0    0  0.57188630026E-01  0.12475814226E+00  0.39199909810E-02  0.89064611367E+00  0.88000000000E+00 0.  1.
        -11    1    4    4    0    0 -0.56165082857E-02 -0.35524661986E-01  0.93143297641E-02  0.37155950190E-01  0.51100000000E-03 0. -1.
         11    1    4    4    0    0 -0.38740220247E-01 -0.85746278899E-01  0.42175059545E-02  0.94187459289E-01  0.51100000000E-03 0.  1.
</event>
<event>
 8    1  0.1123191E+005  0.1043930E+01  0.7957747E-01            NaN
         13   -1    0    0    0    0  0.00000000000E+00  0.00000000000E+00  0.74505805969E-08  0.10566000000E+00  0.10566000000E+00 0.  1.
     999900   -1    0    0    0    0 -0.00000000000E+00 -0.00000000000E+00 -0.74505805969E-08  0.93827000000E+00  0.93827000000E+00 0. -1.
     999902    2    1    2    0    0  0.12541231728E-01 -0.48365672249E-02  0.20018979201E-01  0.10198170490E+01  0.10195319412E+01 0.  0.
     999903    2    3    3    0    0 -0.52098459406E-02 -0.11632911009E+00  0.58378128746E-01  0.13177588320E+00  0.19931711638E-01 0.  0.
         14    1    1    2    0    0 -0.12541231728E-01  0.48365672249E-02 -0.20018979201E-01  0.24112950960E-01  0.00000000000E+00 0. -1.
     999901    1    3    3    0    0  0.17751077669E-01  0.11149254286E+00 -0.38359149545E-01  0.88804116584E+00  0.88000000000E+00 0. -1.
        -11    1    4    4    0    0 -0.30151433863E-02 -0.12090045296E-01  0.40144554041E-03  0.12477281933E-01  0.51100000000E-03 0. -1.
         11    1    4    4    0    0 -0.21947025543E-02 -0.10423906479E+00  0.57976683206E-01  0.11929860127E+00  0.51100000000E-03 0.  1.
</event>
<event>
 8    1  0.1123191E+005  0.1043930E+01  0.7957747E-01            NaN
         13   -1    0    0    0    0  0.00000000000E+00  0.00000000000E+00  0.74505805969E-08  0.10566000000E+00  0.10566000000E+00 0. -1.
     999900   -1    0    0    0    0 -0.00000000000E+00 -0.00000000000E+00 -0.74505805969E-08  0.93827000000E+00  0.93827000000E+00 0. -1.
     999902    2    1    2    0    0  0.82173242714E-02  0.10443773274E-01 -0.18317690864E-01  0.10212996086E+01  0.10210488508E+01 0.  0.
     999903    2    3    3    0    0  0.64829173923E-02  0.25764352668E-01 -0.12999338825E+00  0.13410786507E+00  0.19514312639E-01 0.  0.
         14    1    1    2    0    0 -0.82173242714E-02 -0.10443773274E-01  0.18317690864E-01  0.22630391445E-01  0.00000000000E+00 0.  1.
     999901    1    3    3    0    0  0.17344068791E-02 -0.15320579394E-01  0.11167569739E+00  0.88719174348E+00  0.88000000000E+00 0.  1.
        -11    1    4    4    0    0  0.89500801753E-02  0.13191422642E-01 -0.37800696234E-01  0.41027689714E-01  0.51100000000E-03 0. -1.
         11    1    4    4    0    0 -0.24671627830E-02  0.12572930026E-01 -0.92192692019E-01  0.93080175356E-01  0.51100000000E-03 0.  1.
</event>
<event>
 8    1  0.1123191E+005  0.1043930E+01  0.7957747E-01            NaN
         13   -1    0    0    0    0  0.00000000000E+00  0.00000000000E+00  0.74505805969E-08  0.10566000000E+00  0.10566000000E+00 0. -1.
     999900   -1    0    0    0    0 -0.00000000000E+00 -0.00000000000E+00 -0.74505805969E-08  0.93827000000E+00  0.93827000000E+00 0.  1.
     999902    2    1    2    0    0  0.23297661523E-01  0.84119109852E-02 -0.10209471269E-01  0.10171386846E+01  0.10167857833E+01 0.  0.
     999903    2    3    3    0    0 -0.21289416047E-01  0.37794133781E-01 -0.11964683381E+00  0.12875371238E+00  0.19506866147E-01 0.  0.
         14    1    1    2    0    0 -0.23297661523E-01 -0.84119109852E-02  0.10209471269E-01  0.26791315430E-01  0.00000000000E+00 0.  1.
     999901    1    3    3    0    0  0.44587077570E-01 -0.29382222796E-01  0.10943736254E+00  0.88838497219E+00  0.88000000000E+00 0. -1.
        -11    1    4    4    0    0 -0.18939562271E-01  0.15889228021E-01 -0.51423926712E-01  0.57060108181E-01  0.51100000000E-03 0.  1.
         11    1    4    4    0    0 -0.23498537761E-02  0.21904905760E-01 -0.68222907093E-01  0.71693604194E-01  0.51100000000E-03 0. -1.
</event>
<event>
 8    1  0.1302082E+005  0.1043930E+01  0.7957747E-01            NaN
         13   -1    0    0    0    0  0.00000000000E+00  0.00000000000E+00  0.74505805969E-08  0.10566000000E+00  0.10566000000E+00 0. -1.
     999900   -1    0    0    0    0 -0.00000000000E+00 -0.00000000000E+00 -0.74505805969E-08  0.93827000000E+00  0.93827000000E+00 0. -1.
     999902    2    1    2    0    0 -0.18942056432E-01  0.27614424927E-02  0.14471825983E-01  0.10199328999E+01  0.10196505575E+01 0.  0.
     999903    2    3    3    0    0  0.35202063411E-03 -0.12872665509E+00  0.13425246532E-01  0.12995398073E+00  0.11710004909E-01 0.  0.
         14    1    1    2    0    0  0.18942056432E-01 -0.27614424927E-02 -0.14471825983E-01  0.23997100112E-01  0.00000000000E+00 0.  1.
     999901    1    3    3    0    0 -0.19294077067E-01  0.13148809758E+00  0.10465794504E-02  0.88997891916E+00  0.88000000000E+00 0.  1.
        -11    1    4    4    0    0  0.56933636739E-02 -0.77454352634E-01  0.96778093947E-02  0.78265651774E-01  0.51100000000E-03 0. -1.
         11    1    4    4    0    0 -0.53413430398E-02 -0.51272302452E-01  0.37474371375E-02  0.51688328957E-01  0.51100000000E-03 0.  1.
</event>
<event>
 8    1  0.1123191E+005  0.1043930E+01  0.7957747E-01            NaN
         13   -1    0    0    0    0  0.00000000000E+00  0.00000000000E+00  0.74505805969E-08  0.10566000000E+00  0.10566000000E+00 0. -1.
     999900   -1    0    0    0    0 -0.00000000000E+00 -0.00000000000E+00 -0.74505805969E-08  0.93827000000E+00  0.93827000000E+00 0.  1.
     999902    2    1    2    0    0  0.33194459636E-02 -0.12475725001E-01  0.19375144664E-01  0.10206478466E+01  0.10203822657E+01 0.  0.
     999903    2    3    3    0    0 -0.41908081746E-01  0.11848767266E+00  0.26616679412E-01  0.12977783330E+00  0.18390826659E-01 0.  0.
         14    1    1    2    0    0 -0.33194459636E-02  0.12475725001E-01 -0.19375144664E-01  0.23282153392E-01  0.00000000000E+00 0.  1.
     999901    1    3    3    0    0  0.45227527710E-01 -0.13096339766E+00 -0.72415347475E-02  0.89087001331E+00  0.88000000000E+00 0.  1.
        -11    1    4    4    0    0 -0.50946301100E-02  0.39859195228E-01  0.92201957589E-02  0.41230860178E-01  0.51100000000E-03 0. -1.
         11    1    4    4    0    0 -0.36813451636E-01  0.78628477430E-01  0.17396483653E-01  0.88546973120E-01  0.51100000000E-03 0.  1.
</event>
<event>
 8    1  0.1123191E+005  0.1043930E+01  0.7957747E-01            NaN
         13   -1    0    0    0    0  0.00000000000E+00  0.00000000000E+00  0.74505805969E-08  0.10566000000E+00  0.10566000000E+00 0. -1.
     999900   -1    0    0    0    0 -0.00000000000E+00 -0.00000000000E+00 -0.74505805969E-08  0.93827000000E+00  0.93827000000E+00 0.  1.
     999902    2    1    2    0    0  0.91423259842E-02  0.77136024805E-02 -0.20359467353E-01  0.10203166627E+01  0.10200433826E+01 0.  0.
     999903    2    3    3    0    0  0.90434183965E-01  0.92173105797E-01  0.16790414475E-01  0.13176622091E+00  0.20154302123E-01 0.  0.
         14    1    1    2    0    0 -0.91423259842E-02 -0.77136024805E-02  0.20359467353E-01  0.23613337302E-01  0.00000000000E+00 0. -1.
     999901    1    3    3    0    0 -0.81291857981E-01 -0.84459503316E-01 -0.37149881828E-01  0.88855044178E+00  0.88000000000E+00 0.  1.
        -11    1    4    4    0    0  0.55488075559E-01  0.57529587741E-01  0.20182890391E-01  0.82439008851E-01  0.51100000000E-03 0. -1.
         11    1    4    4    0    0  0.34946108406E-01  0.34643518056E-01 -0.33924759165E-02  0.49327212063E-01  0.51100000000E-03 0.  1.
</event>
<event>
 8    1  0.1123191E+005  0.1043930E+01  0.7957747E-01            NaN
         13   -1    0    0    0    0  0.00000000000E+00  0.00000000000E+00  0.74505805969E-08  0.10566000000E+00  0.10566000000E+00 0. -1.
     999900   -1    0    0    0    0 -0.00000000000E+00 -0.00000000000E+00 -0.74505805969E-08  0.93827000000E+00  0.93827000000E+00 0. -1.
     999902    2    1    2    0    0 -0.15809406077E-01 -0.37756538134E-02  0.17215092129E-01  0.10202540147E+01  0.10199792656E+01 0.  0.
     999903    2    3    3    0    0 -0.12023345371E+00 -0.27657821334E-01 -0.41876489990E-01  0.13179098525E+00  0.19854090406E-01 0.  0.
         14    1    1    2    0    0  0.15809406077E-01  0.37756538134E-02 -0.17215092129E-01  0.23675985285E-01  0.00000000000E+00 0.  1.
     999901    1    3    3    0    0  0.10442404764E+00  0.23882167521E-01  0.59091582119E-01  0.88846302947E+00  0.88000000000E+00 0.  1.
        -11    1    4    4    0    0 -0.10202517867E-01  0.31394614997E-02 -0.41211304695E-02  0.11453926256E-01  0.51100000000E-03 0. -1.
         11    1    4    4    0    0 -0.11003093585E+00 -0.30797282834E-01 -0.37755359520E-01  0.12033705899E+00  0.51100000000E-03 0.  1.
</event>
<event>
 8    1  0.1123191E+005  0.1043930E+01  0.7957747E-01            NaN
         13   -1    0    0    0    0  0.00000000000E+00  0.00000000000E+00  0.74505805969E-08  0.10566000000E+00  0.10566000000E+00 0.  1.
     999900   -1    0    0    0    0 -0.00000000000E+00 -0.00000000000E+00 -0.74505805969E-08  0.93827000000E+00  0.93827000000E+00 0. -1.
     999902    2    1    2    0    0 -0.18989877329E-01  0.11009966916E-01 -0.99553233745E-02  0.10198272351E+01  0.10195423710E+01 0.  0.
     999903    2    3    3    0    0 -0.87436026548E-01 -0.73607576201E-01  0.59091989779E-01  0.13043838010E+00  0.21428339488E-01 0.  0.
         14    1    1    2    0    0  0.18989877329E-01 -0.11009966916E-01  0.99553233745E-02  0.24102764903E-01  0.00000000000E+00 0.  1.
     999901    1    3    3    0    0  0.68446149219E-01  0.84617543117E-01 -0.69047313154E-01  0.88938885500E+00  0.88000000000E+00 0.  1.
        -11    1    4    4    0    0 -0.31965245251E-01 -0.35074379087E-01  0.14977574611E-01  0.49765227162E-01  0.51100000000E-03 0.  1.
         11    1    4    4    0    0 -0.55470781298E-01 -0.38533197114E-01  0.44114415169E-01  0.80673152934E-01  0.51100000000E-03 0. -1.
</event>
