<event>
 8    1  0.1157726E+005  0.1043930E+01  0.7957747E-01            NaN
         13   -1    0    0    0    0  0.00000000000E+00  0.00000000000E+00  0.74505805969E-08  0.10566000000E+00  0.10566000000E+00 0. -1.
     999900   -1    0    0    0    0 -0.00000000000E+00 -0.00000000000E+00 -0.74505805969E-08  0.93827000000E+00  0.93827000000E+00 0.  1.
     999902    2    1    2    0    0  0.23100482421E-04  0.22254512817E-01 -0.84232764386E-02  0.10201347177E+01  0.10198571600E+01 0.  0.
     999903    2    3    3    0    0 -0.75186026875E-01  0.96971304217E-01  0.44800096471E-01  0.13217540602E+00  0.20172179696E-01 0.  0.
         14    1    1    2    0    0 -0.23100482421E-04 -0.22254512817E-01  0.84232764386E-02  0.23795282312E-01  0.00000000000E+00 0. -1.
     999901    1    3    3    0    0  0.75209127357E-01 -0.74716791400E-01 -0.53223372910E-01  0.88795931167E+00  0.88000000000E+00 0. -1.
        -11    1    4    4    0    0 -0.38541396377E-01  0.52385414704E-01  0.13157095300E-01  0.66355415651E-01  0.51100000000E-03 0.  1.
         11    1    4    4    0    0 -0.36644630497E-01  0.44585889513E-01  0.31643001172E-01  0.65819990369E-01  0.51100000000E-03 0. -1.
</event>
<event>
 8    1  0.1157726E+005  0.1043930E+01  0.7957747E-01            NaN
         13   -1    0    0    0    0  0.00000000000E+00  0.00000000000E+00  0.74505805969E-08  0.10566000000E+00  0.10566000000E+00 0.  1.
     999900   -1    0    0    0    0 -0.00000000000E+00 -0.00000000000E+00 -0.74505805969E-08  0.93827000000E+00  0.93827000000E+00 0.  1.
     999902    2    1    2    0    0 -0.59964721613E-02  0.14070927811E-01  0.17713525482E-01  0.10205266312E+01  0.10202582454E+01 0.  0.
     999903    2    3    3    0    0  0.10695671630E+00  0.73058913426E-01  0.79216004876E-02  0.13129444156E+00  0.19953311490E-01 0.  0.
         14    1    1    2    0    0  0.59964721613E-02 -0.14070927811E-01 -0.17713525482E-01  0.23403368835E-01  0.00000000000E+00 0. -1.
     999901    1    3    3    0    0 -0.11295318846E+00 -0.58987985615E-01  0.97919249945E-02  0.88923218960E+00  0.88000000000E+00 0. -1.
        -11    1    4    4    0    0  0.64665949883E-01  0.34222800504E-01  0.99519388593E-02  0.73838928464E-01  0.51100000000E-03 0. -1.
         11    1    4    4    0    0  0.42290766412E-01  0.38836112921E-01 -0.20303383716E-02  0.57455513099E-01  0.51100000000E-03 0.  1.
</event>
<event>
 8    1  0.1157726E+005  0.1043930E+01  0.7957747E-01            NaN
         13   -1    0    0    0    0  0.00000000000E+00  0.00000000000E+00  0.74505805969E-08  0.10566000000E+00  0.10566000000E+00 0. -1.
     999900   -1    0    0    0    0 -0.00000000000E+00 -0.00000000000E+00 -0.74505805969E-08  0.93827000000E+00  0.93827000000E+00 0. -1.
     999902    2    1    2    0    0  0.54220315860E-02  0.33798540170E-02 -0.23200323660E-01  0.10198659842E+01  0.10195820461E+01 0.  0.
     999903    2    3    3    0    0  0.50385713034E-01  0.65949621143E-01 -0.10221977125E+00  0.13297208888E+00  0.18564002291E-01 0.  0.
         14    1    1    2    0    0 -0.54220315860E-02 -0.33798540170E-02  0.23200323660E-01  0.24064015825E-01  0.00000000000E+00 0. -1.
     999901    1    3    3    0    0 -0.44963681448E-01 -0.62569767126E-01  0.79019447590E-01  0.88689389529E+00  0.88000000000E+00 0.  1.
        -11    1    4    4    0    0  0.35744150679E-01  0.34234796639E-01 -0.67650692197E-01  0.83824476642E-01  0.51100000000E-03 0. -1.
         11    1    4    4    0    0  0.14641562356E-01  0.31714824504E-01 -0.34569079052E-01  0.49147612242E-01  0.51100000000E-03 0.  1.
</event>
<event>
 8    1  0.1157726E+005  0.1043930E+01  0.7957747E-01            NaN
         13   -1    0    0    0    0  0.00000000000E+00  0.00000000000E+00  0.74505805969E-08  0.10566000000E+00  0.10566000000E+00 0. -1.
     999900   -1    0    0    0    0 -0.00000000000E+00 -0.00000000000E+00 -0.74505805969E-08  0.93827000000E+00  0.93827000000E+00 0. -1.
     999902    2    1    2    0    0 -0.53183751117E-02  0.13557057756E-01 -0.18594358073E-01  0.10203115944E+01  0.10200381957E+01 0.  0.
     999903    2    3    3    0    0 -0.98027464292E-01 -0.64574841149E-01  0.50053686197E-01  0.12935024690E+00  0.21138141011E-01 0.  0.
         14    1    1    2    0    0  0.53183751117E-02 -0.13557057756E-01  0.18594358073E-01  0.23618405555E-01  0.00000000000E+00 0. -1.
     999901    1    3    3    0    0  0.92709089180E-01  0.78131898904E-01 -0.68648044270E-01  0.89096134755E+00  0.88000000000E+00 0.  1.
        -11    1    4    4    0    0 -0.93485596809E-01 -0.54733130873E-01  0.44006392094E-01  0.11692773876E+00  0.51100000000E-03 0. -1.
         11    1    4    4    0    0 -0.45418674829E-02 -0.98417102753E-02  0.60472941035E-02  0.12422508134E-01  0.51100000000E-03 0.  1.
</event>
<event>
 8    1  0.1157726E+005  0.1043930E+01  0.7957747E-01            NaN
         13   -1    0    0    0    0  0.00000000000E+00  0.00000000000E+00  0.74505805969E-08  0.10566000000E+00  0.10566000000E+00 0.  1.
     999900   -1    0    0    0    0 -0.00000000000E+00 -0.00000000000E+00 -0.74505805969E-08  0.93827000000E+00  0.93827000000E+00 0.  1.
     999902    2    1    2    0    0  0.11160622747E-02  0.73448493782E-02  0.23366252870E-01  0.10194111464E+01  0.10191162403E+01 0.  0.
     999903    2    3    3    0    0 -0.48759822550E-01 -0.10597136237E+00  0.54384906729E-01  0.13020345155E+00  0.19691896273E-01 0.  0.
         14    1    1    2    0    0 -0.11160622747E-02 -0.73448493782E-02 -0.23366252870E-01  0.24518853574E-01  0.00000000000E+00 0. -1.
     999901    1    3    3    0    0  0.49875884825E-01  0.11331621175E+00 -0.31018653859E-01  0.88920769487E+00  0.88000000000E+00 0. -1.
        -11    1    4    4    0    0 -0.47035349645E-01 -0.10087361234E+00  0.55953495238E-01  0.12457473473E+00  0.51100000000E-03 0. -1.
         11    1    4    4    0    0 -0.17244729049E-02 -0.50977500291E-02 -0.15685885088E-02  0.56287168226E-02  0.51100000000E-03 0.  1.
</event>
<event>
 8    1  0.1157726E+005  0.1043930E+01  0.7957747E-01            NaN
         13   -1    0    0    0    0  0.00000000000E+00  0.00000000000E+00  0.74505805969E-08  0.10566000000E+00  0.10566000000E+00 0.  1.
     999900   -1    0    0    0    0 -0.00000000000E+00 -0.00000000000E+00 -0.74505805969E-08  0.93827000000E+00  0.93827000000E+00 0.  1.
     999902    2    1    2    0    0 -0.29130232258E-03 -0.13759814144E-01 -0.19289360771E-01  0.10202340767E+01  0.10199588592E+01 0.  0.
     999903    2    3    3    0    0  0.18372585094E-02  0.57339932924E-01  0.11181889403E+00  0.12768207301E+00  0.22538928070E-01 0.  0.
         14    1    1    2    0    0  0.29130232258E-03  0.13759814144E-01  0.19289360771E-01  0.23695923305E-01  0.00000000000E+00 0.  1.
     999901    1    3    3    0    0 -0.21285608320E-02 -0.71099747068E-01 -0.13110825481E+00  0.89255200369E+00  0.88000000000E+00 0.  1.
        -11    1    4    4    0    0 -0.95719569630E-02  0.15491160789E-01  0.35248910403E-01  0.39678019460E-01  0.51100000000E-03 0. -1.
         11    1    4    4    0    0  0.11409215472E-01  0.41848772135E-01  0.76569983631E-01  0.88004053550E-01  0.51100000000E-03 0.  1.
</event>
<event>
 8    1  0.1157726E+005  0.1043930E+01  0.7957747E-01            NaN
         13   -1    0    0    0    0  0.00000000000E+00  0.00000000000E+00  0.74505805969E-08  0.10566000000E+00  0.10566000000E+00 0.  1.
     999900   -1    0    0    0    0 -0.00000000000E+00 -0.00000000000E+00 -0.74505805969E-08  0.93827000000E+00  0.93827000000E+00 0.  1.
     999902    2    1    2    0    0 -0.19877052620E-01 -0.13426629108E-01  0.80394957685E-02  0.10186316783E+01  0.10183174804E+01 0.  0.
     999903    2    3    3    0    0  0.83459653347E-02  0.99914710301E-01 -0.75323612121E-01  0.12700832409E+00  0.20121217001E-01 0.  0.
         14    1    1    2    0    0  0.19877052620E-01  0.13426629108E-01 -0.80394957685E-02  0.25298321729E-01  0.00000000000E+00 0. -1.
     999901    1    3    3    0    0 -0.28223017955E-01 -0.11334133941E+00  0.83363107890E-01  0.89162335418E+00  0.88000000000E+00 0. -1.
        -11    1    4    4    0    0  0.10321713256E-02  0.56252199863E-01 -0.30471757696E-01  0.63985658589E-01  0.51100000000E-03 0.  1.
         11    1    4    4    0    0  0.73137940092E-02  0.43662510439E-01 -0.44851854426E-01  0.63022665502E-01  0.51100000000E-03 0. -1.
</event>
<event>
 8    1  0.1157726E+005  0.1043930E+01  0.7957747E-01            NaN
         13   -1    0    0    0    0  0.00000000000E+00  0.00000000000E+00  0.74505805969E-08  0.10566000000E+00  0.10566000000E+00 0.  1.
     999900   -1    0    0    0    0 -0.00000000000E+00 -0.00000000000E+00 -0.74505805969E-08  0.93827000000E+00  0.93827000000E+00 0.  1.
     999902    2    1    2    0    0 -0.38355169385E-03 -0.24293025577E-01 -0.36686121189E-02  0.10193585345E+01  0.10190623459E+01 0.  0.
     999903    2    3    3    0    0  0.20229670537E-01  0.82559934604E-01  0.92812579233E-01  0.12742183250E+00  0.19918989986E-01 0.  0.
         14    1    1    2    0    0  0.38355169385E-03  0.24293025577E-01  0.36686121189E-02  0.24571465533E-01  0.00000000000E+00 0.  1.
     999901    1    3    3    0    0 -0.20613222231E-01 -0.10685296018E+00 -0.96481191351E-01  0.89193670197E+00  0.88000000000E+00 0.  1.
        -11    1    4    4    0    0  0.10104450989E-02  0.16833893350E-01  0.30395385862E-01  0.34764084445E-01  0.51100000000E-03 0. -1.
         11    1    4    4    0    0  0.19219225439E-01  0.65726041254E-01  0.62417193370E-01  0.92657748055E-01  0.51100000000E-03 0.  1.
</event>
<event>
 8    1  0.1157726E+005  0.1043930E+01  0.7957747E-01            NaN
         13   -1    0    0    0    0  0.00000000000E+00  0.00000000000E+00  0.74505805969E-08  0.10566000000E+00  0.10566000000E+00 0. -1.
     999900   -1    0    0    0    0 -0.00000000000E+00 -0.00000000000E+00 -0.74505805969E-08  0.93827000000E+00  0.93827000000E+00 0. -1.
     999902    2    1    2    0    0  0.81922374860E-02  0.91655769859E-02 -0.18885516363E-01  0.10213959528E+01  0.10211473493E+01 0.  0.
     999903    2    3    3    0    0  0.48781521354E-04 -0.12040137326E+00  0.43914379049E-01  0.12965734906E+00  0.19648471105E-01 0.  0.
         14    1    1    2    0    0 -0.81922374860E-02 -0.91655769859E-02  0.18885516363E-01  0.22534047235E-01  0.00000000000E+00 0. -1.
     999901    1    3    3    0    0  0.81434559646E-02  0.12956695024E+00 -0.62799895412E-01  0.89173860370E+00  0.88000000000E+00 0.  1.
        -11    1    4    4    0    0  0.29634676461E-02 -0.38238460799E-01  0.49475326606E-02  0.38674296700E-01  0.51100000000E-03 0. -1.
         11    1    4    4    0    0 -0.29146861248E-02 -0.82162912457E-01  0.38966846389E-01  0.90983052362E-01  0.51100000000E-03 0.  1.
</event>
<event>
 8    1  0.1157726E+005  0.1043930E+01  0.7957747E-01            NaN
         13   -1    0    0    0    0  0.00000000000E+00  0.00000000000E+00  0.74505805969E-08  0.10566000000E+00  0.10566000000E+00 0. -1.
     999900   -1    0    0    0    0 -0.00000000000E+00 -0.00000000000E+00 -0.74505805969E-08  0.93827000000E+00  0.93827000000E+00 0. -1.
     999902    2    1    2    0    0  0.13677394573E-02  0.20178428953E-01 -0.92093857968E-03  0.10236843132E+01  0.10234840914E+01 0.  0.
     999903    2    3    3    0    0 -0.51156363328E-01 -0.11911573636E+00  0.30775051033E-02  0.13117233377E+00  0.19778219124E-01 0.  0.
         14    1    1    2    0    0 -0.13677394573E-02 -0.20178428953E-01  0.92093857968E-03  0.20245686803E-01  0.00000000000E+00 0. -1.
     999901    1    3    3    0    0  0.52524102785E-01  0.13929416532E+00 -0.39984436830E-02  0.89251197942E+00  0.88000000000E+00 0.  1.
        -11    1    4    4    0    0 -0.28400777680E-01 -0.46073756786E-01 -0.43813249546E-02  0.54303336607E-01  0.51100000000E-03 0.  1.
         11    1    4    4    0    0 -0.22755585647E-01 -0.73041979576E-01  0.74588300578E-02  0.76868997166E-01  0.51100000000E-03 0. -1.
</event>
<event>
 8    1  0.1157726E+005  0.1043930E+01  0.7957747E-01            NaN
         13   -1    0    0    0    0  0.00000000000E+00  0.00000000000E+00  0.74505805969E-08  0.10566000000E+00  0.10566000000E+00 0.  1.
     999900   -1    0    0    0    0 -0.00000000000E+00 -0.00000000000E+00 -0.74505805969E-08  0.93827000000E+00  0.93827000000E+00 0. -1.
     999902    2    1    2    0    0 -0.19779114167E-01  0.26987078231E-02  0.10903434040E-01  0.10211839838E+01  0.10209306281E+01 0.  0.
     999903    2    3    3    0    0  0.10805203672E+00  0.49356713329E-01 -0.46011987987E-01  0.12890760399E+00  0.19716478882E-01 0.  0.
         14    1    1    2    0    0  0.19779114167E-01 -0.26987078231E-02 -0.10903434040E-01  0.22746016245E-01  0.00000000000E+00 0.  1.
     999901    1    3    3    0    0 -0.12783115089E+00 -0.46658005505E-01  0.56915422027E-01  0.89227637976E+00  0.88000000000E+00 0. -1.
        -11    1    4    4    0    0  0.26698209353E-01  0.76956457600E-02 -0.18759868377E-01  0.33529257803E-01  0.51100000000E-03 0.  1.
         11    1    4    4    0    0  0.81353827365E-01  0.41661067569E-01 -0.27252119610E-01  0.95378346191E-01  0.51100000000E-03 0. -1.
</event>
<event>
 8    1  0.1157726E+005  0.1043930E+01  0.7957747E-01            NaN
         13   -1    0    0    0    0  0.00000000000E+00  0.00000000000E+00  0.74505805969E-08  0.10566000000E+00  0.10566000000E+00 0. -1.
     999900   -1    0    0    0    0 -0.00000000000E+00 -0.00000000000E+00 -0.74505805969E-08  0.93827000000E+00  0.93827000000E+00 0. -1.
     999902    2    1    2    0    0 -0.21287950593E-01 -0.41510419269E-02 -0.11415638794E-01  0.10194203121E+01  0.10191256292E+01 0.  0.
     999903    2    3    3    0    0 -0.53442289784E-01 -0.67901748634E-01 -0.98177735144E-01  0.13227561397E+00  0.19779903168E-01 0.  0.
         14    1    1    2    0    0  0.21287950593E-01  0.41510419269E-02  0.11415638794E-01  0.24509687852E-01  0.00000000000E+00 0. -1.
     999901    1    3    3    0    0  0.32154339191E-01  0.63750706707E-01  0.86762096350E-01  0.88714469817E+00  0.88000000000E+00 0.  1.
        -11    1    4    4    0    0 -0.30267767853E-01 -0.22671440734E-01 -0.41680526523E-01  0.56281963435E-01  0.51100000000E-03 0. -1.
         11    1    4    4    0    0 -0.23174521931E-01 -0.45230307900E-01 -0.56497208621E-01  0.75993650540E-01  0.51100000000E-03 0.  1.
</event>
<event>
 8    1  0.1157726E+005  0.1043930E+01  0.7957747E-01            NaN
         13   -1    0    0    0    0  0.00000000000E+00  0.00000000000E+00  0.74505805969E-08  0.10566000000E+00  0.10566000000E+00 0. -1.
     999900   -1    0    0    0    0 -0.00000000000E+00 -0.00000000000E+00 -0.74505805969E-08  0.93827000000E+00  0.93827000000E+00 0. -1.
     999902    2    1    2    0    0  0.23289832053E-01  0.16858260317E-02  0.31878996200E-02  0.10203626287E+01  0.10200904240E+01 0.  0.
     999903    2    3    3    0    0 -0.31365212942E-01 -0.26394787322E-01 -0.12136479733E+00  0.12947034053E+00  0.18780140183E-01 0.  0.
         14    1    1    2    0    0 -0.23289832053E-01 -0.16858260317E-02 -0.31878996200E-02  0.23567371310E-01  0.00000000000E+00 0. -1.
     999901    1    3    3    0    0  0.54655044995E-01  0.28080613353E-01  0.12455269695E+00  0.89089228816E+00  0.88000000000E+00 0.  1.
        -11    1    4    4    0    0 -0.15691598781E-01 -0.24758924676E-01 -0.79955377880E-01  0.85160755025E-01  0.51100000000E-03 0.  1.
         11    1    4    4    0    0 -0.15673614161E-01 -0.16358626456E-02 -0.41409419447E-01  0.44309585503E-01  0.51100000000E-03 0. -1.
</event>
<event>
 8    1  0.1157726E+005  0.1043930E+01  0.7957747E-01            NaN
         13   -1    0    0    0    0  0.00000000000E+00  0.00000000000E+00  0.74505805969E-08  0.10566000000E+00  0.10566000000E+00 0. -1.
     999900   -1    0    0    0    0 -0.00000000000E+00 -0.00000000000E+00 -0.74505805969E-08  0.93827000000E+00  0.93827000000E+00 0. -1.
     999902    2    1    2    0    0 -0.22040096624E-01 -0.44607849447E-02 -0.74246832945E-02  0.10202489869E+01  0.10199741197E+01 0.  0.
     999903    2    3    3    0    0 -0.12631848113E-01  0.11826440846E+00 -0.49294194914E-01  0.13069682749E+00  0.22487978289E-01 0.  0.
         14    1    1    2    0    0  0.22040096624E-01  0.44607849447E-02  0.74246832945E-02  0.23681013144E-01  0.00000000000E+00 0.  1.
     999901    1    3    3    0    0 -0.94082485108E-02 -0.12272519340E+00  0.41869511620E-01  0.88955215937E+00  0.88000000000E+00 0. -1.
        -11    1    4    4    0    0 -0.75273957351E-02  0.53810153692E-01 -0.34512708352E-01  0.64370664791E-01  0.51100000000E-03 0.  1.
         11    1    4    4    0    0 -0.51044523776E-02  0.64454254768E-01 -0.14781486562E-01  0.66326162695E-01  0.51100000000E-03 0. -1.
</event>
<event>
 8    1  0.1157726E+005  0.1043930E+01  0.7957747E-01            NaN
         13   -1    0    0    0    0  0.00000000000E+00  0.00000000000E+00  0.74505805969E-08  0.10566000000E+00  0.10566000000E+00 0.  1.
     999900   -1    0    0    0    0 -0.00000000000E+00 -0.00000000000E+00 -0.74505805969E-08  0.93827000000E+00  0.93827000000E+00 0.  1.
     999902    2    1    2    0    0 -0.12412288054E-01  0.13723357384E-01  0.12128377870E-01  0.10218055117E+01  0.10215659601E+01 0.  0.
     999903    2    3    3    0    0  0.42947627119E-01  0.20951368974E-02 -0.12112444471E+00  0.12997803374E+00  0.19346055827E-01 0.  0.
         14    1    1    2    0    0  0.12412288054E-01 -0.13723357384E-01 -0.12128377870E-01  0.22124488296E-01  0.00000000000E+00 0. -1.
     999901    1    3    3    0    0 -0.55359915174E-01  0.11628220487E-01  0.13325282258E+00  0.89182747796E+00  0.88000000000E+00 0. -1.
        -11    1    4    4    0    0  0.24148518416E-01  0.41122438885E-02 -0.92342178974E-01  0.95537430519E-01  0.51100000000E-03 0.  1.
         11    1    4    4    0    0  0.18799108703E-01 -0.20171069911E-02 -0.28782265734E-01  0.34440603224E-01  0.51100000000E-03 0. -1.
</event>
<event>
 8    1  0.1157726E+005  0.1043930E+01  0.7957747E-01            NaN
         13   -1    0    0    0    0  0.00000000000E+00  0.00000000000E+00  0.74505805969E-08  0.10566000000E+00  0.10566000000E+00 0. -1.
     999900   -1    0    0    0    0 -0.00000000000E+00 -0.00000000000E+00 -0.74505805969E-08  0.93827000000E+00  0.93827000000E+00 0.  1.
     999902    2    1    2    0    0 -0.19397099381E-01  0.14459859184E-01 -0.19335689008E-02  0.10196591599E+01  0.10193702608E+01 0.  0.
     999903    2    3    3    0    0 -0.87225922938E-01 -0.22261853624E-01  0.93425348522E-01  0.13115335987E+00  0.19208235205E-01 0.  0.
         14    1    1    2    0    0  0.19397099381E-01 -0.14459859184E-01  0.19335689008E-02  0.24270840132E-01  0.00000000000E+00 0. -1.
     999901    1    3    3    0    0  0.67828823557E-01  0.36721712808E-01 -0.95358917423E-01  0.88850580000E+00  0.88000000000E+00 0.  1.
        -11    1    4    4    0    0 -0.49106663481E-01 -0.15681204629E-01  0.40300798655E-01  0.65435312104E-01  0.51100000000E-03 0. -1.
         11    1    4    4    0    0 -0.38119259457E-01 -0.65806489950E-02  0.53124549867E-01  0.65718047767E-01  0.51100000000E-03 0.  1.
</event>
<event>
 8    1  0.1157726E+005  0.1043930E+01  0.7957747E-01            NaN
         13   -1    0    0    0    0  0.00000000000E+00  0.00000000000E+00  0.74505805969E-08  0.10566000000E+00  0.10566000000E+00 0. -1.
     999900   -1    0    0    0    0 -0.00000000000E+00 -0.00000000000E+00 -0.74505805969E-08  0.93827000000E+00  0.93827000000E+00 0.  1.
     999902    2    1    2    0    0  0.20097834106E-01  0.87304918672E-02  0.25176873636E-03  0.10220163556E+01  0.10217813970E+01 0.  0.
     999903    2    3    3    0    0 -0.38910759428E-01  0.64919640300E-01 -0.10640697782E+00  0.13183922561E+00  0.18180472651E-01 0.  0.
         14    1    1    2    0    0 -0.20097834106E-01 -0.87304918672E-02 -0.25176873636E-03  0.21913644414E-01  0.00000000000E+00 0. -1.
     999901    1    3    3    0    0  0.59008593534E-01 -0.56189148432E-01  0.10665874655E+00  0.89017712997E+00  0.88000000000E+00 0. -1.
        -11    1    4    4    0    0 -0.35405050869E-01  0.51606659608E-01 -0.75972207432E-01  0.98431714229E-01  0.51100000000E-03 0. -1.
         11    1    4    4    0    0 -0.35057085593E-02  0.13312980691E-01 -0.30434770386E-01  0.33407511384E-01  0.51100000000E-03 0.  1.
</event>
<event>
 8    1  0.1157726E+005  0.1043930E+01  0.7957747E-01            NaN
         13   -1    0    0    0    0  0.00000000000E+00  0.00000000000E+00  0.74505805969E-08  0.10566000000E+00  0.10566000000E+00 0. -1.
     999900   -1    0    0    0    0 -0.00000000000E+00 -0.00000000000E+00 -0.74505805969E-08  0.93827000000E+00  0.93827000000E+00 0.  1.
     999902    2    1    2    0    0  0.18515188924E-01 -0.46879828556E-02  0.14527876373E-01  0.10199331545E+01  0.10196508182E+01 0.  0.
     999903    2    3    3    0    0  0.26392507077E-01  0.11200385950E+00 -0.55642846747E-01  0.12942601322E+00  0.20335622208E-01 0.  0.
         14    1    1    2    0    0 -0.18515188924E-01  0.46879828556E-02 -0.14527876373E-01  0.23996845543E-01  0.00000000000E+00 0.  1.
     999901    1    3    3    0    0 -0.78773181538E-02 -0.11669184236E+00  0.70170723120E-01  0.89050714124E+00  0.88000000000E+00 0. -1.
        -11    1    4    4    0    0 -0.10716028305E-02  0.21084671897E-01 -0.16054166487E-01  0.26527515983E-01  0.51100000000E-03 0. -1.
         11    1    4    4    0    0  0.27464109908E-01  0.90919187604E-01 -0.39588680260E-01  0.10289849723E+00  0.51100000000E-03 0.  1.
</event>
<event>
 8    1  0.1157726E+005  0.1043930E+01  0.7957747E-01            NaN
         13   -1    0    0    0    0  0.00000000000E+00  0.00000000000E+00  0.74505805969E-08  0.10566000000E+00  0.10566000000E+00 0. -1.
     999900   -1    0    0    0    0 -0.00000000000E+00 -0.00000000000E+00 -0.74505805969E-08  0.93827000000E+00  0.93827000000E+00 0.  1.
     999902    2    1    2    0    0 -0.21643587786E-01 -0.11153065765E-01  0.38380818270E-02  0.10192811331E+01  0.10189830527E+01 0.  0.
     999903    2    3    3    0    0  0.29377076549E-01 -0.12197309400E+00 -0.28875886214E-01  0.13026235344E+00  0.19849827044E-01 0.  0.
         14    1    1    2    0    0  0.21643587786E-01  0.11153065765E-01 -0.38380818270E-02  0.24648866918E-01  0.00000000000E+00 0. -1.
     999901    1    3    3    0    0 -0.51020664335E-01  0.11082002823E+00  0.32713968041E-01  0.88901877964E+00  0.88000000000E+00 0. -1.
        -11    1    4    4    0    0  0.11008963564E-01 -0.44558422363E-01 -0.86205755639E-03  0.45909198931E-01  0.51100000000E-03 0.  1.
         11    1    4    4    0    0  0.18368112984E-01 -0.77414671636E-01 -0.28013828658E-01  0.84353154512E-01  0.51100000000E-03 0. -1.
</event>
<event>
 8    1  0.1157726E+005  0.1043930E+01  0.7957747E-01            NaN
         13   -1    0    0    0    0  0.00000000000E+00  0.00000000000E+00  0.74505805969E-08  0.10566000000E+00  0.10566000000E+00 0.  1.
     999900   -1    0    0    0    0 -0.00000000000E+00 -0.00000000000E+00 -0.74505805969E-08  0.93827000000E+00  0.93827000000E+00 0. -1.
     999902    2    1    2    0    0 -0.12155361919E-01  0.16528303632E-01  0.15505570001E-01  0.10182130728E+01  0.10178882558E+01 0.  0.
     999903    2    3    3    0    0 -0.61257116435E-01 -0.22338081858E-01  0.11167643212E+00  0.13076143301E+00  0.19377890923E-01 0.  0.
         14    1    1    2    0    0  0.12155361919E-01 -0.16528303632E-01 -0.15505570001E-01  0.25716927216E-01  0.00000000000E+00 0. -1.
     999901    1    3    3    0    0  0.49101754516E-01  0.38866385491E-01 -0.96170862119E-01  0.88745163977E+00  0.88000000000E+00 0. -1.
        -11    1    4    4    0    0 -0.16031210688E-01 -0.14711313584E-01  0.29628766679E-01  0.36763397550E-01  0.51100000000E-03 0.  1.
         11    1    4    4    0    0 -0.45225905747E-01 -0.76267682741E-02  0.82047665441E-01  0.93998035460E-01  0.51100000000E-03 0. -1.
</event>
<event>
 8    1  0.1157726E+005  0.1043930E+01  0.7957747E-01            NaN
         13   -1    0    0    0    0  0.00000000000E+00  0.00000000000E+00  0.74505805969E-08  0.10566000000E+00  0.10566000000E+00 0.  1.
     999900   -1    0    0    0    0 -0.00000000000E+00 -0.00000000000E+00 -0.74505805969E-08  0.93827000000E+00  0.93827000000E+00 0.  1.
     999902    2    1    2    0    0  0.50893958821E-02 -0.18645374547E-01 -0.15607317338E-01  0.10190876914E+01  0.10187848558E+01 0.  0.
     999903    2    3    3    0    0  0.62225924152E-01 -0.78945729104E-01 -0.83033235442E-01  0.13260759006E+00  0.24202499331E-01 0.  0.
         14    1    1    2    0    0 -0.50893958821E-02  0.18645374547E-01  0.15607317338E-01  0.24842308607E-01  0.00000000000E+00 0.  1.
     999901    1    3    3    0    0 -0.57136528270E-01  0.60300354558E-01  0.67425918104E-01  0.88648010133E+00  0.88000000000E+00 0. -1.
        -11    1    4    4    0    0  0.29815417255E-02 -0.18509232865E-01 -0.14515466739E-01  0.23715842552E-01  0.51100000000E-03 0. -1.
         11    1    4    4    0    0  0.59244382427E-01 -0.60436496239E-01 -0.68517768704E-01  0.10889174751E+00  0.51100000000E-03 0.  1.
</event>
<event>
 8    1  0.1157726E+005  0.1043930E+01  0.7957747E-01            NaN
         13   -1    0    0    0    0  0.00000000000E+00  0.00000000000E+00  0.74505805969E-08  0.10566000000E+00  0.10566000000E+00 0.  1.
     999900   -1    0    0    0    0 -0.00000000000E+00 -0.00000000000E+00 -0.74505805969E-08  0.93827000000E+00  0.93827000000E+00 0. -1.
     999902    2    1    2    0    0 -0.66395223647E-02 -0.10645691891E-01 -0.20298403055E-01  0.10200670752E+01  0.10197879185E+01 0.  0.
     999903    2    3    3    0    0 -0.38762574324E-02 -0.43498817665E-02  0.12626415812E+00  0.12791918545E+00  0.19665541856E-01 0.  0.
         14    1    1    2    0    0  0.66395223647E-02  0.10645691891E-01  0.20298403055E-01  0.23862924792E-01  0.00000000000E+00 0.  1.
     999901    1    3    3    0    0 -0.27632649323E-02 -0.62958101243E-02 -0.14656256118E+00  0.89214788976E+00  0.88000000000E+00 0. -1.
        -11    1    4    4    0    0  0.80268142650E-02 -0.18763618244E-02  0.45493442421E-01  0.46237051217E-01  0.51100000000E-03 0. -1.
         11    1    4    4    0    0 -0.11903071697E-01 -0.24735199420E-02  0.80770715704E-01  0.81682134234E-01  0.51100000000E-03 0.  1.
</event>
<event>
 8    1  0.1157726E+005  0.1043930E+01  0.7957747E-01            NaN
         13   -1    0    0    0    0  0.00000000000E+00  0.00000000000E+00  0.74505805969E-08  0.10566000000E+00  0.10566000000E+00 0. -1.
     999900   -1    0    0    0    0 -0.00000000000E+00 -0.00000000000E+00 -0.74505805969E-08  0.93827000000E+00  0.93827000000E+00 0.  1.
     999902    2    1    2    0    0 -0.27646305854E-02 -0.66931986644E-03  0.20970958072E-01  0.10227670074E+01  0.10225480327E+01 0.  0.
     999903    2    3    3    0    0  0.30745636593E-01  0.15203351464E-01  0.12930473718E+00  0.13534879296E+00  0.20570479669E-01 0.  0.
         14    1    1    2    0    0  0.27646305854E-02  0.66931986644E-03 -0.20970958072E-01  0.21162992553E-01  0.00000000000E+00 0.  1.
     999901    1    3    3    0    0 -0.33510267178E-01 -0.15872671330E-01 -0.10833377911E+00  0.88741821448E+00  0.88000000000E+00 0.  1.
        -11    1    4    4    0    0  0.28940429573E-01  0.47173674318E-02  0.96490110262E-01  0.10084842348E+00  0.51100000000E-03 0.  1.
         11    1    4    4    0    0  0.18052070199E-02  0.10485984032E-01  0.32814626919E-01  0.34500369481E-01  0.51100000000E-03 0. -1.
</event>
<event>
 8    1  0.1157726E+005  0.1043930E+01  0.7957747E-01            NaN
         13   -1    0    0    0    0  0.00000000000E+00  0.00000000000E+00  0.74505805969E-08  0.10566000000E+00  0.10566000000E+00 0. -1.
     999900   -1    0    0    0    0 -0.00000000000E+00 -0.00000000000E+00 -0.74505805969E-08  0.93827000000E+00  0.93827000000E+00 0. -1.
     999902    2    1    2    0    0 -0.48710607482E-02  0.22604658903E-01 -0.67080020218E-02  0.10198531412E+01  0.10195688964E+01 0.  0.
     999903    2    3    3    0    0  0.12227951434E+00 -0.34558934154E-01 -0.67850204441E-02  0.12887898277E+00  0.20424400595E-01 0.  0.
         14    1    1    2    0    0  0.48710607482E-02 -0.22604658903E-01  0.67080020218E-02  0.24076858766E-01  0.00000000000E+00 0. -1.
     999901    1    3    3    0    0 -0.12715057509E+00  0.57163593057E-01  0.77018422248E-04  0.89097415846E+00  0.88000000000E+00 0.  1.
        -11    1    4    4    0    0  0.24991815553E-01 -0.37486610589E-03 -0.62011410277E-02  0.25757457954E-01  0.51100000000E-03 0. -1.
         11    1    4    4    0    0  0.97287698790E-01 -0.34184068048E-01 -0.58387941635E-03  0.10312152482E+00  0.51100000000E-03 0.  1.
</event>
<event>
 8    1  0.1157726E+005  0.1043930E+01  0.7957747E-01            NaN
         13   -1    0    0    0    0  0.00000000000E+00  0.00000000000E+00  0.74505805969E-08  0.10566000000E+00  0.10566000000E+00 0.  1.
     999900   -1    0    0    0    0 -0.00000000000E+00 -0.00000000000E+00 -0.74505805969E-08  0.93827000000E+00  0.93827000000E+00 0.  1.
     999902    2    1    2    0    0 -0.22650501424E-01  0.30350827355E-02 -0.44202145655E-02  0.10206535046E+01  0.10203880542E+01 0.  0.
     999903    2    3    3    0    0 -0.88108682352E-01 -0.94215118318E-01  0.23331303493E-01  0.13244602780E+00  0.18920151507E-01 0.  0.
         14    1    1    2    0    0  0.22650501424E-01 -0.30350827355E-02  0.44202145655E-02  0.23276495414E-01  0.00000000000E+00 0.  1.
     999901    1    3    3    0    0  0.65458180928E-01  0.97250201053E-01 -0.27751518059E-01  0.88820747678E+00  0.88000000000E+00 0.  1.
        -11    1    4    4    0    0 -0.56291070166E-01 -0.72602256077E-01  0.14987197511E-01  0.93084098417E-01  0.51100000000E-03 0.  1.
         11    1    4    4    0    0 -0.31817612185E-01 -0.21612862241E-01  0.83441059825E-02  0.39361929387E-01  0.51100000000E-03 0. -1.
</event>
<event>
 8    1  0.1157726E+005  0.1043930E+01  0.7957747E-01            NaN
         13   -1    0    0    0    0  0.00000000000E+00  0.00000000000E+00  0.74505805969E-08  0.10566000000E+00  0.10566000000E+00 0.  1.
     999900   -1    0    0    0    0 -0.00000000000E+00 -0.00000000000E+00 -0.74505805969E-08  0.93827000000E+00  0.93827000000E+00 0.  1.
     999902    2    1    2    0    0  0.21416655425E-02  0.19863803130E-01 -0.12823786525E-01  0.10201895934E+01  0.10199133294E+01 0.  0.
     999903    2    3    3    0    0  0.62322403353E-01  0.25889811171E-01  0.10890630296E+00  0.12975360541E+00  0.20519527535E-01 0.  0.
         14    1    1    2    0    0 -0.21416655425E-02 -0.19863803130E-01  0.12823786525E-01  0.23740406629E-01  0.00000000000E+00 0.  1.
     999901    1    3    3    0    0 -0.60180737811E-01 -0.60260080413E-02 -0.12173008948E+00  0.89043598796E+00  0.88000000000E+00 0.  1.
        -11    1    4    4    0    0  0.15470892766E-01  0.16527715944E-01  0.38487996091E-01  0.44655356693E-01  0.51100000000E-03 0.  1.
         11    1    4    4    0    0  0.46851510587E-01  0.93620952273E-02  0.70418306865E-01  0.85098248714E-01  0.51100000000E-03 0. -1.
</event>
<event>
 8    1  0.1157726E+005  0.1043930E+01  0.7957747E-01            NaN
         13   -1    0    0    0    0  0.00000000000E+00  0.00000000000E+00  0.74505805969E-08  0.10566000000E+00  0.10566000000E+00 0.  1.
     999900   -1    0    0    0    0 -0.00000000000E+00 -0.00000000000E+00 -0.74505805969E-08  0.93827000000E+00  0.93827000000E+00 0.  1.
     999902    2    1    2    0    0  0.76939747503E-02 -0.17205435087E-01  0.16488567853E-01  0.10188880928E+01  0.10185803104E+01 0.  0.
     999903    2    3    3    0    0 -0.69037175918E-01  0.28888215271E-01  0.10469185290E+00  0.12996058535E+00  0.18130334817E-01 0.  0.
         14    1    1    2    0    0 -0.76939747503E-02  0.17205435087E-01 -0.16488567853E-01  0.25041907152E-01  0.00000000000E+00 0. -1.
     999901    1    3    3    0    0  0.76731150668E-01 -0.46093650358E-01 -0.88203285052E-01  0.88892750749E+00  0.88000000000E+00 0.  1.
        -11    1    4    4    0    0 -0.20374517254E-01  0.17523631459E-01  0.32819971332E-01  0.42421813399E-01  0.51100000000E-03 0. -1.
         11    1    4    4    0    0 -0.48662658664E-01  0.11364583811E-01  0.71871881572E-01  0.87538771954E-01  0.51100000000E-03 0.  1.
</event>
<event>
 8    1  0.1157726E+005  0.1043930E+01  0.7957747E-01            NaN
         13   -1    0    0    0    0  0.00000000000E+00  0.00000000000E+00  0.74505805969E-08  0.10566000000E+00  0.10566000000E+00 0. -1.
     999900   -1    0    0    0    0 -0.00000000000E+00 -0.00000000000E+00 -0.74505805969E-08  0.93827000000E+00  0.93827000000E+00 0.  1.
     999902    2    1    2    0    0 -0.14094594615E-01 -0.11439975518E-01  0.16861224652E-01  0.10191543762E+01  0.10188531842E+01 0.  0.
     999903    2    3    3    0    0  0.41626935897E-01  0.11626566072E+00  0.27945045756E-01  0.12812324905E+00  0.19599380327E-01 0.  0.
         14    1    1    2    0    0  0.14094594615E-01  0.11439975518E-01 -0.16861224652E-01  0.24775623786E-01  0.00000000000E+00 0.  1.
     999901    1    3    3    0    0 -0.55721530512E-01 -0.12770563624E+00 -0.11083821104E-01  0.89103112717E+00  0.88000000000E+00 0. -1.
        -11    1    4    4    0    0  0.20748379711E-02  0.58379624601E-02 -0.28662982176E-02  0.68456953456E-02  0.51100000000E-03 0. -1.
         11    1    4    4    0    0  0.39552097926E-01  0.11042769826E+00  0.30811343974E-01  0.12127755370E+00  0.51100000000E-03 0.  1.
</event>
<event>
 8    1  0.1157726E+005  0.1043930E+01  0.7957747E-01            NaN
         13   -1    0    0    0    0  0.00000000000E+00  0.00000000000E+00  0.74505805969E-08  0.10566000000E+00  0.10566000000E+00 0.  1.
     999900   -1    0    0    0    0 -0.00000000000E+00 -0.00000000000E+00 -0.74505805969E-08  0.93827000000E+00  0.93827000000E+00 0. -1.
     999902    2    1    2    0    0 -0.23237429709E-01  0.32840984157E-03 -0.11331088972E-01  0.10180750281E+01  0.10177466695E+01 0.  0.
     999903    2    3    3    0    0 -0.23980329401E-01 -0.12512572535E+00  0.10798670326E-02  0.12909059421E+00  0.20777681734E-01 0.  0.
         14    1    1    2    0    0  0.23237429709E-01 -0.32840984157E-03  0.11331088972E-01  0.25854971858E-01  0.00000000000E+00 0.  1.
     999901    1    3    3    0    0  0.74289969164E-03  0.12545413520E+00 -0.12410956004E-01  0.88898443393E+00  0.88000000000E+00 0. -1.
        -11    1    4    4    0    0  0.55426070988E-03 -0.47836801263E-01 -0.26259009260E-02  0.47914749678E-01  0.51100000000E-03 0. -1.
         11    1    4    4    0    0 -0.24534590111E-01 -0.77288924090E-01  0.37057679587E-02  0.81175844536E-01  0.51100000000E-03 0.  1.
</event>
<event>
 8    1  0.1157726E+005  0.1043930E+01  0.7957747E-01            NaN
         13   -1    0    0    0    0  0.00000000000E+00  0.00000000000E+00  0.74505805969E-08  0.10566000000E+00  0.10566000000E+00 0. -1.
     999900   -1    0    0    0    0 -0.00000000000E+00 -0.00000000000E+00 -0.74505805969E-08  0.93827000000E+00  0.93827000000E+00 0. -1.
     999902    2    1    2    0    0  0.38542541414E-02  0.11767440834E-02  0.23266478840E-01  0.10203171002E+01  0.10200438303E+01 0.  0.
     999903    2    3    3    0    0 -0.11291557135E+00 -0.61361883482E-01  0.21681727014E-02  0.13015340138E+00  0.20493899589E-01 0.  0.
         14    1    1    2    0    0 -0.38542541414E-02 -0.11767440834E-02 -0.23266478840E-01  0.23612899848E-01  0.00000000000E+00 0.  1.
     999901    1    3    3    0    0  0.11676982549E+00  0.62538627565E-01  0.21098306139E-01  0.89016369877E+00  0.88000000000E+00 0. -1.
        -11    1    4    4    0    0 -0.52898749596E-01 -0.19544271737E-01 -0.51868243138E-02  0.56634093390E-01  0.51100000000E-03 0.  1.
         11    1    4    4    0    0 -0.60016821756E-01 -0.41817611744E-01  0.73549970152E-02  0.73519307993E-01  0.51100000000E-03 0. -1.
</event>
<event>
 8    1  0.1157726E+005  0.1043930E+01  0.7957747E-01            NaN
         13   -1    0    0    0    0  0.00000000000E+00  0.00000000000E+00  0.74505805969E-08  0.10566000000E+00  0.10566000000E+00 0. -1.
     999900   -1    0    0    0    0 -0.00000000000E+00 -0.00000000000E+00 -0.74505805969E-08  0.93827000000E+00  0.93827000000E+00 0. -1.
     999902    2    1    2    0    0 -0.10519130135E-01 -0.30138594629E-02 -0.22163386420E-01  0.10192125741E+01  0.10189128127E+01 0.  0.
     999903    2    3    3    0    0  0.10096537031E-01  0.11960518278E+00 -0.45485959683E-01  0.13016568121E+00  0.21605375019E-01 0.  0.
         14    1    1    2    0    0  0.10519130135E-01  0.30138594629E-02  0.22163386420E-01  0.24717425943E-01  0.00000000000E+00 0. -1.
     999901    1    3    3    0    0 -0.20615667165E-01 -0.12261904224E+00  0.23322573263E-01  0.88904689284E+00  0.88000000000E+00 0. -1.
        -11    1    4    4    0    0  0.10718097129E-01  0.24466363002E-01 -0.12189731980E-01  0.29365476522E-01  0.51100000000E-03 0.  1.
         11    1    4    4    0    0 -0.62156009824E-03  0.95138819776E-01 -0.33296227703E-01  0.10080020469E+00  0.51100000000E-03 0. -1.
</event>
<event>
 8    1  0.1157726E+005  0.1043930E+01  0.7957747E-01            NaN
         13   -1    0    0    0    0  0.00000000000E+00  0.00000000000E+00  0.74505805969E-08  0.10566000000E+00  0.10566000000E+00 0.  1.
     999900   -1    0    0    0    0 -0.00000000000E+00 -0.00000000000E+00 -0.74505805969E-08  0.93827000000E+00  0.93827000000E+00 0. -1.
     999902    2    1    2    0    0 -0.14274306165E-01  0.18224074631E-01  0.10997009855E-01  0.10183017551E+01  0.10179792028E+01 0.  0.
     999903    2    3    3    0    0  0.96402048242E-01  0.61858348359E-01 -0.52879178055E-01  0.12800215794E+00  0.21645664637E-01 0.  0.
         14    1    1    2    0    0  0.14274306165E-01 -0.18224074631E-01 -0.10997009855E-01  0.25628244934E-01  0.00000000000E+00 0. -1.
     999901    1    3    3    0    0 -0.11067635441E+00 -0.43634273728E-01  0.63876187910E-01  0.89029959713E+00  0.88000000000E+00 0. -1.
        -11    1    4    4    0    0  0.67078473474E-01  0.47707035630E-01 -0.47381593909E-01  0.94977678507E-01  0.51100000000E-03 0. -1.
         11    1    4    4    0    0  0.29323574768E-01  0.14151312729E-01 -0.54975841460E-02  0.33024479429E-01  0.51100000000E-03 0.  1.
</event>
<event>
 8    1  0.1157726E+005  0.1043930E+01  0.7957747E-01            NaN
         13   -1    0    0    0    0  0.00000000000E+00  0.00000000000E+00  0.74505805969E-08  0.10566000000E+00  0.10566000000E+00 0.  1.
     999900   -1    0    0    0    0 -0.00000000000E+00 -0.00000000000E+00 -0.74505805969E-08  0.93827000000E+00  0.93827000000E+00 0.  1.
     999902    2    1    2    0    0 -0.97532609365E-02  0.11724698176E-01  0.18221684260E-01  0.10201681730E+01  0.10198914044E+01 0.  0.
     999903    2    3    3    0    0  0.30437845882E-01  0.59186040243E-01 -0.10871426007E+00  0.12888783660E+00  0.19074439917E-01 0.  0.
         14    1    1    2    0    0  0.97532609365E-02 -0.11724698176E-01 -0.18221684260E-01  0.23761827023E-01  0.00000000000E+00 0. -1.
     999901    1    3    3    0    0 -0.40191106819E-01 -0.47461342068E-01  0.12693594433E+00  0.89128033638E+00  0.88000000000E+00 0. -1.
        -11    1    4    4    0    0  0.60532145252E-02  0.32478499844E-01 -0.53572109967E-01  0.62942246905E-01  0.51100000000E-03 0.  1.
         11    1    4    4    0    0  0.24384631357E-01  0.26707540399E-01 -0.55142150102E-01  0.65945589690E-01  0.51100000000E-03 0. -1.
</event>
<event>
 8    1  0.1157726E+005  0.1043930E+01  0.7957747E-01            NaN
         13   -1    0    0    0    0  0.00000000000E+00  0.00000000000E+00  0.74505805969E-08  0.10566000000E+00  0.10566000000E+00 0.  1.
     999900   -1    0    0    0    0 -0.00000000000E+00 -0.00000000000E+00 -0.74505805969E-08  0.93827000000E+00  0.93827000000E+00 0. -1.
     999902    2    1    2    0    0  0.37860844469E-02  0.89928782053E-02  0.21433473820E-01  0.10203800511E+01  0.10201082534E+01 0.  0.
     999903    2    3    3    0    0 -0.78286284604E-01 -0.68020507354E-01 -0.72557535628E-01  0.12824707603E+00  0.20668448351E-01 0.  0.
         14    1    1    2    0    0 -0.37860844469E-02 -0.89928782053E-02 -0.21433473820E-01  0.23549948914E-01  0.00000000000E+00 0. -1.
     999901    1    3    3    0    0  0.82072369051E-01  0.77013385559E-01  0.93991009448E-01  0.89213297505E+00  0.88000000000E+00 0. -1.
        -11    1    4    4    0    0 -0.61526778652E-01 -0.45111549618E-01 -0.44457702560E-01  0.88302575490E-01  0.51100000000E-03 0. -1.
         11    1    4    4    0    0 -0.16759505952E-01 -0.22908957736E-01 -0.28099833069E-01  0.39944500545E-01  0.51100000000E-03 0.  1.
</event>
<event>
 8    1  0.1157726E+005  0.1043930E+01  0.7957747E-01            NaN
         13   -1    0    0    0    0  0.00000000000E+00  0.00000000000E+00  0.74505805969E-08  0.10566000000E+00  0.10566000000E+00 0.  1.
     999900   -1    0    0    0    0 -0.00000000000E+00 -0.00000000000E+00 -0.74505805969E-08  0.93827000000E+00  0.93827000000E+00 0.  1.
     999902    2    1    2    0    0 -0.15900166458E-01  0.19799592639E-02 -0.15014781364E-01  0.10219714210E+01  0.10217354874E+01 0.  0.
     999903    2    3    3    0    0  0.14555111272E-01 -0.83334223360E-01 -0.10112712842E+00  0.13313995778E+00  0.18523180312E-01 0.  0.
         14    1    1    2    0    0  0.15900166458E-01 -0.19799592639E-02  0.15014781364E-01  0.21958578995E-01  0.00000000000E+00 0.  1.
     999901    1    3    3    0    0 -0.30455277730E-01  0.85314182624E-01  0.86112347056E-01  0.88883146322E+00  0.88000000000E+00 0.  1.
        -11    1    4    4    0    0 -0.15781572398E-02 -0.10659646017E-01 -0.59958528503E-02  0.12342204255E-01  0.51100000000E-03 0.  1.
         11    1    4    4    0    0  0.16133268512E-01 -0.72674577343E-01 -0.95131275569E-01  0.12079775353E+00  0.51100000000E-03 0. -1.
</event>
<event>
 8    1  0.1157726E+005  0.1043930E+01  0.7957747E-01            NaN
         13   -1    0    0    0    0  0.00000000000E+00  0.00000000000E+00  0.74505805969E-08  0.10566000000E+00  0.10566000000E+00 0. -1.
     999900   -1    0    0    0    0 -0.00000000000E+00 -0.00000000000E+00 -0.74505805969E-08  0.93827000000E+00  0.93827000000E+00 0.  1.
     999902    2    1    2    0    0  0.25428326553E-01  0.21394406285E-01  0.11209928726E-02  0.10106797814E+01  0.10101326861E+01 0.  0.
     999903    2    3    3    0    0  0.23745421009E-01 -0.35419545645E-02  0.11840541575E+00  0.12254674514E+00  0.20529778430E-01 0.  0.
         14    1    1    2    0    0 -0.25428326553E-01 -0.21394406285E-01 -0.11209928726E-02  0.33250218594E-01  0.00000000000E+00 0.  1.
     999901    1    3    3    0    0  0.16829055439E-02  0.24936360849E-01 -0.11728442288E+00  0.88813303627E+00  0.88000000000E+00 0.  1.
        -11    1    4    4    0    0  0.15300176676E-01 -0.94119357584E-02  0.98599807787E-01  0.10022406476E+00  0.51100000000E-03 0. -1.
         11    1    4    4    0    0  0.84452443324E-02  0.58699811940E-02  0.19805607967E-01  0.22322680372E-01  0.51100000000E-03 0.  1.
</event>
<event>
 8    1  0.1157726E+005  0.1043930E+01  0.7957747E-01            NaN
         13   -1    0    0    0    0  0.00000000000E+00  0.00000000000E+00  0.74505805969E-08  0.10566000000E+00  0.10566000000E+00 0.  1.
     999900   -1    0    0    0    0 -0.00000000000E+00 -0.00000000000E+00 -0.74505805969E-08  0.93827000000E+00  0.93827000000E+00 0. -1.
     999902    2    1    2    0    0 -0.12879061342E-01  0.68300227094E-02 -0.17661379542E-01  0.10210292629E+01  0.10207724095E+01 0.  0.
     999903    2    3    3    0    0  0.62612404136E-01 -0.91057363932E-01 -0.67524882199E-01  0.13099147119E+00  0.19682457416E-01 0.  0.
         14    1    1    2    0    0  0.12879061342E-01 -0.68300227094E-02  0.17661379542E-01  0.22900737075E-01  0.00000000000E+00 0.  1.
     999901    1    3    3    0    0 -0.75491465478E-01  0.97887386642E-01  0.49863502657E-01  0.89003779174E+00  0.88000000000E+00 0. -1.
        -11    1    4    4    0    0  0.41295117160E-01 -0.45416286301E-01 -0.43105116420E-01  0.75008252514E-01  0.51100000000E-03 0. -1.
         11    1    4    4    0    0  0.21317286976E-01 -0.45641077631E-01 -0.24419765779E-01  0.55983218673E-01  0.51100000000E-03 0.  1.
</event>
<event>
 8    1  0.1157726E+005  0.1043930E+01  0.7957747E-01            NaN
         13   -1    0    0    0    0  0.00000000000E+00  0.00000000000E+00  0.74505805969E-08  0.10566000000E+00  0.10566000000E+00 0.  1.
     999900   -1    0    0    0    0 -0.00000000000E+00 -0.00000000000E+00 -0.74505805969E-08  0.93827000000E+00  0.93827000000E+00 0. -1.
     999902    2    1    2    0    0 -0.91984424562E-02  0.15417919438E-01 -0.15290122044E-01  0.10203479853E+01  0.10200754383E+01 0.  0.
     999903    2    3    3    0    0  0.10195557693E+00 -0.44889586230E-01 -0.63551505936E-01  0.12999896813E+00  0.21234952060E-01 0.  0.
         14    1    1    2    0    0  0.91984424562E-02 -0.15417919438E-01  0.15290122044E-01  0.23582014662E-01  0.00000000000E+00 0. -1.
     999901    1    3    3    0    0 -0.11115401939E+00  0.60307505668E-01  0.48261383892E-01  0.89034901721E+00  0.88000000000E+00 0.  1.
        -11    1    4    4    0    0  0.59150690040E-01 -0.32089483925E-01 -0.48112336801E-01  0.82726036919E-01  0.51100000000E-03 0.  1.
         11    1    4    4    0    0  0.42804886891E-01 -0.12800102305E-01 -0.15439169135E-01  0.47272931212E-01  0.51100000000E-03 0. -1.
</event>
<event>
 8    1  0.1157726E+005  0.1043930E+01  0.7957747E-01            NaN
         13   -1    0    0    0    0  0.00000000000E+00  0.00000000000E+00  0.74505805969E-08  0.10566000000E+00  0.10566000000E+00 0. -1.
     999900   -1    0    0    0    0 -0.00000000000E+00 -0.00000000000E+00 -0.74505805969E-08  0.93827000000E+00  0.93827000000E+00 0.  1.
     999902    2    1    2    0    0  0.21511791067E-01  0.84194213990E-02 -0.65281995585E-02  0.10199245589E+01  0.10196420179E+01 0.  0.
     999903    2    3    3    0    0 -0.69905992651E-01  0.76847756916E-01  0.73798185329E-01  0.12891839936E+00  0.19528337967E-01 0.  0.
         14    1    1    2    0    0 -0.21511791067E-01 -0.84194213990E-02  0.65281995585E-02  0.24005441072E-01  0.00000000000E+00 0. -1.
     999901    1    3    3    0    0  0.91417783717E-01 -0.68428335517E-01 -0.80326384888E-01  0.89100615957E+00  0.88000000000E+00 0.  1.
        -11    1    4    4    0    0 -0.35988035725E-01  0.26661546761E-01  0.36514539335E-01  0.57788835383E-01  0.51100000000E-03 0.  1.
         11    1    4    4    0    0 -0.33917956926E-01  0.50186210156E-01  0.37283645994E-01  0.71129563976E-01  0.51100000000E-03 0. -1.
</event>
<event>
 8    1  0.1157726E+005  0.1043930E+01  0.7957747E-01            NaN
         13   -1    0    0    0    0  0.00000000000E+00  0.00000000000E+00  0.74505805969E-08  0.10566000000E+00  0.10566000000E+00 0.  1.
     999900   -1    0    0    0    0 -0.00000000000E+00 -0.00000000000E+00 -0.74505805969E-08  0.93827000000E+00  0.93827000000E+00 0. -1.
     999902    2    1    2    0    0  0.16422411450E-01  0.15032268735E-01 -0.10872182670E-01  0.10191536190E+01  0.10188524083E+01 0.  0.
     999903    2    3    3    0    0 -0.56962490565E-01 -0.29687102051E-01  0.10778385261E+00  0.12704128261E+00  0.19901739711E-01 0.  0.
         14    1    1    2    0    0 -0.16422411450E-01 -0.15032268735E-01  0.10872182670E-01  0.24776381034E-01  0.00000000000E+00 0.  1.
     999901    1    3    3    0    0  0.73384902015E-01  0.44719370785E-01 -0.11865603528E+00  0.89211233635E+00  0.88000000000E+00 0. -1.
        -11    1    4    4    0    0 -0.12217273916E-01 -0.16520657154E-01  0.35211594230E-01  0.40771453052E-01  0.51100000000E-03 0. -1.
         11    1    4    4    0    0 -0.44745216648E-01 -0.13166444897E-01  0.72572258384E-01  0.86269829559E-01  0.51100000000E-03 0.  1.
</event>
<event>
 8    1  0.1157726E+005  0.1043930E+01  0.7957747E-01            NaN
         13   -1    0    0    0    0  0.00000000000E+00  0.00000000000E+00  0.74505805969E-08  0.10566000000E+00  0.10566000000E+00 0. -1.
     999900   -1    0    0    0    0 -0.00000000000E+00 -0.00000000000E+00 -0.74505805969E-08  0.93827000000E+00  0.93827000000E+00 0. -1.
     999902    2    1    2    0    0  0.18463115720E-01  0.13197729476E-01 -0.13217796456E-02  0.10211964608E+01  0.10209433861E+01 0.  0.
     999903    2    3    3    0    0  0.92794753187E-03  0.70876233080E-01 -0.11046707532E+00  0.13240684140E+00  0.17444065364E-01 0.  0.
         14    1    1    2    0    0 -0.18463115720E-01 -0.13197729476E-01  0.13217796456E-02  0.22733539250E-01  0.00000000000E+00 0. -1.
     999901    1    3    3    0    0  0.17535168188E-01 -0.57678503605E-01  0.10914529568E+00  0.88878961935E+00  0.88000000000E+00 0.  1.
        -11    1    4    4    0    0 -0.37590905944E-02  0.39820476868E-02 -0.12821039485E-01  0.13950901059E-01  0.51100000000E-03 0.  1.
         11    1    4    4    0    0  0.46870381263E-02  0.66894185394E-01 -0.97646035836E-01  0.11845594034E+00  0.51100000000E-03 0. -1.
</event>
<event>
 7    1  0.1157726E+005  0.1043930E+01  0.7957747E-01            NaN
         13   -1    0    0    0    0  0.00000000000E+00  0.00000000000E+00  0.74505805969E-08  0.10566000000E+00  0.10566000000E+00 0.  1.
     999900   -1    0    0    0    0 -0.00000000000E+00 -0.00000000000E+00 -0.74505805969E-08  0.93827000000E+00  0.93827000000E+00 0. -1.
     999902    2    1    2    0    0  0.11712649454E-01 -0.17413406234E-02 -0.21796249407E-01  0.10191248612E+01  0.10188229423E+01 0.  0.
         14    1    1    2    0    0 -0.11712649454E-01  0.17413406234E-02  0.21796249407E-01  0.24805138835E-01  0.00000000000E+00 0.  1.
     999901    1    3    3    0    0  0.63998277011E-01 -0.68662461241E-02  0.90712215020E-01  0.88700148295E+00  0.88000000000E+00 0.  1.
        -11    1    3    3    0    0 -0.62743521392E-02 -0.99943951757E-02 -0.58063048403E-01  0.59252292281E-01  0.51100000000E-03 0. -1.
         11    1    3    3    0    0 -0.46011275418E-01  0.15119300676E-01 -0.54445416024E-01  0.72871085937E-01  0.51100000000E-03 0.  1.
</event>
<event>
 8    1  0.1157726E+005  0.1043930E+01  0.7957747E-01            NaN
         13   -1    0    0    0    0  0.00000000000E+00  0.00000000000E+00  0.74505805969E-08  0.10566000000E+00  0.10566000000E+00 0. -1.
     999900   -1    0    0    0    0 -0.00000000000E+00 -0.00000000000E+00 -0.74505805969E-08  0.93827000000E+00  0.93827000000E+00 0.  1.
     999902    2    1    2    0    0  0.20443600674E-01  0.10473433150E-01 -0.62382540105E-02  0.10201277013E+01  0.10198499780E+01 0.  0.
     999903    2    3    3    0    0  0.78209920078E-01 -0.84378655074E-01 -0.60352312046E-01  0.13149830859E+00  0.20318822881E-01 0.  0.
         14    1    1    2    0    0 -0.20443600674E-01 -0.10473433150E-01  0.62382540105E-02  0.23802298703E-01  0.00000000000E+00 0. -1.
     999901    1    3    3    0    0 -0.57766319404E-01  0.94852088224E-01  0.54114058035E-01  0.88862939270E+00  0.88000000000E+00 0. -1.
        -11    1    4    4    0    0  0.52068113911E-01 -0.69132502414E-01 -0.45633132222E-01  0.97841889054E-01  0.51100000000E-03 0. -1.
         11    1    4    4    0    0  0.26141806167E-01 -0.15246152660E-01 -0.14719179823E-01  0.33656419540E-01  0.51100000000E-03 0.  1.
</event>
<event>
 8    1  0.1157726E+005  0.1043930E+01  0.7957747E-01            NaN
         13   -1    0    0    0    0  0.00000000000E+00  0.00000000000E+00  0.74505805969E-08  0.10566000000E+00  0.10566000000E+00 0.  1.
     999900   -1    0    0    0    0 -0.00000000000E+00 -0.00000000000E+00 -0.74505805969E-08  0.93827000000E+00  0.93827000000E+00 0.  1.
     999902    2    1    2    0    0  0.17689546404E-01  0.12576551039E-01  0.77671231013E-02  0.10208774971E+01  0.10206171889E+01 0.  0.
     999903    2    3    3    0    0  0.10823931279E+00 -0.72716323757E-01  0.81543248508E-02  0.13212877863E+00  0.19700470948E-01 0.  0.
         14    1    1    2    0    0 -0.17689546404E-01 -0.12576551039E-01 -0.77671231013E-02  0.23052502885E-01  0.00000000000E+00 0.  1.
     999901    1    3    3    0    0 -0.90549766382E-01  0.85292874796E-01 -0.38720174955E-03  0.88874871848E+00  0.88000000000E+00 0. -1.
        -11    1    4    4    0    0  0.75115150213E-01 -0.42841533209E-01 -0.14947276283E-02  0.86488022817E-01  0.51100000000E-03 0.  1.
         11    1    4    4    0    0  0.33124162573E-01 -0.29874790548E-01  0.96490524791E-02  0.45640755813E-01  0.51100000000E-03 0. -1.
</event>
<event>
 8    1  0.1157726E+005  0.1043930E+01  0.7957747E-01            NaN
         13   -1    0    0    0    0  0.00000000000E+00  0.00000000000E+00  0.74505805969E-08  0.10566000000E+00  0.10566000000E+00 0.  1.
     999900   -1    0    0    0    0 -0.00000000000E+00 -0.00000000000E+00 -0.74505805969E-08  0.93827000000E+00  0.93827000000E+00 0.  1.
     999902    2    1    2    0    0 -0.18564275647E-01  0.79347973734E-02  0.13301962437E-01  0.10197528301E+01  0.10194661833E+01 0.  0.
     999903    2    3    3    0    0  0.93797026699E-01  0.76559275911E-01  0.44185215732E-01  0.12942246633E+00  0.11774402564E-01 0.  0.
         14    1    1    2    0    0  0.18564275647E-01 -0.79347973734E-02 -0.13301962437E-01  0.24177169899E-01  0.00000000000E+00 0.  1.
     999901    1    3    3    0    0 -0.11236130235E+00 -0.68624478538E-01 -0.30883253295E-01  0.89033036377E+00  0.88000000000E+00 0.  1.
        -11    1    4    4    0    0  0.49900556892E-01  0.33884950760E-01  0.19263442494E-01  0.63321377147E-01  0.51100000000E-03 0.  1.
         11    1    4    4    0    0  0.43896469807E-01  0.42674325151E-01  0.24921773238E-01  0.66101089182E-01  0.51100000000E-03 0. -1.
</event>
<event>
 8    1  0.1157726E+005  0.1043930E+01  0.7957747E-01            NaN
         13   -1    0    0    0    0  0.00000000000E+00  0.00000000000E+00  0.74505805969E-08  0.10566000000E+00  0.10566000000E+00 0. -1.
     999900   -1    0    0    0    0 -0.00000000000E+00 -0.00000000000E+00 -0.74505805969E-08  0.93827000000E+00  0.93827000000E+00 0.  1.
     999902    2    1    2    0    0 -0.18306663540E-01  0.27504912243E-02 -0.14915057423E-01  0.10201569466E+01  0.10198799133E+01 0.  0.
     999903    2    3    3    0    0 -0.18009951514E-01  0.83180815218E-01  0.95627865921E-01  0.12960157885E+00  0.20210742835E-01 0.  0.
         14    1    1    2    0    0  0.18306663540E-01 -0.27504912243E-02  0.14915057423E-01  0.23773053440E-01  0.00000000000E+00 0.  1.
     999901    1    3    3    0    0 -0.29671202585E-03 -0.80430323993E-01 -0.11054292334E+00  0.89055536771E+00  0.88000000000E+00 0.  1.
        -11    1    4    4    0    0 -0.10598051404E-02  0.25808999833E-01  0.17524633035E-01  0.31218608926E-01  0.51100000000E-03 0. -1.
         11    1    4    4    0    0 -0.16950146373E-01  0.57371815385E-01  0.78103232886E-01  0.98382969923E-01  0.51100000000E-03 0.  1.
</event>
<event>
 8    1  0.1157726E+005  0.1043930E+01  0.7957747E-01            NaN
         13   -1    0    0    0    0  0.00000000000E+00  0.00000000000E+00  0.74505805969E-08  0.10566000000E+00  0.10566000000E+00 0.  1.
     999900   -1    0    0    0    0 -0.00000000000E+00 -0.00000000000E+00 -0.74505805969E-08  0.93827000000E+00  0.93827000000E+00 0. -1.
     999902    2    1    2    0    0  0.18687783379E-02 -0.21208707041E-01  0.99682309048E-02  0.10204211248E+01  0.10201502853E+01 0.  0.
     999903    2    3    3    0    0 -0.67775450074E-01 -0.85021588687E-01 -0.71823386738E-01  0.13159478002E+00  0.18341348669E-01 0.  0.
         14    1    1    2    0    0 -0.18687783379E-02  0.21208707041E-01 -0.99682309048E-02  0.23508875222E-01  0.00000000000E+00 0. -1.
     999901    1    3    3    0    0  0.69644228412E-01  0.63812881645E-01  0.81791617643E-01  0.88882634476E+00  0.88000000000E+00 0. -1.
        -11    1    4    4    0    0 -0.39052595762E-01 -0.56109705178E-01 -0.35655425407E-01  0.77103662253E-01  0.51100000000E-03 0. -1.
         11    1    4    4    0    0 -0.28722854311E-01 -0.28911883509E-01 -0.36167961332E-01  0.54491117769E-01  0.51100000000E-03 0.  1.
</event>
<event>
 8    1  0.1157726E+005  0.1043930E+01  0.7957747E-01            NaN
         13   -1    0    0    0    0  0.00000000000E+00  0.00000000000E+00  0.74505805969E-08  0.10566000000E+00  0.10566000000E+00 0. -1.
     999900   -1    0    0    0    0 -0.00000000000E+00 -0.00000000000E+00 -0.74505805969E-08  0.93827000000E+00  0.93827000000E+00 0. -1.
     999902    2    1    2    0    0 -0.29914791728E-02  0.14392598318E-01 -0.18399698379E-01  0.10203791033E+01  0.10201072835E+01 0.  0.
     999903    2    3    3    0    0 -0.38068373238E-01 -0.12105496948E+00 -0.15961274690E-01  0.12932221511E+00  0.19130247123E-01 0.  0.
         14    1    1    2    0    0  0.29914791728E-02 -0.14392598318E-01  0.18399698379E-01  0.23550896680E-01  0.00000000000E+00 0. -1.
     999901    1    3    3    0    0  0.35076894065E-01  0.13544756779E+00 -0.24384236891E-02  0.89105688821E+00  0.88000000000E+00 0. -1.
        -11    1    4    4    0    0 -0.31278315288E-01 -0.73940689276E-01 -0.15201640178E-01  0.81712358447E-01  0.51100000000E-03 0. -1.
         11    1    4    4    0    0 -0.67900579497E-02 -0.47114280200E-01 -0.75963451183E-03  0.47609856662E-01  0.51100000000E-03 0.  1.
</event>
<event>
 8    1  0.1157726E+005  0.1043930E+01  0.7957747E-01            NaN
         13   -1    0    0    0    0  0.00000000000E+00  0.00000000000E+00  0.74505805969E-08  0.10566000000E+00  0.10566000000E+00 0.  1.
     999900   -1    0    0    0    0 -0.00000000000E+00 -0.00000000000E+00 -0.74505805969E-08  0.93827000000E+00  0.93827000000E+00 0.  1.
     999902    2    1    2    0    0  0.17403459275E-01  0.15743400946E-02 -0.17544529600E-01  0.10191677412E+01  0.10188668781E+01 0.  0.
     999903    2    3    3    0    0  0.12283911931E+00 -0.82082458614E-02 -0.44653912714E-01  0.13240548669E+00  0.19504267506E-01 0.  0.
         14    1    1    2    0    0 -0.17403459275E-01 -0.15743400946E-02  0.17544529600E-01  0.24762258789E-01  0.00000000000E+00 0.  1.
     999901    1    3    3    0    0 -0.10543566004E+00  0.97825859560E-02  0.27109383114E-01  0.88676225452E+00  0.88000000000E+00 0. -1.
        -11    1    4    4    0    0  0.10139429271E+00  0.61593631046E-03 -0.34782800667E-01  0.10719741749E+00  0.51100000000E-03 0. -1.
         11    1    4    4    0    0  0.21444826596E-01 -0.88241821718E-02 -0.98711120466E-02  0.25208069199E-01  0.51100000000E-03 0.  1.
</event>
<event>
 8    1  0.1157726E+005  0.1043930E+01  0.7957747E-01            NaN
         13   -1    0    0    0    0  0.00000000000E+00  0.00000000000E+00  0.74505805969E-08  0.10566000000E+00  0.10566000000E+00 0. -1.
     999900   -1    0    0    0    0 -0.00000000000E+00 -0.00000000000E+00 -0.74505805969E-08  0.93827000000E+00  0.93827000000E+00 0.  1.
     999902    2    1    2    0    0 -0.18314590346E-01 -0.15554258911E-01  0.18771282594E-02  0.10198284897E+01  0.10195436555E+01 0.  0.
     999903    2    3    3    0    0 -0.87072761886E-01 -0.92070296427E-01  0.35988608282E-01  0.13317975244E+00  0.19571949012E-01 0.  0.
         14    1    1    2    0    0  0.18314590346E-01  0.15554258911E-01 -0.18771282594E-02  0.24101510333E-01  0.00000000000E+00 0.  1.
     999901    1    3    3    0    0  0.68758171540E-01  0.76516037515E-01 -0.34111480023E-01  0.88664873722E+00  0.88000000000E+00 0.  1.
        -11    1    4    4    0    0 -0.47563285724E-01 -0.37079061461E-01  0.20663998163E-01  0.63752528489E-01  0.51100000000E-03 0.  1.
         11    1    4    4    0    0 -0.39509476163E-01 -0.54991234966E-01  0.15324610120E-01  0.69427223954E-01  0.51100000000E-03 0. -1.
</event>
<event>
 8    1  0.1157726E+005  0.1043930E+01  0.7957747E-01            NaN
         13   -1    0    0    0    0  0.00000000000E+00  0.00000000000E+00  0.74505805969E-08  0.10566000000E+00  0.10566000000E+00 0.  1.
     999900   -1    0    0    0    0 -0.00000000000E+00 -0.00000000000E+00 -0.74505805969E-08  0.93827000000E+00  0.93827000000E+00 0.  1.
     999902    2    1    2    0    0  0.58863600684E-02 -0.10033579929E-01  0.20438102927E-01  0.10204132398E+01  0.10201422165E+01 0.  0.
     999903    2    3    3    0    0 -0.34496281173E-02  0.11093444205E+00  0.66583305139E-01  0.13089100692E+00  0.19513298101E-01 0.  0.
         14    1    1    2    0    0 -0.58863600684E-02  0.10033579929E-01 -0.20438102927E-01  0.23516760243E-01  0.00000000000E+00 0. -1.
     999901    1    3    3    0    0  0.93359881857E-02 -0.12096802198E+00 -0.46145202212E-01  0.88952223283E+00  0.88000000000E+00 0.  1.
        -11    1    4    4    0    0  0.56660367981E-02  0.57005542911E-01  0.26743594835E-01  0.63223546890E-01  0.51100000000E-03 0. -1.
         11    1    4    4    0    0 -0.91156649154E-02  0.53928899141E-01  0.39839710304E-01  0.67667460034E-01  0.51100000000E-03 0.  1.
</event>
<event>
 8    1  0.1157726E+005  0.1043930E+01  0.7957747E-01            NaN
         13   -1    0    0    0    0  0.00000000000E+00  0.00000000000E+00  0.74505805969E-08  0.10566000000E+00  0.10566000000E+00 0. -1.
     999900   -1    0    0    0    0 -0.00000000000E+00 -0.00000000000E+00 -0.74505805969E-08  0.93827000000E+00  0.93827000000E+00 0. -1.
     999902    2    1    2    0    0  0.22926376110E-01  0.82084131561E-02 -0.60385654784E-02  0.10188409378E+01  0.10185319806E+01 0.  0.
     999903    2    3    3    0    0 -0.11637060058E+00 -0.10219621755E-01  0.43753864154E-01  0.12630380905E+00  0.19791265812E-01 0.  0.
         14    1    1    2    0    0 -0.22926376110E-01 -0.82084131561E-02  0.60385654784E-02  0.25089062181E-01  0.00000000000E+00 0. -1.
     999901    1    3    3    0    0  0.13929697669E+00  0.18428034911E-01 -0.49792429633E-01  0.89253712877E+00  0.88000000000E+00 0. -1.
        -11    1    4    4    0    0 -0.73509887004E-01  0.11315801653E-02  0.20975706519E-01  0.76454073443E-01  0.51100000000E-03 0. -1.
         11    1    4    4    0    0 -0.42860713579E-01 -0.11351201921E-01  0.22778157636E-01  0.49849735604E-01  0.51100000000E-03 0.  1.
</event>
<event>
 8    1  0.1157726E+005  0.1043930E+01  0.7957747E-01            NaN
         13   -1    0    0    0    0  0.00000000000E+00  0.00000000000E+00  0.74505805969E-08  0.10566000000E+00  0.10566000000E+00 0.  1.
     999900   -1    0    0    0    0 -0.00000000000E+00 -0.00000000000E+00 -0.74505805969E-08  0.93827000000E+00  0.93827000000E+00 0.  1.
     999902    2    1    2    0    0  0.90231141545E-03  0.56858734679E-02  0.23044112067E-01  0.10201776438E+01  0.10199010984E+01 0.  0.
     999903    2    3    3    0    0 -0.16458388400E-01 -0.61975379179E-01  0.11439660315E+00  0.13269540928E+00  0.20240124922E-01 0.  0.
         14    1    1    2    0    0 -0.90231141545E-03 -0.56858734679E-02 -0.23044112067E-01  0.23752356176E-01  0.00000000000E+00 0. -1.
     999901    1    3    3    0    0  0.17360699816E-01  0.67661252647E-01 -0.91352491088E-01  0.88748223455E+00  0.88000000000E+00 0.  1.
        -11    1    4    4    0    0 -0.14972535142E-01 -0.59678883828E-01  0.95571858614E-01  0.11366612188E+00  0.51100000000E-03 0. -1.
         11    1    4    4    0    0 -0.14858532578E-02 -0.22964953516E-02  0.18824744540E-01  0.19029287396E-01  0.51100000000E-03 0.  1.
</event>
<event>
 8    1  0.1157726E+005  0.1043930E+01  0.7957747E-01            NaN
         13   -1    0    0    0    0  0.00000000000E+00  0.00000000000E+00  0.74505805969E-08  0.10566000000E+00  0.10566000000E+00 0. -1.
     999900   -1    0    0    0    0 -0.00000000000E+00 -0.00000000000E+00 -0.74505805969E-08  0.93827000000E+00  0.93827000000E+00 0. -1.
     999902    2    1    2    0    0  0.72861928281E-02  0.16233208896E-01  0.14328299211E-01  0.10210847415E+01  0.10208291451E+01 0.  0.
     999903    2    3    3    0    0 -0.11637783578E-01 -0.55944576215E-01 -0.11348537686E+00  0.12872602141E+00  0.20645198308E-01 0.  0.
         14    1    1    2    0    0 -0.72861928281E-02 -0.16233208896E-01 -0.14328299211E-01  0.22845258485E-01  0.00000000000E+00 0.  1.
     999901    1    3    3    0    0  0.18923976406E-01  0.72177785111E-01  0.12781367607E+00  0.89235872010E+00  0.88000000000E+00 0.  1.
        -11    1    4    4    0    0  0.18230733645E-02 -0.33033189451E-01 -0.74790853567E-01  0.81782932816E-01  0.51100000000E-03 0.  1.
         11    1    4    4    0    0 -0.13460856942E-01 -0.22911386765E-01 -0.38694523296E-01  0.46943088599E-01  0.51100000000E-03 0. -1.
</event>
<event>
 8    1  0.1157726E+005  0.1043930E+01  0.7957747E-01            NaN
         13   -1    0    0    0    0  0.00000000000E+00  0.00000000000E+00  0.74505805969E-08  0.10566000000E+00  0.10566000000E+00 0. -1.
     999900   -1    0    0    0    0 -0.00000000000E+00 -0.00000000000E+00 -0.74505805969E-08  0.93827000000E+00  0.93827000000E+00 0.  1.
     999902    2    1    2    0    0 -0.12554748434E-01  0.12497836654E-01  0.15970337920E-01  0.10200790184E+01  0.10198001444E+01 0.  0.
     999903    2    3    3    0    0  0.28138966689E-01 -0.10318702862E-01 -0.12284090028E+00  0.12797749237E+00  0.19750308734E-01 0.  0.
         14    1    1    2    0    0  0.12554748434E-01 -0.12497836654E-01 -0.15970337920E-01  0.23850981584E-01  0.00000000000E+00 0. -1.
     999901    1    3    3    0    0 -0.40693715123E-01  0.22816539515E-01  0.13881123820E+00  0.89210152605E+00  0.88000000000E+00 0. -1.
        -11    1    4    4    0    0  0.11298105384E-01 -0.13891658478E-01 -0.75646477134E-01  0.77738510304E-01  0.51100000000E-03 0.  1.
         11    1    4    4    0    0  0.16840861305E-01  0.35729556161E-02 -0.47194423150E-01  0.50238982064E-01  0.51100000000E-03 0. -1.
</event>
<event>
 8    1  0.1157726E+005  0.1043930E+01  0.7957747E-01            NaN
         13   -1    0    0    0    0  0.00000000000E+00  0.00000000000E+00  0.74505805969E-08  0.10566000000E+00  0.10566000000E+00 0.  1.
     999900   -1    0    0    0    0 -0.00000000000E+00 -0.00000000000E+00 -0.74505805969E-08  0.93827000000E+00  0.93827000000E+00 0. -1.
     999902    2    1    2    0    0 -0.14698920184E-03 -0.20805420643E-01  0.30203825219E-02  0.10229059698E+01  0.10226898911E+01 0.  0.
     999903    2    3    3    0    0  0.10768369878E-01 -0.69889983604E-01  0.11253775483E+00  0.13469287928E+00  0.21837075554E-01 0.  0.
         14    1    1    2    0    0  0.14698920184E-03  0.20805420643E-01 -0.30203825219E-02  0.21024030169E-01  0.00000000000E+00 0.  1.
     999901    1    3    3    0    0 -0.10915359080E-01  0.49084562961E-01 -0.10951737231E+00  0.88821309055E+00  0.88000000000E+00 0. -1.
        -11    1    4    4    0    0  0.11174591746E-01 -0.70750363374E-01  0.10516593997E+00  0.12724237293E+00  0.51100000000E-03 0. -1.
         11    1    4    4    0    0 -0.40622186718E-03  0.86037976975E-03  0.73718148569E-02  0.74505063477E-02  0.51100000000E-03 0.  1.
</event>
<event>
 8    1  0.1157726E+005  0.1043930E+01  0.7957747E-01            NaN
         13   -1    0    0    0    0  0.00000000000E+00  0.00000000000E+00  0.74505805969E-08  0.10566000000E+00  0.10566000000E+00 0. -1.
     999900   -1    0    0    0    0 -0.00000000000E+00 -0.00000000000E+00 -0.74505805969E-08  0.93827000000E+00  0.93827000000E+00 0.  1.
     999902    2    1    2    0    0  0.14211135300E-01  0.11575514062E-01  0.13244587795E-01  0.10213165527E+01  0.10210661746E+01 0.  0.
     999903    2    3    3    0    0 -0.12705896532E+00 -0.10113138726E-01  0.13841522117E-01  0.12978528836E+00  0.20158797004E-01 0.  0.
         14    1    1    2    0    0 -0.14211135300E-01 -0.11575514062E-01 -0.13244587795E-01  0.22613447287E-01  0.00000000000E+00 0.  1.
     999901    1    3    3    0    0  0.14127010062E+00  0.21688652788E-01 -0.59693432180E-03  0.89153126435E+00  0.88000000000E+00 0. -1.
        -11    1    4    4    0    0 -0.96704759350E-01 -0.87974320456E-02  0.19046506143E-01  0.98955726508E-01  0.51100000000E-03 0.  1.
         11    1    4    4    0    0 -0.30354205971E-01 -0.13157066802E-02 -0.52049840266E-02  0.30829561851E-01  0.51100000000E-03 0. -1.
</event>
<event>
 8    1  0.1157726E+005  0.1043930E+01  0.7957747E-01            NaN
         13   -1    0    0    0    0  0.00000000000E+00  0.00000000000E+00  0.74505805969E-08  0.10566000000E+00  0.10566000000E+00 0.  1.
     999900   -1    0    0    0    0 -0.00000000000E+00 -0.00000000000E+00 -0.74505805969E-08  0.93827000000E+00  0.93827000000E+00 0. -1.
     999902    2    1    2    0    0 -0.14891614417E-01 -0.15219486228E-01  0.10344659152E-01  0.10202571270E+01  0.10199824510E+01 0.  0.
     999903    2    3    3    0    0 -0.37006324948E-01  0.25215227349E-01 -0.11986214347E+00  0.12948339711E+00  0.19842905867E-01 0.  0.
         14    1    1    2    0    0  0.14891614417E-01  0.15219486228E-01 -0.10344659152E-01  0.23672872956E-01  0.00000000000E+00 0.  1.
     999901    1    3    3    0    0  0.22114710531E-01 -0.40434713578E-01  0.13020680263E+00  0.89077372993E+00  0.88000000000E+00 0.  1.
        -11    1    4    4    0    0 -0.28741106774E-01  0.12422124231E-01 -0.97633157774E-01  0.10253221448E+00  0.51100000000E-03 0.  1.
         11    1    4    4    0    0 -0.82652181744E-02  0.12793103118E-01 -0.22228985701E-01  0.26951182630E-01  0.51100000000E-03 0. -1.
</event>
<event>
 8    1  0.1157726E+005  0.1043930E+01  0.7957747E-01            NaN
         13   -1    0    0    0    0  0.00000000000E+00  0.00000000000E+00  0.74505805969E-08  0.10566000000E+00  0.10566000000E+00 0.  1.
     999900   -1    0    0    0    0 -0.00000000000E+00 -0.00000000000E+00 -0.74505805969E-08  0.93827000000E+00  0.93827000000E+00 0. -1.
     999902    2    1    2    0    0 -0.73654401756E-02  0.14781468564E-01 -0.15819420375E-01  0.10210609033E+01  0.10208047672E+01 0.  0.
     999903    2    3    3    0    0 -0.31225515550E-01  0.11818416494E+00  0.46708619728E-01  0.13248272634E+00  0.20674814560E-01 0.  0.
         14    1    1    2    0    0  0.73654401756E-02 -0.14781468564E-01  0.15819420375E-01  0.22869096678E-01  0.00000000000E+00 0.  1.
     999901    1    3    3    0    0  0.23860075375E-01 -0.10340269637E+00 -0.62528040103E-01  0.88857817698E+00  0.88000000000E+00 0. -1.
        -11    1    4    4    0    0 -0.25056132231E-01  0.56272364145E-01  0.19932137729E-01  0.64745192596E-01  0.51100000000E-03 0.  1.
         11    1    4    4    0    0 -0.61693833199E-02  0.61911800793E-01  0.26776482000E-01  0.67737533741E-01  0.51100000000E-03 0. -1.
</event>
<event>
 7    1  0.1157726E+005  0.1043930E+01  0.7957747E-01            NaN
         13   -1    0    0    0    0  0.00000000000E+00  0.00000000000E+00  0.74505805969E-08  0.10566000000E+00  0.10566000000E+00 0. -1.
     999900   -1    0    0    0    0 -0.00000000000E+00 -0.00000000000E+00 -0.74505805969E-08  0.93827000000E+00  0.93827000000E+00 0.  1.
     999903    2    1    2    0    0  0.65114115909E-01 -0.25598503560E-01 -0.16148420735E-01  0.74425736156E-01  0.19577722926E-01 0.  0.
         14    1    1    2    0    0  0.38541636976E-01  0.49002775744E-01  0.53748605513E-01  0.82314290412E-01  0.00000000000E+00 0. -1.
     999901    1    1    2    0    0 -0.10365575289E+00 -0.23404272184E-01 -0.37600184778E-01  0.88718997343E+00  0.88000000000E+00 0.  1.
        -11    1    3    3    0    0  0.26068374065E-01 -0.11961857983E-01  0.30073765528E-02  0.28843571338E-01  0.51100000000E-03 0. -1.
         11    1    3    3    0    0  0.39045741845E-01 -0.13636645577E-01 -0.19155797288E-01  0.45582164818E-01  0.51100000000E-03 0.  1.
</event>
<event>
 8    1  0.1157726E+005  0.1043930E+01  0.7957747E-01            NaN
         13   -1    0    0    0    0  0.00000000000E+00  0.00000000000E+00  0.74505805969E-08  0.10566000000E+00  0.10566000000E+00 0. -1.
     999900   -1    0    0    0    0 -0.00000000000E+00 -0.00000000000E+00 -0.74505805969E-08  0.93827000000E+00  0.93827000000E+00 0.  1.
     999902    2    1    2    0    0 -0.13786243472E-01 -0.16617616236E-01  0.11013744014E-01  0.10196914308E+01  0.10194033087E+01 0.  0.
     999903    2    3    3    0    0  0.50430173114E-01 -0.58615569125E-01  0.10449481857E+00  0.13141991405E+00  0.19314227833E-01 0.  0.
         14    1    1    2    0    0  0.13786243472E-01  0.16617616236E-01 -0.11013744014E-01  0.24238569175E-01  0.00000000000E+00 0.  1.
     999901    1    3    3    0    0 -0.64216416586E-01  0.41997952889E-01 -0.93481074561E-01  0.88827151677E+00  0.88000000000E+00 0.  1.
        -11    1    4    4    0    0  0.31595664120E-01 -0.29722648955E-01  0.71832274361E-01  0.83915782860E-01  0.51100000000E-03 0. -1.
         11    1    4    4    0    0  0.18834508995E-01 -0.28892920169E-01  0.32662544214E-01  0.47504131194E-01  0.51100000000E-03 0.  1.
</event>
<event>
 8    1  0.1196765E+005  0.1043930E+01  0.7957747E-01            NaN
         13   -1    0    0    0    0  0.00000000000E+00  0.00000000000E+00  0.74505805969E-08  0.10566000000E+00  0.10566000000E+00 0. -1.
     999900   -1    0    0    0    0 -0.00000000000E+00 -0.00000000000E+00 -0.74505805969E-08  0.93827000000E+00  0.93827000000E+00 0.  1.
     999902    2    1    2    0    0 -0.27155731823E-01 -0.71951208712E-02 -0.60293014409E-02  0.10151975095E+01  0.10147908293E+01 0.  0.
     999903    2    3    3    0    0  0.23427007590E-01 -0.31228312485E-01 -0.11872542258E+00  0.12624496658E+00  0.17833491944E-01 0.  0.
         14    1    1    2    0    0  0.27155731823E-01  0.71951208712E-02  0.60293014409E-02  0.28732490513E-01  0.00000000000E+00 0. -1.
     999901    1    3    3    0    0 -0.50582739414E-01  0.24033191614E-01  0.11269612114E+00  0.88895254291E+00  0.88000000000E+00 0.  1.
        -11    1    4    4    0    0  0.11313132795E-01 -0.60902057250E-02 -0.58070620581E-01  0.59477186173E-01  0.51100000000E-03 0. -1.
         11    1    4    4    0    0  0.12113874795E-01 -0.25138106760E-01 -0.60654801996E-01  0.66767780405E-01  0.51100000000E-03 0.  1.
</event>
<event>
 8    1  0.1157726E+005  0.1043930E+01  0.7957747E-01            NaN
         13   -1    0    0    0    0  0.00000000000E+00  0.00000000000E+00  0.74505805969E-08  0.10566000000E+00  0.10566000000E+00 0. -1.
     999900   -1    0    0    0    0 -0.00000000000E+00 -0.00000000000E+00 -0.74505805969E-08  0.93827000000E+00  0.93827000000E+00 0.  1.
     999902    2    1    2    0    0 -0.19424706739E-01  0.10174919116E-01 -0.89419625404E-02  0.10202486380E+01  0.10199737626E+01 0.  0.
     999903    2    3    3    0    0 -0.72167124025E-02 -0.85492564444E-01  0.94293245833E-01  0.12898054660E+00  0.19588406767E-01 0.  0.
         14    1    1    2    0    0  0.19424706739E-01 -0.10174919116E-01  0.89419625404E-02  0.23681361975E-01  0.00000000000E+00 0. -1.
     999901    1    3    3    0    0 -0.12207994336E-01  0.95667483561E-01 -0.10323520837E+00  0.89126809142E+00  0.88000000000E+00 0.  1.
        -11    1    4    4    0    0 -0.85491555819E-02 -0.34362077430E-01  0.27419875414E-01  0.44787845619E-01  0.51100000000E-03 0. -1.
         11    1    4    4    0    0  0.13324431794E-02 -0.51130487014E-01  0.66873370418E-01  0.84192700986E-01  0.51100000000E-03 0.  1.
</event>
<event>
 8    1  0.1157726E+005  0.1043930E+01  0.7957747E-01            NaN
         13   -1    0    0    0    0  0.00000000000E+00  0.00000000000E+00  0.74505805969E-08  0.10566000000E+00  0.10566000000E+00 0.  1.
     999900   -1    0    0    0    0 -0.00000000000E+00 -0.00000000000E+00 -0.74505805969E-08  0.93827000000E+00  0.93827000000E+00 0.  1.
     999902    2    1    2    0    0 -0.25182098329E-01 -0.38075787379E-02 -0.37223311259E-02  0.10181910901E+01  0.10178657105E+01 0.  0.
     999903    2    3    3    0    0 -0.53666956154E-01 -0.11119062103E+00  0.36443920115E-01  0.13029704655E+00  0.20141118072E-01 0.  0.
         14    1    1    2    0    0  0.25182098329E-01  0.38075787379E-02  0.37223311259E-02  0.25738909866E-01  0.00000000000E+00 0.  1.
     999901    1    3    3    0    0  0.28484857825E-01  0.10738304229E+00 -0.40166251241E-01  0.88789404359E+00  0.88000000000E+00 0.  1.
        -11    1    4    4    0    0 -0.18235445346E-01 -0.48124403775E-01  0.60078643423E-02  0.51815492477E-01  0.51100000000E-03 0. -1.
         11    1    4    4    0    0 -0.35431510808E-01 -0.63066217257E-01  0.30436055773E-01  0.78481554070E-01  0.51100000000E-03 0.  1.
</event>
<event>
 8    1  0.1157726E+005  0.1043930E+01  0.7957747E-01            NaN
         13   -1    0    0    0    0  0.00000000000E+00  0.00000000000E+00  0.74505805969E-08  0.10566000000E+00  0.10566000000E+00 0.  1.
     999900   -1    0    0    0    0 -0.00000000000E+00 -0.00000000000E+00 -0.74505805969E-08  0.93827000000E+00  0.93827000000E+00 0. -1.
     999902    2    1    2    0    0  0.13491723464E-01  0.18518709193E-01 -0.57393273179E-02  0.10203099011E+01  0.10200364627E+01 0.  0.
     999903    2    3    3    0    0  0.10983961849E+00 -0.29336319967E-01  0.62185167134E-01  0.13116044371E+00  0.20265870913E-01 0.  0.
         14    1    1    2    0    0 -0.13491723464E-01 -0.18518709193E-01  0.57393273179E-02  0.23620098862E-01  0.00000000000E+00 0. -1.
     999901    1    3    3    0    0 -0.96347895028E-01  0.47855029160E-01 -0.67924494452E-01  0.88914945742E+00  0.88000000000E+00 0. -1.
        -11    1    4    4    0    0  0.49563899641E-02 -0.80984362591E-03  0.86071851219E-02  0.99782966932E-02  0.51100000000E-03 0. -1.
         11    1    4    4    0    0  0.10488322853E+00 -0.28526476341E-01  0.53577982013E-01  0.12118214702E+00  0.51100000000E-03 0.  1.
</event>
<event>
 8    1  0.1157726E+005  0.1043930E+01  0.7957747E-01            NaN
         13   -1    0    0    0    0  0.00000000000E+00  0.00000000000E+00  0.74505805969E-08  0.10566000000E+00  0.10566000000E+00 0. -1.
     999900   -1    0    0    0    0 -0.00000000000E+00 -0.00000000000E+00 -0.74505805969E-08  0.93827000000E+00  0.93827000000E+00 0. -1.
     999902    2    1    2    0    0 -0.21197645688E-01 -0.99047949805E-02  0.37472994359E-02  0.10202342747E+01  0.10199590618E+01 0.  0.
     999903    2    3    3    0    0  0.16035137111E-01  0.66345355826E-01  0.10878010716E+00  0.12993530448E+00  0.19779781958E-01 0.  0.
         14    1    1    2    0    0  0.21197645688E-01  0.99047949805E-02 -0.37472994359E-02  0.23695725340E-01  0.00000000000E+00 0.  1.
     999901    1    3    3    0    0 -0.37232782799E-01 -0.76250150806E-01 -0.10503280772E+00  0.89029897018E+00  0.88000000000E+00 0. -1.
        -11    1    4    4    0    0 -0.37006084063E-02  0.24254176484E-01  0.39465944278E-01  0.46473448960E-01  0.51100000000E-03 0.  1.
         11    1    4    4    0    0  0.19735745517E-01  0.42091179342E-01  0.69314162879E-01  0.83461855516E-01  0.51100000000E-03 0. -1.
</event>
<event>
 8    1  0.1157726E+005  0.1043930E+01  0.7957747E-01            NaN
         13   -1    0    0    0    0  0.00000000000E+00  0.00000000000E+00  0.74505805969E-08  0.10566000000E+00  0.10566000000E+00 0. -1.
     999900   -1    0    0    0    0 -0.00000000000E+00 -0.00000000000E+00 -0.74505805969E-08  0.93827000000E+00  0.93827000000E+00 0.  1.
     999902    2    1    2    0    0 -0.18720314143E-01  0.30692329074E-02 -0.17598552784E-01  0.10180537674E+01  0.10177248616E+01 0.  0.
     999903    2    3    3    0    0  0.10437738102E+00 -0.48319760784E-01  0.46457150830E-01  0.12569901488E+00  0.20311044446E-01 0.  0.
         14    1    1    2    0    0  0.18720314143E-01 -0.30692329074E-02  0.17598552784E-01  0.25876232576E-01  0.00000000000E+00 0. -1.
     999901    1    3    3    0    0 -0.12309769517E+00  0.51388993691E-01 -0.64055703614E-01  0.89235475255E+00  0.88000000000E+00 0.  1.
        -11    1    4    4    0    0  0.90223308199E-01 -0.45003396588E-01  0.46779302762E-01  0.11114906808E+00  0.51100000000E-03 0.  1.
         11    1    4    4    0    0  0.14154072823E-01 -0.33163641956E-02 -0.32215193201E-03  0.14549946798E-01  0.51100000000E-03 0. -1.
</event>
<event>
 8    1  0.1157726E+005  0.1043930E+01  0.7957747E-01            NaN
         13   -1    0    0    0    0  0.00000000000E+00  0.00000000000E+00  0.74505805969E-08  0.10566000000E+00  0.10566000000E+00 0. -1.
     999900   -1    0    0    0    0 -0.00000000000E+00 -0.00000000000E+00 -0.74505805969E-08  0.93827000000E+00  0.93827000000E+00 0.  1.
     999902    2    1    2    0    0 -0.15612267611E-01 -0.17857129512E-01 -0.15985888470E-02  0.10201565808E+01  0.10198795389E+01 0.  0.
     999903    2    3    3    0    0  0.72421112552E-01 -0.25742365346E-01  0.10272045027E+00  0.12959803983E+00  0.18348681360E-01 0.  0.
         14    1    1    2    0    0  0.15612267611E-01  0.17857129512E-01  0.15985888470E-02  0.23773419204E-01  0.00000000000E+00 0.  1.
     999901    1    3    3    0    0 -0.88033380163E-01  0.78852358340E-02 -0.10431903911E+00  0.89055854097E+00  0.88000000000E+00 0.  1.
        -11    1    4    4    0    0  0.57834802185E-01 -0.18028045250E-01  0.91120357860E-01  0.10942145812E+00  0.51100000000E-03 0. -1.
         11    1    4    4    0    0  0.14586310367E-01 -0.77143200958E-02  0.11600092407E-01  0.20176581710E-01  0.51100000000E-03 0.  1.
</event>
<event>
 8    1  0.1157726E+005  0.1043930E+01  0.7957747E-01            NaN
         13   -1    0    0    0    0  0.00000000000E+00  0.00000000000E+00  0.74505805969E-08  0.10566000000E+00  0.10566000000E+00 0.  1.
     999900   -1    0    0    0    0 -0.00000000000E+00 -0.00000000000E+00 -0.74505805969E-08  0.93827000000E+00  0.93827000000E+00 0. -1.
     999902    2    1    2    0    0  0.20943626845E-01  0.25134950458E-02 -0.11736519311E-01  0.10197908399E+01  0.10195051045E+01 0.  0.
     999903    2    3    3    0    0  0.10354952074E+00  0.26502876864E-01  0.73343835033E-01  0.13151279178E+00  0.22167330401E-01 0.  0.
         14    1    1    2    0    0 -0.20943626845E-01 -0.25134950458E-02  0.11736519311E-01  0.24139160058E-01  0.00000000000E+00 0.  1.
     999901    1    3    3    0    0 -0.82605893897E-01 -0.23989381818E-01 -0.85080354344E-01  0.88827804816E+00  0.88000000000E+00 0. -1.
        -11    1    4    4    0    0  0.29689382382E-01  0.73189457867E-02  0.33732975395E-01  0.45532418601E-01  0.51100000000E-03 0.  1.
         11    1    4    4    0    0  0.73860138360E-01  0.19183931077E-01  0.39610859637E-01  0.85980373181E-01  0.51100000000E-03 0. -1.
</event>
<event>
 8    1  0.1157726E+005  0.1043930E+01  0.7957747E-01            NaN
         13   -1    0    0    0    0  0.00000000000E+00  0.00000000000E+00  0.74505805969E-08  0.10566000000E+00  0.10566000000E+00 0.  1.
     999900   -1    0    0    0    0 -0.00000000000E+00 -0.00000000000E+00 -0.74505805969E-08  0.93827000000E+00  0.93827000000E+00 0.  1.
     999902    2    1    2    0    0  0.40986305134E-02 -0.13113277879E-01 -0.18942022319E-01  0.10205300633E+01  0.10202617571E+01 0.  0.
     999903    2    3    3    0    0 -0.10285033439E+00 -0.33833134178E-02 -0.80031984054E-01  0.13189924189E+00  0.20066226521E-01 0.  0.
         14    1    1    2    0    0 -0.40986305134E-02  0.13113277879E-01  0.18942022319E-01  0.23399936717E-01  0.00000000000E+00 0.  1.
     999901    1    3    3    0    0  0.10694896490E+00 -0.97299644608E-02  0.61089961735E-01  0.88863082139E+00  0.88000000000E+00 0.  1.
        -11    1    4    4    0    0 -0.49370211840E-01 -0.11343872508E-01 -0.35654211097E-01  0.61948245742E-01  0.51100000000E-03 0. -1.
         11    1    4    4    0    0 -0.53480122547E-01  0.79605590901E-02 -0.44377772957E-01  0.69950996150E-01  0.51100000000E-03 0.  1.
</event>
<event>
 8    1  0.1157726E+005  0.1043930E+01  0.7957747E-01            NaN
         13   -1    0    0    0    0  0.00000000000E+00  0.00000000000E+00  0.74505805969E-08  0.10566000000E+00  0.10566000000E+00 0.  1.
     999900   -1    0    0    0    0 -0.00000000000E+00 -0.00000000000E+00 -0.74505805969E-08  0.93827000000E+00  0.93827000000E+00 0.  1.
     999902    2    1    2    0    0  0.14984235525E-01  0.55175558327E-03 -0.12401978783E-01  0.10244713046E+01  0.10242864898E+01 0.  0.
     999903    2    3    3    0    0  0.74130450926E-01 -0.21008684937E-01 -0.11110806798E+00  0.13671794954E+00  0.20251082916E-01 0.  0.
         14    1    1    2    0    0 -0.14984235525E-01 -0.55175558327E-03  0.12401978783E-01  0.19458695389E-01  0.00000000000E+00 0.  1.
     999901    1    3    3    0    0 -0.59146215401E-01  0.21560440521E-01  0.98706089197E-01  0.88775335507E+00  0.88000000000E+00 0. -1.
        -11    1    4    4    0    0  0.47401976811E-01 -0.13113498072E-01 -0.86640002149E-01  0.99627618313E-01  0.51100000000E-03 0.  1.
         11    1    4    4    0    0  0.26728474115E-01 -0.78951868650E-02 -0.24468065831E-01  0.37090331229E-01  0.51100000000E-03 0. -1.
</event>
<event>
 8    1  0.1157726E+005  0.1043930E+01  0.7957747E-01            NaN
         13   -1    0    0    0    0  0.00000000000E+00  0.00000000000E+00  0.74505805969E-08  0.10566000000E+00  0.10566000000E+00 0. -1.
     999900   -1    0    0    0    0 -0.00000000000E+00 -0.00000000000E+00 -0.74505805969E-08  0.93827000000E+00  0.93827000000E+00 0. -1.
     999902    2    1    2    0    0  0.23905672128E-01 -0.22731015782E-02 -0.93481420236E-02  0.10181611058E+01  0.10178349578E+01 0.  0.
     999903    2    3    3    0    0 -0.89205283668E-01 -0.58025193208E-01  0.64476365094E-01  0.12611153209E+00  0.20552644358E-01 0.  0.
         14    1    1    2    0    0 -0.23905672128E-01  0.22731015782E-02  0.93481420236E-02  0.25768894232E-01  0.00000000000E+00 0. -1.
     999901    1    3    3    0    0  0.11311095580E+00  0.55752091629E-01 -0.73824507117E-01  0.89204957367E+00  0.88000000000E+00 0. -1.
        -11    1    4    4    0    0 -0.53887749830E-01 -0.46535267394E-01  0.40771330851E-01  0.82048663813E-01  0.51100000000E-03 0. -1.
         11    1    4    4    0    0 -0.35317533839E-01 -0.11489925814E-01  0.23705034243E-01  0.44062868280E-01  0.51100000000E-03 0.  1.
</event>
<event>
 8    1  0.1157726E+005  0.1043930E+01  0.7957747E-01            NaN
         13   -1    0    0    0    0  0.00000000000E+00  0.00000000000E+00  0.74505805969E-08  0.10566000000E+00  0.10566000000E+00 0.  1.
     999900   -1    0    0    0    0 -0.00000000000E+00 -0.00000000000E+00 -0.74505805969E-08  0.93827000000E+00  0.93827000000E+00 0. -1.
     999902    2    1    2    0    0  0.22096193517E-02 -0.22517765037E-01  0.80656845495E-02  0.10199094374E+01  0.10196265361E+01 0.  0.
     999903    2    3    3    0    0 -0.62958608542E-01  0.85591344955E-01  0.69834135380E-01  0.12875859770E+00  0.20305302198E-01 0.  0.
         14    1    1    2    0    0 -0.22096193517E-02  0.22517765037E-01 -0.80656845495E-02  0.24020562591E-01  0.00000000000E+00 0.  1.
     999901    1    3    3    0    0  0.65168227894E-01 -0.10810910999E+00 -0.61768450831E-01  0.89115083971E+00  0.88000000000E+00 0. -1.
        -11    1    4    4    0    0 -0.56289107397E-01  0.62405366172E-01  0.53973353137E-01  0.99881316113E-01  0.51100000000E-03 0. -1.
         11    1    4    4    0    0 -0.66695011450E-02  0.23185978783E-01  0.15860782243E-01  0.28877281590E-01  0.51100000000E-03 0.  1.
</event>
<event>
 8    1  0.1157726E+005  0.1043930E+01  0.7957747E-01            NaN
         13   -1    0    0    0    0  0.00000000000E+00  0.00000000000E+00  0.74505805969E-08  0.10566000000E+00  0.10566000000E+00 0. -1.
     999900   -1    0    0    0    0 -0.00000000000E+00 -0.00000000000E+00 -0.74505805969E-08  0.93827000000E+00  0.93827000000E+00 0. -1.
     999902    2    1    2    0    0 -0.54909831956E-02 -0.22902315542E-01  0.32095827583E-02  0.10201609366E+01  0.10198839974E+01 0.  0.
     999903    2    3    3    0    0 -0.42837821096E-01 -0.11978522125E+00  0.34762398519E-01  0.13349489805E+00  0.20709546329E-01 0.  0.
         14    1    1    2    0    0  0.54909831956E-02  0.22902315542E-01 -0.32095827583E-02  0.23769063404E-01  0.00000000000E+00 0. -1.
     999901    1    3    3    0    0  0.37346837900E-01  0.96882905710E-01 -0.31552815760E-01  0.88666603854E+00  0.88000000000E+00 0. -1.
        -11    1    4    4    0    0 -0.27732335536E-01 -0.49587533985E-01  0.11113901392E-01  0.57894610165E-01  0.51100000000E-03 0.  1.
         11    1    4    4    0    0 -0.15105485560E-01 -0.70197687267E-01  0.23648497127E-01  0.75600287889E-01  0.51100000000E-03 0. -1.
</event>
<event>
 8    1  0.1157726E+005  0.1043930E+01  0.7957747E-01            NaN
         13   -1    0    0    0    0  0.00000000000E+00  0.00000000000E+00  0.74505805969E-08  0.10566000000E+00  0.10566000000E+00 0.  1.
     999900   -1    0    0    0    0 -0.00000000000E+00 -0.00000000000E+00 -0.74505805969E-08  0.93827000000E+00  0.93827000000E+00 0.  1.
     999902    2    1    2    0    0  0.40700048461E-02  0.45167930687E-02 -0.23062166455E-01  0.10200798453E+01  0.10198009908E+01 0.  0.
     999903    2    3    3    0    0 -0.12086155642E+00 -0.16480450016E-01  0.36968557721E-01  0.12898362877E+00  0.19773243996E-01 0.  0.
         14    1    1    2    0    0 -0.40700048461E-02 -0.45167930687E-02  0.23062166455E-01  0.23850154730E-01  0.00000000000E+00 0.  1.
     999901    1    3    3    0    0  0.12493156126E+00  0.20997243085E-01 -0.60030724176E-01  0.89109621650E+00  0.88000000000E+00 0. -1.
        -11    1    4    4    0    0 -0.22853228860E-01 -0.11020379163E-01  0.63798421542E-02  0.26166435239E-01  0.51100000000E-03 0.  1.
         11    1    4    4    0    0 -0.98008327558E-01 -0.54600708536E-02  0.30588715567E-01  0.10281719353E+00  0.51100000000E-03 0. -1.
</event>
<event>
 8    1  0.1157726E+005  0.1043930E+01  0.7957747E-01            NaN
         13   -1    0    0    0    0  0.00000000000E+00  0.00000000000E+00  0.74505805969E-08  0.10566000000E+00  0.10566000000E+00 0. -1.
     999900   -1    0    0    0    0 -0.00000000000E+00 -0.00000000000E+00 -0.74505805969E-08  0.93827000000E+00  0.93827000000E+00 0.  1.
     999902    2    1    2    0    0  0.23100308790E-01  0.13986864837E-02  0.91309983466E-03  0.10207693795E+01  0.10205065957E+01 0.  0.
     999903    2    3    3    0    0  0.10988807201E+00 -0.70530433534E-01  0.14472987260E-01  0.13347586286E+00  0.23588306036E-01 0.  0.
         14    1    1    2    0    0 -0.23100308790E-01 -0.13986864837E-02 -0.91309983466E-03  0.23160620488E-01  0.00000000000E+00 0.  1.
     999901    1    3    3    0    0 -0.86787763216E-01  0.71929120018E-01 -0.13559887425E-01  0.88729351665E+00  0.88000000000E+00 0.  1.
        -11    1    4    4    0    0  0.52694966251E-01 -0.41680053284E-01 -0.24007063848E-02  0.67231025740E-01  0.51100000000E-03 0.  1.
         11    1    4    4    0    0  0.57193105755E-01 -0.28850380250E-01  0.16873693645E-01  0.66244837117E-01  0.51100000000E-03 0. -1.
</event>
<event>
 8    1  0.1157726E+005  0.1043930E+01  0.7957747E-01            NaN
         13   -1    0    0    0    0  0.00000000000E+00  0.00000000000E+00  0.74505805969E-08  0.10566000000E+00  0.10566000000E+00 0.  1.
     999900   -1    0    0    0    0 -0.00000000000E+00 -0.00000000000E+00 -0.74505805969E-08  0.93827000000E+00  0.93827000000E+00 0.  1.
     999902    2    1    2    0    0 -0.22695554049E-01  0.30276139163E-02 -0.82992973349E-02  0.10195756789E+01  0.10192847650E+01 0.  0.
     999903    2    3    3    0    0 -0.95921313430E-01  0.28928831819E-01  0.82251655256E-01  0.13152592808E+00  0.22270143356E-01 0.  0.
         14    1    1    2    0    0  0.22695554049E-01 -0.30276139163E-02  0.82992973349E-02  0.24354321092E-01  0.00000000000E+00 0. -1.
     999901    1    3    3    0    0  0.73225759381E-01 -0.25901217903E-01 -0.90550952591E-01  0.88804975083E+00  0.88000000000E+00 0.  1.
        -11    1    4    4    0    0 -0.29876536637E-01 -0.10197625363E-02  0.27963270404E-01  0.40937183217E-01  0.51100000000E-03 0.  1.
         11    1    4    4    0    0 -0.66044776793E-01  0.29948594355E-01  0.54288384852E-01  0.90588744866E-01  0.51100000000E-03 0. -1.
</event>
<event>
 8    1  0.1157726E+005  0.1043930E+01  0.7957747E-01            NaN
         13   -1    0    0    0    0  0.00000000000E+00  0.00000000000E+00  0.74505805969E-08  0.10566000000E+00  0.10566000000E+00 0.  1.
     999900   -1    0    0    0    0 -0.00000000000E+00 -0.00000000000E+00 -0.74505805969E-08  0.93827000000E+00  0.93827000000E+00 0. -1.
     999902    2    1    2    0    0 -0.86392706715E-02  0.35954394002E-02  0.21944027892E-01  0.10200740879E+01  0.10197950972E+01 0.  0.
     999903    2    3    3    0    0 -0.90472295762E-01 -0.53827051541E-01 -0.72427093528E-01  0.12940024466E+00  0.20399795675E-01 0.  0.
         14    1    1    2    0    0  0.86392706715E-02 -0.35954394002E-02 -0.21944027892E-01  0.23855912105E-01  0.00000000000E+00 0. -1.
     999901    1    3    3    0    0  0.81833025090E-01  0.57422490941E-01  0.94371121421E-01  0.89067384323E+00  0.88000000000E+00 0.  1.
        -11    1    4    4    0    0 -0.20769034029E-01 -0.23057198829E-01 -0.20651549812E-01  0.37279147294E-01  0.51100000000E-03 0. -1.
         11    1    4    4    0    0 -0.69703261733E-01 -0.30769852712E-01 -0.51775543716E-01  0.92121097368E-01  0.51100000000E-03 0.  1.
</event>
<event>
 8    1  0.1157726E+005  0.1043930E+01  0.7957747E-01            NaN
         13   -1    0    0    0    0  0.00000000000E+00  0.00000000000E+00  0.74505805969E-08  0.10566000000E+00  0.10566000000E+00 0.  1.
     999900   -1    0    0    0    0 -0.00000000000E+00 -0.00000000000E+00 -0.74505805969E-08  0.93827000000E+00  0.93827000000E+00 0. -1.
     999902    2    1    2    0    0 -0.70038215386E-02  0.21785141224E-02  0.22612623675E-01  0.10201575330E+01  0.10198805135E+01 0.  0.
     999903    2    3    3    0    0  0.72563319050E-01 -0.12058282667E-01 -0.10250271645E+00  0.12764004597E+00  0.19347790644E-01 0.  0.
         14    1    1    2    0    0  0.70038215386E-02 -0.21785141224E-02 -0.22612623675E-01  0.23772467045E-01  0.00000000000E+00 0. -1.
     999901    1    3    3    0    0 -0.79567140589E-01  0.14236796789E-01  0.12511534012E+00  0.89251748699E+00  0.88000000000E+00 0.  1.
        -11    1    4    4    0    0  0.41130482960E-01  0.28607534694E-02 -0.53803926563E-01  0.67786607627E-01  0.51100000000E-03 0.  1.
         11    1    4    4    0    0  0.31432836090E-01 -0.14919036136E-01 -0.48698789885E-01  0.59853438341E-01  0.51100000000E-03 0. -1.
</event>
<event>
 8    1  0.1157726E+005  0.1043930E+01  0.7957747E-01            NaN
         13   -1    0    0    0    0  0.00000000000E+00  0.00000000000E+00  0.74505805969E-08  0.10566000000E+00  0.10566000000E+00 0.  1.
     999900   -1    0    0    0    0 -0.00000000000E+00 -0.00000000000E+00 -0.74505805969E-08  0.93827000000E+00  0.93827000000E+00 0.  1.
     999902    2    1    2    0    0 -0.79928988751E-02  0.22029738233E-01  0.95078522506E-03  0.10204757937E+01  0.10202062271E+01 0.  0.
     999903    2    3    3    0    0  0.10459436143E+00  0.16306266476E-01 -0.73027462266E-01  0.13020536829E+00  0.20360572624E-01 0.  0.
         14    1    1    2    0    0  0.79928988751E-02 -0.22029738233E-01 -0.95078522506E-03  0.23454206267E-01  0.00000000000E+00 0.  1.
     999901    1    3    3    0    0 -0.11258726031E+00  0.57234717575E-02  0.73978247491E-01  0.89027042544E+00  0.88000000000E+00 0. -1.
        -11    1    4    4    0    0  0.57656056597E-01  0.14875993390E-03 -0.45433825060E-01  0.73408014361E-01  0.51100000000E-03 0.  1.
         11    1    4    4    0    0  0.46938304835E-01  0.16157506542E-01 -0.27593637206E-01  0.56797353932E-01  0.51100000000E-03 0. -1.
</event>
<event>
 8    1  0.1157726E+005  0.1043930E+01  0.7957747E-01            NaN
         13   -1    0    0    0    0  0.00000000000E+00  0.00000000000E+00  0.74505805969E-08  0.10566000000E+00  0.10566000000E+00 0.  1.
     999900   -1    0    0    0    0 -0.00000000000E+00 -0.00000000000E+00 -0.74505805969E-08  0.93827000000E+00  0.93827000000E+00 0.  1.
     999902    2    1    2    0    0 -0.53117576391E-02  0.20211522010E-01  0.12417650580E-01  0.10196211860E+01  0.10193313713E+01 0.  0.
     999903    2    3    3    0    0  0.94784057590E-01  0.79546987310E-01  0.40100523978E-01  0.13152985561E+00  0.19501541743E-01 0.  0.
         14    1    1    2    0    0  0.53117576391E-02 -0.20211522010E-01 -0.12417650580E-01  0.24308813979E-01  0.00000000000E+00 0.  1.
     999901    1    3    3    0    0 -0.10009581523E+00 -0.59335465301E-01 -0.27682873398E-01  0.88809133041E+00  0.88000000000E+00 0. -1.
        -11    1    4    4    0    0  0.54793412447E-01  0.36299192642E-01  0.27734540203E-01  0.71340137898E-01  0.51100000000E-03 0. -1.
         11    1    4    4    0    0  0.39990645144E-01  0.43247794669E-01  0.12365983775E-01  0.60189717713E-01  0.51100000000E-03 0.  1.
</event>
<event>
 8    1  0.1157726E+005  0.1043930E+01  0.7957747E-01            NaN
         13   -1    0    0    0    0  0.00000000000E+00  0.00000000000E+00  0.74505805969E-08  0.10566000000E+00  0.10566000000E+00 0.  1.
     999900   -1    0    0    0    0 -0.00000000000E+00 -0.00000000000E+00 -0.74505805969E-08  0.93827000000E+00  0.93827000000E+00 0. -1.
     999902    2    1    2    0    0  0.22513840537E-02 -0.16907259877E-01  0.46532778477E-02  0.10262501481E+01  0.10260978459E+01 0.  0.
     999903    2    3    3    0    0  0.75435313566E-03 -0.13005581068E+00  0.42127649741E-01  0.13821345736E+00  0.20325795982E-01 0.  0.
         14    1    1    2    0    0 -0.22513840537E-02  0.16907259877E-01 -0.46532778477E-02  0.17679851850E-01  0.00000000000E+00 0.  1.
     999901    1    3    3    0    0  0.14970309181E-02  0.11314855080E+00 -0.37474371894E-01  0.88803669079E+00  0.88000000000E+00 0.  1.
        -11    1    4    4    0    0  0.66374957427E-02 -0.78635233757E-01  0.33536236199E-01  0.85746700211E-01  0.51100000000E-03 0.  1.
         11    1    4    4    0    0 -0.58831426070E-02 -0.51420576918E-01  0.85914135428E-02  0.52466757144E-01  0.51100000000E-03 0. -1.
</event>
<event>
 8    1  0.1157726E+005  0.1043930E+01  0.7957747E-01            NaN
         13   -1    0    0    0    0  0.00000000000E+00  0.00000000000E+00  0.74505805969E-08  0.10566000000E+00  0.10566000000E+00 0. -1.
     999900   -1    0    0    0    0 -0.00000000000E+00 -0.00000000000E+00 -0.74505805969E-08  0.93827000000E+00  0.93827000000E+00 0. -1.
     999902    2    1    2    0    0 -0.30158492540E-02 -0.16692913064E-01 -0.16836610137E-01  0.10200297880E+01  0.10197497479E+01 0.  0.
     999903    2    3    3    0    0 -0.39055962522E-01 -0.28666502102E-01 -0.12215593480E+00  0.13293654782E+00  0.20072787289E-01 0.  0.
         14    1    1    2    0    0  0.30158492540E-02  0.16692913064E-01  0.16836610137E-01  0.23900212011E-01  0.00000000000E+00 0.  1.
     999901    1    3    3    0    0  0.36040113268E-01  0.11973589038E-01  0.10531932466E+00  0.88709324016E+00  0.88000000000E+00 0.  1.
        -11    1    4    4    0    0 -0.21123747780E-01 -0.12938200609E-01 -0.86927853109E-01  0.90389836389E-01  0.51100000000E-03 0. -1.
         11    1    4    4    0    0 -0.17932214742E-01 -0.15728301493E-01 -0.35228081689E-01  0.42546711435E-01  0.51100000000E-03 0.  1.
</event>
<event>
 8    1  0.1157726E+005  0.1043930E+01  0.7957747E-01            NaN
         13   -1    0    0    0    0  0.00000000000E+00  0.00000000000E+00  0.74505805969E-08  0.10566000000E+00  0.10566000000E+00 0. -1.
     999900   -1    0    0    0    0 -0.00000000000E+00 -0.00000000000E+00 -0.74505805969E-08  0.93827000000E+00  0.93827000000E+00 0. -1.
     999902    2    1    2    0    0  0.23693171722E-01 -0.33137564858E-02 -0.29063879008E-02  0.10198303224E+01  0.10195455321E+01 0.  0.
     999903    2    3    3    0    0  0.67780350207E-01 -0.97090097848E-01  0.54649198933E-01  0.13188306776E+00  0.19645499304E-01 0.  0.
         14    1    1    2    0    0 -0.23693171722E-01  0.33137564858E-02  0.29063879008E-02  0.24099677569E-01  0.00000000000E+00 0.  1.
     999901    1    3    3    0    0 -0.44087178484E-01  0.93776341362E-01 -0.57555586833E-01  0.88794725467E+00  0.88000000000E+00 0. -1.
        -11    1    4    4    0    0  0.38472418020E-01 -0.40109448360E-01  0.30551072543E-01  0.63423370697E-01  0.51100000000E-03 0.  1.
         11    1    4    4    0    0  0.29307932187E-01 -0.56980649488E-01  0.24098126390E-01  0.68459697061E-01  0.51100000000E-03 0. -1.
</event>
<event>
 8    1  0.1157726E+005  0.1043930E+01  0.7957747E-01            NaN
         13   -1    0    0    0    0  0.00000000000E+00  0.00000000000E+00  0.74505805969E-08  0.10566000000E+00  0.10566000000E+00 0. -1.
     999900   -1    0    0    0    0 -0.00000000000E+00 -0.00000000000E+00 -0.74505805969E-08  0.93827000000E+00  0.93827000000E+00 0.  1.
     999902    2    1    2    0    0  0.61664706427E-02 -0.12651994554E-01 -0.19538702175E-01  0.10198497340E+01  0.10195654078E+01 0.  0.
     999903    2    3    3    0    0 -0.88640841703E-01  0.19668809719E-01  0.87391538003E-01  0.12773587520E+00  0.20859338533E-01 0.  0.
         14    1    1    2    0    0 -0.61664706427E-02  0.12651994554E-01  0.19538702175E-01  0.24080265967E-01  0.00000000000E+00 0. -1.
     999901    1    3    3    0    0  0.94807312346E-01 -0.32320804273E-01 -0.10693024018E+00  0.89211385884E+00  0.88000000000E+00 0.  1.
        -11    1    4    4    0    0 -0.58461993770E-01  0.16286110709E-01  0.70344737206E-01  0.92906863531E-01  0.51100000000E-03 0. -1.
         11    1    4    4    0    0 -0.30178847934E-01  0.33826990107E-02  0.17046800797E-01  0.34829011666E-01  0.51100000000E-03 0.  1.
</event>
<event>
 8    1  0.1157726E+005  0.1043930E+01  0.7957747E-01            NaN
         13   -1    0    0    0    0  0.00000000000E+00  0.00000000000E+00  0.74505805969E-08  0.10566000000E+00  0.10566000000E+00 0.  1.
     999900   -1    0    0    0    0 -0.00000000000E+00 -0.00000000000E+00 -0.74505805969E-08  0.93827000000E+00  0.93827000000E+00 0. -1.
     999902    2    1    2    0    0 -0.12499625322E-01  0.15944184754E-01  0.12263185279E-01  0.10202478680E+01  0.10199729746E+01 0.  0.
     999903    2    3    3    0    0 -0.41290743510E-01 -0.11205353151E+00 -0.43141901683E-01  0.12879844855E+00  0.21607805211E-01 0.  0.
         14    1    1    2    0    0  0.12499625322E-01 -0.15944184754E-01 -0.12263185279E-01  0.23682131953E-01  0.00000000000E+00 0. -1.
     999901    1    3    3    0    0  0.28791118188E-01  0.12799771626E+00  0.55405086962E-01  0.89144941949E+00  0.88000000000E+00 0. -1.
        -11    1    4    4    0    0 -0.22105439508E-01 -0.32384080863E-01 -0.17419679553E-01  0.42907872307E-01  0.51100000000E-03 0. -1.
         11    1    4    4    0    0 -0.19185304002E-01 -0.79669450644E-01 -0.25722222130E-01  0.85890576246E-01  0.51100000000E-03 0.  1.
</event>
<event>
 8    1  0.1157726E+005  0.1043930E+01  0.7957747E-01            NaN
         13   -1    0    0    0    0  0.00000000000E+00  0.00000000000E+00  0.74505805969E-08  0.10566000000E+00  0.10566000000E+00 0. -1.
     999900   -1    0    0    0    0 -0.00000000000E+00 -0.00000000000E+00 -0.74505805969E-08  0.93827000000E+00  0.93827000000E+00 0. -1.
     999902    2    1    2    0    0  0.14388637073E-01  0.13552632161E-02  0.18529121605E-01  0.10204311072E+01  0.10201605004E+01 0.  0.
     999903    2    3    3    0    0 -0.17451777874E-01  0.21317087472E-01  0.12834788434E+00  0.13280931438E+00  0.20153208193E-01 0.  0.
         14    1    1    2    0    0 -0.14388637073E-01 -0.13552632161E-02 -0.18529121605E-01  0.23498892797E-01  0.00000000000E+00 0.  1.
     999901    1    3    3    0    0  0.31840414947E-01 -0.19961824256E-01 -0.10981876274E+00  0.88762179283E+00  0.88000000000E+00 0. -1.
        -11    1    4    4    0    0 -0.88344447154E-02  0.23517128241E-01  0.90137236699E-01  0.93573956286E-01  0.51100000000E-03 0.  1.
         11    1    4    4    0    0 -0.86173331581E-02 -0.22000407687E-02  0.38210647644E-01  0.39235358091E-01  0.51100000000E-03 0. -1.
</event>
<event>
 8    1  0.1157726E+005  0.1043930E+01  0.7957747E-01            NaN
         13   -1    0    0    0    0  0.00000000000E+00  0.00000000000E+00  0.74505805969E-08  0.10566000000E+00  0.10566000000E+00 0. -1.
     999900   -1    0    0    0    0 -0.00000000000E+00 -0.00000000000E+00 -0.74505805969E-08  0.93827000000E+00  0.93827000000E+00 0. -1.
     999902    2    1    2    0    0 -0.17916061054E-01  0.13649352476E-01  0.71629424379E-02  0.10202953261E+01  0.10200215462E+01 0.  0.
     999903    2    3    3    0    0 -0.33511043795E-01  0.12037240319E+00  0.41386279762E-01  0.13305001060E+00  0.19415861065E-01 0.  0.
         14    1    1    2    0    0  0.17916061054E-01 -0.13649352476E-01 -0.71629424379E-02  0.23634673915E-01  0.00000000000E+00 0. -1.
     999901    1    3    3    0    0  0.15594982741E-01 -0.10672305071E+00 -0.34223337324E-01  0.88724531549E+00  0.88000000000E+00 0.  1.
        -11    1    4    4    0    0 -0.10072499915E-01  0.58414077499E-01  0.11538518274E-01  0.60390878695E-01  0.51100000000E-03 0. -1.
         11    1    4    4    0    0 -0.23438543880E-01  0.61958325692E-01  0.29847761489E-01  0.72659131901E-01  0.51100000000E-03 0.  1.
</event>
<event>
 8    1  0.1157726E+005  0.1043930E+01  0.7957747E-01            NaN
         13   -1    0    0    0    0  0.00000000000E+00  0.00000000000E+00  0.74505805969E-08  0.10566000000E+00  0.10566000000E+00 0. -1.
     999900   -1    0    0    0    0 -0.00000000000E+00 -0.00000000000E+00 -0.74505805969E-08  0.93827000000E+00  0.93827000000E+00 0. -1.
     999902    2    1    2    0    0  0.68318379736E-02  0.20184071638E-01  0.10767921024E-01  0.10200549318E+01  0.10197754876E+01 0.  0.
     999903    2    3    3    0    0 -0.44315957453E-01  0.12272132752E+00  0.14344994746E-01  0.13261886015E+00  0.18909121616E-01 0.  0.
         14    1    1    2    0    0 -0.68318379736E-02 -0.20184071638E-01 -0.10767921024E-01  0.23875068192E-01  0.00000000000E+00 0.  1.
     999901    1    3    3    0    0  0.51147795426E-01 -0.10253725588E+00 -0.35770737223E-02  0.88743607166E+00  0.88000000000E+00 0.  1.
        -11    1    4    4    0    0 -0.13722502003E-01  0.62849078643E-01  0.11265472088E-01  0.65310686185E-01  0.51100000000E-03 0.  1.
         11    1    4    4    0    0 -0.30593455450E-01  0.59872248877E-01  0.30795226578E-02  0.67308173967E-01  0.51100000000E-03 0. -1.
</event>
<event>
 8    1  0.1157726E+005  0.1043930E+01  0.7957747E-01            NaN
         13   -1    0    0    0    0  0.00000000000E+00  0.00000000000E+00  0.74505805969E-08  0.10566000000E+00  0.10566000000E+00 0.  1.
     999900   -1    0    0    0    0 -0.00000000000E+00 -0.00000000000E+00 -0.74505805969E-08  0.93827000000E+00  0.93827000000E+00 0.  1.
     999902    2    1    2    0    0 -0.16299803986E-01 -0.14056595529E-01  0.59883882804E-02  0.10215887314E+01  0.10213444100E+01 0.  0.
     999903    2    3    3    0    0  0.60295638804E-01 -0.93726632024E-01 -0.67394214270E-01  0.13164537202E+00  0.19190577063E-01 0.  0.
         14    1    1    2    0    0  0.16299803986E-01  0.14056595529E-01 -0.59883882804E-02  0.22341268586E-01  0.00000000000E+00 0.  1.
     999901    1    3    3    0    0 -0.76595442790E-01  0.79670036495E-01  0.73382602551E-01  0.88994335939E+00  0.88000000000E+00 0. -1.
        -11    1    4    4    0    0  0.53534648962E-01 -0.83918462979E-01 -0.66452062547E-01  0.11968460555E+00  0.51100000000E-03 0. -1.
         11    1    4    4    0    0  0.67609898422E-02 -0.98081690447E-02 -0.94215172276E-03  0.11960766469E-01  0.51100000000E-03 0.  1.
</event>
<event>
 8    1  0.1157726E+005  0.1043930E+01  0.7957747E-01            NaN
         13   -1    0    0    0    0  0.00000000000E+00  0.00000000000E+00  0.74505805969E-08  0.10566000000E+00  0.10566000000E+00 0. -1.
     999900   -1    0    0    0    0 -0.00000000000E+00 -0.00000000000E+00 -0.74505805969E-08  0.93827000000E+00  0.93827000000E+00 0.  1.
     999902    2    1    2    0    0  0.39021880197E-02  0.21158796708E-01  0.10177569679E-01  0.10201286413E+01  0.10198509402E+01 0.  0.
     999903    2    3    3    0    0 -0.36463016279E-01  0.11308866666E+00 -0.55036796000E-01  0.13202202375E+00  0.16797849825E-01 0.  0.
         14    1    1    2    0    0 -0.39021880197E-02 -0.21158796708E-01 -0.10177569679E-01  0.23801358660E-01  0.00000000000E+00 0.  1.
     999901    1    3    3    0    0  0.40365204299E-01 -0.91929869954E-01  0.65214365679E-01  0.88810661759E+00  0.88000000000E+00 0. -1.
        -11    1    4    4    0    0 -0.97286517354E-02  0.27109168533E-01 -0.57532838908E-02  0.29375416247E-01  0.51100000000E-03 0.  1.
         11    1    4    4    0    0 -0.26734364544E-01  0.85979498130E-01 -0.49283512109E-01  0.10264660751E+00  0.51100000000E-03 0. -1.
</event>
<event>
 8    1  0.1157726E+005  0.1043930E+01  0.7957747E-01            NaN
         13   -1    0    0    0    0  0.00000000000E+00  0.00000000000E+00  0.74505805969E-08  0.10566000000E+00  0.10566000000E+00 0.  1.
     999900   -1    0    0    0    0 -0.00000000000E+00 -0.00000000000E+00 -0.74505805969E-08  0.93827000000E+00  0.93827000000E+00 0.  1.
     999902    2    1    2    0    0  0.13839567516E-01 -0.20651955924E-01 -0.17906339536E-02  0.10190052476E+01  0.10187003737E+01 0.  0.
     999903    2    3    3    0    0  0.73491602960E-01  0.45161563635E-01 -0.94917732291E-01  0.12964455522E+00  0.18914340074E-01 0.  0.
         14    1    1    2    0    0 -0.13839567516E-01  0.20651955924E-01  0.17906339536E-02  0.24924752406E-01  0.00000000000E+00 0.  1.
     999901    1    3    3    0    0 -0.59652035443E-01 -0.65813519559E-01  0.93127098337E-01  0.88936069237E+00  0.88000000000E+00 0. -1.
        -11    1    4    4    0    0  0.68545643736E-01  0.40555047174E-01 -0.93307967775E-01  0.12267785089E+00  0.51100000000E-03 0.  1.
         11    1    4    4    0    0  0.49459592235E-02  0.46065164606E-02 -0.16097645152E-02  0.69667043383E-02  0.51100000000E-03 0. -1.
</event>
<event>
 8    1  0.1157726E+005  0.1043930E+01  0.7957747E-01            NaN
         13   -1    0    0    0    0  0.00000000000E+00  0.00000000000E+00  0.74505805969E-08  0.10566000000E+00  0.10566000000E+00 0. -1.
     999900   -1    0    0    0    0 -0.00000000000E+00 -0.00000000000E+00 -0.74505805969E-08  0.93827000000E+00  0.93827000000E+00 0. -1.
     999902    2    1    2    0    0  0.41543535445E-02 -0.22390907056E-01 -0.43340602444E-02  0.10207482086E+01  0.10204849386E+01 0.  0.
     999903    2    3    3    0    0 -0.11093538562E+00  0.41409310280E-02  0.64940140133E-01  0.13015935776E+00  0.20010735085E-01 0.  0.
         14    1    1    2    0    0 -0.41543535445E-02  0.22390907056E-01  0.43340602444E-02  0.23181791354E-01  0.00000000000E+00 0.  1.
     999901    1    3    3    0    0  0.11508973916E+00 -0.26531838084E-01 -0.69274200378E-01  0.89058885089E+00  0.88000000000E+00 0. -1.
        -11    1    4    4    0    0 -0.44648126548E-01  0.11314904991E-01  0.28679182300E-01  0.54260841291E-01  0.51100000000E-03 0. -1.
         11    1    4    4    0    0 -0.66287259070E-01 -0.71739739634E-02  0.36260957833E-01  0.75898516464E-01  0.51100000000E-03 0.  1.
</event>
<event>
 8    1  0.1157726E+005  0.1043930E+01  0.7957747E-01            NaN
         13   -1    0    0    0    0  0.00000000000E+00  0.00000000000E+00  0.74505805969E-08  0.10566000000E+00  0.10566000000E+00 0. -1.
     999900   -1    0    0    0    0 -0.00000000000E+00 -0.00000000000E+00 -0.74505805969E-08  0.93827000000E+00  0.93827000000E+00 0. -1.
     999902    2    1    2    0    0 -0.18319797722E-01  0.12752448278E-01  0.95455548175E-02  0.10196533128E+01  0.10193642728E+01 0.  0.
     999903    2    3    3    0    0  0.11146974081E+00  0.53698242940E-01 -0.27789200514E-01  0.12840936954E+00  0.20192129889E-01 0.  0.
         14    1    1    2    0    0  0.18319797722E-01 -0.12752448278E-01 -0.95455548175E-02  0.24276687221E-01  0.00000000000E+00 0.  1.
     999901    1    3    3    0    0 -0.12978953853E+00 -0.40945794662E-01  0.37334755332E-01  0.89124394324E+00  0.88000000000E+00 0.  1.
        -11    1    4    4    0    0  0.52696319787E-01  0.30334006474E-01 -0.43653356642E-02  0.60962048394E-01  0.51100000000E-03 0.  1.
         11    1    4    4    0    0  0.58773421018E-01  0.23364236465E-01 -0.23423864850E-01  0.67447321143E-01  0.51100000000E-03 0. -1.
</event>
<event>
 8    1  0.1157726E+005  0.1043930E+01  0.7957747E-01            NaN
         13   -1    0    0    0    0  0.00000000000E+00  0.00000000000E+00  0.74505805969E-08  0.10566000000E+00  0.10566000000E+00 0. -1.
     999900   -1    0    0    0    0 -0.00000000000E+00 -0.00000000000E+00 -0.74505805969E-08  0.93827000000E+00  0.93827000000E+00 0.  1.
     999902    2    1    2    0    0 -0.31745647634E-02  0.10242649988E-01  0.21706100205E-01  0.10197195781E+01  0.10194321329E+01 0.  0.
     999903    2    3    3    0    0  0.29227211734E-01 -0.40387202173E-01  0.12051990587E+00  0.13215131303E+00  0.21297084762E-01 0.  0.
         14    1    1    2    0    0  0.31745647634E-02 -0.10242649988E-01 -0.21706100205E-01  0.24210421853E-01  0.00000000000E+00 0.  1.
     999901    1    3    3    0    0 -0.32401776498E-01  0.50629852162E-01 -0.98813805667E-01  0.88756826512E+00  0.88000000000E+00 0.  1.
        -11    1    4    4    0    0  0.90854101031E-02 -0.18757855098E-02  0.35109000414E-01  0.36317575347E-01  0.51100000000E-03 0. -1.
         11    1    4    4    0    0  0.20141801631E-01 -0.38511416663E-01  0.85410905458E-01  0.95833737684E-01  0.51100000000E-03 0.  1.
</event>
<event>
 8    1  0.1157726E+005  0.1043930E+01  0.7957747E-01            NaN
         13   -1    0    0    0    0  0.00000000000E+00  0.00000000000E+00  0.74505805969E-08  0.10566000000E+00  0.10566000000E+00 0. -1.
     999900   -1    0    0    0    0 -0.00000000000E+00 -0.00000000000E+00 -0.74505805969E-08  0.93827000000E+00  0.93827000000E+00 0. -1.
     999902    2    1    2    0    0 -0.16853174931E-01  0.18260225740E-01 -0.95153609057E-02  0.10173215908E+01  0.10169735550E+01 0.  0.
     999903    2    3    3    0    0 -0.37968909785E-02  0.12240547508E+00  0.38155750403E-01  0.12980300821E+00  0.19885747199E-01 0.  0.
         14    1    1    2    0    0  0.16853174931E-01 -0.18260225740E-01  0.95153609057E-02  0.26608409244E-01  0.00000000000E+00 0. -1.
     999901    1    3    3    0    0 -0.13056283952E-01 -0.10414524934E+00 -0.47671111308E-01  0.88751858255E+00  0.88000000000E+00 0.  1.
        -11    1    4    4    0    0 -0.71530118746E-02  0.10620428686E+00  0.38641480770E-01  0.11324284209E+00  0.51100000000E-03 0. -1.
         11    1    4    4    0    0  0.33561208961E-02  0.16201188215E-01 -0.48573036752E-03  0.16560166123E-01  0.51100000000E-03 0.  1.
</event>
<event>
 8    1  0.1157726E+005  0.1043930E+01  0.7957747E-01            NaN
         13   -1    0    0    0    0  0.00000000000E+00  0.00000000000E+00  0.74505805969E-08  0.10566000000E+00  0.10566000000E+00 0. -1.
     999900   -1    0    0    0    0 -0.00000000000E+00 -0.00000000000E+00 -0.74505805969E-08  0.93827000000E+00  0.93827000000E+00 0.  1.
     999902    2    1    2    0    0 -0.16010756681E-01  0.15690296660E-01 -0.78045972245E-02  0.10201930778E+01  0.10199168959E+01 0.  0.
     999903    2    3    3    0    0 -0.41591775685E-01  0.12571060788E+00 -0.38980652700E-02  0.13296474279E+00  0.11462773449E-01 0.  0.
         14    1    1    2    0    0  0.16010756681E-01 -0.15690296660E-01  0.78045972245E-02  0.23736922223E-01  0.00000000000E+00 0.  1.
     999901    1    3    3    0    0  0.25581019004E-01 -0.11002031122E+00 -0.39065319546E-02  0.88722833499E+00  0.88000000000E+00 0. -1.
        -11    1    4    4    0    0 -0.77040565671E-02  0.12738236129E-01 -0.17565491839E-02  0.14998724389E-01  0.51100000000E-03 0. -1.
         11    1    4    4    0    0 -0.33887719118E-01  0.11297237175E+00 -0.21415160861E-02  0.11796601840E+00  0.51100000000E-03 0.  1.
</event>
<event>
 8    1  0.1291126E+005  0.1043930E+01  0.7957747E-01            NaN
         13   -1    0    0    0    0  0.00000000000E+00  0.00000000000E+00  0.74505805969E-08  0.10566000000E+00  0.10566000000E+00 0. -1.
     999900   -1    0    0    0    0 -0.00000000000E+00 -0.00000000000E+00 -0.74505805969E-08  0.93827000000E+00  0.93827000000E+00 0. -1.
     999902    2    1    2    0    0 -0.14519550756E-01 -0.64187857690E-02  0.15540067076E-01  0.10217148734E+01  0.10214733333E+01 0.  0.
     999903    2    3    3    0    0  0.24436861600E-01 -0.36551107954E-01 -0.12073164657E+00  0.12986536881E+00  0.18861066625E-01 0.  0.
         14    1    1    2    0    0  0.14519550756E-01  0.64187857690E-02 -0.15540067076E-01  0.22215126595E-01  0.00000000000E+00 0. -1.
     999901    1    3    3    0    0 -0.38956412356E-01  0.30132322185E-01  0.13627171365E+00  0.89184950459E+00  0.88000000000E+00 0.  1.
        -11    1    4    4    0    0 -0.29884566958E-03 -0.10238226785E-01 -0.42170164604E-01  0.43399245387E-01  0.51100000000E-03 0. -1.
         11    1    4    4    0    0  0.24735707269E-01 -0.26312881169E-01 -0.78561481971E-01  0.86466123424E-01  0.51100000000E-03 0.  1.
</event>
<event>
 8    1  0.1157726E+005  0.1043930E+01  0.7957747E-01            NaN
         13   -1    0    0    0    0  0.00000000000E+00  0.00000000000E+00  0.74505805969E-08  0.10566000000E+00  0.10566000000E+00 0. -1.
     999900   -1    0    0    0    0 -0.00000000000E+00 -0.00000000000E+00 -0.74505805969E-08  0.93827000000E+00  0.93827000000E+00 0. -1.
     999902    2    1    2    0    0  0.37555121882E-02 -0.21775474861E-01  0.11074649376E-01  0.10192131427E+01  0.10189133953E+01 0.  0.
     999903    2    3    3    0    0 -0.99542411121E-01 -0.82894820857E-01 -0.64281411812E-04  0.13099576433E+00  0.19484434906E-01 0.  0.
         14    1    1    2    0    0 -0.37555121882E-02  0.21775474861E-01 -0.11074649376E-01  0.24716857325E-01  0.00000000000E+00 0.  1.
     999901    1    3    3    0    0  0.10329792331E+00  0.61119345996E-01  0.11138930787E-01  0.88821737835E+00  0.88000000000E+00 0. -1.
        -11    1    4    4    0    0 -0.59624890957E-01 -0.40624661143E-01  0.67037187278E-02  0.72461656622E-01  0.51100000000E-03 0. -1.
         11    1    4    4    0    0 -0.39917520164E-01 -0.42270159714E-01 -0.67680001396E-02  0.58534107708E-01  0.51100000000E-03 0.  1.
</event>
<event>
 8    1  0.1157726E+005  0.1043930E+01  0.7957747E-01            NaN
         13   -1    0    0    0    0  0.00000000000E+00  0.00000000000E+00  0.74505805969E-08  0.10566000000E+00  0.10566000000E+00 0.  1.
     999900   -1    0    0    0    0 -0.00000000000E+00 -0.00000000000E+00 -0.74505805969E-08  0.93827000000E+00  0.93827000000E+00 0.  1.
     999902    2    1    2    0    0  0.66543098012E-02 -0.19356787658E-01 -0.11018758682E-01  0.10206839657E+01  0.10204192176E+01 0.  0.
     999903    2    3    3    0    0 -0.10713207273E+00  0.30928794689E-01 -0.64499480758E-01  0.13032663953E+00  0.19773178928E-01 0.  0.
         14    1    1    2    0    0 -0.66543098012E-02  0.19356787658E-01  0.11018758682E-01  0.23246034291E-01  0.00000000000E+00 0. -1.
     999901    1    3    3    0    0  0.11378638253E+00 -0.50285582347E-01  0.53480722076E-01  0.89035732618E+00  0.88000000000E+00 0.  1.
        -11    1    4    4    0    0 -0.21023008126E-01 -0.62936487750E-03 -0.16977367859E-01  0.27034332084E-01  0.51100000000E-03 0.  1.
         11    1    4    4    0    0 -0.86109064607E-01  0.31558159566E-01 -0.47522112898E-01  0.10329230745E+00  0.51100000000E-03 0. -1.
</event>
<event>
 8    1  0.1157726E+005  0.1043930E+01  0.7957747E-01            NaN
         13   -1    0    0    0    0  0.00000000000E+00  0.00000000000E+00  0.74505805969E-08  0.10566000000E+00  0.10566000000E+00 0.  1.
     999900   -1    0    0    0    0 -0.00000000000E+00 -0.00000000000E+00 -0.74505805969E-08  0.93827000000E+00  0.93827000000E+00 0.  1.
     999902    2    1    2    0    0 -0.17198188013E-01  0.33022804718E-02 -0.16075767943E-01  0.10201578936E+01  0.10198808827E+01 0.  0.
     999903    2    3    3    0    0  0.56823761246E-01  0.84706956417E-01 -0.79868699517E-01  0.13101476207E+00  0.19535874984E-01 0.  0.
         14    1    1    2    0    0  0.17198188013E-01 -0.33022804718E-02  0.16075767943E-01  0.23772106390E-01  0.00000000000E+00 0.  1.
     999901    1    3    3    0    0 -0.74021949258E-01 -0.81404675945E-01  0.63792931574E-01  0.88914313154E+00  0.88000000000E+00 0.  1.
        -11    1    4    4    0    0  0.94271818872E-02  0.19198066381E-01 -0.80235662238E-02  0.22848987878E-01  0.51100000000E-03 0. -1.
         11    1    4    4    0    0  0.47396579359E-01  0.65508890036E-01 -0.71845133294E-01  0.10816577420E+00  0.51100000000E-03 0.  1.
</event>
<event>
 8    1  0.1157726E+005  0.1043930E+01  0.7957747E-01            NaN
         13   -1    0    0    0    0  0.00000000000E+00  0.00000000000E+00  0.74505805969E-08  0.10566000000E+00  0.10566000000E+00 0.  1.
     999900   -1    0    0    0    0 -0.00000000000E+00 -0.00000000000E+00 -0.74505805969E-08  0.93827000000E+00  0.93827000000E+00 0.  1.
     999902    2    1    2    0    0  0.89500717952E-02  0.13975622642E-01 -0.64222767150E-02  0.10261348475E+01  0.10259805348E+01 0.  0.
     999903    2    3    3    0    0 -0.50356193391E-01  0.12387895031E+00 -0.23282550568E-01  0.13715777057E+00  0.19708787948E-01 0.  0.
         14    1    1    2    0    0 -0.89500717952E-02 -0.13975622642E-01  0.64222767150E-02  0.17795152474E-01  0.00000000000E+00 0.  1.
     999901    1    3    3    0    0  0.59306265187E-01 -0.10990332767E+00  0.16860273853E-01  0.88897707696E+00  0.88000000000E+00 0.  1.
        -11    1    4    4    0    0 -0.46451649052E-01  0.11685125779E+00 -0.26455766143E-01  0.12849957521E+00  0.51100000000E-03 0.  1.
         11    1    4    4    0    0 -0.39045443393E-02  0.70276925244E-02  0.31732155751E-02  0.86581953548E-02  0.51100000000E-03 0. -1.
</event>
<event>
 8    1  0.1157726E+005  0.1043930E+01  0.7957747E-01            NaN
         13   -1    0    0    0    0  0.00000000000E+00  0.00000000000E+00  0.74505805969E-08  0.10566000000E+00  0.10566000000E+00 0.  1.
     999900   -1    0    0    0    0 -0.00000000000E+00 -0.00000000000E+00 -0.74505805969E-08  0.93827000000E+00  0.93827000000E+00 0.  1.
     999902    2    1    2    0    0  0.10060992062E-01  0.14383025547E-01 -0.11643217864E-01  0.10228667736E+01  0.10226498800E+01 0.  0.
     999903    2    3    3    0    0 -0.10161346810E+00  0.70042764714E-01  0.43960292530E-01  0.13232708216E+00  0.18618903434E-01 0.  0.
         14    1    1    2    0    0 -0.10060992062E-01 -0.14383025547E-01  0.11643217864E-01  0.21063226424E-01  0.00000000000E+00 0.  1.
     999901    1    3    3    0    0  0.11167446017E+00 -0.55659739168E-01 -0.55603510394E-01  0.89053969142E+00  0.88000000000E+00 0. -1.
        -11    1    4    4    0    0 -0.72090596624E-01  0.43174067902E-01  0.22450875529E-01  0.86979061813E-01  0.51100000000E-03 0.  1.
         11    1    4    4    0    0 -0.29522871480E-01  0.26868696812E-01  0.21509417001E-01  0.45348020348E-01  0.51100000000E-03 0. -1.
</event>
<event>
 8    1  0.1157726E+005  0.1043930E+01  0.7957747E-01            NaN
         13   -1    0    0    0    0  0.00000000000E+00  0.00000000000E+00  0.74505805969E-08  0.10566000000E+00  0.10566000000E+00 0. -1.
     999900   -1    0    0    0    0 -0.00000000000E+00 -0.00000000000E+00 -0.74505805969E-08  0.93827000000E+00  0.93827000000E+00 0.  1.
     999902    2    1    2    0    0  0.11983970721E-01 -0.10158932633E-01 -0.15074786019E-01  0.10221568826E+01  0.10219249601E+01 0.  0.
     999903    2    3    3    0    0  0.10219002009E+00  0.78363943620E-01  0.22773553805E-01  0.13232210707E+00  0.20169219150E-01 0.  0.
         14    1    1    2    0    0 -0.11983970721E-01  0.10158932633E-01  0.15074786019E-01  0.21773117370E-01  0.00000000000E+00 0.  1.
     999901    1    3    3    0    0 -0.90206049372E-01 -0.88522876253E-01 -0.37848339825E-01  0.88983477556E+00  0.88000000000E+00 0.  1.
        -11    1    4    4    0    0  0.56207221639E-01  0.36319892399E-01  0.20420715799E-01  0.69968943847E-01  0.51100000000E-03 0. -1.
         11    1    4    4    0    0  0.45982798453E-01  0.42044051221E-01  0.23528380067E-02  0.62353163226E-01  0.51100000000E-03 0.  1.
</event>
<event>
 8    1  0.1157726E+005  0.1043930E+01  0.7957747E-01            NaN
         13   -1    0    0    0    0  0.00000000000E+00  0.00000000000E+00  0.74505805969E-08  0.10566000000E+00  0.10566000000E+00 0. -1.
     999900   -1    0    0    0    0 -0.00000000000E+00 -0.00000000000E+00 -0.74505805969E-08  0.93827000000E+00  0.93827000000E+00 0. -1.
     999902    2    1    2    0    0 -0.11182333839E-02 -0.14831733276E-01 -0.18219864650E-01  0.10204099187E+01  0.10201388180E+01 0.  0.
     999903    2    3    3    0    0  0.10606672603E+00 -0.50011357422E-01  0.53181605402E-01  0.13034003860E+00  0.20222667179E-01 0.  0.
         14    1    1    2    0    0  0.11182333839E-02  0.14831733276E-01  0.18219864650E-01  0.23520081329E-01  0.00000000000E+00 0.  1.
     999901    1    3    3    0    0 -0.10718495941E+00  0.35179624145E-01 -0.71401470052E-01  0.89006988007E+00  0.88000000000E+00 0. -1.
        -11    1    4    4    0    0  0.45499058927E-01 -0.23296987979E-01  0.34086947280E-01  0.61441802610E-01  0.51100000000E-03 0.  1.
         11    1    4    4    0    0  0.60567667103E-01 -0.26714369443E-01  0.19094658122E-01  0.68898235992E-01  0.51100000000E-03 0. -1.
</event>
<event>
 8    1  0.1157726E+005  0.1043930E+01  0.7957747E-01            NaN
         13   -1    0    0    0    0  0.00000000000E+00  0.00000000000E+00  0.74505805969E-08  0.10566000000E+00  0.10566000000E+00 0.  1.
     999900   -1    0    0    0    0 -0.00000000000E+00 -0.00000000000E+00 -0.74505805969E-08  0.93827000000E+00  0.93827000000E+00 0. -1.
     999902    2    1    2    0    0 -0.12860541157E-01  0.17298694498E-01 -0.10697095878E-01  0.10198662054E+01  0.10195822727E+01 0.  0.
     999903    2    3    3    0    0 -0.31143755136E-01 -0.12011982351E+00 -0.28509726646E-01  0.12883567011E+00  0.19675362627E-01 0.  0.
         14    1    1    2    0    0  0.12860541157E-01 -0.17298694498E-01  0.10697095878E-01  0.24063794597E-01  0.00000000000E+00 0. -1.
     999901    1    3    3    0    0  0.18283213979E-01  0.13741851801E+00  0.17812630768E-01  0.89103053529E+00  0.88000000000E+00 0.  1.
        -11    1    4    4    0    0 -0.81285194470E-02 -0.34441819955E-01 -0.17362644370E-01  0.39421242126E-01  0.51100000000E-03 0.  1.
         11    1    4    4    0    0 -0.23015235689E-01 -0.85678003560E-01 -0.11147082276E-01  0.89414427986E-01  0.51100000000E-03 0. -1.
</event>
<event>
 8    1  0.1157726E+005  0.1043930E+01  0.7957747E-01            NaN
         13   -1    0    0    0    0  0.00000000000E+00  0.00000000000E+00  0.74505805969E-08  0.10566000000E+00  0.10566000000E+00 0.  1.
     999900   -1    0    0    0    0 -0.00000000000E+00 -0.00000000000E+00 -0.74505805969E-08  0.93827000000E+00  0.93827000000E+00 0. -1.
     999902    2    1    2    0    0  0.21009085887E-01 -0.21854871364E-02 -0.11097056026E-01  0.10200699351E+01  0.10197908461E+01 0.  0.
     999903    2    3    3    0    0  0.87302422246E-01 -0.84648321713E-01  0.49496338518E-01  0.13166322364E+00  0.99129024014E-02 0.  0.
         14    1    1    2    0    0 -0.21009085887E-01  0.21854871364E-02  0.11097056026E-01  0.23860064884E-01  0.00000000000E+00 0. -1.
     999901    1    3    3    0    0 -0.66293336359E-01  0.82462834576E-01 -0.60593394544E-01  0.88840671148E+00  0.88000000000E+00 0. -1.
        -11    1    4    4    0    0  0.75399089077E-01 -0.75768463215E-01  0.40597203051E-01  0.11434280331E+00  0.51100000000E-03 0. -1.
         11    1    4    4    0    0  0.11903333169E-01 -0.88798584974E-02  0.88991354669E-02  0.17320420333E-01  0.51100000000E-03 0.  1.
</event>
<event>
 8    1  0.1157726E+005  0.1043930E+01  0.7957747E-01            NaN
         13   -1    0    0    0    0  0.00000000000E+00  0.00000000000E+00  0.74505805969E-08  0.10566000000E+00  0.10566000000E+00 0. -1.
     999900   -1    0    0    0    0 -0.00000000000E+00 -0.00000000000E+00 -0.74505805969E-08  0.93827000000E+00  0.93827000000E+00 0. -1.
     999902    2    1    2    0    0 -0.16567599440E-01  0.15635676604E-01 -0.64293224265E-02  0.10202594292E+01  0.10199848072E+01 0.  0.
     999903    2    3    3    0    0 -0.73532725375E-01 -0.17635875869E-01 -0.10650931904E+00  0.13213329657E+00  0.19922028050E-01 0.  0.
         14    1    1    2    0    0  0.16567599440E-01 -0.15635676604E-01  0.64293224265E-02  0.23670570778E-01  0.00000000000E+00 0. -1.
     999901    1    3    3    0    0  0.56965125935E-01  0.33271552473E-01  0.10007999661E+00  0.88812613265E+00  0.88000000000E+00 0.  1.
        -11    1    4    4    0    0 -0.42684397599E-02 -0.64992892820E-02 -0.14105564921E-01  0.16114850974E-01  0.51100000000E-03 0.  1.
         11    1    4    4    0    0 -0.69264285615E-01 -0.11136586587E-01 -0.92403754118E-01  0.11601844560E+00  0.51100000000E-03 0. -1.
</event>
<event>
 8    1  0.1157726E+005  0.1043930E+01  0.7957747E-01            NaN
         13   -1    0    0    0    0  0.00000000000E+00  0.00000000000E+00  0.74505805969E-08  0.10566000000E+00  0.10566000000E+00 0.  1.
     999900   -1    0    0    0    0 -0.00000000000E+00 -0.00000000000E+00 -0.74505805969E-08  0.93827000000E+00  0.93827000000E+00 0. -1.
     999902    2    1    2    0    0  0.12483568347E-01 -0.16164183369E-01  0.18203315790E-02  0.10234255149E+01  0.10232200890E+01 0.  0.
     999903    2    3    3    0    0  0.34931132726E-01 -0.12759837904E+00 -0.22818877390E-01  0.13577211196E+00  0.20293714607E-01 0.  0.
         14    1    1    2    0    0 -0.12483568347E-01  0.16164183369E-01 -0.18203315790E-02  0.20504485113E-01  0.00000000000E+00 0.  1.
     999901    1    3    3    0    0 -0.22447564379E-01  0.11143419567E+00  0.24639208969E-01  0.88765340293E+00  0.88000000000E+00 0. -1.
        -11    1    4    4    0    0  0.28033804897E-01 -0.73884974036E-01 -0.20123939223E-01  0.81548253545E-01  0.51100000000E-03 0. -1.
         11    1    4    4    0    0  0.68973278290E-02 -0.53713405007E-01 -0.26949381666E-02  0.54223858414E-01  0.51100000000E-03 0.  1.
</event>
<event>
 8    1  0.1157726E+005  0.1043930E+01  0.7957747E-01            NaN
         13   -1    0    0    0    0  0.00000000000E+00  0.00000000000E+00  0.74505805969E-08  0.10566000000E+00  0.10566000000E+00 0. -1.
     999900   -1    0    0    0    0 -0.00000000000E+00 -0.00000000000E+00 -0.74505805969E-08  0.93827000000E+00  0.93827000000E+00 0.  1.
     999902    2    1    2    0    0  0.10085605275E-01  0.35211027792E-02 -0.20971062772E-01  0.10203948545E+01  0.10201234024E+01 0.  0.
     999903    2    3    3    0    0 -0.12085378529E+00 -0.23679700318E-01  0.31486531997E-01  0.12874648946E+00  0.20442387946E-01 0.  0.
         14    1    1    2    0    0 -0.10085605275E-01 -0.35211027792E-02  0.20971062772E-01  0.23535145471E-01  0.00000000000E+00 0. -1.
     999901    1    3    3    0    0  0.13093939056E+00  0.27200803098E-01 -0.52457594769E-01  0.89164836507E+00  0.88000000000E+00 0.  1.
        -11    1    4    4    0    0 -0.27091621922E-01  0.24443629310E-02  0.10583089777E-01  0.29192358567E-01  0.51100000000E-03 0. -1.
         11    1    4    4    0    0 -0.93762163364E-01 -0.26124063249E-01  0.20903442220E-01  0.99554130889E-01  0.51100000000E-03 0.  1.
</event>
<event>
 8    1  0.1157726E+005  0.1043930E+01  0.7957747E-01            NaN
         13   -1    0    0    0    0  0.00000000000E+00  0.00000000000E+00  0.74505805969E-08  0.10566000000E+00  0.10566000000E+00 0. -1.
     999900   -1    0    0    0    0 -0.00000000000E+00 -0.00000000000E+00 -0.74505805969E-08  0.93827000000E+00  0.93827000000E+00 0.  1.
     999902    2    1    2    0    0 -0.23890887452E-01  0.17852030410E-01 -0.40155311197E-02  0.10138369114E+01  0.10133901958E+01 0.  0.
     999903    2    3    3    0    0  0.85517713451E-01  0.77626900350E-01  0.40107244164E-01  0.12395484260E+00  0.20420504327E-01 0.  0.
         14    1    1    2    0    0  0.23890887452E-01 -0.17852030410E-01  0.40155311197E-02  0.30093088628E-01  0.00000000000E+00 0. -1.
     999901    1    3    3    0    0 -0.10940860090E+00 -0.59774869941E-01 -0.44122775284E-01  0.88988206877E+00  0.88000000000E+00 0.  1.
        -11    1    4    4    0    0  0.50415217842E-01  0.41553417057E-01  0.12414901790E-01  0.66503921438E-01  0.51100000000E-03 0.  1.
         11    1    4    4    0    0  0.35102495609E-01  0.36073483293E-01  0.27692342374E-01  0.57450921159E-01  0.51100000000E-03 0. -1.
</event>
<event>
 8    1  0.1157726E+005  0.1043930E+01  0.7957747E-01            NaN
         13   -1    0    0    0    0  0.00000000000E+00  0.00000000000E+00  0.74505805969E-08  0.10566000000E+00  0.10566000000E+00 0. -1.
     999900   -1    0    0    0    0 -0.00000000000E+00 -0.00000000000E+00 -0.74505805969E-08  0.93827000000E+00  0.93827000000E+00 0.  1.
     999902    2    1    2    0    0  0.20244975274E-01 -0.16049689015E-01  0.18360853722E-01  0.10122350084E+01  0.10117386717E+01 0.  0.
     999903    2    3    3    0    0 -0.79357477171E-01  0.34506771372E-01  0.84772890364E-01  0.12269177574E+00  0.19455139139E-01 0.  0.
         14    1    1    2    0    0 -0.20244975274E-01  0.16049689015E-01 -0.18360853722E-01  0.31694991571E-01  0.00000000000E+00 0.  1.
     999901    1    3    3    0    0  0.99602452445E-01 -0.50556460387E-01 -0.66412036642E-01  0.88954323269E+00  0.88000000000E+00 0.  1.
        -11    1    4    4    0    0 -0.44792789009E-01  0.14961272265E-01  0.58008598714E-01  0.74803023072E-01  0.51100000000E-03 0.  1.
         11    1    4    4    0    0 -0.34564688162E-01  0.19545499107E-01  0.26764291650E-01  0.47888752663E-01  0.51100000000E-03 0. -1.
</event>
<event>
 8    1  0.1157726E+005  0.1043930E+01  0.7957747E-01            NaN
         13   -1    0    0    0    0  0.00000000000E+00  0.00000000000E+00  0.74505805969E-08  0.10566000000E+00  0.10566000000E+00 0. -1.
     999900   -1    0    0    0    0 -0.00000000000E+00 -0.00000000000E+00 -0.74505805969E-08  0.93827000000E+00  0.93827000000E+00 0.  1.
     999902    2    1    2    0    0  0.13977173886E-01 -0.43083663250E-02 -0.18291418927E-01  0.10205099356E+01  0.10202411623E+01 0.  0.
     999903    2    3    3    0    0  0.11753737345E+00  0.57357773379E-01 -0.15575114553E-02  0.13213644917E+00  0.18779431135E-01 0.  0.
         14    1    1    2    0    0 -0.13977173886E-01  0.43083663250E-02  0.18291418927E-01  0.23420064402E-01  0.00000000000E+00 0. -1.
     999901    1    3    3    0    0 -0.10356019957E+00 -0.61666139704E-01 -0.16733907472E-01  0.88837348642E+00  0.88000000000E+00 0.  1.
        -11    1    4    4    0    0  0.23463115247E-01  0.11994503419E-01 -0.78646906633E-02  0.27504551798E-01  0.51100000000E-03 0. -1.
         11    1    4    4    0    0  0.94074258204E-01  0.45363269960E-01  0.63071792080E-02  0.10463189738E+00  0.51100000000E-03 0.  1.
</event>
<event>
 7    1  0.1157726E+005  0.1043930E+01  0.7957747E-01            NaN
         13   -1    0    0    0    0  0.00000000000E+00  0.00000000000E+00  0.74505805969E-08  0.10566000000E+00  0.10566000000E+00 0. -1.
     999900   -1    0    0    0    0 -0.00000000000E+00 -0.00000000000E+00 -0.74505805969E-08  0.93827000000E+00  0.93827000000E+00 0.  1.
     999903    2    1    2    0    0  0.55990597774E-01 -0.69976832684E-01 -0.54004766862E-01  0.10651781111E+00  0.19945553098E-01 0.  0.
         14    1    1    2    0    0  0.26377808166E-01 -0.25642360339E-01  0.31005681443E-01  0.48111035004E-01  0.00000000000E+00 0. -1.
     999901    1    1    2    0    0 -0.82368405940E-01  0.95619193023E-01  0.22999085420E-01  0.88930115389E+00  0.88000000000E+00 0. -1.
        -11    1    3    3    0    0  0.23376241576E-02 -0.13253622090E-01 -0.10927310968E-01  0.17343305083E-01  0.51100000000E-03 0.  1.
         11    1    3    3    0    0  0.53652973616E-01 -0.56723210594E-01 -0.43077455894E-01  0.89174506028E-01  0.51100000000E-03 0. -1.
</event>
<event>
 8    1  0.1157726E+005  0.1043930E+01  0.7957747E-01            NaN
         13   -1    0    0    0    0  0.00000000000E+00  0.00000000000E+00  0.74505805969E-08  0.10566000000E+00  0.10566000000E+00 0.  1.
     999900   -1    0    0    0    0 -0.00000000000E+00 -0.00000000000E+00 -0.74505805969E-08  0.93827000000E+00  0.93827000000E+00 0.  1.
     999902    2    1    2    0    0  0.76897377029E-02  0.17277207034E-01 -0.15438234385E-01  0.10195174411E+01  0.10192251173E+01 0.  0.
     999903    2    3    3    0    0  0.54269841775E-01 -0.11190183821E+00  0.19799244473E-01  0.12817092506E+00  0.23844052256E-01 0.  0.
         14    1    1    2    0    0 -0.76897377029E-02 -0.17277207034E-01  0.15438234385E-01  0.24412558853E-01  0.00000000000E+00 0.  1.
     999901    1    3    3    0    0 -0.46580104072E-01  0.12917904524E+00 -0.35237478858E-01  0.89134651609E+00  0.88000000000E+00 0.  1.
        -11    1    4    4    0    0  0.43868637081E-01 -0.67648800721E-01  0.69505670217E-02  0.80928295801E-01  0.51100000000E-03 0. -1.
         11    1    4    4    0    0  0.10401204694E-01 -0.44253037488E-01  0.12848677451E-01  0.47242629258E-01  0.51100000000E-03 0.  1.
</event>
<event>
 8    1  0.1157726E+005  0.1043930E+01  0.7957747E-01            NaN
         13   -1    0    0    0    0  0.00000000000E+00  0.00000000000E+00  0.74505805969E-08  0.10566000000E+00  0.10566000000E+00 0.  1.
     999900   -1    0    0    0    0 -0.00000000000E+00 -0.00000000000E+00 -0.74505805969E-08  0.93827000000E+00  0.93827000000E+00 0.  1.
     999902    2    1    2    0    0 -0.15775727663E-01 -0.55920232830E-02  0.16584119927E-01  0.10203677985E+01  0.10200957145E+01 0.  0.
     999903    2    3    3    0    0 -0.37308390174E-01 -0.11186280426E+00  0.57656513916E-01  0.13276198731E+00  0.19906499518E-01 0.  0.
         14    1    1    2    0    0  0.15775727663E-01  0.55920232830E-02 -0.16584119927E-01  0.23562201541E-01  0.00000000000E+00 0. -1.
     999901    1    3    3    0    0  0.21532662511E-01  0.10627078097E+00 -0.41072393990E-01  0.88760581115E+00  0.88000000000E+00 0.  1.
        -11    1    4    4    0    0 -0.18119971657E-01 -0.30104899626E-01  0.11753384513E-01  0.37054574924E-01  0.51100000000E-03 0.  1.
         11    1    4    4    0    0 -0.19188418517E-01 -0.81757904632E-01  0.45903129404E-01  0.95707412383E-01  0.51100000000E-03 0. -1.
</event>
<event>
 8    1  0.1157726E+005  0.1043930E+01  0.7957747E-01            NaN
         13   -1    0    0    0    0  0.00000000000E+00  0.00000000000E+00  0.74505805969E-08  0.10566000000E+00  0.10566000000E+00 0.  1.
     999900   -1    0    0    0    0 -0.00000000000E+00 -0.00000000000E+00 -0.74505805969E-08  0.93827000000E+00  0.93827000000E+00 0.  1.
     999902    2    1    2    0    0 -0.16599280682E-01  0.16882034702E-01  0.17545445882E-03  0.10202536405E+01  0.10199788826E+01 0.  0.
     999903    2    3    3    0    0 -0.16732244461E-01  0.10815092731E+00  0.72130910479E-01  0.13261203710E+00  0.20161672897E-01 0.  0.
         14    1    1    2    0    0  0.16599280682E-01 -0.16882034702E-01 -0.17545445882E-03  0.23676359499E-01  0.00000000000E+00 0. -1.
     999901    1    3    3    0    0  0.13296377860E-03 -0.91268892610E-01 -0.71955456021E-01  0.88764160340E+00  0.88000000000E+00 0.  1.
        -11    1    4    4    0    0 -0.10996049418E-02  0.42636257739E-01  0.37890345067E-01  0.57052598322E-01  0.51100000000E-03 0.  1.
         11    1    4    4    0    0 -0.15632639519E-01  0.65514669573E-01  0.34240565412E-01  0.75559438777E-01  0.51100000000E-03 0. -1.
</event>
<event>
 8    1  0.1299590E+005  0.1043930E+01  0.7957747E-01            NaN
         13   -1    0    0    0    0  0.00000000000E+00  0.00000000000E+00  0.74505805969E-08  0.10566000000E+00  0.10566000000E+00 0. -1.
     999900   -1    0    0    0    0 -0.00000000000E+00 -0.00000000000E+00 -0.74505805969E-08  0.93827000000E+00  0.93827000000E+00 0. -1.
     999902    2    1    2    0    0  0.92463402567E-02  0.15706715763E-01 -0.14105021997E-01  0.10208833652E+01  0.10206231910E+01 0.  0.
     999903    2    3    3    0    0 -0.88521026305E-01  0.90637405559E-01 -0.31870163555E-01  0.13212655571E+00  0.19763805641E-01 0.  0.
         14    1    1    2    0    0 -0.92463402567E-02 -0.15706715763E-01  0.14105021997E-01  0.23046634760E-01  0.00000000000E+00 0. -1.
     999901    1    3    3    0    0  0.97767366561E-01 -0.74930689796E-01  0.17765141558E-01  0.88875680953E+00  0.88000000000E+00 0. -1.
        -11    1    4    4    0    0 -0.56036011051E-01  0.69720182424E-01 -0.19453776819E-01  0.91540422357E-01  0.51100000000E-03 0.  1.
         11    1    4    4    0    0 -0.32485015254E-01  0.20917223135E-01 -0.12416386736E-01  0.40586133350E-01  0.51100000000E-03 0. -1.
</event>
<event>
 8    1  0.1157726E+005  0.1043930E+01  0.7957747E-01            NaN
         13   -1    0    0    0    0  0.00000000000E+00  0.00000000000E+00  0.74505805969E-08  0.10566000000E+00  0.10566000000E+00 0. -1.
     999900   -1    0    0    0    0 -0.00000000000E+00 -0.00000000000E+00 -0.74505805969E-08  0.93827000000E+00  0.93827000000E+00 0.  1.
     999902    2    1    2    0    0 -0.12368768169E-01  0.16599724124E-01  0.49385455810E-02  0.10226479301E+01  0.10224264582E+01 0.  0.
     999903    2    3    3    0    0  0.12230355678E+00 -0.24384932658E-01  0.34977002851E-01  0.13095365170E+00  0.19305005137E-01 0.  0.
         14    1    1    2    0    0  0.12368768169E-01 -0.16599724124E-01 -0.49385455810E-02  0.21282069906E-01  0.00000000000E+00 0. -1.
     999901    1    3    3    0    0 -0.13467232495E+00  0.40984656783E-01 -0.30038457270E-01  0.89169427839E+00  0.88000000000E+00 0. -1.
        -11    1    4    4    0    0  0.77926874053E-01 -0.21387358037E-01  0.14989716068E-01  0.82188621429E-01  0.51100000000E-03 0. -1.
         11    1    4    4    0    0  0.44376682730E-01 -0.29975746209E-02  0.19987286783E-01  0.48765030275E-01  0.51100000000E-03 0.  1.
</event>
<event>
 8    1  0.1157726E+005  0.1043930E+01  0.7957747E-01            NaN
         13   -1    0    0    0    0  0.00000000000E+00  0.00000000000E+00  0.74505805969E-08  0.10566000000E+00  0.10566000000E+00 0. -1.
     999900   -1    0    0    0    0 -0.00000000000E+00 -0.00000000000E+00 -0.74505805969E-08  0.93827000000E+00  0.93827000000E+00 0.  1.
     999902    2    1    2    0    0  0.12936922572E-01  0.27908272343E-01  0.39024793227E-02  0.10129225013E+01  0.10124477906E+01 0.  0.
     999903    2    3    3    0    0  0.74958667269E-01 -0.77450590264E-01 -0.53628036158E-01  0.12260966473E+00  0.23232905384E-01 0.  0.
         14    1    1    2    0    0 -0.12936922572E-01 -0.27908272343E-01 -0.39024793227E-02  0.31007498701E-01  0.00000000000E+00 0.  1.
     999901    1    3    3    0    0 -0.62021744697E-01  0.10535886261E+00  0.57530515481E-01  0.89031283657E+00  0.88000000000E+00 0. -1.
        -11    1    4    4    0    0  0.47831907365E-01 -0.61914211931E-01 -0.31683076114E-01  0.84411725692E-01  0.51100000000E-03 0. -1.
         11    1    4    4    0    0  0.27126759903E-01 -0.15536378333E-01 -0.21944960045E-01  0.38197939040E-01  0.51100000000E-03 0.  1.
</event>
<event>
 8    1  0.1157726E+005  0.1043930E+01  0.7957747E-01            NaN
         13   -1    0    0    0    0  0.00000000000E+00  0.00000000000E+00  0.74505805969E-08  0.10566000000E+00  0.10566000000E+00 0. -1.
     999900   -1    0    0    0    0 -0.00000000000E+00 -0.00000000000E+00 -0.74505805969E-08  0.93827000000E+00  0.93827000000E+00 0. -1.
     999902    2    1    2    0    0 -0.15423425202E-01 -0.13127053324E-02 -0.17249306943E-01  0.10207536364E+01  0.10204904911E+01 0.  0.
     999903    2    3    3    0    0  0.47715589731E-01  0.82173932380E-01 -0.88928606141E-01  0.13165607379E+00  0.19892011201E-01 0.  0.
         14    1    1    2    0    0  0.15423425202E-01  0.13127053324E-02  0.17249306943E-01  0.23176363612E-01  0.00000000000E+00 0. -1.
     999901    1    3    3    0    0 -0.63139014932E-01 -0.83486637713E-01  0.71679299198E-01  0.88909756260E+00  0.88000000000E+00 0.  1.
        -11    1    4    4    0    0  0.58471250960E-02  0.19338772036E-01 -0.28532871653E-01  0.34965166402E-01  0.51100000000E-03 0.  1.
         11    1    4    4    0    0  0.41868464635E-01  0.62835160344E-01 -0.60395734489E-01  0.96690907389E-01  0.51100000000E-03 0. -1.
</event>
<event>
 8    1  0.1157726E+005  0.1043930E+01  0.7957747E-01            NaN
         13   -1    0    0    0    0  0.00000000000E+00  0.00000000000E+00  0.74505805969E-08  0.10566000000E+00  0.10566000000E+00 0.  1.
     999900   -1    0    0    0    0 -0.00000000000E+00 -0.00000000000E+00 -0.74505805969E-08  0.93827000000E+00  0.93827000000E+00 0.  1.
     999902    2    1    2    0    0 -0.49804920094E-02  0.10702000662E-01 -0.12570411971E-01  0.10266860626E+01  0.10265412402E+01 0.  0.
     999903    2    3    3    0    0 -0.12994218425E+00  0.21422930123E-01  0.31143784723E-01  0.13671904423E+00  0.19448612922E-01 0.  0.
         14    1    1    2    0    0  0.49804920094E-02 -0.10702000662E-01  0.12570411971E-01  0.17243937367E-01  0.00000000000E+00 0.  1.
     999901    1    3    3    0    0  0.12496169224E+00 -0.10720929461E-01 -0.43714196694E-01  0.88996701841E+00  0.88000000000E+00 0.  1.
        -11    1    4    4    0    0 -0.10646290036E+00  0.13055506275E-01  0.18789346676E-01  0.10889488540E+00  0.51100000000E-03 0.  1.
         11    1    4    4    0    0 -0.23479283892E-01  0.83674238478E-02  0.12354438048E-01  0.27824158826E-01  0.51100000000E-03 0. -1.
</event>
<event>
 7    1  0.1157726E+005  0.1043930E+01  0.7957747E-01            NaN
         13   -1    0    0    0    0  0.00000000000E+00  0.00000000000E+00  0.74505805969E-08  0.10566000000E+00  0.10566000000E+00 0. -1.
     999900   -1    0    0    0    0 -0.00000000000E+00 -0.00000000000E+00 -0.74505805969E-08  0.93827000000E+00  0.93827000000E+00 0. -1.
     999903    2    1    2    0    0 -0.81527629258E-01  0.66799615225E-01 -0.43833561977E-01  0.11748576028E+00  0.27795319512E-01 0.  0.
         14    1    1    2    0    0 -0.20743740834E-01 -0.31203780477E-01  0.11586697936E-01  0.39220278797E-01  0.00000000000E+00 0.  1.
     999901    1    1    2    0    0  0.10227137009E+00 -0.35595834748E-01  0.32246864041E-01  0.88722396092E+00  0.88000000000E+00 0. -1.
        -11    1    3    3    0    0 -0.33517054522E-01  0.32876617427E-01 -0.33786918584E-01  0.57845327432E-01  0.51100000000E-03 0. -1.
         11    1    3    3    0    0 -0.48010574736E-01  0.33922997798E-01 -0.10046643393E-01  0.59640432850E-01  0.51100000000E-03 0.  1.
</event>
<event>
 8    1  0.1157726E+005  0.1043930E+01  0.7957747E-01            NaN
         13   -1    0    0    0    0  0.00000000000E+00  0.00000000000E+00  0.74505805969E-08  0.10566000000E+00  0.10566000000E+00 0. -1.
     999900   -1    0    0    0    0 -0.00000000000E+00 -0.00000000000E+00 -0.74505805969E-08  0.93827000000E+00  0.93827000000E+00 0.  1.
     999902    2    1    2    0    0 -0.20794694816E-01  0.11149636256E-01 -0.72248418875E-02  0.10192534512E+01  0.10189546927E+01 0.  0.
     999903    2    3    3    0    0  0.14448639992E-01  0.11911289443E+00 -0.48568092486E-01  0.13099255362E+00  0.20088421543E-01 0.  0.
         14    1    1    2    0    0  0.20794694816E-01 -0.11149636256E-01  0.72248418875E-02  0.24676548815E-01  0.00000000000E+00 0. -1.
     999901    1    3    3    0    0 -0.35243334808E-01 -0.10796325817E+00  0.41343250598E-01  0.88826089756E+00  0.88000000000E+00 0.  1.
        -11    1    4    4    0    0  0.28352862293E-02  0.33969860245E-01 -0.44039927578E-02  0.34375085836E-01  0.51100000000E-03 0.  1.
         11    1    4    4    0    0  0.11613353763E-01  0.85143034186E-01 -0.44164099728E-01  0.96617467788E-01  0.51100000000E-03 0. -1.
</event>
<event>
 8    1  0.1157726E+005  0.1043930E+01  0.7957747E-01            NaN
         13   -1    0    0    0    0  0.00000000000E+00  0.00000000000E+00  0.74505805969E-08  0.10566000000E+00  0.10566000000E+00 0.  1.
     999900   -1    0    0    0    0 -0.00000000000E+00 -0.00000000000E+00 -0.74505805969E-08  0.93827000000E+00  0.93827000000E+00 0. -1.
     999902    2    1    2    0    0 -0.22128515450E-01  0.61298090163E-02 -0.49841386181E-02  0.10204334600E+01  0.10201629080E+01 0.  0.
     999903    2    3    3    0    0 -0.11734578503E+00 -0.60166373063E-02 -0.59529905549E-01  0.13353487206E+00  0.21943546059E-01 0.  0.
         14    1    1    2    0    0  0.22128515450E-01 -0.61298090163E-02  0.49841386181E-02  0.23496540009E-01  0.00000000000E+00 0.  1.
     999901    1    3    3    0    0  0.95217269576E-01  0.12146446323E-01  0.54545766931E-01  0.88689858793E+00  0.88000000000E+00 0.  1.
        -11    1    4    4    0    0 -0.65005362194E-01 -0.11431034262E-01 -0.24925799128E-01  0.70554392078E-01  0.51100000000E-03 0. -1.
         11    1    4    4    0    0 -0.52340422832E-01  0.54143969561E-02 -0.34604106421E-01  0.62980479983E-01  0.51100000000E-03 0.  1.
</event>
<event>
 8    1  0.1157726E+005  0.1043930E+01  0.7957747E-01            NaN
         13   -1    0    0    0    0  0.00000000000E+00  0.00000000000E+00  0.74505805969E-08  0.10566000000E+00  0.10566000000E+00 0.  1.
     999900   -1    0    0    0    0 -0.00000000000E+00 -0.00000000000E+00 -0.74505805969E-08  0.93827000000E+00  0.93827000000E+00 0. -1.
     999902    2    1    2    0    0 -0.10670155580E-01 -0.87810092435E-02 -0.19609322630E-01  0.10199407550E+01  0.10196585996E+01 0.  0.
     999903    2    3    3    0    0  0.62708529900E-01 -0.10199984137E+00 -0.50468630850E-01  0.13144400255E+00  0.19852348595E-01 0.  0.
         14    1    1    2    0    0  0.10670155580E-01  0.87810092435E-02  0.19609322630E-01  0.23989245037E-01  0.00000000000E+00 0.  1.
     999901    1    3    3    0    0 -0.73378685480E-01  0.93218832126E-01  0.30859308220E-01  0.88849675241E+00  0.88000000000E+00 0. -1.
        -11    1    4    4    0    0  0.25992648789E-01 -0.28271344638E-01 -0.22198361586E-01  0.44361189083E-01  0.51100000000E-03 0.  1.
         11    1    4    4    0    0  0.36715881111E-01 -0.73728496732E-01 -0.28270269263E-01  0.87082813467E-01  0.51100000000E-03 0. -1.
</event>
<event>
 8    1  0.1157726E+005  0.1043930E+01  0.7957747E-01            NaN
         13   -1    0    0    0    0  0.00000000000E+00  0.00000000000E+00  0.74505805969E-08  0.10566000000E+00  0.10566000000E+00 0. -1.
     999900   -1    0    0    0    0 -0.00000000000E+00 -0.00000000000E+00 -0.74505805969E-08  0.93827000000E+00  0.93827000000E+00 0. -1.
     999902    2    1    2    0    0 -0.19705592820E-01  0.93963582760E-03 -0.12329442281E-01  0.10206661127E+01  0.10204009532E+01 0.  0.
     999903    2    3    3    0    0  0.10159171769E+00 -0.53671139456E-01 -0.56604768104E-01  0.12956809411E+00  0.19553079670E-01 0.  0.
         14    1    1    2    0    0  0.19705592820E-01 -0.93963582760E-03  0.12329442281E-01  0.23263887269E-01  0.00000000000E+00 0. -1.
     999901    1    3    3    0    0 -0.12129731051E+00  0.54610775283E-01  0.44275325824E-01  0.89109801862E+00  0.88000000000E+00 0. -1.
        -11    1    4    4    0    0  0.58248509905E-01 -0.37581448511E-01 -0.42126597482E-01  0.81118219375E-01  0.51100000000E-03 0.  1.
         11    1    4    4    0    0  0.43343207789E-01 -0.16089690945E-01 -0.14478170622E-01  0.48449874734E-01  0.51100000000E-03 0. -1.
</event>
<event>
 8    1  0.1157726E+005  0.1043930E+01  0.7957747E-01            NaN
         13   -1    0    0    0    0  0.00000000000E+00  0.00000000000E+00  0.74505805969E-08  0.10566000000E+00  0.10566000000E+00 0.  1.
     999900   -1    0    0    0    0 -0.00000000000E+00 -0.00000000000E+00 -0.74505805969E-08  0.93827000000E+00  0.93827000000E+00 0.  1.
     999902    2    1    2    0    0 -0.10454012064E-01  0.10935363790E-01 -0.15051120140E-01  0.10225897852E+01  0.10223670887E+01 0.  0.
     999903    2    3    3    0    0  0.64167463908E-01 -0.89669337568E-02  0.11163812744E+00  0.13016912680E+00  0.16824409259E-01 0.  0.
         14    1    1    2    0    0  0.10454012064E-01 -0.10935363790E-01  0.15051120140E-01  0.21340214781E-01  0.00000000000E+00 0.  1.
     999901    1    3    3    0    0 -0.74621475972E-01  0.19902297547E-01 -0.12668924758E+00  0.89242065842E+00  0.88000000000E+00 0.  1.
        -11    1    4    4    0    0  0.44097484208E-01 -0.85567789083E-04  0.84002437155E-01  0.94875002000E-01  0.51100000000E-03 0. -1.
         11    1    4    4    0    0  0.20069979700E-01 -0.88813659677E-02  0.27635690287E-01  0.35294124798E-01  0.51100000000E-03 0.  1.
</event>
<event>
 8    1  0.1157726E+005  0.1043930E+01  0.7957747E-01            NaN
         13   -1    0    0    0    0  0.00000000000E+00  0.00000000000E+00  0.74505805969E-08  0.10566000000E+00  0.10566000000E+00 0. -1.
     999900   -1    0    0    0    0 -0.00000000000E+00 -0.00000000000E+00 -0.74505805969E-08  0.93827000000E+00  0.93827000000E+00 0. -1.
     999902    2    1    2    0    0 -0.21210033965E-01  0.75052349058E-02  0.47198225426E-02  0.10209415069E+01  0.10206826586E+01 0.  0.
     999903    2    3    3    0    0 -0.19294218985E-01  0.10233860537E+00  0.79806643101E-01  0.13266504702E+00  0.19633068575E-01 0.  0.
         14    1    1    2    0    0  0.21210033965E-01 -0.75052349058E-02 -0.47198225426E-02  0.22988493135E-01  0.00000000000E+00 0. -1.
     999901    1    3    3    0    0 -0.19158149804E-02 -0.94833370462E-01 -0.75086820559E-01  0.88827645985E+00  0.88000000000E+00 0. -1.
        -11    1    4    4    0    0 -0.15029422995E-01  0.41452390530E-01  0.41815660127E-01  0.60770015543E-01  0.51100000000E-03 0. -1.
         11    1    4    4    0    0 -0.42647959900E-02  0.60886214838E-01  0.37990982975E-01  0.71895031473E-01  0.51100000000E-03 0.  1.
</event>
<event>
 8    1  0.1157726E+005  0.1043930E+01  0.7957747E-01            NaN
         13   -1    0    0    0    0  0.00000000000E+00  0.00000000000E+00  0.74505805969E-08  0.10566000000E+00  0.10566000000E+00 0. -1.
     999900   -1    0    0    0    0 -0.00000000000E+00 -0.00000000000E+00 -0.74505805969E-08  0.93827000000E+00  0.93827000000E+00 0. -1.
     999902    2    1    2    0    0 -0.20083500541E-02  0.92124263296E-02  0.21333118675E-01  0.10206061019E+01  0.10203395568E+01 0.  0.
     999903    2    3    3    0    0 -0.61576783586E-03 -0.12675762546E+00 -0.15875295639E-01  0.12938544442E+00  0.20510812652E-01 0.  0.
         14    1    1    2    0    0  0.20083500541E-02 -0.92124263296E-02 -0.21333118675E-01  0.23323898071E-01  0.00000000000E+00 0.  1.
     999901    1    3    3    0    0 -0.13925822183E-02  0.13597005179E+00  0.37208414314E-01  0.89122065751E+00  0.88000000000E+00 0.  1.
        -11    1    4    4    0    0 -0.46410456424E-02 -0.26379621277E-01 -0.10525327966E-01  0.28783109165E-01  0.51100000000E-03 0. -1.
         11    1    4    4    0    0  0.40252778065E-02 -0.10037800418E+00 -0.53499676724E-02  0.10060233526E+00  0.51100000000E-03 0.  1.
</event>
<event>
 8    1  0.1157726E+005  0.1043930E+01  0.7957747E-01            NaN
         13   -1    0    0    0    0  0.00000000000E+00  0.00000000000E+00  0.74505805969E-08  0.10566000000E+00  0.10566000000E+00 0.  1.
     999900   -1    0    0    0    0 -0.00000000000E+00 -0.00000000000E+00 -0.74505805969E-08  0.93827000000E+00  0.93827000000E+00 0. -1.
     999902    2    1    2    0    0  0.59129079247E-02  0.22833460067E-01 -0.34934905430E-02  0.10200860520E+01  0.10198073444E+01 0.  0.
     999903    2    3    3    0    0 -0.11596270928E+00  0.10422894974E-01 -0.54403059825E-01  0.13014252998E+00  0.20527993288E-01 0.  0.
         14    1    1    2    0    0 -0.59129079247E-02 -0.22833460067E-01  0.34934905430E-02  0.23843947973E-01  0.00000000000E+00 0. -1.
     999901    1    3    3    0    0  0.12187561720E+00  0.12410565093E-01  0.50909569282E-01  0.88994352205E+00  0.88000000000E+00 0. -1.
        -11    1    4    4    0    0 -0.53980574581E-01  0.10303176605E-01 -0.35150368245E-01  0.65237009351E-01  0.51100000000E-03 0. -1.
         11    1    4    4    0    0 -0.61982134694E-01  0.11971836974E-03 -0.19252691580E-01  0.64905520627E-01  0.51100000000E-03 0.  1.
</event>
<event>
 8    1  0.1157726E+005  0.1043930E+01  0.7957747E-01            NaN
         13   -1    0    0    0    0  0.00000000000E+00  0.00000000000E+00  0.74505805969E-08  0.10566000000E+00  0.10566000000E+00 0. -1.
     999900   -1    0    0    0    0 -0.00000000000E+00 -0.00000000000E+00 -0.74505805969E-08  0.93827000000E+00  0.93827000000E+00 0. -1.
     999902    2    1    2    0    0  0.67729742554E-02  0.13411142593E-01 -0.18840510327E-01  0.10198323496E+01  0.10195476078E+01 0.  0.
     999903    2    3    3    0    0 -0.11149148779E+00  0.53345472020E-01  0.33321850296E-01  0.12949412986E+00  0.19552307427E-01 0.  0.
         14    1    1    2    0    0 -0.67729742554E-02 -0.13411142593E-01  0.18840510327E-01  0.24097650410E-01  0.00000000000E+00 0. -1.
     999901    1    3    3    0    0  0.11826446205E+00 -0.39934329427E-01 -0.52162360623E-01  0.89033821973E+00  0.88000000000E+00 0. -1.
        -11    1    4    4    0    0 -0.21601146306E-01  0.18538173557E-01  0.40785043433E-02  0.28760541010E-01  0.51100000000E-03 0.  1.
         11    1    4    4    0    0 -0.89890341484E-01  0.34807298463E-01  0.29243345953E-01  0.10073358885E+00  0.51100000000E-03 0. -1.
</event>
<event>
 8    1  0.1157726E+005  0.1043930E+01  0.7957747E-01            NaN
         13   -1    0    0    0    0  0.00000000000E+00  0.00000000000E+00  0.74505805969E-08  0.10566000000E+00  0.10566000000E+00 0.  1.
     999900   -1    0    0    0    0 -0.00000000000E+00 -0.00000000000E+00 -0.74505805969E-08  0.93827000000E+00  0.93827000000E+00 0.  1.
     999902    2    1    2    0    0  0.22856186301E-02  0.25053639541E-01  0.15591871386E-02  0.10187240489E+01  0.10184121699E+01 0.  0.
     999903    2    3    3    0    0  0.11406018068E+00  0.46898098584E-02 -0.57863495258E-01  0.12943259303E+00  0.19310435554E-01 0.  0.
         14    1    1    2    0    0 -0.22856186301E-02 -0.25053639541E-01 -0.15591871386E-02  0.25205951109E-01  0.00000000000E+00 0.  1.
     999901    1    3    3    0    0 -0.11177456205E+00  0.20363829683E-01  0.59422682397E-01  0.88929145586E+00  0.88000000000E+00 0. -1.
        -11    1    4    4    0    0  0.22759087559E-01 -0.64960765535E-02 -0.14253082634E-01  0.27633070092E-01  0.51100000000E-03 0.  1.
         11    1    4    4    0    0  0.91301093124E-01  0.11185886412E-01 -0.43610412624E-01  0.10179952294E+00  0.51100000000E-03 0. -1.
</event>
<event>
 8    1  0.1157726E+005  0.1043930E+01  0.7957747E-01            NaN
         13   -1    0    0    0    0  0.00000000000E+00  0.00000000000E+00  0.74505805969E-08  0.10566000000E+00  0.10566000000E+00 0. -1.
     999900   -1    0    0    0    0 -0.00000000000E+00 -0.00000000000E+00 -0.74505805969E-08  0.93827000000E+00  0.93827000000E+00 0.  1.
     999902    2    1    2    0    0 -0.38430216563E-02  0.15699556765E-02  0.23190976390E-01  0.10203703955E+01  0.10200983723E+01 0.  0.
     999903    2    3    3    0    0  0.85315624969E-01 -0.95246430627E-01 -0.81300288363E-02  0.13003131278E+00  0.22167690984E-01 0.  0.
         14    1    1    2    0    0  0.38430216563E-02 -0.15699556765E-02 -0.23190976390E-01  0.23559604458E-01  0.00000000000E+00 0.  1.
     999901    1    3    3    0    0 -0.89158646625E-01  0.96816386303E-01  0.31321005227E-01  0.89033908276E+00  0.88000000000E+00 0.  1.
        -11    1    4    4    0    0  0.35364738140E-01 -0.41227418212E-01 -0.14378960216E-01  0.56190571576E-01  0.51100000000E-03 0. -1.
         11    1    4    4    0    0  0.49950886828E-01 -0.54019012414E-01  0.62489313797E-02  0.73840741204E-01  0.51100000000E-03 0.  1.
</event>
<event>
 8    1  0.1157726E+005  0.1043930E+01  0.7957747E-01            NaN
         13   -1    0    0    0    0  0.00000000000E+00  0.00000000000E+00  0.74505805969E-08  0.10566000000E+00  0.10566000000E+00 0. -1.
     999900   -1    0    0    0    0 -0.00000000000E+00 -0.00000000000E+00 -0.74505805969E-08  0.93827000000E+00  0.93827000000E+00 0.  1.
     999902    2    1    2    0    0 -0.44148518426E-03  0.45983604098E-02  0.23137092040E-01  0.10203362539E+01  0.10200634324E+01 0.  0.
     999903    2    3    3    0    0 -0.47628581492E-01  0.96306298301E-01 -0.69483753511E-01  0.12948520631E+00  0.19875658094E-01 0.  0.
         14    1    1    2    0    0  0.44148518426E-03 -0.45983604098E-02 -0.23137092040E-01  0.23593746114E-01  0.00000000000E+00 0.  1.
     999901    1    3    3    0    0  0.47187096308E-01 -0.91707937892E-01  0.92620845551E-01  0.89085104757E+00  0.88000000000E+00 0.  1.
        -11    1    4    4    0    0 -0.21232684014E-01  0.38411579779E-01 -0.17245217114E-01  0.47158614969E-01  0.51100000000E-03 0.  1.
         11    1    4    4    0    0 -0.26395897478E-01  0.57894718523E-01 -0.52238536396E-01  0.82326591344E-01  0.51100000000E-03 0. -1.
</event>
<event>
 8    1  0.1157726E+005  0.1043930E+01  0.7957747E-01            NaN
         13   -1    0    0    0    0  0.00000000000E+00  0.00000000000E+00  0.74505805969E-08  0.10566000000E+00  0.10566000000E+00 0.  1.
     999900   -1    0    0    0    0 -0.00000000000E+00 -0.00000000000E+00 -0.74505805969E-08  0.93827000000E+00  0.93827000000E+00 0. -1.
     999902    2    1    2    0    0  0.80742020551E-02 -0.21575805589E-01  0.22220440105E-02  0.10207859812E+01  0.10205235783E+01 0.  0.
     999903    2    3    3    0    0 -0.24293585669E-01  0.46809708623E-01  0.11593274770E+00  0.13024997613E+00  0.27264026946E-01 0.  0.
         14    1    1    2    0    0 -0.80742020551E-02  0.21575805589E-01 -0.22220440105E-02  0.23144018778E-01  0.00000000000E+00 0.  1.
     999901    1    3    3    0    0  0.32367787724E-01 -0.68385514212E-01 -0.11371070369E+00  0.89053600509E+00  0.88000000000E+00 0. -1.
        -11    1    4    4    0    0 -0.18908619017E-01  0.45186234861E-01  0.79485324219E-01  0.93367604560E-01  0.51100000000E-03 0.  1.
         11    1    4    4    0    0 -0.53849666521E-02  0.16234737629E-02  0.36447423483E-01  0.36882371567E-01  0.51100000000E-03 0. -1.
</event>
<event>
 8    1  0.1157726E+005  0.1043930E+01  0.7957747E-01            NaN
         13   -1    0    0    0    0  0.00000000000E+00  0.00000000000E+00  0.74505805969E-08  0.10566000000E+00  0.10566000000E+00 0. -1.
     999900   -1    0    0    0    0 -0.00000000000E+00 -0.00000000000E+00 -0.74505805969E-08  0.93827000000E+00  0.93827000000E+00 0. -1.
     999902    2    1    2    0    0  0.37714477698E-02 -0.24029054216E-01 -0.92397687471E-02  0.10179109187E+01  0.10175783242E+01 0.  0.
     999903    2    3    3    0    0  0.12195818623E+00  0.24226582926E-01  0.23724451520E-01  0.12808882892E+00  0.19574779277E-01 0.  0.
         14    1    1    2    0    0 -0.37714477698E-02  0.24029054216E-01  0.92397687471E-02  0.26019081292E-01  0.00000000000E+00 0. -1.
     999901    1    3    3    0    0 -0.11818673846E+00 -0.48255637142E-01 -0.32964220267E-01  0.88982208979E+00  0.88000000000E+00 0. -1.
        -11    1    4    4    0    0  0.94002679891E-01  0.12290835969E-01  0.23557415546E-01  0.97687160998E-01  0.51100000000E-03 0. -1.
         11    1    4    4    0    0  0.27955506341E-01  0.11935746956E-01  0.16703597422E-03  0.30401667918E-01  0.51100000000E-03 0.  1.
</event>
<event>
 8    1  0.1157726E+005  0.1043930E+01  0.7957747E-01            NaN
         13   -1    0    0    0    0  0.00000000000E+00  0.00000000000E+00  0.74505805969E-08  0.10566000000E+00  0.10566000000E+00 0. -1.
     999900   -1    0    0    0    0 -0.00000000000E+00 -0.00000000000E+00 -0.74505805969E-08  0.93827000000E+00  0.93827000000E+00 0. -1.
     999902    2    1    2    0    0 -0.11839987521E-01 -0.37710983629E-02  0.20697959387E-01  0.10197885003E+01  0.10195027088E+01 0.  0.
     999903    2    3    3    0    0 -0.80896369946E-01 -0.10037800267E+00  0.18998661679E-01  0.13181070462E+00  0.19827925221E-01 0.  0.
         14    1    1    2    0    0  0.11839987521E-01  0.37710983629E-02 -0.20697959387E-01  0.24141499749E-01  0.00000000000E+00 0.  1.
     999901    1    3    3    0    0  0.69056382425E-01  0.96606904302E-01  0.16992977078E-02  0.88797779563E+00  0.88000000000E+00 0.  1.
        -11    1    4    4    0    0 -0.77040680646E-01 -0.98990792894E-01  0.15487821262E-01  0.12639057433E+00  0.51100000000E-03 0.  1.
         11    1    4    4    0    0 -0.38556892998E-02 -0.13872097714E-02  0.35108404174E-02  0.54201302903E-02  0.51100000000E-03 0. -1.
</event>
<event>
 8    1  0.1157726E+005  0.1043930E+01  0.7957747E-01            NaN
         13   -1    0    0    0    0  0.00000000000E+00  0.00000000000E+00  0.74505805969E-08  0.10566000000E+00  0.10566000000E+00 0. -1.
     999900   -1    0    0    0    0 -0.00000000000E+00 -0.00000000000E+00 -0.74505805969E-08  0.93827000000E+00  0.93827000000E+00 0. -1.
     999902    2    1    2    0    0 -0.11748719915E-01  0.86369405637E-02 -0.17321941890E-01  0.10212875877E+01  0.10210365606E+01 0.  0.
     999903    2    3    3    0    0  0.97473373780E-01  0.51998459328E-01 -0.69378057712E-01  0.13195102251E+00  0.19820673095E-01 0.  0.
         14    1    1    2    0    0  0.11748719915E-01 -0.86369405637E-02  0.17321941890E-01  0.22642412256E-01  0.00000000000E+00 0. -1.
     999901    1    3    3    0    0 -0.10922209370E+00 -0.43361518764E-01  0.52056115823E-01  0.88933656523E+00  0.88000000000E+00 0.  1.
        -11    1    4    4    0    0  0.46731655531E-01  0.27499749806E-01 -0.22718818269E-01  0.58791918600E-01  0.51100000000E-03 0.  1.
         11    1    4    4    0    0  0.50741718249E-01  0.24498709521E-01 -0.46659239443E-01  0.73159103914E-01  0.51100000000E-03 0. -1.
</event>
<event>
 8    1  0.1157726E+005  0.1043930E+01  0.7957747E-01            NaN
         13   -1    0    0    0    0  0.00000000000E+00  0.00000000000E+00  0.74505805969E-08  0.10566000000E+00  0.10566000000E+00 0.  1.
     999900   -1    0    0    0    0 -0.00000000000E+00 -0.00000000000E+00 -0.74505805969E-08  0.93827000000E+00  0.93827000000E+00 0. -1.
     999902    2    1    2    0    0 -0.20277423444E-01 -0.30606958787E-02  0.17127190642E-01  0.10172114218E+01  0.10168604596E+01 0.  0.
     999903    2    3    3    0    0 -0.35159268119E-01  0.12154400583E+00  0.73055129070E-02  0.12825458015E+00  0.19665892396E-01 0.  0.
         14    1    1    2    0    0  0.20277423444E-01  0.30606958787E-02 -0.17127190642E-01  0.26718578182E-01  0.00000000000E+00 0. -1.
     999901    1    3    3    0    0  0.14881844675E-01 -0.12460470171E+00  0.98216777352E-02  0.88895684166E+00  0.88000000000E+00 0.  1.
        -11    1    4    4    0    0 -0.20091345811E-01  0.42249470019E-01 -0.30107314060E-02  0.46882891528E-01  0.51100000000E-03 0. -1.
         11    1    4    4    0    0 -0.15067922308E-01  0.79294535810E-01  0.10316244313E-01  0.81371688625E-01  0.51100000000E-03 0.  1.
</event>
<event>
 8    1  0.1157726E+005  0.1043930E+01  0.7957747E-01            NaN
         13   -1    0    0    0    0  0.00000000000E+00  0.00000000000E+00  0.74505805969E-08  0.10566000000E+00  0.10566000000E+00 0.  1.
     999900   -1    0    0    0    0 -0.00000000000E+00 -0.00000000000E+00 -0.74505805969E-08  0.93827000000E+00  0.93827000000E+00 0. -1.
     999902    2    1    2    0    0 -0.16601845971E-01 -0.10771610393E-01 -0.14158168472E-01  0.10195968413E+01  0.10193064388E+01 0.  0.
     999903    2    3    3    0    0  0.23693457971E-01 -0.60847061003E-02  0.12389287904E+00  0.12791092665E+00  0.20331160340E-01 0.  0.
         14    1    1    2    0    0  0.16601845971E-01  0.10771610393E-01  0.14158168472E-01  0.24333158746E-01  0.00000000000E+00 0. -1.
     999901    1    3    3    0    0 -0.40295303942E-01 -0.46869042926E-02 -0.13805104751E+00  0.89168591461E+00  0.88000000000E+00 0. -1.
        -11    1    4    4    0    0  0.41175817554E-02  0.69517939963E-02  0.38135270509E-01  0.38985149700E-01  0.51100000000E-03 0. -1.
         11    1    4    4    0    0  0.19575876216E-01 -0.13036500097E-01  0.85757608527E-01  0.88925776947E-01  0.51100000000E-03 0.  1.
</event>
<event>
 8    1  0.1157726E+005  0.1043930E+01  0.7957747E-01            NaN
         13   -1    0    0    0    0  0.00000000000E+00  0.00000000000E+00  0.74505805969E-08  0.10566000000E+00  0.10566000000E+00 0. -1.
     999900   -1    0    0    0    0 -0.00000000000E+00 -0.00000000000E+00 -0.74505805969E-08  0.93827000000E+00  0.93827000000E+00 0. -1.
     999902    2    1    2    0    0 -0.13248301575E-01  0.34013726165E-02 -0.19731719169E-01  0.10199210939E+01  0.10196384704E+01 0.  0.
     999903    2    3    3    0    0 -0.67899088070E-01 -0.84234383128E-01  0.68486048318E-01  0.12950034581E+00  0.19346402469E-01 0.  0.
         14    1    1    2    0    0  0.13248301575E-01 -0.34013726165E-02  0.19731719169E-01  0.24008906090E-01  0.00000000000E+00 0. -1.
     999901    1    3    3    0    0  0.54650786495E-01  0.87635755745E-01 -0.88217767487E-01  0.89042074810E+00  0.88000000000E+00 0. -1.
        -11    1    4    4    0    0 -0.69100574210E-02 -0.52772851365E-02  0.12068681657E-01  0.14883307089E-01  0.51100000000E-03 0.  1.
         11    1    4    4    0    0 -0.60989030649E-01 -0.78957097992E-01  0.56417366662E-01  0.11461703872E+00  0.51100000000E-03 0. -1.
</event>
<event>
 8    1  0.1157726E+005  0.1043930E+01  0.7957747E-01            NaN
         13   -1    0    0    0    0  0.00000000000E+00  0.00000000000E+00  0.74505805969E-08  0.10566000000E+00  0.10566000000E+00 0. -1.
     999900   -1    0    0    0    0 -0.00000000000E+00 -0.00000000000E+00 -0.74505805969E-08  0.93827000000E+00  0.93827000000E+00 0. -1.
     999902    2    1    2    0    0 -0.15705438324E-01 -0.53392536180E-02  0.14729982377E-01  0.10217457533E+01  0.10215048916E+01 0.  0.
     999903    2    3    3    0    0  0.88075993224E-02 -0.78631572078E-01  0.10578034678E+00  0.13367885161E+00  0.20495259725E-01 0.  0.
         14    1    1    2    0    0  0.15705438324E-01  0.53392536180E-02 -0.14729982377E-01  0.22184246730E-01  0.00000000000E+00 0.  1.
     999901    1    3    3    0    0 -0.24513037646E-01  0.73292318460E-01 -0.91050364401E-01  0.88806690166E+00  0.88000000000E+00 0. -1.
        -11    1    4    4    0    0  0.22122685520E-02 -0.18105411293E-01  0.40446941297E-01  0.44372471551E-01  0.51100000000E-03 0.  1.
         11    1    4    4    0    0  0.65953307703E-02 -0.60526160785E-01  0.65333405481E-01  0.89306380064E-01  0.51100000000E-03 0. -1.
</event>
<event>
 8    1  0.1157726E+005  0.1043930E+01  0.7957747E-01            NaN
         13   -1    0    0    0    0  0.00000000000E+00  0.00000000000E+00  0.74505805969E-08  0.10566000000E+00  0.10566000000E+00 0. -1.
     999900   -1    0    0    0    0 -0.00000000000E+00 -0.00000000000E+00 -0.74505805969E-08  0.93827000000E+00  0.93827000000E+00 0.  1.
     999902    2    1    2    0    0 -0.13440238495E-01  0.14058930787E-01 -0.11817265653E-01  0.10211716760E+01  0.10209180430E+01 0.  0.
     999903    2    3    3    0    0  0.21115875512E-02 -0.68768990348E-01 -0.11047891184E+00  0.13165695194E+00  0.19857749087E-01 0.  0.
         14    1    1    2    0    0  0.13440238495E-01 -0.14058930787E-01  0.11817265653E-01  0.22758324042E-01  0.00000000000E+00 0. -1.
     999901    1    3    3    0    0 -0.15551826047E-01  0.82827921135E-01  0.98661646183E-01  0.88951472402E+00  0.88000000000E+00 0. -1.
        -11    1    4    4    0    0 -0.76640135332E-02 -0.21502323975E-01 -0.28446652791E-01  0.36476844927E-01  0.51100000000E-03 0.  1.
         11    1    4    4    0    0  0.97756010844E-02 -0.47266666373E-01 -0.82032259045E-01  0.95180107016E-01  0.51100000000E-03 0. -1.
</event>
<event>
 8    1  0.1157726E+005  0.1043930E+01  0.7957747E-01            NaN
         13   -1    0    0    0    0  0.00000000000E+00  0.00000000000E+00  0.74505805969E-08  0.10566000000E+00  0.10566000000E+00 0.  1.
     999900   -1    0    0    0    0 -0.00000000000E+00 -0.00000000000E+00 -0.74505805969E-08  0.93827000000E+00  0.93827000000E+00 0.  1.
     999902    2    1    2    0    0  0.20636679775E-01 -0.36815465481E-02 -0.10646836319E-01  0.10204186950E+01  0.10201477990E+01 0.  0.
     999903    2    3    3    0    0  0.11471863432E+00  0.52324664856E-01  0.35327345373E-01  0.13244249307E+00  0.19868493318E-01 0.  0.
         14    1    1    2    0    0 -0.20636679775E-01  0.36815465481E-02  0.10646836319E-01  0.23511304956E-01  0.00000000000E+00 0.  1.
     999901    1    3    3    0    0 -0.94081954548E-01 -0.56006211404E-01 -0.45974181692E-01  0.88797620197E+00  0.88000000000E+00 0. -1.
        -11    1    4    4    0    0  0.59589464938E-01  0.32920759735E-01  0.27701976146E-01  0.73500621470E-01  0.51100000000E-03 0. -1.
         11    1    4    4    0    0  0.55129169385E-01  0.19403905121E-01  0.76253692268E-02  0.58941871601E-01  0.51100000000E-03 0.  1.
</event>
<event>
 8    1  0.1157726E+005  0.1043930E+01  0.7957747E-01            NaN
         13   -1    0    0    0    0  0.00000000000E+00  0.00000000000E+00  0.74505805969E-08  0.10566000000E+00  0.10566000000E+00 0. -1.
     999900   -1    0    0    0    0 -0.00000000000E+00 -0.00000000000E+00 -0.74505805969E-08  0.93827000000E+00  0.93827000000E+00 0.  1.
     999902    2    1    2    0    0  0.12238922999E-01  0.14845431482E-01 -0.14664944515E-01  0.10197382934E+01  0.10194512977E+01 0.  0.
     999903    2    3    3    0    0 -0.76676497566E-01 -0.98833794112E-01  0.14225367282E-01  0.12751434813E+00  0.20252006490E-01 0.  0.
         14    1    1    2    0    0 -0.12238922999E-01 -0.14845431482E-01  0.14664944515E-01  0.24191706630E-01  0.00000000000E+00 0. -1.
     999901    1    3    3    0    0  0.88915420565E-01  0.11367922559E+00 -0.28890311797E-01  0.89222394524E+00  0.88000000000E+00 0.  1.
        -11    1    4    4    0    0 -0.23974344542E-01 -0.32487560117E-01 -0.48259612241E-02  0.40666469988E-01  0.51100000000E-03 0. -1.
         11    1    4    4    0    0 -0.52702153024E-01 -0.66346233995E-01  0.19051328506E-01  0.86847878141E-01  0.51100000000E-03 0.  1.
</event>
<event>
 8    1  0.1157726E+005  0.1043930E+01  0.7957747E-01            NaN
         13   -1    0    0    0    0  0.00000000000E+00  0.00000000000E+00  0.74505805969E-08  0.10566000000E+00  0.10566000000E+00 0.  1.
     999900   -1    0    0    0    0 -0.00000000000E+00 -0.00000000000E+00 -0.74505805969E-08  0.93827000000E+00  0.93827000000E+00 0. -1.
     999902    2    1    2    0    0  0.47939340595E-02  0.22005433834E-01  0.14596443068E-02  0.10213611834E+01  0.10211118036E+01 0.  0.
     999903    2    3    3    0    0  0.26689550431E-01 -0.84985424200E-01 -0.92012934463E-01  0.12969780256E+00  0.20500864657E-01 0.  0.
         14    1    1    2    0    0 -0.47939340595E-02 -0.22005433834E-01 -0.14596443068E-02  0.22568816617E-01  0.00000000000E+00 0. -1.
     999901    1    3    3    0    0 -0.21895616371E-01  0.10699085803E+00  0.93472578770E-01  0.89166338082E+00  0.88000000000E+00 0. -1.
        -11    1    4    4    0    0  0.10895684134E-01 -0.44151453170E-01 -0.32882787027E-01  0.56121346682E-01  0.51100000000E-03 0.  1.
         11    1    4    4    0    0  0.15793866297E-01 -0.40833971030E-01 -0.59130147436E-01  0.73576455878E-01  0.51100000000E-03 0. -1.
</event>
<event>
 8    1  0.1157726E+005  0.1043930E+01  0.7957747E-01            NaN
         13   -1    0    0    0    0  0.00000000000E+00  0.00000000000E+00  0.74505805969E-08  0.10566000000E+00  0.10566000000E+00 0.  1.
     999900   -1    0    0    0    0 -0.00000000000E+00 -0.00000000000E+00 -0.74505805969E-08  0.93827000000E+00  0.93827000000E+00 0.  1.
     999902    2    1    2    0    0 -0.85282313650E-03  0.22416231927E-01 -0.13245725600E-01  0.10178788195E+01  0.10175453931E+01 0.  0.
     999903    2    3    3    0    0 -0.28961132900E-01  0.80654629534E-01 -0.97426419843E-01  0.13149956805E+00  0.21361475385E-01 0.  0.
         14    1    1    2    0    0  0.85282313650E-03 -0.22416231927E-01  0.13245725600E-01  0.26051180545E-01  0.00000000000E+00 0.  1.
     999901    1    3    3    0    0  0.28108309764E-01 -0.58238397607E-01  0.84180694242E-01  0.88637925140E+00  0.88000000000E+00 0. -1.
        -11    1    4    4    0    0 -0.23836395883E-02  0.33764567089E-01 -0.44961315840E-01  0.56280625187E-01  0.51100000000E-03 0.  1.
         11    1    4    4    0    0 -0.26577493312E-01  0.46890062444E-01 -0.52465104003E-01  0.75218942865E-01  0.51100000000E-03 0. -1.
</event>
<event>
 8    1  0.1157726E+005  0.1043930E+01  0.7957747E-01            NaN
         13   -1    0    0    0    0  0.00000000000E+00  0.00000000000E+00  0.74505805969E-08  0.10566000000E+00  0.10566000000E+00 0.  1.
     999900   -1    0    0    0    0 -0.00000000000E+00 -0.00000000000E+00 -0.74505805969E-08  0.93827000000E+00  0.93827000000E+00 0.  1.
     999902    2    1    2    0    0  0.84661167343E-02  0.18502338322E-01  0.12814299334E-01  0.10198838377E+01  0.10196003258E+01 0.  0.
     999903    2    3    3    0    0 -0.12553064760E-01  0.11627493636E+00 -0.56601789131E-01  0.13150335596E+00  0.20296054720E-01 0.  0.
         14    1    1    2    0    0 -0.84661167343E-02 -0.18502338322E-01 -0.12814299334E-01  0.24046162342E-01  0.00000000000E+00 0.  1.
     999901    1    3    3    0    0  0.21019181495E-01 -0.97772598035E-01  0.69416088465E-01  0.88838048169E+00  0.88000000000E+00 0.  1.
        -11    1    4    4    0    0 -0.16415491305E-01  0.65495130282E-01 -0.36444515824E-01  0.76730334941E-01  0.51100000000E-03 0. -1.
         11    1    4    4    0    0  0.38624265449E-02  0.50779806075E-01 -0.20157273307E-01  0.54773021023E-01  0.51100000000E-03 0.  1.
</event>
<event>
 8    1  0.1157726E+005  0.1043930E+01  0.7957747E-01            NaN
         13   -1    0    0    0    0  0.00000000000E+00  0.00000000000E+00  0.74505805969E-08  0.10566000000E+00  0.10566000000E+00 0. -1.
     999900   -1    0    0    0    0 -0.00000000000E+00 -0.00000000000E+00 -0.74505805969E-08  0.93827000000E+00  0.93827000000E+00 0.  1.
     999902    2    1    2    0    0 -0.62393372788E-02  0.11686446663E-01  0.18407425813E-01  0.10212510298E+01  0.10209991822E+01 0.  0.
     999903    2    3    3    0    0 -0.94018223256E-01  0.37245085722E-01 -0.80709649274E-01  0.13097996351E+00  0.20373527952E-01 0.  0.
         14    1    1    2    0    0  0.62393372788E-02 -0.11686446663E-01 -0.18407425813E-01  0.22678970222E-01  0.00000000000E+00 0.  1.
     999901    1    3    3    0    0  0.87778885977E-01 -0.25558639059E-01  0.99117075087E-01  0.89027106626E+00  0.88000000000E+00 0. -1.
        -11    1    4    4    0    0 -0.52333855962E-01  0.23820907253E-01 -0.57892434321E-01  0.81596955671E-01  0.51100000000E-03 0. -1.
         11    1    4    4    0    0 -0.41684367294E-01  0.13424178469E-01 -0.22817214953E-01  0.49383007842E-01  0.51100000000E-03 0.  1.
</event>
<event>
 8    1  0.1157726E+005  0.1043930E+01  0.7957747E-01            NaN
         13   -1    0    0    0    0  0.00000000000E+00  0.00000000000E+00  0.74505805969E-08  0.10566000000E+00  0.10566000000E+00 0.  1.
     999900   -1    0    0    0    0 -0.00000000000E+00 -0.00000000000E+00 -0.74505805969E-08  0.93827000000E+00  0.93827000000E+00 0.  1.
     999902    2    1    2    0    0 -0.47982078986E-02  0.21686252053E-01 -0.11767874670E-01  0.10187943838E+01  0.10184842646E+01 0.  0.
     999903    2    3    3    0    0 -0.37450866143E-01  0.66919394574E-02  0.12060914195E+00  0.12816836800E+00  0.20813841650E-01 0.  0.
         14    1    1    2    0    0  0.47982078986E-02 -0.21686252053E-01  0.11767874670E-01  0.25135616193E-01  0.00000000000E+00 0.  1.
     999901    1    3    3    0    0  0.32652658244E-01  0.14994312596E-01 -0.13237701663E+00  0.89062601581E+00  0.88000000000E+00 0.  1.
        -11    1    4    4    0    0 -0.35447320431E-01  0.11884328282E-01  0.98328772322E-01  0.10519771087E+00  0.51100000000E-03 0. -1.
         11    1    4    4    0    0 -0.20035457116E-02 -0.51923888247E-02  0.22280369632E-01  0.22970657132E-01  0.51100000000E-03 0.  1.
</event>
<event>
 8    1  0.1157726E+005  0.1043930E+01  0.7957747E-01            NaN
         13   -1    0    0    0    0  0.00000000000E+00  0.00000000000E+00  0.74505805969E-08  0.10566000000E+00  0.10566000000E+00 0.  1.
     999900   -1    0    0    0    0 -0.00000000000E+00 -0.00000000000E+00 -0.74505805969E-08  0.93827000000E+00  0.93827000000E+00 0. -1.
     999902    2    1    2    0    0 -0.15155015596E-01 -0.17358186991E-01  0.10687417087E-02  0.10208622008E+01  0.10206015430E+01 0.  0.
     999903    2    3    3    0    0  0.46306060749E-01 -0.30594072117E-01  0.11709453727E+00  0.13102253104E+00  0.19378453733E-01 0.  0.
         14    1    1    2    0    0  0.15155015596E-01  0.17358186991E-01 -0.10687417087E-02  0.23067799249E-01  0.00000000000E+00 0.  1.
     999901    1    3    3    0    0 -0.61461076344E-01  0.13235885126E-01 -0.11602579557E+00  0.88983966971E+00  0.88000000000E+00 0. -1.
        -11    1    4    4    0    0  0.34756383586E-01 -0.31740336797E-01  0.96796062774E-01  0.10763453939E+00  0.51100000000E-03 0. -1.
         11    1    4    4    0    0  0.11549677163E-01  0.11462646797E-02  0.20298474500E-01  0.23387991648E-01  0.51100000000E-03 0.  1.
</event>
<event>
 8    1  0.1157726E+005  0.1043930E+01  0.7957747E-01            NaN
         13   -1    0    0    0    0  0.00000000000E+00  0.00000000000E+00  0.74505805969E-08  0.10566000000E+00  0.10566000000E+00 0.  1.
     999900   -1    0    0    0    0 -0.00000000000E+00 -0.00000000000E+00 -0.74505805969E-08  0.93827000000E+00  0.93827000000E+00 0.  1.
     999902    2    1    2    0    0 -0.12786245022E-01  0.47739831821E-02  0.18502241758E-01  0.10209384379E+01  0.10206795198E+01 0.  0.
     999903    2    3    3    0    0 -0.30199819024E-01 -0.22362679864E-01 -0.12214524156E+00  0.12918659709E+00  0.18910270002E-01 0.  0.
         14    1    1    2    0    0  0.12786245022E-01 -0.47739831821E-02 -0.18502241758E-01  0.22991562088E-01  0.00000000000E+00 0. -1.
     999901    1    3    3    0    0  0.17413574002E-01  0.27136663046E-01  0.14064748332E+00  0.89175184082E+00  0.88000000000E+00 0. -1.
        -11    1    4    4    0    0 -0.95383272205E-02 -0.18168754556E-01 -0.50819457493E-01  0.54808409110E-01  0.51100000000E-03 0. -1.
         11    1    4    4    0    0 -0.20661491803E-01 -0.41939253077E-02 -0.71325784072E-01  0.74378187982E-01  0.51100000000E-03 0.  1.
</event>
<event>
 8    1  0.1157726E+005  0.1043930E+01  0.7957747E-01            NaN
         13   -1    0    0    0    0  0.00000000000E+00  0.00000000000E+00  0.74505805969E-08  0.10566000000E+00  0.10566000000E+00 0.  1.
     999900   -1    0    0    0    0 -0.00000000000E+00 -0.00000000000E+00 -0.74505805969E-08  0.93827000000E+00  0.93827000000E+00 0. -1.
     999902    2    1    2    0    0  0.21954148231E-01  0.27717225659E-02 -0.11442600187E-01  0.10190181520E+01  0.10187135976E+01 0.  0.
     999903    2    3    3    0    0  0.63553518486E-02 -0.62914629360E-01  0.10979970332E+00  0.12814346081E+00  0.19134539836E-01 0.  0.
         14    1    1    2    0    0 -0.21954148231E-01 -0.27717225659E-02  0.11442600187E-01  0.24911847976E-01  0.00000000000E+00 0. -1.
     999901    1    3    3    0    0  0.15598796383E-01  0.65686351926E-01 -0.12124230351E+00  0.89087469121E+00  0.88000000000E+00 0. -1.
        -11    1    4    4    0    0  0.12336509105E-02 -0.17188004165E-01  0.48650611616E-01  0.51614847800E-01  0.51100000000E-03 0.  1.
         11    1    4    4    0    0  0.51217009381E-02 -0.45726625195E-01  0.61149091707E-01  0.76528613014E-01  0.51100000000E-03 0. -1.
</event>
<event>
 8    1  0.1157726E+005  0.1043930E+01  0.7957747E-01            NaN
         13   -1    0    0    0    0  0.00000000000E+00  0.00000000000E+00  0.74505805969E-08  0.10566000000E+00  0.10566000000E+00 0. -1.
     999900   -1    0    0    0    0 -0.00000000000E+00 -0.00000000000E+00 -0.74505805969E-08  0.93827000000E+00  0.93827000000E+00 0. -1.
     999902    2    1    2    0    0  0.26738921903E-02  0.19917660754E-01  0.13114662649E-01  0.10199329734E+01  0.10196506328E+01 0.  0.
     999903    2    3    3    0    0 -0.15967146874E-01  0.12725329153E+00 -0.27162890166E-01  0.13230089464E+00  0.17814436203E-01 0.  0.
         14    1    1    2    0    0 -0.26738921903E-02 -0.19917660754E-01 -0.13114662649E-01  0.23997026602E-01  0.00000000000E+00 0.  1.
     999901    1    3    3    0    0  0.18641039065E-01 -0.10733563078E+00  0.40277552814E-01  0.88763207875E+00  0.88000000000E+00 0. -1.
        -11    1    4    4    0    0 -0.73694599777E-02  0.95757232310E-01 -0.26544819039E-01  0.99642586372E-01  0.51100000000E-03 0. -1.
         11    1    4    4    0    0 -0.85976868967E-02  0.31496059219E-01 -0.61807112641E-03  0.32658308273E-01  0.51100000000E-03 0.  1.
</event>
<event>
 8    1  0.1157726E+005  0.1043930E+01  0.7957747E-01            NaN
         13   -1    0    0    0    0  0.00000000000E+00  0.00000000000E+00  0.74505805969E-08  0.10566000000E+00  0.10566000000E+00 0. -1.
     999900   -1    0    0    0    0 -0.00000000000E+00 -0.00000000000E+00 -0.74505805969E-08  0.93827000000E+00  0.93827000000E+00 0.  1.
     999902    2    1    2    0    0  0.92989075301E-02 -0.13374728696E-01 -0.17221370814E-01  0.10202249655E+01  0.10199495338E+01 0.  0.
     999903    2    3    3    0    0 -0.11483763198E+00 -0.39222865894E-01 -0.44196903946E-01  0.13072753095E+00  0.20253545468E-01 0.  0.
         14    1    1    2    0    0 -0.92989075301E-02  0.13374728696E-01  0.17221370814E-01  0.23705034522E-01  0.00000000000E+00 0. -1.
     999901    1    3    3    0    0  0.12413653951E+00  0.25848137198E-01  0.26975533132E-01  0.88949743452E+00  0.88000000000E+00 0.  1.
        -11    1    4    4    0    0 -0.94533317140E-01 -0.23729819729E-01 -0.35896480599E-01  0.10386756392E+00  0.51100000000E-03 0. -1.
         11    1    4    4    0    0 -0.20304314836E-01 -0.15493046165E-01 -0.83004233479E-02  0.26859967036E-01  0.51100000000E-03 0.  1.
</event>
<event>
 8    1  0.1157726E+005  0.1043930E+01  0.7957747E-01            NaN
         13   -1    0    0    0    0  0.00000000000E+00  0.00000000000E+00  0.74505805969E-08  0.10566000000E+00  0.10566000000E+00 0. -1.
     999900   -1    0    0    0    0 -0.00000000000E+00 -0.00000000000E+00 -0.74505805969E-08  0.93827000000E+00  0.93827000000E+00 0.  1.
     999902    2    1    2    0    0 -0.11022711627E-01 -0.19941669782E-01 -0.48414732459E-02  0.10206360045E+01  0.10203701502E+01 0.  0.
     999903    2    3    3    0    0  0.62386847274E-01  0.76358521745E-01 -0.79834223320E-01  0.12918404120E+00  0.24336612989E-01 0.  0.
         14    1    1    2    0    0  0.11022711627E-01  0.19941669782E-01  0.48414732459E-02  0.23293995546E-01  0.00000000000E+00 0.  1.
     999901    1    3    3    0    0 -0.73409558901E-01 -0.96300191527E-01  0.74992750074E-01  0.89145196325E+00  0.88000000000E+00 0. -1.
        -11    1    4    4    0    0  0.28425850581E-02  0.20589358732E-02 -0.11364817756E-01  0.11905448768E-01  0.51100000000E-03 0. -1.
         11    1    4    4    0    0  0.59544262216E-01  0.74299585872E-01 -0.68469405564E-01  0.11727859243E+00  0.51100000000E-03 0.  1.
</event>
<event>
 8    1  0.1157726E+005  0.1043930E+01  0.7957747E-01            NaN
         13   -1    0    0    0    0  0.00000000000E+00  0.00000000000E+00  0.74505805969E-08  0.10566000000E+00  0.10566000000E+00 0.  1.
     999900   -1    0    0    0    0 -0.00000000000E+00 -0.00000000000E+00 -0.74505805969E-08  0.93827000000E+00  0.93827000000E+00 0.  1.
     999902    2    1    2    0    0  0.12128070747E-01 -0.13170638607E-01  0.12107161005E-01  0.10223165975E+01  0.10220881010E+01 0.  0.
     999903    2    3    3    0    0 -0.42122167134E-01 -0.11730749925E+00 -0.41955647333E-01  0.13287274803E+00  0.18962185615E-01 0.  0.
         14    1    1    2    0    0 -0.12128070747E-01  0.13170638607E-01 -0.12107161005E-01  0.21613402530E-01  0.00000000000E+00 0. -1.
     999901    1    3    3    0    0  0.54250237881E-01  0.10413686064E+00  0.54062808337E-01  0.88944384944E+00  0.88000000000E+00 0. -1.
        -11    1    4    4    0    0 -0.82967918204E-02 -0.49960494612E-01 -0.18903554659E-01  0.54060089494E-01  0.51100000000E-03 0. -1.
         11    1    4    4    0    0 -0.33825375314E-01 -0.67347004635E-01 -0.23052092673E-01  0.78812658539E-01  0.51100000000E-03 0.  1.
</event>
<event>
 8    1  0.1157726E+005  0.1043930E+01  0.7957747E-01            NaN
         13   -1    0    0    0    0  0.00000000000E+00  0.00000000000E+00  0.74505805969E-08  0.10566000000E+00  0.10566000000E+00 0.  1.
     999900   -1    0    0    0    0 -0.00000000000E+00 -0.00000000000E+00 -0.74505805969E-08  0.93827000000E+00  0.93827000000E+00 0. -1.
     999902    2    1    2    0    0 -0.23064291901E-01  0.45452410308E-02 -0.27603776288E-02  0.10202606007E+01  0.10199860063E+01 0.  0.
     999903    2    3    3    0    0 -0.72977864390E-01  0.42848241535E-01  0.99452004044E-01  0.13211317179E+00  0.20036181267E-01 0.  0.
         14    1    1    2    0    0  0.23064291901E-01 -0.45452410308E-02  0.27603776288E-02  0.23669399265E-01  0.00000000000E+00 0.  1.
     999901    1    3    3    0    0  0.49913572489E-01 -0.38303000504E-01 -0.10221238167E+00  0.88814742894E+00  0.88000000000E+00 0. -1.
        -11    1    4    4    0    0 -0.50842160280E-01  0.28883081514E-01  0.53651197957E-01  0.79359119343E-01  0.51100000000E-03 0. -1.
         11    1    4    4    0    0 -0.22135704109E-01  0.13965160021E-01  0.45800806087E-01  0.52754052451E-01  0.51100000000E-03 0.  1.
</event>
<event>
 8    1  0.1157726E+005  0.1043930E+01  0.7957747E-01            NaN
         13   -1    0    0    0    0  0.00000000000E+00  0.00000000000E+00  0.74505805969E-08  0.10566000000E+00  0.10566000000E+00 0.  1.
     999900   -1    0    0    0    0 -0.00000000000E+00 -0.00000000000E+00 -0.74505805969E-08  0.93827000000E+00  0.93827000000E+00 0.  1.
     999902    2    1    2    0    0  0.98799707004E-02 -0.21036840351E-01 -0.39410888514E-02  0.10203568234E+01  0.10200844830E+01 0.  0.
     999903    2    3    3    0    0  0.78492291176E-01 -0.42642789109E-01 -0.96055828880E-01  0.13262961708E+00  0.19607290145E-01 0.  0.
         14    1    1    2    0    0 -0.98799707004E-02  0.21036840351E-01  0.39410888514E-02  0.23573176585E-01  0.00000000000E+00 0.  1.
     999901    1    3    3    0    0 -0.68612320476E-01  0.21605948759E-01  0.92114740029E-01  0.88772720634E+00  0.88000000000E+00 0. -1.
        -11    1    4    4    0    0  0.68394384384E-01 -0.32629203092E-01 -0.88521005059E-01  0.11652761976E+00  0.51100000000E-03 0.  1.
         11    1    4    4    0    0  0.10097906792E-01 -0.10013586017E-01 -0.75348238217E-02  0.16101997315E-01  0.51100000000E-03 0. -1.
</event>
<event>
 8    1  0.1157726E+005  0.1043930E+01  0.7957747E-01            NaN
         13   -1    0    0    0    0  0.00000000000E+00  0.00000000000E+00  0.74505805969E-08  0.10566000000E+00  0.10566000000E+00 0. -1.
     999900   -1    0    0    0    0 -0.00000000000E+00 -0.00000000000E+00 -0.74505805969E-08  0.93827000000E+00  0.93827000000E+00 0.  1.
     999902    2    1    2    0    0 -0.13905933337E-02 -0.41204230133E-02 -0.21704497471E-01  0.10217941276E+01  0.10215543267E+01 0.  0.
     999903    2    3    3    0    0 -0.30685850115E-01 -0.79638279465E-01 -0.10200533804E+00  0.13443321812E+00  0.19578666762E-01 0.  0.
         14    1    1    2    0    0  0.13905933337E-02  0.41204230133E-02  0.21704497471E-01  0.22135872382E-01  0.00000000000E+00 0. -1.
     999901    1    3    3    0    0  0.29295256781E-01  0.75517856452E-01  0.80300840566E-01  0.88736090950E+00  0.88000000000E+00 0. -1.
        -11    1    4    4    0    0  0.15032908437E-02 -0.12985041440E-01 -0.10752151840E-01  0.16933430684E-01  0.51100000000E-03 0. -1.
         11    1    4    4    0    0 -0.32189140958E-01 -0.66653238025E-01 -0.91253186197E-01  0.11749978743E+00  0.51100000000E-03 0.  1.
</event>
<event>
 8    1  0.1157726E+005  0.1043930E+01  0.7957747E-01            NaN
         13   -1    0    0    0    0  0.00000000000E+00  0.00000000000E+00  0.74505805969E-08  0.10566000000E+00  0.10566000000E+00 0.  1.
     999900   -1    0    0    0    0 -0.00000000000E+00 -0.00000000000E+00 -0.74505805969E-08  0.93827000000E+00  0.93827000000E+00 0.  1.
     999902    2    1    2    0    0  0.78246885250E-02 -0.21903134756E-01 -0.31876892236E-02  0.10204537476E+01  0.10201836681E+01 0.  0.
     999903    2    3    3    0    0 -0.98611847755E-01 -0.11063336158E-01  0.81338111971E-01  0.12995341155E+00  0.20622967552E-01 0.  0.
         14    1    1    2    0    0 -0.78246885250E-02  0.21903134756E-01  0.31876892236E-02  0.23476252368E-01  0.00000000000E+00 0. -1.
     999901    1    3    3    0    0  0.10643653628E+00 -0.10839798598E-01 -0.84525801194E-01  0.89050033608E+00  0.88000000000E+00 0. -1.
        -11    1    4    4    0    0 -0.56290779629E-01 -0.11654319470E-01  0.57801406296E-01  0.81521400407E-01  0.51100000000E-03 0.  1.
         11    1    4    4    0    0 -0.42321068126E-01  0.59098331194E-03  0.23536705675E-01  0.48432011146E-01  0.51100000000E-03 0. -1.
</event>
<event>
 8    1  0.1157726E+005  0.1043930E+01  0.7957747E-01            NaN
         13   -1    0    0    0    0  0.00000000000E+00  0.00000000000E+00  0.74505805969E-08  0.10566000000E+00  0.10566000000E+00 0.  1.
     999900   -1    0    0    0    0 -0.00000000000E+00 -0.00000000000E+00 -0.74505805969E-08  0.93827000000E+00  0.93827000000E+00 0.  1.
     999902    2    1    2    0    0 -0.23926906565E-01  0.44281685927E-02 -0.17566836454E-02  0.10195334537E+01  0.10192415178E+01 0.  0.
     999903    2    3    3    0    0 -0.99402059795E-01  0.25405899733E-01 -0.81544353732E-01  0.13245812641E+00  0.19220936328E-01 0.  0.
         14    1    1    2    0    0  0.23926906565E-01 -0.44281685927E-02  0.17566836454E-02  0.24396546318E-01  0.00000000000E+00 0.  1.
     999901    1    3    3    0    0  0.75475153231E-01 -0.20977731140E-01  0.79787670086E-01  0.88707532727E+00  0.88000000000E+00 0.  1.
        -11    1    4    4    0    0 -0.91683075973E-01  0.23328365486E-01 -0.80798912258E-01  0.12441352177E+00  0.51100000000E-03 0.  1.
         11    1    4    4    0    0 -0.77189838224E-02  0.20775342470E-02 -0.74544147328E-03  0.80446046384E-02  0.51100000000E-03 0. -1.
</event>
<event>
 8    1  0.1157726E+005  0.1043930E+01  0.7957747E-01            NaN
         13   -1    0    0    0    0  0.00000000000E+00  0.00000000000E+00  0.74505805969E-08  0.10566000000E+00  0.10566000000E+00 0.  1.
     999900   -1    0    0    0    0 -0.00000000000E+00 -0.00000000000E+00 -0.74505805969E-08  0.93827000000E+00  0.93827000000E+00 0. -1.
     999902    2    1    2    0    0  0.13546398951E-01  0.16750345534E-01  0.11167536375E-01  0.10196649455E+01  0.10193761858E+01 0.  0.
     999903    2    3    3    0    0  0.71697705544E-01  0.75504054895E-01  0.80059007609E-01  0.13311003598E+00  0.21619752407E-01 0.  0.
         14    1    1    2    0    0 -0.13546398951E-01 -0.16750345534E-01 -0.11167536375E-01  0.24265054477E-01  0.00000000000E+00 0. -1.
     999901    1    3    3    0    0 -0.58151306593E-01 -0.58753709361E-01 -0.68891471233E-01  0.88655490954E+00  0.88000000000E+00 0. -1.
        -11    1    4    4    0    0  0.18461714164E-01  0.34310472467E-01  0.27155622803E-01  0.47494551073E-01  0.51100000000E-03 0. -1.
         11    1    4    4    0    0  0.53235991380E-01  0.41193582428E-01  0.52903384805E-01  0.85615484910E-01  0.51100000000E-03 0.  1.
</event>
<event>
 8    1  0.1157726E+005  0.1043930E+01  0.7957747E-01            NaN
         13   -1    0    0    0    0  0.00000000000E+00  0.00000000000E+00  0.74505805969E-08  0.10566000000E+00  0.10566000000E+00 0. -1.
     999900   -1    0    0    0    0 -0.00000000000E+00 -0.00000000000E+00 -0.74505805969E-08  0.93827000000E+00  0.93827000000E+00 0. -1.
     999902    2    1    2    0    0  0.81829647215E-02 -0.17041924459E-01  0.91690482664E-02  0.10229190613E+01  0.10227032543E+01 0.  0.
     999903    2    3    3    0    0  0.53416019995E-01  0.10614438862E+00  0.53810576915E-01  0.13206903847E+00  0.20657935638E-01 0.  0.
         14    1    1    2    0    0 -0.81829647215E-02  0.17041924459E-01 -0.91690482664E-02  0.21010938747E-01  0.00000000000E+00 0. -1.
     999901    1    3    3    0    0 -0.45233055274E-01 -0.12318631308E+00 -0.44641528648E-01  0.89085002279E+00  0.88000000000E+00 0. -1.
        -11    1    4    4    0    0  0.75877105325E-02  0.22615910311E-01  0.28766313535E-02  0.24033078855E-01  0.51100000000E-03 0. -1.
         11    1    4    4    0    0  0.45828309463E-01  0.83528478313E-01  0.50933945561E-01  0.10803595961E+00  0.51100000000E-03 0.  1.
</event>
<event>
 8    1  0.1157726E+005  0.1043930E+01  0.7957747E-01            NaN
         13   -1    0    0    0    0  0.00000000000E+00  0.00000000000E+00  0.74505805969E-08  0.10566000000E+00  0.10566000000E+00 0.  1.
     999900   -1    0    0    0    0 -0.00000000000E+00 -0.00000000000E+00 -0.74505805969E-08  0.93827000000E+00  0.93827000000E+00 0.  1.
     999902    2    1    2    0    0 -0.65586051950E-02 -0.97357810508E-02 -0.17956250443E-01  0.10224770826E+01  0.10222520026E+01 0.  0.
     999903    2    3    3    0    0 -0.31535035809E-01 -0.11337131210E+00 -0.62723314384E-01  0.13491399448E+00  0.20495337251E-01 0.  0.
         14    1    1    2    0    0  0.65586051950E-02  0.97357810508E-02  0.17956250443E-01  0.21452917395E-01  0.00000000000E+00 0.  1.
     999901    1    3    3    0    0  0.24976430614E-01  0.10363553105E+00  0.44767063941E-01  0.88756308812E+00  0.88000000000E+00 0. -1.
        -11    1    4    4    0    0 -0.22246705409E-01 -0.10222124968E+00 -0.51762652459E-01  0.11672074836E+00  0.51100000000E-03 0.  1.
         11    1    4    4    0    0 -0.92883303999E-02 -0.11150062426E-01 -0.10960661925E-01  0.18193246124E-01  0.51100000000E-03 0. -1.
</event>
<event>
 8    1  0.1157726E+005  0.1043930E+01  0.7957747E-01            NaN
         13   -1    0    0    0    0  0.00000000000E+00  0.00000000000E+00  0.74505805969E-08  0.10566000000E+00  0.10566000000E+00 0. -1.
     999900   -1    0    0    0    0 -0.00000000000E+00 -0.00000000000E+00 -0.74505805969E-08  0.93827000000E+00  0.93827000000E+00 0. -1.
     999902    2    1    2    0    0 -0.11914641525E-01 -0.90665394319E-02  0.16610611743E-01  0.10215676825E+01  0.10213228954E+01 0.  0.
     999903    2    3    3    0    0  0.12480611195E+00 -0.20767736704E-01  0.26280908214E-01  0.13088087053E+00  0.20766599764E-01 0.  0.
         14    1    1    2    0    0  0.11914641525E-01  0.90665394319E-02 -0.16610611743E-01  0.22362317466E-01  0.00000000000E+00 0. -1.
     999901    1    3    3    0    0 -0.13672075347E+00  0.11701197272E-01 -0.96702964705E-02  0.89068681201E+00  0.88000000000E+00 0.  1.
        -11    1    4    4    0    0  0.74446563004E-01 -0.11474015172E-01  0.25935718830E-01  0.79667222868E-01  0.51100000000E-03 0. -1.
         11    1    4    4    0    0  0.50359548946E-01 -0.92937215314E-02  0.34518938427E-03  0.51213647660E-01  0.51100000000E-03 0.  1.
</event>
<event>
 8    1  0.1157726E+005  0.1043930E+01  0.7957747E-01            NaN
         13   -1    0    0    0    0  0.00000000000E+00  0.00000000000E+00  0.74505805969E-08  0.10566000000E+00  0.10566000000E+00 0.  1.
     999900   -1    0    0    0    0 -0.00000000000E+00 -0.00000000000E+00 -0.74505805969E-08  0.93827000000E+00  0.93827000000E+00 0. -1.
     999902    2    1    2    0    0  0.20926954480E-01  0.93963972529E-02  0.10736005160E-02  0.10209651938E+01  0.10207068848E+01 0.  0.
     999903    2    3    3    0    0  0.99651993762E-01  0.86655773773E-01  0.10909908444E-01  0.13402472455E+00  0.20096211051E-01 0.  0.
         14    1    1    2    0    0 -0.20926954480E-01 -0.93963972529E-02 -0.10736005160E-02  0.22964806187E-01  0.00000000000E+00 0.  1.
     999901    1    3    3    0    0 -0.78725039282E-01 -0.77259376520E-01 -0.98363079278E-02  0.88694046927E+00  0.88000000000E+00 0. -1.
        -11    1    4    4    0    0  0.49876054003E-01  0.50392303818E-01 -0.26895513734E-02  0.70954209562E-01  0.51100000000E-03 0. -1.
         11    1    4    4    0    0  0.49775939759E-01  0.36263469954E-01  0.13599459817E-01  0.63070514984E-01  0.51100000000E-03 0.  1.
</event>
<event>
 8    1  0.1157726E+005  0.1043930E+01  0.7957747E-01            NaN
         13   -1    0    0    0    0  0.00000000000E+00  0.00000000000E+00  0.74505805969E-08  0.10566000000E+00  0.10566000000E+00 0. -1.
     999900   -1    0    0    0    0 -0.00000000000E+00 -0.00000000000E+00 -0.74505805969E-08  0.93827000000E+00  0.93827000000E+00 0. -1.
     999902    2    1    2    0    0 -0.19542861414E-01 -0.10482244962E-01 -0.29441961504E-02  0.10215588314E+01  0.10213138484E+01 0.  0.
     999903    2    3    3    0    0 -0.36888623263E-01  0.68288605105E-01 -0.10488465312E+00  0.13200974396E+00  0.20041904234E-01 0.  0.
         14    1    1    2    0    0  0.19542861414E-01  0.10482244962E-01  0.29441961504E-02  0.22371168559E-01  0.00000000000E+00 0. -1.
     999901    1    3    3    0    0  0.17345761848E-01 -0.78770850067E-01  0.10194045697E+00  0.88954908748E+00  0.88000000000E+00 0. -1.
        -11    1    4    4    0    0 -0.18223186518E-01  0.14754946027E-01 -0.29698706138E-01  0.37842664103E-01  0.51100000000E-03 0.  1.
         11    1    4    4    0    0 -0.18665436745E-01  0.53533659078E-01 -0.75185946987E-01  0.94167079855E-01  0.51100000000E-03 0. -1.
</event>
<event>
 8    1  0.1157726E+005  0.1043930E+01  0.7957747E-01            NaN
         13   -1    0    0    0    0  0.00000000000E+00  0.00000000000E+00  0.74505805969E-08  0.10566000000E+00  0.10566000000E+00 0. -1.
     999900   -1    0    0    0    0 -0.00000000000E+00 -0.00000000000E+00 -0.74505805969E-08  0.93827000000E+00  0.93827000000E+00 0.  1.
     999902    2    1    2    0    0  0.13671111725E-01  0.19612091540E-01  0.86632412954E-02  0.10185019608E+01  0.10181844916E+01 0.  0.
     999903    2    3    3    0    0 -0.67292619555E-01 -0.44633352842E-01 -0.95203623019E-01  0.12638597703E+00  0.19729483556E-01 0.  0.
         14    1    1    2    0    0 -0.13671111725E-01 -0.19612091540E-01 -0.86632412954E-02  0.25428039250E-01  0.00000000000E+00 0. -1.
     999901    1    3    3    0    0  0.80963731280E-01  0.64245444381E-01  0.10386686431E+00  0.89211598372E+00  0.88000000000E+00 0. -1.
        -11    1    4    4    0    0 -0.27778489542E-01 -0.24449621457E-01 -0.56290513168E-01  0.67366990910E-01  0.51100000000E-03 0.  1.
         11    1    4    4    0    0 -0.39514130013E-01 -0.20183731385E-01 -0.38913109851E-01  0.59018986119E-01  0.51100000000E-03 0. -1.
</event>
<event>
 8    1  0.1157726E+005  0.1043930E+01  0.7957747E-01            NaN
         13   -1    0    0    0    0  0.00000000000E+00  0.00000000000E+00  0.74505805969E-08  0.10566000000E+00  0.10566000000E+00 0. -1.
     999900   -1    0    0    0    0 -0.00000000000E+00 -0.00000000000E+00 -0.74505805969E-08  0.93827000000E+00  0.93827000000E+00 0. -1.
     999902    2    1    2    0    0 -0.12176862065E-01 -0.21626689255E-01  0.12738263829E-01  0.10160328133E+01  0.10156497550E+01 0.  0.
     999903    2    3    3    0    0  0.51338458801E-01 -0.29749363765E-01 -0.10855530258E+00  0.12540814320E+00  0.20549614717E-01 0.  0.
         14    1    1    2    0    0  0.12176862065E-01  0.21626689255E-01 -0.12738263829E-01  0.27897186655E-01  0.00000000000E+00 0.  1.
     999901    1    3    3    0    0 -0.63515320866E-01  0.81226745096E-02  0.12129356641E+00  0.89062467015E+00  0.88000000000E+00 0.  1.
        -11    1    4    4    0    0  0.57331718451E-02 -0.10644850884E-01 -0.32618117705E-01  0.34790585413E-01  0.51100000000E-03 0. -1.
         11    1    4    4    0    0  0.45605286956E-01 -0.19104512880E-01 -0.75937184875E-01  0.90617557783E-01  0.51100000000E-03 0.  1.
</event>
<event>
 8    1  0.1157726E+005  0.1043930E+01  0.7957747E-01            NaN
         13   -1    0    0    0    0  0.00000000000E+00  0.00000000000E+00  0.74505805969E-08  0.10566000000E+00  0.10566000000E+00 0. -1.
     999900   -1    0    0    0    0 -0.00000000000E+00 -0.00000000000E+00 -0.74505805969E-08  0.93827000000E+00  0.93827000000E+00 0. -1.
     999902    2    1    2    0    0 -0.28431439010E-02  0.21468725449E-01 -0.11545906873E-01  0.10193882477E+01  0.10190927838E+01 0.  0.
     999903    2    3    3    0    0 -0.26983098113E-01  0.10578585797E+00  0.70140990072E-01  0.13126389530E+00  0.19791826324E-01 0.  0.
         14    1    1    2    0    0  0.28431439010E-02 -0.21468725449E-01  0.11545906873E-01  0.24541752284E-01  0.00000000000E+00 0. -1.
     999901    1    3    3    0    0  0.24139954212E-01 -0.84317132524E-01 -0.81686896946E-01  0.88812435242E+00  0.88000000000E+00 0.  1.
        -11    1    4    4    0    0  0.12837741332E-02  0.28102308177E-01  0.14904109892E-01  0.31839934258E-01  0.51100000000E-03 0.  1.
         11    1    4    4    0    0 -0.28266872246E-01  0.77683549797E-01  0.55236880181E-01  0.99423961039E-01  0.51100000000E-03 0. -1.
</event>
<event>
 8    1  0.1157726E+005  0.1043930E+01  0.7957747E-01            NaN
         13   -1    0    0    0    0  0.00000000000E+00  0.00000000000E+00  0.74505805969E-08  0.10566000000E+00  0.10566000000E+00 0. -1.
     999900   -1    0    0    0    0 -0.00000000000E+00 -0.00000000000E+00 -0.74505805969E-08  0.93827000000E+00  0.93827000000E+00 0. -1.
     999902    2    1    2    0    0 -0.41713199721E-02  0.90192020982E-02 -0.22363357196E-01  0.10194582681E+01  0.10191645082E+01 0.  0.
     999903    2    3    3    0    0 -0.50359016579E-01 -0.21384253058E-01  0.11344986595E+00  0.12732436281E+00  0.18636106077E-01 0.  0.
         14    1    1    2    0    0  0.41713199721E-02 -0.90192020982E-02  0.22363357196E-01  0.24471731893E-01  0.00000000000E+00 0. -1.
     999901    1    3    3    0    0  0.46187696607E-01  0.30403455157E-01 -0.13581322315E+00  0.89213390530E+00  0.88000000000E+00 0. -1.
        -11    1    4    4    0    0 -0.36768910306E-01 -0.22592779271E-01  0.95258415556E-01  0.10457922019E+00  0.51100000000E-03 0.  1.
         11    1    4    4    0    0 -0.13590106273E-01  0.12085262127E-02  0.18191450397E-01  0.22745142617E-01  0.51100000000E-03 0. -1.
</event>
<event>
 8    1  0.1157726E+005  0.1043930E+01  0.7957747E-01            NaN
         13   -1    0    0    0    0  0.00000000000E+00  0.00000000000E+00  0.74505805969E-08  0.10566000000E+00  0.10566000000E+00 0. -1.
     999900   -1    0    0    0    0 -0.00000000000E+00 -0.00000000000E+00 -0.74505805969E-08  0.93827000000E+00  0.93827000000E+00 0.  1.
     999902    2    1    2    0    0  0.21346013645E-01  0.47503667614E-02  0.88206473483E-02  0.10203498791E+01  0.10200773763E+01 0.  0.
     999903    2    3    3    0    0 -0.11875036954E+00 -0.59280908284E-02  0.44377460705E-01  0.12849489478E+00  0.20119305150E-01 0.  0.
         14    1    1    2    0    0 -0.21346013645E-01 -0.47503667614E-02 -0.88206473483E-02  0.23580120918E-01  0.00000000000E+00 0. -1.
     999901    1    3    3    0    0  0.14009638319E+00  0.10678457590E-01 -0.35556813357E-01  0.89185498430E+00  0.88000000000E+00 0. -1.
        -11    1    4    4    0    0 -0.48099099761E-01 -0.27678428134E-02  0.75898439456E-02  0.48775518488E-01  0.51100000000E-03 0. -1.
         11    1    4    4    0    0 -0.70651269782E-01 -0.31602480149E-02  0.36787616760E-01  0.79719376297E-01  0.51100000000E-03 0.  1.
</event>
<event>
 8    1  0.1157726E+005  0.1043930E+01  0.7957747E-01            NaN
         13   -1    0    0    0    0  0.00000000000E+00  0.00000000000E+00  0.74505805969E-08  0.10566000000E+00  0.10566000000E+00 0.  1.
     999900   -1    0    0    0    0 -0.00000000000E+00 -0.00000000000E+00 -0.74505805969E-08  0.93827000000E+00  0.93827000000E+00 0.  1.
     999902    2    1    2    0    0  0.85281286923E-02 -0.19516467858E-01 -0.11902017009E-01  0.10195316495E+01  0.10192396700E+01 0.  0.
     999903    2    3    3    0    0 -0.12502293272E+00  0.20761377941E-01 -0.75893582767E-02  0.12853401211E+00  0.20040593588E-01 0.  0.
         14    1    1    2    0    0 -0.85281286923E-02  0.19516467858E-01  0.11902017009E-01  0.24398350467E-01  0.00000000000E+00 0.  1.
     999901    1    3    3    0    0  0.13355106141E+00 -0.40277845799E-01 -0.43126587323E-02  0.89099763742E+00  0.88000000000E+00 0. -1.
        -11    1    4    4    0    0 -0.10111802791E+00  0.91038572041E-02 -0.32401476294E-02  0.10157999538E+00  0.51100000000E-03 0.  1.
         11    1    4    4    0    0 -0.23904904808E-01  0.11657520737E-01 -0.43492106473E-02  0.26954016730E-01  0.51100000000E-03 0. -1.
</event>
<event>
 8    1  0.1157726E+005  0.1043930E+01  0.7957747E-01            NaN
         13   -1    0    0    0    0  0.00000000000E+00  0.00000000000E+00  0.74505805969E-08  0.10566000000E+00  0.10566000000E+00 0.  1.
     999900   -1    0    0    0    0 -0.00000000000E+00 -0.00000000000E+00 -0.74505805969E-08  0.93827000000E+00  0.93827000000E+00 0.  1.
     999902    2    1    2    0    0 -0.19439850862E-01 -0.13362496130E-01  0.19270436153E-02  0.10202619286E+01  0.10199873653E+01 0.  0.
     999903    2    3    3    0    0 -0.55894717240E-01  0.54221668058E-01 -0.10315392184E+00  0.13068979226E+00  0.19361857069E-01 0.  0.
         14    1    1    2    0    0  0.19439850862E-01  0.13362496130E-01 -0.19270436153E-02  0.23668071351E-01  0.00000000000E+00 0. -1.
     999901    1    3    3    0    0  0.36454866377E-01 -0.67584164188E-01  0.10508096545E+00  0.88957213638E+00  0.88000000000E+00 0. -1.
        -11    1    4    4    0    0 -0.43365421555E-01  0.31905295743E-01 -0.78192426231E-01  0.94935895867E-01  0.51100000000E-03 0. -1.
         11    1    4    4    0    0 -0.12529295684E-01  0.22316372316E-01 -0.24961495608E-01  0.35753896398E-01  0.51100000000E-03 0.  1.
</event>
<event>
 8    1  0.1157726E+005  0.1043930E+01  0.7957747E-01            NaN
         13   -1    0    0    0    0  0.00000000000E+00  0.00000000000E+00  0.74505805969E-08  0.10566000000E+00  0.10566000000E+00 0.  1.
     999900   -1    0    0    0    0 -0.00000000000E+00 -0.00000000000E+00 -0.74505805969E-08  0.93827000000E+00  0.93827000000E+00 0.  1.
     999902    2    1    2    0    0 -0.56708130068E-02  0.19483740218E-01  0.10565190409E-01  0.10210521176E+01  0.10207957824E+01 0.  0.
     999903    2    3    3    0    0 -0.96117075721E-01  0.85007232365E-01 -0.29007989303E-01  0.13311073950E+00  0.20304771024E-01 0.  0.
         14    1    1    2    0    0  0.56708130068E-02 -0.19483740218E-01 -0.10565190409E-01  0.22877882363E-01  0.00000000000E+00 0.  1.
     999901    1    3    3    0    0  0.90446262715E-01 -0.65523492147E-01  0.39573179712E-01  0.88794137814E+00  0.88000000000E+00 0. -1.
        -11    1    4    4    0    0 -0.72319671905E-01  0.68677759518E-01 -0.30240856820E-01  0.10421871300E+00  0.51100000000E-03 0.  1.
         11    1    4    4    0    0 -0.23797403816E-01  0.16329472846E-01  0.12328675160E-02  0.28892026498E-01  0.51100000000E-03 0. -1.
</event>
<event>
 8    1  0.1157726E+005  0.1043930E+01  0.7957747E-01            NaN
         13   -1    0    0    0    0  0.00000000000E+00  0.00000000000E+00  0.74505805969E-08  0.10566000000E+00  0.10566000000E+00 0.  1.
     999900   -1    0    0    0    0 -0.00000000000E+00 -0.00000000000E+00 -0.74505805969E-08  0.93827000000E+00  0.93827000000E+00 0.  1.
     999902    2    1    2    0    0  0.96821956804E-02 -0.21124401787E-01 -0.47706244011E-02  0.10202077716E+01  0.10199319355E+01 0.  0.
     999903    2    3    3    0    0  0.71961829817E-01  0.95948732278E-01  0.43372142809E-01  0.12897121623E+00  0.19177269586E-01 0.  0.
         14    1    1    2    0    0 -0.96821956804E-02  0.21124401787E-01  0.47706244011E-02  0.23722228421E-01  0.00000000000E+00 0.  1.
     999901    1    3    3    0    0 -0.62279634136E-01 -0.11707313407E+00 -0.48142767210E-01  0.89123655534E+00  0.88000000000E+00 0. -1.
        -11    1    4    4    0    0  0.40431736561E-01  0.50901559573E-01  0.33403048803E-01  0.73087063689E-01  0.51100000000E-03 0.  1.
         11    1    4    4    0    0  0.31530093256E-01  0.45047172706E-01  0.99690940060E-02  0.55884152546E-01  0.51100000000E-03 0. -1.
</event>
<event>
 7    1  0.1157726E+005  0.1043930E+01  0.7957747E-01            NaN
         13   -1    0    0    0    0  0.00000000000E+00  0.00000000000E+00  0.74505805969E-08  0.10566000000E+00  0.10566000000E+00 0.  1.
     999900   -1    0    0    0    0 -0.00000000000E+00 -0.00000000000E+00 -0.74505805969E-08  0.93827000000E+00  0.93827000000E+00 0. -1.
     999903    2    1    2    0    0  0.28653270759E-01  0.76098211229E-01 -0.53286000965E-01  0.99295756932E-01  0.20206478379E-01 0.  0.
         14    1    1    2    0    0  0.21776232528E-02 -0.68482365647E-02  0.60920082433E-01  0.61342455369E-01  0.00000000000E+00 0.  1.
     999901    1    1    2    0    0 -0.30830894011E-01 -0.69249974664E-01 -0.76340814681E-02  0.88329178770E+00  0.88000000000E+00 0.  1.
        -11    1    3    3    0    0  0.13571504645E-01  0.22388589216E-01 -0.27039770436E-01  0.37641001205E-01  0.51100000000E-03 0.  1.
         11    1    3    3    0    0  0.15081766113E-01  0.53709622013E-01 -0.26246230528E-01  0.61654755727E-01  0.51100000000E-03 0. -1.
</event>
<event>
 8    1  0.1157726E+005  0.1043930E+01  0.7957747E-01            NaN
         13   -1    0    0    0    0  0.00000000000E+00  0.00000000000E+00  0.74505805969E-08  0.10566000000E+00  0.10566000000E+00 0.  1.
     999900   -1    0    0    0    0 -0.00000000000E+00 -0.00000000000E+00 -0.74505805969E-08  0.93827000000E+00  0.93827000000E+00 0. -1.
     999902    2    1    2    0    0  0.12883992550E-02 -0.53465976847E-02  0.20962957855E-01  0.10222576286E+01  0.10220278703E+01 0.  0.
     999903    2    3    3    0    0 -0.52320169630E-01  0.78709933901E-01  0.92511200889E-01  0.13374283963E+00  0.19904045265E-01 0.  0.
         14    1    1    2    0    0 -0.12883992550E-02  0.53465976847E-02 -0.20962957855E-01  0.21672371386E-01  0.00000000000E+00 0. -1.
     999901    1    3    3    0    0  0.53608568885E-01 -0.84056531585E-01 -0.71548243034E-01  0.88851478898E+00  0.88000000000E+00 0. -1.
        -11    1    4    4    0    0 -0.17484057923E-01  0.20738274971E-01  0.38954652881E-01  0.47470985163E-01  0.51100000000E-03 0.  1.
         11    1    4    4    0    0 -0.34836111707E-01  0.57971658930E-01  0.53556548008E-01  0.86271854468E-01  0.51100000000E-03 0. -1.
</event>
<event>
 8    1  0.1157726E+005  0.1043930E+01  0.7957747E-01            NaN
         13   -1    0    0    0    0  0.00000000000E+00  0.00000000000E+00  0.74505805969E-08  0.10566000000E+00  0.10566000000E+00 0.  1.
     999900   -1    0    0    0    0 -0.00000000000E+00 -0.00000000000E+00 -0.74505805969E-08  0.93827000000E+00  0.93827000000E+00 0.  1.
     999902    2    1    2    0    0 -0.13082965283E-01 -0.60802509523E-02  0.19012054008E-01  0.10200638811E+01  0.10197846488E+01 0.  0.
     999903    2    3    3    0    0  0.71770188108E-01 -0.98630946463E-01 -0.37882525674E-01  0.12933233792E+00  0.20316111300E-01 0.  0.
         14    1    1    2    0    0  0.13082965283E-01  0.60802509523E-02 -0.19012054008E-01  0.23866118869E-01  0.00000000000E+00 0. -1.
     999901    1    3    3    0    0 -0.84853153391E-01  0.92550695511E-01  0.56894579682E-01  0.89073154321E+00  0.88000000000E+00 0. -1.
        -11    1    4    4    0    0  0.26526169413E-01 -0.41434218849E-01 -0.54004296590E-02  0.49496039406E-01  0.51100000000E-03 0.  1.
         11    1    4    4    0    0  0.45244018695E-01 -0.57196727615E-01 -0.32482096015E-01  0.79836298511E-01  0.51100000000E-03 0. -1.
</event>
<event>
 8    1  0.1157726E+005  0.1043930E+01  0.7957747E-01            NaN
         13   -1    0    0    0    0  0.00000000000E+00  0.00000000000E+00  0.74505805969E-08  0.10566000000E+00  0.10566000000E+00 0.  1.
     999900   -1    0    0    0    0 -0.00000000000E+00 -0.00000000000E+00 -0.74505805969E-08  0.93827000000E+00  0.93827000000E+00 0.  1.
     999902    2    1    2    0    0 -0.23725129093E-01 -0.15205951156E-03 -0.19107857207E-02  0.10201275637E+01  0.10198498371E+01 0.  0.
     999903    2    3    3    0    0 -0.18369745843E-03 -0.12812597594E+00  0.16620888247E-01  0.13036639054E+00  0.17402367710E-01 0.  0.
         14    1    1    2    0    0  0.23725129093E-01  0.15205951156E-03  0.19107857207E-02  0.23802436317E-01  0.00000000000E+00 0.  1.
     999901    1    3    3    0    0 -0.23541431634E-01  0.12797391643E+00 -0.18531673968E-01  0.88976117314E+00  0.88000000000E+00 0. -1.
        -11    1    4    4    0    0  0.49885056353E-02 -0.11848030620E-01  0.26650416977E-02  0.13138667599E-01  0.51100000000E-03 0. -1.
         11    1    4    4    0    0 -0.51722030938E-02 -0.11627794532E+00  0.13955846549E-01  0.11722772294E+00  0.51100000000E-03 0.  1.
</event>
<event>
 8    1  0.1157726E+005  0.1043930E+01  0.7957747E-01            NaN
         13   -1    0    0    0    0  0.00000000000E+00  0.00000000000E+00  0.74505805969E-08  0.10566000000E+00  0.10566000000E+00 0. -1.
     999900   -1    0    0    0    0 -0.00000000000E+00 -0.00000000000E+00 -0.74505805969E-08  0.93827000000E+00  0.93827000000E+00 0. -1.
     999902    2    1    2    0    0  0.11908164203E-01 -0.12423314036E-01  0.15904890222E-01  0.10204969328E+01  0.10202278575E+01 0.  0.
     999903    2    3    3    0    0  0.12289372615E+00 -0.34579388063E-01  0.31681007893E-01  0.13310887084E+00  0.20388311103E-01 0.  0.
         14    1    1    2    0    0 -0.11908164203E-01  0.12423314036E-01 -0.15904890222E-01  0.23433067219E-01  0.00000000000E+00 0.  1.
     999901    1    3    3    0    0 -0.11098556195E+00  0.22156074027E-01 -0.15776117671E-01  0.88738806194E+00  0.88000000000E+00 0.  1.
        -11    1    4    4    0    0  0.67201549979E-01 -0.17815395105E-01  0.27600949240E-01  0.74803142596E-01  0.51100000000E-03 0. -1.
         11    1    4    4    0    0  0.55692176174E-01 -0.16763992959E-01  0.40800586536E-02  0.58305728248E-01  0.51100000000E-03 0.  1.
</event>
<event>
 8    1  0.1157726E+005  0.1043930E+01  0.7957747E-01            NaN
         13   -1    0    0    0    0  0.00000000000E+00  0.00000000000E+00  0.74505805969E-08  0.10566000000E+00  0.10566000000E+00 0.  1.
     999900   -1    0    0    0    0 -0.00000000000E+00 -0.00000000000E+00 -0.74505805969E-08  0.93827000000E+00  0.93827000000E+00 0. -1.
     999902    2    1    2    0    0  0.31402562000E-02 -0.24854928595E-01 -0.18246105791E-02  0.10188111249E+01  0.10185014238E+01 0.  0.
     999903    2    3    3    0    0 -0.80881283717E-01  0.89319531746E-01 -0.34405668702E-01  0.12687113141E+00  0.19818504993E-01 0.  0.
         14    1    1    2    0    0 -0.31402562000E-02  0.24854928595E-01  0.18246105791E-02  0.25118875139E-01  0.00000000000E+00 0.  1.
     999901    1    3    3    0    0  0.84021539917E-01 -0.11417446034E+00  0.32581058123E-01  0.89193999345E+00  0.88000000000E+00 0.  1.
        -11    1    4    4    0    0 -0.16771160282E-01  0.31629874217E-01 -0.82078799298E-02  0.36733515679E-01  0.51100000000E-03 0. -1.
         11    1    4    4    0    0 -0.64110123435E-01  0.57689657529E-01 -0.26197788772E-01  0.90137615734E-01  0.51100000000E-03 0.  1.
</event>
<event>
 8    1  0.1157726E+005  0.1043930E+01  0.7957747E-01            NaN
         13   -1    0    0    0    0  0.00000000000E+00  0.00000000000E+00  0.74505805969E-08  0.10566000000E+00  0.10566000000E+00 0.  1.
     999900   -1    0    0    0    0 -0.00000000000E+00 -0.00000000000E+00 -0.74505805969E-08  0.93827000000E+00  0.93827000000E+00 0. -1.
     999902    2    1    2    0    0  0.87506741135E-02 -0.15362711986E-01  0.16385576828E-01  0.10198245163E+01  0.10195395871E+01 0.  0.
     999903    2    3    3    0    0 -0.10609814528E+00 -0.72828241093E-01 -0.48724845544E-02  0.13024908749E+00  0.19501655158E-01 0.  0.
         14    1    1    2    0    0 -0.87506741135E-02  0.15362711986E-01 -0.16385576828E-01  0.24105483713E-01  0.00000000000E+00 0. -1.
     999901    1    3    3    0    0  0.11484881939E+00  0.57465529107E-01  0.21258061383E-01  0.88957542880E+00  0.88000000000E+00 0.  1.
        -11    1    4    4    0    0 -0.79728452605E-01 -0.44191174975E-01 -0.14843255346E-02  0.91169898781E-01  0.51100000000E-03 0. -1.
         11    1    4    4    0    0 -0.26369692671E-01 -0.28637066118E-01 -0.33881590198E-02  0.39079188706E-01  0.51100000000E-03 0.  1.
</event>
<event>
 7    1  0.1157726E+005  0.1043930E+01  0.7957747E-01            NaN
         13   -1    0    0    0    0  0.00000000000E+00  0.00000000000E+00  0.74505805969E-08  0.10566000000E+00  0.10566000000E+00 0.  1.
     999900   -1    0    0    0    0 -0.00000000000E+00 -0.00000000000E+00 -0.74505805969E-08  0.93827000000E+00  0.93827000000E+00 0.  1.
     999903    2    1    2    0    0 -0.20153643342E-01 -0.40800088952E-01 -0.99884803020E-01  0.11150912172E+00  0.19659444394E-01 0.  0.
         14    1    1    2    0    0  0.39676394805E-01 -0.80114370521E-02  0.25230321861E-01  0.47696630589E-01  0.00000000000E+00 0.  1.
     999901    1    1    2    0    0 -0.19522751462E-01  0.48811526004E-01  0.74654481158E-01  0.88472424769E+00  0.88000000000E+00 0. -1.
        -11    1    3    3    0    0 -0.69197786326E-02 -0.23777775670E-01 -0.33189935761E-01  0.41413752655E-01  0.51100000000E-03 0.  1.
         11    1    3    3    0    0 -0.13233864710E-01 -0.17022313282E-01 -0.66694867259E-01  0.70095369065E-01  0.51100000000E-03 0. -1.
</event>
<event>
 8    1  0.1157726E+005  0.1043930E+01  0.7957747E-01            NaN
         13   -1    0    0    0    0  0.00000000000E+00  0.00000000000E+00  0.74505805969E-08  0.10566000000E+00  0.10566000000E+00 0. -1.
     999900   -1    0    0    0    0 -0.00000000000E+00 -0.00000000000E+00 -0.74505805969E-08  0.93827000000E+00  0.93827000000E+00 0.  1.
     999902    2    1    2    0    0 -0.12029677073E-01 -0.19428444906E-01 -0.39169240465E-02  0.10207455247E+01  0.10204821930E+01 0.  0.
     999903    2    3    3    0    0  0.39864375906E-03  0.50743120703E-01  0.11723700287E+00  0.12959077617E+00  0.21776850352E-01 0.  0.
         14    1    1    2    0    0  0.12029677073E-01  0.19428444906E-01  0.39169240465E-02  0.23184475322E-01  0.00000000000E+00 0. -1.
     999901    1    3    3    0    0 -0.12428320832E-01 -0.70171565609E-01 -0.12115392692E+00  0.89115474851E+00  0.88000000000E+00 0.  1.
        -11    1    4    4    0    0 -0.62592085483E-02  0.46798253654E-01  0.96042916432E-01  0.10702222739E+00  0.51100000000E-03 0.  1.
         11    1    4    4    0    0  0.66578523073E-02  0.39448670489E-02  0.21194086438E-01  0.22568548786E-01  0.51100000000E-03 0. -1.
</event>
<event>
 8    1  0.1157726E+005  0.1043930E+01  0.7957747E-01            NaN
         13   -1    0    0    0    0  0.00000000000E+00  0.00000000000E+00  0.74505805969E-08  0.10566000000E+00  0.10566000000E+00 0.  1.
     999900   -1    0    0    0    0 -0.00000000000E+00 -0.00000000000E+00 -0.74505805969E-08  0.93827000000E+00  0.93827000000E+00 0.  1.
     999902    2    1    2    0    0 -0.20668568265E-01  0.29682953901E-02  0.11378699006E-01  0.10201502758E+01  0.10198730852E+01 0.  0.
     999903    2    3    3    0    0 -0.47013393786E-01 -0.81903561563E-01 -0.85732695311E-01  0.13035934259E+00  0.26926020171E-01 0.  0.
         14    1    1    2    0    0  0.20668568265E-01 -0.29682953901E-02 -0.11378699006E-01  0.23779724194E-01  0.00000000000E+00 0. -1.
     999901    1    3    3    0    0  0.26344825521E-01  0.84871856953E-01  0.97111394317E-01  0.88979093322E+00  0.88000000000E+00 0. -1.
        -11    1    4    4    0    0 -0.14597538414E-01 -0.52203075125E-01 -0.45863675416E-01  0.71006950532E-01  0.51100000000E-03 0. -1.
         11    1    4    4    0    0 -0.32415855372E-01 -0.29700486439E-01 -0.39869019894E-01  0.59352392054E-01  0.51100000000E-03 0.  1.
</event>
<event>
 8    1  0.1157726E+005  0.1043930E+01  0.7957747E-01            NaN
         13   -1    0    0    0    0  0.00000000000E+00  0.00000000000E+00  0.74505805969E-08  0.10566000000E+00  0.10566000000E+00 0.  1.
     999900   -1    0    0    0    0 -0.00000000000E+00 -0.00000000000E+00 -0.74505805969E-08  0.93827000000E+00  0.93827000000E+00 0.  1.
     999902    2    1    2    0    0 -0.17353924834E-01 -0.11082390131E-01  0.17551289638E-02  0.10232646049E+01  0.10230559090E+01 0.  0.
     999903    2    3    3    0    0  0.11041321471E+00  0.29220862458E-01 -0.60953388326E-01  0.13091873456E+00  0.19479803031E-01 0.  0.
         14    1    1    2    0    0  0.17353924834E-01  0.11082390131E-01 -0.17551289638E-02  0.20665395129E-01  0.00000000000E+00 0. -1.
     999901    1    3    3    0    0 -0.12776713954E+00 -0.40303252589E-01  0.62708517290E-01  0.89234587031E+00  0.88000000000E+00 0. -1.
        -11    1    4    4    0    0  0.53463926826E-01  0.56750159551E-02 -0.34293951532E-01  0.63772513754E-01  0.51100000000E-03 0. -1.
         11    1    4    4    0    0  0.56949287881E-01  0.23545846503E-01 -0.26659436795E-01  0.67146220809E-01  0.51100000000E-03 0.  1.
</event>
<event>
 8    1  0.1157726E+005  0.1043930E+01  0.7957747E-01            NaN
         13   -1    0    0    0    0  0.00000000000E+00  0.00000000000E+00  0.74505805969E-08  0.10566000000E+00  0.10566000000E+00 0. -1.
     999900   -1    0    0    0    0 -0.00000000000E+00 -0.00000000000E+00 -0.74505805969E-08  0.93827000000E+00  0.93827000000E+00 0. -1.
     999902    2    1    2    0    0 -0.10201169222E-01 -0.21652794106E-01  0.19714690614E-02  0.10199134633E+01  0.10196306579E+01 0.  0.
     999903    2    3    3    0    0 -0.11538896634E+00  0.11833087134E-01 -0.55187289511E-01  0.13117677528E+00  0.26590862055E-01 0.  0.
         14    1    1    2    0    0  0.10201169222E-01  0.21652794106E-01 -0.19714690614E-02  0.24016536727E-01  0.00000000000E+00 0.  1.
     999901    1    3    3    0    0  0.10518779712E+00 -0.33485881240E-01  0.57158758573E-01  0.88873668799E+00  0.88000000000E+00 0.  1.
        -11    1    4    4    0    0 -0.73633206314E-01  0.10986353175E-01 -0.48559687367E-01  0.88886744717E-01  0.51100000000E-03 0. -1.
         11    1    4    4    0    0 -0.41755760026E-01  0.84673395870E-03 -0.66276021439E-02  0.42290030562E-01  0.51100000000E-03 0.  1.
</event>
<event>
 8    1  0.1157726E+005  0.1043930E+01  0.7957747E-01            NaN
         13   -1    0    0    0    0  0.00000000000E+00  0.00000000000E+00  0.74505805969E-08  0.10566000000E+00  0.10566000000E+00 0. -1.
     999900   -1    0    0    0    0 -0.00000000000E+00 -0.00000000000E+00 -0.74505805969E-08  0.93827000000E+00  0.93827000000E+00 0. -1.
     999902    2    1    2    0    0 -0.13547340881E-01 -0.12800029969E-02  0.20308000851E-01  0.10194844738E+01  0.10191913503E+01 0.  0.
     999903    2    3    3    0    0  0.11446621828E+00 -0.45701404977E-01  0.32944502706E-01  0.12902368664E+00  0.19251958638E-01 0.  0.
         14    1    1    2    0    0  0.13547340881E-01  0.12800029969E-02 -0.20308000851E-01  0.24445526200E-01  0.00000000000E+00 0.  1.
     999901    1    3    3    0    0 -0.12801355917E+00  0.44421401980E-01 -0.12636501855E-01  0.89046078716E+00  0.88000000000E+00 0.  1.
        -11    1    4    4    0    0  0.11038325319E-01 -0.47521299532E-02  0.95286495429E-02  0.15345476468E-01  0.51100000000E-03 0. -1.
         11    1    4    4    0    0  0.10342789297E+00 -0.40949275024E-01  0.23415853163E-01  0.11367821018E+00  0.51100000000E-03 0.  1.
</event>
<event>
 8    1  0.1157726E+005  0.1043930E+01  0.7957747E-01            NaN
         13   -1    0    0    0    0  0.00000000000E+00  0.00000000000E+00  0.74505805969E-08  0.10566000000E+00  0.10566000000E+00 0. -1.
     999900   -1    0    0    0    0 -0.00000000000E+00 -0.00000000000E+00 -0.74505805969E-08  0.93827000000E+00  0.93827000000E+00 0.  1.
     999902    2    1    2    0    0  0.20165443039E-01  0.83207953452E-02  0.80574892638E-02  0.10206748100E+01  0.10204098510E+01 0.  0.
     999903    2    3    3    0    0  0.43174142018E-01  0.55229533809E-04  0.12392527973E+00  0.13274290684E+00  0.19979859143E-01 0.  0.
         14    1    1    2    0    0 -0.20165443039E-01 -0.83207953452E-02 -0.80574892638E-02  0.23255189988E-01  0.00000000000E+00 0.  1.
     999901    1    3    3    0    0 -0.23008698979E-01  0.82655658114E-02 -0.11586779046E+00  0.88793190317E+00  0.88000000000E+00 0.  1.
        -11    1    4    4    0    0  0.28457908088E-01  0.92758084469E-02  0.84962665025E-01  0.90082233122E-01  0.51100000000E-03 0.  1.
         11    1    4    4    0    0  0.14716233930E-01 -0.92205789131E-02  0.38962614702E-01  0.42660673717E-01  0.51100000000E-03 0. -1.
</event>
<event>
 8    1  0.1466148E+005  0.1043930E+01  0.7957747E-01            NaN
         13   -1    0    0    0    0  0.00000000000E+00  0.00000000000E+00  0.74505805969E-08  0.10566000000E+00  0.10566000000E+00 0. -1.
     999900   -1    0    0    0    0 -0.00000000000E+00 -0.00000000000E+00 -0.74505805969E-08  0.93827000000E+00  0.93827000000E+00 0.  1.
     999902    2    1    2    0    0 -0.70309424320E-02 -0.78099739544E-02 -0.20016675030E-01  0.10213225427E+01  0.10210722987E+01 0.  0.
     999903    2    3    3    0    0 -0.10457918011E+00  0.72917567855E-01 -0.28952918184E-01  0.13221487146E+00  0.19716088590E-01 0.  0.
         14    1    1    2    0    0  0.70309424320E-02  0.78099739544E-02  0.20016675030E-01  0.22607457263E-01  0.00000000000E+00 0. -1.
     999901    1    3    3    0    0  0.97548237679E-01 -0.80727541809E-01  0.89362431537E-02  0.88910767128E+00  0.88000000000E+00 0. -1.
        -11    1    4    4    0    0 -0.62748827631E-01  0.42689773853E-01 -0.73013045673E-02  0.76245670894E-01  0.51100000000E-03 0.  1.
         11    1    4    4    0    0 -0.41830352480E-01  0.30227794002E-01 -0.21651613616E-01  0.55969200567E-01  0.51100000000E-03 0. -1.
</event>
<event>
 8    1  0.1157726E+005  0.1043930E+01  0.7957747E-01            NaN
         13   -1    0    0    0    0  0.00000000000E+00  0.00000000000E+00  0.74505805969E-08  0.10566000000E+00  0.10566000000E+00 0. -1.
     999900   -1    0    0    0    0 -0.00000000000E+00 -0.00000000000E+00 -0.74505805969E-08  0.93827000000E+00  0.93827000000E+00 0. -1.
     999902    2    1    2    0    0 -0.11660629507E-01 -0.11791523356E-01 -0.17142875148E-01  0.10200786170E+01  0.10197997335E+01 0.  0.
     999903    2    3    3    0    0 -0.45520384246E-01  0.24839406005E-01 -0.12049101289E+00  0.13262769127E+00  0.19568311919E-01 0.  0.
         14    1    1    2    0    0  0.11660629507E-01  0.11791523356E-01  0.17142875148E-01  0.23851383019E-01  0.00000000000E+00 0. -1.
     999901    1    3    3    0    0  0.33859754739E-01 -0.36630929361E-01  0.10334813774E+00  0.88745092571E+00  0.88000000000E+00 0.  1.
        -11    1    4    4    0    0 -0.15441882908E-01  0.10090597268E-01 -0.22687508115E-01  0.29244761009E-01  0.51100000000E-03 0. -1.
         11    1    4    4    0    0 -0.30078501338E-01  0.14748808737E-01 -0.97803504773E-01  0.10338293026E+00  0.51100000000E-03 0.  1.
</event>
<event>
 8    1  0.1157726E+005  0.1043930E+01  0.7957747E-01            NaN
         13   -1    0    0    0    0  0.00000000000E+00  0.00000000000E+00  0.74505805969E-08  0.10566000000E+00  0.10566000000E+00 0. -1.
     999900   -1    0    0    0    0 -0.00000000000E+00 -0.00000000000E+00 -0.74505805969E-08  0.93827000000E+00  0.93827000000E+00 0.  1.
     999902    2    1    2    0    0 -0.18971931138E-01  0.10258109631E-02  0.13478191548E-01  0.10206351914E+01  0.10203693184E+01 0.  0.
     999903    2    3    3    0    0 -0.42865507294E-01  0.63493699603E-01  0.10691547239E+00  0.13316481696E+00  0.20809820676E-01 0.  0.
         14    1    1    2    0    0  0.18971931138E-01 -0.10258109631E-02 -0.13478191548E-01  0.23294808577E-01  0.00000000000E+00 0.  1.
     999901    1    3    3    0    0  0.23893576157E-01 -0.62467888640E-01 -0.93437280838E-01  0.88747037446E+00  0.88000000000E+00 0. -1.
        -11    1    4    4    0    0 -0.39062579502E-01  0.46136303145E-01  0.91317811505E-01  0.10951551216E+00  0.51100000000E-03 0.  1.
         11    1    4    4    0    0 -0.38029277924E-02  0.17357396458E-01  0.15597660881E-01  0.23649304800E-01  0.51100000000E-03 0. -1.
</event>
<event>
 8    1  0.1157726E+005  0.1043930E+01  0.7957747E-01            NaN
         13   -1    0    0    0    0  0.00000000000E+00  0.00000000000E+00  0.74505805969E-08  0.10566000000E+00  0.10566000000E+00 0.  1.
     999900   -1    0    0    0    0 -0.00000000000E+00 -0.00000000000E+00 -0.74505805969E-08  0.93827000000E+00  0.93827000000E+00 0. -1.
     999902    2    1    2    0    0  0.14937407609E-01  0.57363332850E-02 -0.13977615878E-01  0.10226836965E+01  0.10224629762E+01 0.  0.
     999903    2    3    3    0    0 -0.82590117800E-01  0.78334977694E-01 -0.65510487591E-01  0.13283100184E+00  0.19873469142E-01 0.  0.
         14    1    1    2    0    0 -0.14937407609E-01 -0.57363332850E-02  0.13977615878E-01  0.21246303473E-01  0.00000000000E+00 0.  1.
     999901    1    3    3    0    0  0.97527525409E-01 -0.72598644409E-01  0.51532871713E-01  0.88985269469E+00  0.88000000000E+00 0. -1.
        -11    1    4    4    0    0 -0.16795637921E-01  0.26677595276E-01 -0.13273583289E-01  0.34208722239E-01  0.51100000000E-03 0. -1.
         11    1    4    4    0    0 -0.65794479879E-01  0.51657382418E-01 -0.52236904302E-01  0.98622279597E-01  0.51100000000E-03 0.  1.
</event>
<event>
 8    1  0.1157726E+005  0.1043930E+01  0.7957747E-01            NaN
         13   -1    0    0    0    0  0.00000000000E+00  0.00000000000E+00  0.74505805969E-08  0.10566000000E+00  0.10566000000E+00 0. -1.
     999900   -1    0    0    0    0 -0.00000000000E+00 -0.00000000000E+00 -0.74505805969E-08  0.93827000000E+00  0.93827000000E+00 0. -1.
     999902    2    1    2    0    0 -0.13128695094E-01 -0.94473016325E-02 -0.16816283425E-01  0.10205975863E+01  0.10203308442E+01 0.  0.
     999903    2    3    3    0    0  0.82554576985E-02 -0.74744226688E-01 -0.10810025413E+00  0.13321168727E+00  0.20120553607E-01 0.  0.
         14    1    1    2    0    0  0.13128695094E-01  0.94473016325E-02  0.16816283425E-01  0.23332413746E-01  0.00000000000E+00 0. -1.
     999901    1    3    3    0    0 -0.21384152793E-01  0.65296925055E-01  0.91283970702E-01  0.88738589899E+00  0.88000000000E+00 0.  1.
        -11    1    4    4    0    0  0.13992471037E-01 -0.63609679017E-01 -0.93782506384E-01  0.11418143516E+00  0.51100000000E-03 0. -1.
         11    1    4    4    0    0 -0.57370133388E-02 -0.11134547670E-01 -0.14317747742E-01  0.19030252108E-01  0.51100000000E-03 0.  1.
</event>
<event>
 8    1  0.1157726E+005  0.1043930E+01  0.7957747E-01            NaN
         13   -1    0    0    0    0  0.00000000000E+00  0.00000000000E+00  0.74505805969E-08  0.10566000000E+00  0.10566000000E+00 0. -1.
     999900   -1    0    0    0    0 -0.00000000000E+00 -0.00000000000E+00 -0.74505805969E-08  0.93827000000E+00  0.93827000000E+00 0. -1.
     999902    2    1    2    0    0 -0.22071971474E-01 -0.62056077448E-02 -0.84601260672E-02  0.10194911943E+01  0.10191982339E+01 0.  0.
     999903    2    3    3    0    0 -0.11428470691E+00  0.59640015679E-01  0.18523021457E-01  0.13181618339E+00  0.20358737056E-01 0.  0.
         14    1    1    2    0    0  0.22071971474E-01  0.62056077448E-02  0.84601260672E-02  0.24438805725E-01  0.00000000000E+00 0. -1.
     999901    1    3    3    0    0  0.92212735441E-01 -0.65845623424E-01 -0.26983147524E-01  0.88767501089E+00  0.88000000000E+00 0. -1.
        -11    1    4    4    0    0 -0.62379302848E-01  0.21763714327E-01  0.59134568299E-02  0.66332999161E-01  0.51100000000E-03 0.  1.
         11    1    4    4    0    0 -0.51905404067E-01  0.37876301352E-01  0.12609564627E-01  0.65483184227E-01  0.51100000000E-03 0. -1.
</event>
<event>
 8    1  0.1157726E+005  0.1043930E+01  0.7957747E-01            NaN
         13   -1    0    0    0    0  0.00000000000E+00  0.00000000000E+00  0.74505805969E-08  0.10566000000E+00  0.10566000000E+00 0. -1.
     999900   -1    0    0    0    0 -0.00000000000E+00 -0.00000000000E+00 -0.74505805969E-08  0.93827000000E+00  0.93827000000E+00 0. -1.
     999902    2    1    2    0    0 -0.46862909860E-02 -0.19602904643E-01 -0.12827087029E-01  0.10200392203E+01  0.10197594038E+01 0.  0.
     999903    2    3    3    0    0  0.74603313516E-01  0.93126953202E-01  0.41744357575E-01  0.12764194060E+00  0.17651906685E-01 0.  0.
         14    1    1    2    0    0  0.46862909860E-02  0.19602904643E-01  0.12827087029E-01  0.23890779713E-01  0.00000000000E+00 0. -1.
     999901    1    3    3    0    0 -0.79289604502E-01 -0.11272985785E+00 -0.54571444604E-01  0.89239727969E+00  0.88000000000E+00 0. -1.
        -11    1    4    4    0    0  0.21233682667E-01  0.15130822729E-01  0.77589488287E-02  0.27207967288E-01  0.51100000000E-03 0. -1.
         11    1    4    4    0    0  0.53369630849E-01  0.77996130473E-01  0.33985408746E-01  0.10043397331E+00  0.51100000000E-03 0.  1.
</event>
<event>
 8    1  0.1157726E+005  0.1043930E+01  0.7957747E-01            NaN
         13   -1    0    0    0    0  0.00000000000E+00  0.00000000000E+00  0.74505805969E-08  0.10566000000E+00  0.10566000000E+00 0.  1.
     999900   -1    0    0    0    0 -0.00000000000E+00 -0.00000000000E+00 -0.74505805969E-08  0.93827000000E+00  0.93827000000E+00 0.  1.
     999902    2    1    2    0    0 -0.11294013506E-01 -0.20317820739E-01 -0.37060765302E-02  0.10203905951E+01  0.10201190435E+01 0.  0.
     999903    2    3    3    0    0 -0.72567871790E-02  0.29223751993E-01 -0.12479631086E+00  0.13070890398E+00  0.24576609523E-01 0.  0.
         14    1    1    2    0    0  0.11294013506E-01  0.20317820739E-01  0.37060765302E-02  0.23539404918E-01  0.00000000000E+00 0.  1.
     999901    1    3    3    0    0 -0.40372263267E-02 -0.49541572732E-01  0.12109023433E+00  0.88968169110E+00  0.88000000000E+00 0. -1.
        -11    1    4    4    0    0  0.44377677910E-02  0.23414805194E-01 -0.59111068453E-01  0.63736382231E-01  0.51100000000E-03 0.  1.
         11    1    4    4    0    0 -0.11694554970E-01  0.58089467992E-02 -0.65685242407E-01  0.66972521753E-01  0.51100000000E-03 0. -1.
</event>
<event>
 8    1  0.1157726E+005  0.1043930E+01  0.7957747E-01            NaN
         13   -1    0    0    0    0  0.00000000000E+00  0.00000000000E+00  0.74505805969E-08  0.10566000000E+00  0.10566000000E+00 0.  1.
     999900   -1    0    0    0    0 -0.00000000000E+00 -0.00000000000E+00 -0.74505805969E-08  0.93827000000E+00  0.93827000000E+00 0. -1.
     999902    2    1    2    0    0 -0.18451290058E-01 -0.49753313203E-03  0.13238930793E-01  0.10212150945E+01  0.10209624392E+01 0.  0.
     999903    2    3    3    0    0 -0.25034101500E-01  0.62707554997E-01  0.11324319448E+00  0.13327417904E+00  0.19469001229E-01 0.  0.
         14    1    1    2    0    0  0.18451290058E-01  0.49753313203E-03 -0.13238930793E-01  0.22714905515E-01  0.00000000000E+00 0. -1.
     999901    1    3    3    0    0  0.65828114418E-02 -0.63205088129E-01 -0.10000426369E+00  0.88794091545E+00  0.88000000000E+00 0.  1.
        -11    1    4    4    0    0  0.27178648651E-02  0.37373815928E-02  0.11966565121E-01  0.12838014347E-01  0.51100000000E-03 0. -1.
         11    1    4    4    0    0 -0.27751966365E-01  0.58970173404E-01  0.10127662936E+00  0.12043616469E+00  0.51100000000E-03 0.  1.
</event>
<event>
 8    1  0.1157726E+005  0.1043930E+01  0.7957747E-01            NaN
         13   -1    0    0    0    0  0.00000000000E+00  0.00000000000E+00  0.74505805969E-08  0.10566000000E+00  0.10566000000E+00 0. -1.
     999900   -1    0    0    0    0 -0.00000000000E+00 -0.00000000000E+00 -0.74505805969E-08  0.93827000000E+00  0.93827000000E+00 0.  1.
     999902    2    1    2    0    0 -0.27413419168E-02 -0.22027778458E-01  0.88750440719E-02  0.10200238421E+01  0.10197436609E+01 0.  0.
     999903    2    3    3    0    0 -0.11949632059E+00 -0.32495849564E-01 -0.37703013208E-01  0.13102956708E+00  0.20294811426E-01 0.  0.
         14    1    1    2    0    0  0.27413419168E-02  0.22027778458E-01 -0.88750440719E-02  0.23906157921E-01  0.00000000000E+00 0. -1.
     999901    1    3    3    0    0  0.11675497867E+00  0.10468071106E-01  0.46578057279E-01  0.88899427500E+00  0.88000000000E+00 0.  1.
        -11    1    4    4    0    0 -0.10819537383E+00 -0.30550265372E-01 -0.27664346530E-01  0.11578054596E+00  0.51100000000E-03 0. -1.
         11    1    4    4    0    0 -0.11300946763E-01 -0.19455841924E-02 -0.10038666678E-01  0.15249021125E-01  0.51100000000E-03 0.  1.
</event>
<event>
 8    1  0.1157726E+005  0.1043930E+01  0.7957747E-01            NaN
         13   -1    0    0    0    0  0.00000000000E+00  0.00000000000E+00  0.74505805969E-08  0.10566000000E+00  0.10566000000E+00 0. -1.
     999900   -1    0    0    0    0 -0.00000000000E+00 -0.00000000000E+00 -0.74505805969E-08  0.93827000000E+00  0.93827000000E+00 0. -1.
     999902    2    1    2    0    0 -0.14597383399E-02  0.23441902360E-01 -0.68111604452E-02  0.10194750306E+01  0.10191816779E+01 0.  0.
     999903    2    3    3    0    0  0.61957337875E-01 -0.87992863555E-01 -0.66555266474E-01  0.12817890089E+00  0.20463904440E-01 0.  0.
         14    1    1    2    0    0  0.14597383399E-02 -0.23441902360E-01  0.68111604452E-02  0.24454969410E-01  0.00000000000E+00 0. -1.
     999901    1    3    3    0    0 -0.63417076215E-01  0.11143476591E+00  0.59744106029E-01  0.89129612970E+00  0.88000000000E+00 0.  1.
        -11    1    4    4    0    0  0.48107517357E-01 -0.67467129867E-01 -0.60733198232E-01  0.10273718571E+00  0.51100000000E-03 0. -1.
         11    1    4    4    0    0  0.13849820519E-01 -0.20525733688E-01 -0.58220682423E-02  0.25441715183E-01  0.51100000000E-03 0.  1.
</event>
<event>
 8    1  0.1157726E+005  0.1043930E+01  0.7957747E-01            NaN
         13   -1    0    0    0    0  0.00000000000E+00  0.00000000000E+00  0.74505805969E-08  0.10566000000E+00  0.10566000000E+00 0.  1.
     999900   -1    0    0    0    0 -0.00000000000E+00 -0.00000000000E+00 -0.74505805969E-08  0.93827000000E+00  0.93827000000E+00 0.  1.
     999902    2    1    2    0    0 -0.46399903178E-02  0.20631083087E-01 -0.12538196151E-01  0.10193459104E+01  0.10190494137E+01 0.  0.
     999903    2    3    3    0    0  0.16225358149E-01 -0.97734239961E-01 -0.79232358979E-01  0.12867547536E+00  0.21549184267E-01 0.  0.
         14    1    1    2    0    0  0.46399903178E-02 -0.20631083087E-01  0.12538196151E-01  0.24584089616E-01  0.00000000000E+00 0.  1.
     999901    1    3    3    0    0 -0.20865348467E-01  0.11836532305E+00  0.66694162827E-01  0.89067043502E+00  0.88000000000E+00 0. -1.
        -11    1    4    4    0    0  0.53175321647E-03 -0.59539335610E-01 -0.40136377443E-01  0.71808113480E-01  0.51100000000E-03 0.  1.
         11    1    4    4    0    0  0.15693604933E-01 -0.38194904351E-01 -0.39095981536E-01  0.56867361882E-01  0.51100000000E-03 0. -1.
</event>
<event>
 8    1  0.1157726E+005  0.1043930E+01  0.7957747E-01            NaN
         13   -1    0    0    0    0  0.00000000000E+00  0.00000000000E+00  0.74505805969E-08  0.10566000000E+00  0.10566000000E+00 0.  1.
     999900   -1    0    0    0    0 -0.00000000000E+00 -0.00000000000E+00 -0.74505805969E-08  0.93827000000E+00  0.93827000000E+00 0.  1.
     999902    2    1    2    0    0  0.18503791600E-01 -0.64670225118E-02 -0.12484797520E-01  0.10206903173E+01  0.10204257155E+01 0.  0.
     999903    2    3    3    0    0  0.11605763304E+00  0.60716594056E-01 -0.70481800445E-02  0.13273764561E+00  0.20340273830E-01 0.  0.
         14    1    1    2    0    0 -0.18503791600E-01  0.64670225118E-02  0.12484797520E-01  0.23239682719E-01  0.00000000000E+00 0.  1.
     999901    1    3    3    0    0 -0.97553841442E-01 -0.67183616568E-01 -0.54366174753E-02  0.88795267167E+00  0.88000000000E+00 0. -1.
        -11    1    4    4    0    0  0.63270766085E-01  0.43564283108E-01 -0.27906861595E-03  0.76820411376E-01  0.51100000000E-03 0.  1.
         11    1    4    4    0    0  0.52786866958E-01  0.17152310948E-01 -0.67691114285E-02  0.55917234236E-01  0.51100000000E-03 0. -1.
</event>
<event>
 8    1  0.1157726E+005  0.1043930E+01  0.7957747E-01            NaN
         13   -1    0    0    0    0  0.00000000000E+00  0.00000000000E+00  0.74505805969E-08  0.10566000000E+00  0.10566000000E+00 0. -1.
     999900   -1    0    0    0    0 -0.00000000000E+00 -0.00000000000E+00 -0.74505805969E-08  0.93827000000E+00  0.93827000000E+00 0.  1.
     999902    2    1    2    0    0 -0.13194176562E-01  0.82362788991E-02 -0.18489949720E-01  0.10197680293E+01  0.10194817472E+01 0.  0.
     999903    2    3    3    0    0 -0.80616970253E-01  0.76803569560E-02 -0.10338571684E+00  0.13311509080E+00  0.21747118795E-01 0.  0.
         14    1    1    2    0    0  0.13194176562E-01 -0.82362788991E-02  0.18489949720E-01  0.24161970654E-01  0.00000000000E+00 0. -1.
     999901    1    3    3    0    0  0.67422793691E-01  0.55592194316E-03  0.84895767122E-01  0.88665293855E+00  0.88000000000E+00 0. -1.
        -11    1    4    4    0    0 -0.63500719467E-01  0.74954539261E-02 -0.65491194173E-01  0.91530764432E-01  0.51100000000E-03 0.  1.
         11    1    4    4    0    0 -0.17116250786E-01  0.18490302990E-03 -0.37894522669E-01  0.41584326367E-01  0.51100000000E-03 0. -1.
</event>
<event>
 8    1  0.1157726E+005  0.1043930E+01  0.7957747E-01            NaN
         13   -1    0    0    0    0  0.00000000000E+00  0.00000000000E+00  0.74505805969E-08  0.10566000000E+00  0.10566000000E+00 0. -1.
     999900   -1    0    0    0    0 -0.00000000000E+00 -0.00000000000E+00 -0.74505805969E-08  0.93827000000E+00  0.93827000000E+00 0.  1.
     999902    2    1    2    0    0 -0.46596261486E-02 -0.22839612936E-01 -0.32907724510E-02  0.10203887762E+01  0.10201171822E+01 0.  0.
     999903    2    3    3    0    0 -0.14522030563E-01  0.37650234931E-01 -0.12234837928E+00  0.13025900899E+00  0.19231587246E-01 0.  0.
         14    1    1    2    0    0  0.46596261486E-02  0.22839612936E-01  0.32907724510E-02  0.23541223805E-01  0.00000000000E+00 0. -1.
     999901    1    3    3    0    0  0.98624044147E-02 -0.60489847867E-01  0.11905760683E+00  0.89012976720E+00  0.88000000000E+00 0. -1.
        -11    1    4    4    0    0 -0.12344749023E-01  0.74857262154E-02 -0.40760443376E-01  0.43244696677E-01  0.51100000000E-03 0. -1.
         11    1    4    4    0    0 -0.21772815400E-02  0.30164508716E-01 -0.81587935909E-01  0.87014312316E-01  0.51100000000E-03 0.  1.
</event>
<event>
 8    1  0.1157726E+005  0.1043930E+01  0.7957747E-01            NaN
         13   -1    0    0    0    0  0.00000000000E+00  0.00000000000E+00  0.74505805969E-08  0.10566000000E+00  0.10566000000E+00 0. -1.
     999900   -1    0    0    0    0 -0.00000000000E+00 -0.00000000000E+00 -0.74505805969E-08  0.93827000000E+00  0.93827000000E+00 0. -1.
     999902    2    1    2    0    0 -0.18571735973E-01 -0.94760460447E-02 -0.89830359941E-02  0.10212275825E+01  0.10209752080E+01 0.  0.
     999903    2    3    3    0    0 -0.57114107109E-01  0.97742747066E-01  0.62967575979E-01  0.13097016210E+00  0.19302898791E-01 0.  0.
         14    1    1    2    0    0  0.18571735973E-01  0.94760460447E-02  0.89830359941E-02  0.22702417523E-01  0.00000000000E+00 0. -1.
     999901    1    3    3    0    0  0.38542371136E-01 -0.10721879311E+00 -0.71950611973E-01  0.89025742037E+00  0.88000000000E+00 0. -1.
        -11    1    4    4    0    0 -0.15928017745E-01  0.18611898106E-01  0.21485431951E-01  0.32588178953E-01  0.51100000000E-03 0. -1.
         11    1    4    4    0    0 -0.41186089364E-01  0.79130848960E-01  0.41482144028E-01  0.98381983149E-01  0.51100000000E-03 0.  1.
</event>
<event>
 8    1  0.1157726E+005  0.1043930E+01  0.7957747E-01            NaN
         13   -1    0    0    0    0  0.00000000000E+00  0.00000000000E+00  0.74505805969E-08  0.10566000000E+00  0.10566000000E+00 0. -1.
     999900   -1    0    0    0    0 -0.00000000000E+00 -0.00000000000E+00 -0.74505805969E-08  0.93827000000E+00  0.93827000000E+00 0. -1.
     999902    2    1    2    0    0  0.70106363390E-02 -0.12560100266E-01 -0.18929890834E-01  0.10201550992E+01  0.10198780224E+01 0.  0.
     999903    2    3    3    0    0 -0.10343031796E+00  0.24478329668E-01  0.69000328605E-01  0.12813448669E+00  0.18983730796E-01 0.  0.
         14    1    1    2    0    0 -0.70106363390E-02  0.12560100266E-01  0.18929890834E-01  0.23774900789E-01  0.00000000000E+00 0.  1.
     999901    1    3    3    0    0  0.11044095430E+00 -0.37038429934E-01 -0.87930219439E-01  0.89202061252E+00  0.88000000000E+00 0. -1.
        -11    1    4    4    0    0 -0.38875458406E-01  0.86052491233E-02  0.36990305155E-01  0.54349750462E-01  0.51100000000E-03 0.  1.
         11    1    4    4    0    0 -0.64554859550E-01  0.15873080545E-01  0.32010023450E-01  0.73784736225E-01  0.51100000000E-03 0. -1.
</event>
<event>
 8    1  0.1157726E+005  0.1043930E+01  0.7957747E-01            NaN
         13   -1    0    0    0    0  0.00000000000E+00  0.00000000000E+00  0.74505805969E-08  0.10566000000E+00  0.10566000000E+00 0. -1.
     999900   -1    0    0    0    0 -0.00000000000E+00 -0.00000000000E+00 -0.74505805969E-08  0.93827000000E+00  0.93827000000E+00 0.  1.
     999902    2    1    2    0    0 -0.65801048392E-02 -0.13451879913E-01 -0.20100750871E-01  0.10188642657E+01  0.10185558899E+01 0.  0.
     999903    2    3    3    0    0 -0.11173146819E+00 -0.31653461406E-01  0.53469688186E-01  0.12936962470E+00  0.19789634573E-01 0.  0.
         14    1    1    2    0    0  0.65801048392E-02  0.13451879913E-01  0.20100750871E-01  0.25065734350E-01  0.00000000000E+00 0. -1.
     999901    1    3    3    0    0  0.10515136335E+00  0.18201581493E-01 -0.73570439057E-01  0.88949464095E+00  0.88000000000E+00 0.  1.
        -11    1    4    4    0    0 -0.64176845608E-01 -0.12291075590E-01  0.21086871071E-01  0.68663347602E-01  0.51100000000E-03 0. -1.
         11    1    4    4    0    0 -0.47554622582E-01 -0.19362385815E-01  0.32382817114E-01  0.60706277094E-01  0.51100000000E-03 0.  1.
</event>
<event>
 8    1  0.1157726E+005  0.1043930E+01  0.7957747E-01            NaN
         13   -1    0    0    0    0  0.00000000000E+00  0.00000000000E+00  0.74505805969E-08  0.10566000000E+00  0.10566000000E+00 0. -1.
     999900   -1    0    0    0    0 -0.00000000000E+00 -0.00000000000E+00 -0.74505805969E-08  0.93827000000E+00  0.93827000000E+00 0.  1.
     999902    2    1    2    0    0  0.60604929569E-02 -0.19331110212E-01 -0.12468273074E-01  0.10201417838E+01  0.10198643929E+01 0.  0.
     999903    2    3    3    0    0  0.10657307391E+00 -0.44553627098E-01 -0.61877551126E-01  0.13268461241E+00  0.20821365600E-01 0.  0.
         14    1    1    2    0    0 -0.60604929569E-02  0.19331110212E-01  0.12468273074E-01  0.23788216208E-01  0.00000000000E+00 0. -1.
     999901    1    3    3    0    0 -0.10051258095E+00  0.25222516886E-01  0.49409278052E-01  0.88745717139E+00  0.88000000000E+00 0. -1.
        -11    1    4    4    0    0  0.43772327101E-01 -0.19202649576E-01 -0.37314493052E-01  0.60641494732E-01  0.51100000000E-03 0. -1.
         11    1    4    4    0    0  0.62800746810E-01 -0.25350977522E-01 -0.24563058074E-01  0.72043117674E-01  0.51100000000E-03 0.  1.
</event>
<event>
 8    1  0.1157726E+005  0.1043930E+01  0.7957747E-01            NaN
         13   -1    0    0    0    0  0.00000000000E+00  0.00000000000E+00  0.74505805969E-08  0.10566000000E+00  0.10566000000E+00 0. -1.
     999900   -1    0    0    0    0 -0.00000000000E+00 -0.00000000000E+00 -0.74505805969E-08  0.93827000000E+00  0.93827000000E+00 0.  1.
     999902    2    1    2    0    0 -0.81482328631E-02 -0.19720093320E-02 -0.22262520492E-01  0.10201412981E+01  0.10198638957E+01 0.  0.
     999903    2    3    3    0    0 -0.22904339858E-01  0.12224801539E+00  0.30993317877E-01  0.12970065350E+00  0.19811302659E-01 0.  0.
         14    1    1    2    0    0  0.81482328631E-02  0.19720093320E-02  0.22262520492E-01  0.23788701903E-01  0.00000000000E+00 0. -1.
     999901    1    3    3    0    0  0.14756106995E-01 -0.12422002472E+00 -0.53255838369E-01  0.89044064460E+00  0.88000000000E+00 0.  1.
        -11    1    4    4    0    0 -0.14343811059E-01  0.10798406154E+00  0.30180948815E-01  0.11303739760E+00  0.51100000000E-03 0.  1.
         11    1    4    4    0    0 -0.85605287991E-02  0.14263953846E-01  0.81236906266E-03  0.16663255899E-01  0.51100000000E-03 0. -1.
</event>
<event>
 8    1  0.1157726E+005  0.1043930E+01  0.7957747E-01            NaN
         13   -1    0    0    0    0  0.00000000000E+00  0.00000000000E+00  0.74505805969E-08  0.10566000000E+00  0.10566000000E+00 0.  1.
     999900   -1    0    0    0    0 -0.00000000000E+00 -0.00000000000E+00 -0.74505805969E-08  0.93827000000E+00  0.93827000000E+00 0.  1.
     999902    2    1    2    0    0  0.11410898090E-01  0.83683497312E-02 -0.18981438903E-01  0.10202544241E+01  0.10199796846E+01 0.  0.
     999903    2    3    3    0    0  0.67069790970E-01  0.77959225596E-01  0.77947198124E-01  0.13045896273E+00  0.19177527074E-01 0.  0.
         14    1    1    2    0    0 -0.11410898090E-01 -0.83683497312E-02  0.18981438903E-01  0.23675575923E-01  0.00000000000E+00 0. -1.
     999901    1    3    3    0    0 -0.55658892879E-01 -0.69590875865E-01 -0.96928637027E-01  0.88979546135E+00  0.88000000000E+00 0. -1.
        -11    1    4    4    0    0  0.56060101417E-01  0.68222242389E-01  0.57885190104E-01  0.10558392720E+00  0.51100000000E-03 0. -1.
         11    1    4    4    0    0  0.11009689552E-01  0.97369832063E-02  0.20062008021E-01  0.24875035534E-01  0.51100000000E-03 0.  1.
</event>
<event>
 8    1  0.1157726E+005  0.1043930E+01  0.7957747E-01            NaN
         13   -1    0    0    0    0  0.00000000000E+00  0.00000000000E+00  0.74505805969E-08  0.10566000000E+00  0.10566000000E+00 0.  1.
     999900   -1    0    0    0    0 -0.00000000000E+00 -0.00000000000E+00 -0.74505805969E-08  0.93827000000E+00  0.93827000000E+00 0. -1.
     999902    2    1    2    0    0 -0.17444640618E-01 -0.20336787540E-01  0.19464502369E-01  0.10108125233E+01  0.10102698599E+01 0.  0.
     999903    2    3    3    0    0 -0.95826029652E-01  0.50994677100E-01  0.56699097927E-01  0.12367204108E+00  0.17230815092E-01 0.  0.
         14    1    1    2    0    0  0.17444640618E-01  0.20336787540E-01 -0.19464502369E-01  0.33117476748E-01  0.00000000000E+00 0. -1.
     999901    1    3    3    0    0  0.78381389034E-01 -0.71331464639E-01 -0.37234595558E-01  0.88714048217E+00  0.88000000000E+00 0.  1.
        -11    1    4    4    0    0 -0.32033343013E-01  0.25770314493E-01  0.17729055608E-01  0.44775268926E-01  0.51100000000E-03 0.  1.
         11    1    4    4    0    0 -0.63792686639E-01  0.25224362607E-01  0.38970042319E-01  0.78896772158E-01  0.51100000000E-03 0. -1.
</event>
<event>
 8    1  0.1157726E+005  0.1043930E+01  0.7957747E-01            NaN
         13   -1    0    0    0    0  0.00000000000E+00  0.00000000000E+00  0.74505805969E-08  0.10566000000E+00  0.10566000000E+00 0.  1.
     999900   -1    0    0    0    0 -0.00000000000E+00 -0.00000000000E+00 -0.74505805969E-08  0.93827000000E+00  0.93827000000E+00 0.  1.
     999902    2    1    2    0    0  0.16985101052E-01 -0.15169658549E-01 -0.60948975207E-02  0.10203554380E+01  0.10200830652E+01 0.  0.
     999903    2    3    3    0    0 -0.91179431567E-01  0.18733490802E-01  0.86089117682E-01  0.12830898050E+00  0.19678055703E-01 0.  0.
         14    1    1    2    0    0 -0.16985101052E-01  0.15169658549E-01  0.60948975207E-02  0.23574562011E-01  0.00000000000E+00 0.  1.
     999901    1    3    3    0    0  0.10816453262E+00 -0.33903149351E-01 -0.92184015202E-01  0.89204645748E+00  0.88000000000E+00 0.  1.
        -11    1    4    4    0    0 -0.21579007668E-01 -0.34396059414E-02  0.23740339367E-01  0.32269944147E-01  0.51100000000E-03 0.  1.
         11    1    4    4    0    0 -0.69600423899E-01  0.22173096743E-01  0.62348778314E-01  0.96039036357E-01  0.51100000000E-03 0. -1.
</event>
<event>
 8    1  0.1157726E+005  0.1043930E+01  0.7957747E-01            NaN
         13   -1    0    0    0    0  0.00000000000E+00  0.00000000000E+00  0.74505805969E-08  0.10566000000E+00  0.10566000000E+00 0. -1.
     999900   -1    0    0    0    0 -0.00000000000E+00 -0.00000000000E+00 -0.74505805969E-08  0.93827000000E+00  0.93827000000E+00 0. -1.
     999902    2    1    2    0    0 -0.16539310679E-01  0.80472570518E-02 -0.11181933550E-01  0.10224046015E+01  0.10221779817E+01 0.  0.
     999903    2    3    3    0    0 -0.62710240647E-01 -0.11079305590E+00 -0.32706848411E-01  0.13295640359E+00  0.19999795167E-01 0.  0.
         14    1    1    2    0    0  0.16539310679E-01 -0.80472570518E-02  0.11181933550E-01  0.21525398526E-01  0.00000000000E+00 0. -1.
     999901    1    3    3    0    0  0.46170929968E-01  0.11884031295E+00  0.21524914861E-01  0.88944819788E+00  0.88000000000E+00 0. -1.
        -11    1    4    4    0    0 -0.13455990947E-01 -0.11809316283E-01 -0.10038934599E-02  0.17938577606E-01  0.51100000000E-03 0.  1.
         11    1    4    4    0    0 -0.49254249700E-01 -0.98983739612E-01 -0.31702954951E-01  0.11501782599E+00  0.51100000000E-03 0. -1.
</event>
<event>
 8    1  0.1157726E+005  0.1043930E+01  0.7957747E-01            NaN
         13   -1    0    0    0    0  0.00000000000E+00  0.00000000000E+00  0.74505805969E-08  0.10566000000E+00  0.10566000000E+00 0. -1.
     999900   -1    0    0    0    0 -0.00000000000E+00 -0.00000000000E+00 -0.74505805969E-08  0.93827000000E+00  0.93827000000E+00 0.  1.
     999902    2    1    2    0    0  0.10741686767E-01  0.12670196573E-01  0.16406135916E-01  0.10205830728E+01  0.10203159949E+01 0.  0.
     999903    2    3    3    0    0  0.32638643572E-01  0.11419096680E+00  0.57851349654E-01  0.13350717452E+00  0.19301011331E-01 0.  0.
         14    1    1    2    0    0 -0.10741686767E-01 -0.12670196573E-01 -0.16406135916E-01  0.23346927238E-01  0.00000000000E+00 0.  1.
     999901    1    3    3    0    0 -0.21896956806E-01 -0.10152077022E+00 -0.41445213738E-01  0.88707589824E+00  0.88000000000E+00 0. -1.
        -11    1    4    4    0    0  0.15326815589E-02  0.28337970577E-01  0.80963681529E-02  0.29516130971E-01  0.51100000000E-03 0.  1.
         11    1    4    4    0    0  0.31105962014E-01  0.85852996220E-01  0.49754981501E-01  0.10399104355E+00  0.51100000000E-03 0. -1.
</event>
<event>
 8    1  0.1157726E+005  0.1043930E+01  0.7957747E-01            NaN
         13   -1    0    0    0    0  0.00000000000E+00  0.00000000000E+00  0.74505805969E-08  0.10566000000E+00  0.10566000000E+00 0. -1.
     999900   -1    0    0    0    0 -0.00000000000E+00 -0.00000000000E+00 -0.74505805969E-08  0.93827000000E+00  0.93827000000E+00 0. -1.
     999902    2    1    2    0    0 -0.18260523473E-01  0.26362685174E-05  0.15470575310E-01  0.10199970640E+01  0.10197162474E+01 0.  0.
     999903    2    3    3    0    0  0.73708527950E-01 -0.83135323525E-01 -0.59993338564E-01  0.12810860178E+00  0.21637561475E-01 0.  0.
         14    1    1    2    0    0  0.18260523473E-01 -0.26362685174E-05 -0.15470575310E-01  0.23932935985E-01  0.00000000000E+00 0.  1.
     999901    1    3    3    0    0 -0.91969051423E-01  0.83137959794E-01  0.75463913874E-01  0.89188846224E+00  0.88000000000E+00 0. -1.
        -11    1    4    4    0    0  0.67597730420E-01 -0.72259244530E-01 -0.45298952444E-01  0.10882604372E+00  0.51100000000E-03 0.  1.
         11    1    4    4    0    0  0.61107975303E-02 -0.10876078996E-01 -0.14694386120E-01  0.19282558057E-01  0.51100000000E-03 0. -1.
</event>
<event>
 8    1  0.1157726E+005  0.1043930E+01  0.7957747E-01            NaN
         13   -1    0    0    0    0  0.00000000000E+00  0.00000000000E+00  0.74505805969E-08  0.10566000000E+00  0.10566000000E+00 0.  1.
     999900   -1    0    0    0    0 -0.00000000000E+00 -0.00000000000E+00 -0.74505805969E-08  0.93827000000E+00  0.93827000000E+00 0.  1.
     999902    2    1    2    0    0 -0.11614262222E-01 -0.22457045226E-01  0.56483062096E-02  0.10180241449E+01  0.10176944759E+01 0.  0.
     999903    2    3    3    0    0  0.90355749338E-01  0.59848394058E-01  0.63375642128E-01  0.12644996741E+00  0.15070850434E-01 0.  0.
         14    1    1    2    0    0  0.11614262222E-01  0.22457045226E-01 -0.56483062096E-02  0.25905855135E-01  0.00000000000E+00 0. -1.
     999901    1    3    3    0    0 -0.10197001156E+00 -0.82305439284E-01 -0.57727335918E-01  0.89157417746E+00  0.88000000000E+00 0.  1.
        -11    1    4    4    0    0  0.21638259880E-01  0.13951558037E-01  0.22775677274E-01  0.34378086896E-01  0.51100000000E-03 0. -1.
         11    1    4    4    0    0  0.68717489458E-01  0.45896836021E-01  0.40599964854E-01  0.92071880514E-01  0.51100000000E-03 0.  1.
</event>
<event>
 8    1  0.1157726E+005  0.1043930E+01  0.7957747E-01            NaN
         13   -1    0    0    0    0  0.00000000000E+00  0.00000000000E+00  0.74505805969E-08  0.10566000000E+00  0.10566000000E+00 0. -1.
     999900   -1    0    0    0    0 -0.00000000000E+00 -0.00000000000E+00 -0.74505805969E-08  0.93827000000E+00  0.93827000000E+00 0.  1.
     999902    2    1    2    0    0 -0.54393079349E-02  0.19884592251E-01 -0.48003014103E-02  0.10227633760E+01  0.10225443253E+01 0.  0.
     999903    2    3    3    0    0 -0.63445520019E-01  0.11720252355E+00 -0.15804320164E-01  0.13543221521E+00  0.18175336177E-01 0.  0.
         14    1    1    2    0    0  0.54393079349E-02 -0.19884592251E-01  0.48003014103E-02  0.21166624045E-01  0.00000000000E+00 0. -1.
     999901    1    3    3    0    0  0.58006212084E-01 -0.97317931299E-01  0.11004018754E-01  0.88733116074E+00  0.88000000000E+00 0. -1.
        -11    1    4    4    0    0 -0.19217926956E-01  0.30077004047E-01 -0.11961350982E-01  0.37646911258E-01  0.51100000000E-03 0. -1.
         11    1    4    4    0    0 -0.44227593063E-01  0.87125519503E-01 -0.38429691818E-02  0.97785303957E-01  0.51100000000E-03 0.  1.
</event>
<event>
 8    1  0.1157726E+005  0.1043930E+01  0.7957747E-01            NaN
         13   -1    0    0    0    0  0.00000000000E+00  0.00000000000E+00  0.74505805969E-08  0.10566000000E+00  0.10566000000E+00 0.  1.
     999900   -1    0    0    0    0 -0.00000000000E+00 -0.00000000000E+00 -0.74505805969E-08  0.93827000000E+00  0.93827000000E+00 0. -1.
     999902    2    1    2    0    0  0.11430205834E-01 -0.21022689705E-01  0.93428037004E-03  0.10199826417E+01  0.10197014825E+01 0.  0.
     999903    2    3    3    0    0 -0.11377412728E+00 -0.59727042269E-01 -0.77324936714E-02  0.13023589973E+00  0.19741491969E-01 0.  0.
         14    1    1    2    0    0 -0.11430205834E-01  0.21022689705E-01 -0.93428037004E-03  0.23947358261E-01  0.00000000000E+00 0. -1.
     999901    1    3    3    0    0  0.12520433311E+00  0.38704352563E-01  0.86667740415E-02  0.88974674201E+00  0.88000000000E+00 0.  1.
        -11    1    4    4    0    0 -0.75047049364E-01 -0.29790543058E-01 -0.45551171637E-03  0.80746545969E-01  0.51100000000E-03 0.  1.
         11    1    4    4    0    0 -0.38727077913E-01 -0.29936499211E-01 -0.72769819551E-02  0.49489353765E-01  0.51100000000E-03 0. -1.
</event>
<event>
 8    1  0.1157726E+005  0.1043930E+01  0.7957747E-01            NaN
         13   -1    0    0    0    0  0.00000000000E+00  0.00000000000E+00  0.74505805969E-08  0.10566000000E+00  0.10566000000E+00 0. -1.
     999900   -1    0    0    0    0 -0.00000000000E+00 -0.00000000000E+00 -0.74505805969E-08  0.93827000000E+00  0.93827000000E+00 0. -1.
     999902    2    1    2    0    0  0.19414902366E-01 -0.11862164464E-01 -0.92872100220E-02  0.10193555895E+01  0.10190593291E+01 0.  0.
     999903    2    3    3    0    0  0.37409867136E-01  0.11934100243E-01 -0.12371396999E+00  0.13144592951E+00  0.20759699081E-01 0.  0.
         14    1    1    2    0    0 -0.19414902366E-01  0.11862164464E-01  0.92872100220E-02  0.24574410464E-01  0.00000000000E+00 0.  1.
     999901    1    3    3    0    0 -0.17994964769E-01 -0.23796264707E-01  0.11442675997E+00  0.88790966003E+00  0.88000000000E+00 0.  1.
        -11    1    4    4    0    0  0.12210205849E-01  0.72512390086E-02 -0.19520535043E-01  0.24145020261E-01  0.51100000000E-03 0. -1.
         11    1    4    4    0    0  0.25199661287E-01  0.46828612339E-02 -0.10419343495E+00  0.10730090925E+00  0.51100000000E-03 0.  1.
</event>
<event>
 8    1  0.1173031E+005  0.1043930E+01  0.7957747E-01            NaN
         13   -1    0    0    0    0  0.00000000000E+00  0.00000000000E+00  0.74505805969E-08  0.10566000000E+00  0.10566000000E+00 0.  1.
     999900   -1    0    0    0    0 -0.00000000000E+00 -0.00000000000E+00 -0.74505805969E-08  0.93827000000E+00  0.93827000000E+00 0.  1.
     999902    2    1    2    0    0 -0.20647624831E-01 -0.10243724456E-01 -0.60201817574E-02  0.10201077228E+01  0.10198295275E+01 0.  0.
     999903    2    3    3    0    0  0.16710638864E-01 -0.10566690695E-02 -0.12829325088E+00  0.13082107314E+00  0.19355437384E-01 0.  0.
         14    1    1    2    0    0  0.20647624831E-01  0.10243724456E-01  0.60201817574E-02  0.23822277185E-01  0.00000000000E+00 0.  1.
     999901    1    3    3    0    0 -0.37358263696E-01 -0.91870553866E-02  0.12227306912E+00  0.88928664967E+00  0.88000000000E+00 0. -1.
        -11    1    4    4    0    0  0.10428146735E-01  0.73265523631E-02 -0.42035867232E-01  0.43928349261E-01  0.51100000000E-03 0.  1.
         11    1    4    4    0    0  0.62824921295E-02 -0.83832214325E-02 -0.86257383646E-01  0.86892723881E-01  0.51100000000E-03 0. -1.
</event>
<event>
 8    1  0.1157726E+005  0.1043930E+01  0.7957747E-01            NaN
         13   -1    0    0    0    0  0.00000000000E+00  0.00000000000E+00  0.74505805969E-08  0.10566000000E+00  0.10566000000E+00 0. -1.
     999900   -1    0    0    0    0 -0.00000000000E+00 -0.00000000000E+00 -0.74505805969E-08  0.93827000000E+00  0.93827000000E+00 0. -1.
     999902    2    1    2    0    0 -0.14089650821E-01 -0.71940967866E-02 -0.16781701271E-01  0.10208670690E+01  0.10206065225E+01 0.  0.
     999903    2    3    3    0    0  0.73158813766E-02  0.21878402432E-01  0.12505572097E+00  0.12877892236E+00  0.20319716652E-01 0.  0.
         14    1    1    2    0    0  0.14089650821E-01  0.71940967866E-02  0.16781701271E-01  0.23062931001E-01  0.00000000000E+00 0. -1.
     999901    1    3    3    0    0 -0.21405532197E-01 -0.29072499219E-01 -0.14183742224E+00  0.89208814664E+00  0.88000000000E+00 0. -1.
        -11    1    4    4    0    0  0.10100900705E-02  0.20282101230E-01  0.11507847707E+00  0.11685760959E+00  0.51100000000E-03 0.  1.
         11    1    4    4    0    0  0.63057913062E-02  0.15963012028E-02  0.99772438944E-02  0.11921312774E-01  0.51100000000E-03 0. -1.
</event>
<event>
 8    1  0.1157726E+005  0.1043930E+01  0.7957747E-01            NaN
         13   -1    0    0    0    0  0.00000000000E+00  0.00000000000E+00  0.74505805969E-08  0.10566000000E+00  0.10566000000E+00 0. -1.
     999900   -1    0    0    0    0 -0.00000000000E+00 -0.00000000000E+00 -0.74505805969E-08  0.93827000000E+00  0.93827000000E+00 0.  1.
     999902    2    1    2    0    0  0.21010305890E-01  0.75128900249E-02  0.73840994781E-02  0.10204267790E+01  0.10201560714E+01 0.  0.
     999903    2    3    3    0    0  0.12880423653E+00  0.22968948319E-01 -0.18552413950E-01  0.13333539483E+00  0.17777275267E-01 0.  0.
         14    1    1    2    0    0 -0.21010305890E-01 -0.75128900249E-02 -0.73840994781E-02  0.23503220954E-01  0.00000000000E+00 0. -1.
     999901    1    3    3    0    0 -0.10779393064E+00 -0.15456058294E-01  0.25936513428E-01  0.88709138422E+00  0.88000000000E+00 0.  1.
        -11    1    4    4    0    0  0.76634462557E-01  0.97929840148E-02 -0.29787945539E-02  0.77316736386E-01  0.51100000000E-03 0. -1.
         11    1    4    4    0    0  0.52169773973E-01  0.13175964304E-01 -0.15573619396E-01  0.56018658444E-01  0.51100000000E-03 0.  1.
</event>
<event>
 8    1  0.1157726E+005  0.1043930E+01  0.7957747E-01            NaN
         13   -1    0    0    0    0  0.00000000000E+00  0.00000000000E+00  0.74505805969E-08  0.10566000000E+00  0.10566000000E+00 0. -1.
     999900   -1    0    0    0    0 -0.00000000000E+00 -0.00000000000E+00 -0.74505805969E-08  0.93827000000E+00  0.93827000000E+00 0. -1.
     999902    2    1    2    0    0 -0.47571128674E-02 -0.19689070597E-01  0.23984554665E-03  0.10236729728E+01  0.10234725244E+01 0.  0.
     999903    2    3    3    0    0 -0.11095141784E+00 -0.74310278903E-01 -0.44931204676E-02  0.13559464984E+00  0.23097321530E-01 0.  0.
         14    1    1    2    0    0  0.47571128674E-02  0.19689070597E-01 -0.23984554665E-03  0.20257027168E-01  0.00000000000E+00 0.  1.
     999901    1    3    3    0    0  0.10619430497E+00  0.54621208306E-01  0.47329660142E-02  0.88807832299E+00  0.88000000000E+00 0. -1.
        -11    1    4    4    0    0 -0.53420597670E-01 -0.48349294937E-01  0.24488497541E-02  0.72094885827E-01  0.51100000000E-03 0. -1.
         11    1    4    4    0    0 -0.57530820169E-01 -0.25960983966E-01 -0.69419702217E-02  0.63499764010E-01  0.51100000000E-03 0.  1.
</event>
<event>
 8    1  0.1157726E+005  0.1043930E+01  0.7957747E-01            NaN
         13   -1    0    0    0    0  0.00000000000E+00  0.00000000000E+00  0.74505805969E-08  0.10566000000E+00  0.10566000000E+00 0.  1.
     999900   -1    0    0    0    0 -0.00000000000E+00 -0.00000000000E+00 -0.74505805969E-08  0.93827000000E+00  0.93827000000E+00 0.  1.
     999902    2    1    2    0    0 -0.86191330588E-02  0.12811151662E-01 -0.16930874017E-01  0.10210156037E+01  0.10207584403E+01 0.  0.
     999903    2    3    3    0    0  0.27581249385E-01  0.83451527977E-01  0.94866743866E-01  0.13039826849E+00  0.16707079189E-01 0.  0.
         14    1    1    2    0    0  0.86191330588E-02 -0.12811151662E-01  0.16930874017E-01  0.22914396273E-01  0.00000000000E+00 0.  1.
     999901    1    3    3    0    0 -0.36200382444E-01 -0.70640376315E-01 -0.11179761788E+00  0.89061733523E+00  0.88000000000E+00 0.  1.
        -11    1    4    4    0    0  0.15140085303E-01  0.67753547614E-01  0.73255555046E-01  0.10092771108E+00  0.51100000000E-03 0.  1.
         11    1    4    4    0    0  0.12441164082E-01  0.15697980363E-01  0.21611188819E-01  0.29470557415E-01  0.51100000000E-03 0. -1.
</event>
<event>
 8    1  0.1157726E+005  0.1043930E+01  0.7957747E-01            NaN
         13   -1    0    0    0    0  0.00000000000E+00  0.00000000000E+00  0.74505805969E-08  0.10566000000E+00  0.10566000000E+00 0.  1.
     999900   -1    0    0    0    0 -0.00000000000E+00 -0.00000000000E+00 -0.74505805969E-08  0.93827000000E+00  0.93827000000E+00 0.  1.
     999902    2    1    2    0    0  0.16227402027E-01 -0.15169730847E-01  0.84095033488E-02  0.10201777568E+01  0.10199012140E+01 0.  0.
     999903    2    3    3    0    0  0.28334409038E-01  0.71316293787E-01  0.10385883933E+00  0.13071893942E+00  0.20296061683E-01 0.  0.
         14    1    1    2    0    0 -0.16227402027E-01  0.15169730847E-01 -0.84095033488E-02  0.23752243202E-01  0.00000000000E+00 0. -1.
     999901    1    3    3    0    0 -0.12107007011E-01 -0.86486024634E-01 -0.95449335984E-01  0.88945881738E+00  0.88000000000E+00 0. -1.
        -11    1    4    4    0    0  0.19578361259E-01  0.49330613375E-01  0.86028899938E-01  0.10108439242E+00  0.51100000000E-03 0.  1.
         11    1    4    4    0    0  0.87560477798E-02  0.21985680412E-01  0.17829939396E-01  0.29634546998E-01  0.51100000000E-03 0. -1.
</event>
<event>
 8    1  0.1157726E+005  0.1043930E+01  0.7957747E-01            NaN
         13   -1    0    0    0    0  0.00000000000E+00  0.00000000000E+00  0.74505805969E-08  0.10566000000E+00  0.10566000000E+00 0.  1.
     999900   -1    0    0    0    0 -0.00000000000E+00 -0.00000000000E+00 -0.74505805969E-08  0.93827000000E+00  0.93827000000E+00 0.  1.
     999902    2    1    2    0    0 -0.22532732937E-01 -0.33001214163E-02  0.13992853133E-01  0.10172014611E+01  0.10168502336E+01 0.  0.
     999903    2    3    3    0    0  0.11406774569E+00  0.46825071961E-01 -0.51754254909E-02  0.12504696285E+00  0.20147454419E-01 0.  0.
         14    1    1    2    0    0  0.22532732937E-01  0.33001214163E-02 -0.13992853133E-01  0.26728538938E-01  0.00000000000E+00 0. -1.
     999901    1    3    3    0    0 -0.13660047862E+00 -0.50125193377E-01  0.19168278624E-01  0.89215449821E+00  0.88000000000E+00 0.  1.
        -11    1    4    4    0    0  0.10721243466E+00  0.40297456672E-01 -0.64088296389E-03  0.11453847830E+00  0.51100000000E-03 0. -1.
         11    1    4    4    0    0  0.68553110301E-02  0.65276152888E-02 -0.45345425270E-02  0.10508484553E-01  0.51100000000E-03 0.  1.
</event>
<event>
 8    1  0.1157726E+005  0.1043930E+01  0.7957747E-01            NaN
         13   -1    0    0    0    0  0.00000000000E+00  0.00000000000E+00  0.74505805969E-08  0.10566000000E+00  0.10566000000E+00 0.  1.
     999900   -1    0    0    0    0 -0.00000000000E+00 -0.00000000000E+00 -0.74505805969E-08  0.93827000000E+00  0.93827000000E+00 0. -1.
     999902    2    1    2    0    0 -0.14968862720E-01  0.18375044062E-01  0.32352846244E-02  0.10200097959E+01  0.10197292816E+01 0.  0.
     999903    2    3    3    0    0  0.55691288021E-01  0.61158546647E-01 -0.98597148624E-01  0.13029460025E+00  0.20332185008E-01 0.  0.
         14    1    1    2    0    0  0.14968862720E-01 -0.18375044062E-01 -0.32352846244E-02  0.23920204055E-01  0.00000000000E+00 0. -1.
     999901    1    3    3    0    0 -0.70660150741E-01 -0.42783502585E-01  0.10183243325E+00  0.88971519570E+00  0.88000000000E+00 0.  1.
        -11    1    4    4    0    0  0.46222188593E-01  0.36956840277E-01 -0.68949021157E-01  0.90865435679E-01  0.51100000000E-03 0.  1.
         11    1    4    4    0    0  0.94690994275E-02  0.24201706370E-01 -0.29648127468E-01  0.39429164568E-01  0.51100000000E-03 0. -1.
</event>
<event>
 8    1  0.1157726E+005  0.1043930E+01  0.7957747E-01            NaN
         13   -1    0    0    0    0  0.00000000000E+00  0.00000000000E+00  0.74505805969E-08  0.10566000000E+00  0.10566000000E+00 0. -1.
     999900   -1    0    0    0    0 -0.00000000000E+00 -0.00000000000E+00 -0.74505805969E-08  0.93827000000E+00  0.93827000000E+00 0. -1.
     999902    2    1    2    0    0  0.15896434998E-01  0.19021471072E-02 -0.19161381721E-01  0.10189605515E+01  0.10186545696E+01 0.  0.
     999903    2    3    3    0    0 -0.95060687985E-01  0.44699839966E-01 -0.72816954105E-01  0.12934150600E+00  0.19806723008E-01 0.  0.
         14    1    1    2    0    0 -0.15896434998E-01 -0.19021471072E-02  0.19161381721E-01  0.24969448507E-01  0.00000000000E+00 0. -1.
     999901    1    3    3    0    0  0.11095712298E+00 -0.42797692859E-01  0.53655572384E-01  0.88961904549E+00  0.88000000000E+00 0.  1.
        -11    1    4    4    0    0 -0.15081517035E-01  0.81049000861E-02 -0.21576662685E-01  0.27549138918E-01  0.51100000000E-03 0. -1.
         11    1    4    4    0    0 -0.79979170950E-01  0.36594939880E-01 -0.51240291420E-01  0.10179236708E+00  0.51100000000E-03 0.  1.
</event>
<event>
 8    1  0.1157726E+005  0.1043930E+01  0.7957747E-01            NaN
         13   -1    0    0    0    0  0.00000000000E+00  0.00000000000E+00  0.74505805969E-08  0.10566000000E+00  0.10566000000E+00 0.  1.
     999900   -1    0    0    0    0 -0.00000000000E+00 -0.00000000000E+00 -0.74505805969E-08  0.93827000000E+00  0.93827000000E+00 0.  1.
     999902    2    1    2    0    0 -0.18936691730E-02  0.52223935092E-02 -0.23153311976E-01  0.10201195982E+01  0.10198416835E+01 0.  0.
     999903    2    3    3    0    0 -0.63331092055E-01 -0.73030608821E-01 -0.87819016928E-01  0.13215577988E+00  0.20215671547E-01 0.  0.
         14    1    1    2    0    0  0.18936691730E-02 -0.52223935092E-02  0.23153311976E-01  0.23810401768E-01  0.00000000000E+00 0.  1.
     999901    1    3    3    0    0  0.61437422882E-01  0.78253002330E-01  0.64665704952E-01  0.88796381835E+00  0.88000000000E+00 0.  1.
        -11    1    4    4    0    0 -0.40696944818E-01 -0.59724351347E-01 -0.68245892127E-01  0.99403231208E-01  0.51100000000E-03 0.  1.
         11    1    4    4    0    0 -0.22634147237E-01 -0.13306257474E-01 -0.19573124801E-01  0.32752548673E-01  0.51100000000E-03 0. -1.
</event>
<event>
 8    1  0.1157726E+005  0.1043930E+01  0.7957747E-01            NaN
         13   -1    0    0    0    0  0.00000000000E+00  0.00000000000E+00  0.74505805969E-08  0.10566000000E+00  0.10566000000E+00 0. -1.
     999900   -1    0    0    0    0 -0.00000000000E+00 -0.00000000000E+00 -0.74505805969E-08  0.93827000000E+00  0.93827000000E+00 0.  1.
     999902    2    1    2    0    0  0.18150775146E-01  0.14828127504E-01 -0.12690681235E-02  0.10204580052E+01  0.10201880248E+01 0.  0.
     999903    2    3    3    0    0 -0.14090192366E-01 -0.83505337773E-02 -0.12819308859E+00  0.13046562478E+00  0.17875859491E-01 0.  0.
         14    1    1    2    0    0 -0.18150775146E-01 -0.14828127504E-01  0.12690681235E-02  0.23471994750E-01  0.00000000000E+00 0. -1.
     999901    1    3    3    0    0  0.32240967512E-01  0.23178661281E-01  0.12692402046E+00  0.88999238047E+00  0.88000000000E+00 0. -1.
        -11    1    4    4    0    0 -0.25350105578E-02  0.31466643862E-02 -0.67402865827E-01  0.67525811494E-01  0.51100000000E-03 0. -1.
         11    1    4    4    0    0 -0.11555181809E-01 -0.11497198163E-01 -0.60790222759E-01  0.62939813285E-01  0.51100000000E-03 0.  1.
</event>
<event>
 8    1  0.1157726E+005  0.1043930E+01  0.7957747E-01            NaN
         13   -1    0    0    0    0  0.00000000000E+00  0.00000000000E+00  0.74505805969E-08  0.10566000000E+00  0.10566000000E+00 0. -1.
     999900   -1    0    0    0    0 -0.00000000000E+00 -0.00000000000E+00 -0.74505805969E-08  0.93827000000E+00  0.93827000000E+00 0.  1.
     999902    2    1    2    0    0 -0.19582135067E-01 -0.30771377465E-01 -0.92745334924E-02  0.10062955124E+01  0.10055915193E+01 0.  0.
     999903    2    3    3    0    0  0.58798812111E-01 -0.30861317137E-01 -0.96103644839E-01  0.11855519252E+00  0.20241094878E-01 0.  0.
         14    1    1    2    0    0  0.19582135067E-01  0.30771377465E-01  0.92745334924E-02  0.37634487593E-01  0.00000000000E+00 0. -1.
     999901    1    3    3    0    0 -0.78380947178E-01  0.89939672256E-04  0.86829111347E-01  0.88774031988E+00  0.88000000000E+00 0. -1.
        -11    1    4    4    0    0  0.24822545554E-01 -0.23411020270E-01 -0.54768842406E-01  0.64530007417E-01  0.51100000000E-03 0. -1.
         11    1    4    4    0    0  0.33976266556E-01 -0.74502968674E-02 -0.41334802434E-01  0.54025185106E-01  0.51100000000E-03 0.  1.
</event>
<event>
 8    1  0.1157726E+005  0.1043930E+01  0.7957747E-01            NaN
         13   -1    0    0    0    0  0.00000000000E+00  0.00000000000E+00  0.74505805969E-08  0.10566000000E+00  0.10566000000E+00 0. -1.
     999900   -1    0    0    0    0 -0.00000000000E+00 -0.00000000000E+00 -0.74505805969E-08  0.93827000000E+00  0.93827000000E+00 0.  1.
     999902    2    1    2    0    0  0.41830703900E-02 -0.20974760537E-01 -0.11346780007E-01  0.10197186788E+01  0.10194312119E+01 0.  0.
     999903    2    3    3    0    0  0.73912696489E-01  0.59233045840E-01 -0.88382992376E-01  0.12998271180E+00  0.10597716976E-01 0.  0.
         14    1    1    2    0    0 -0.41830703900E-02  0.20974760537E-01  0.11346780007E-01  0.24211321195E-01  0.00000000000E+00 0. -1.
     999901    1    3    3    0    0 -0.69729626098E-01 -0.80207806376E-01  0.77036212368E-01  0.88973596700E+00  0.88000000000E+00 0. -1.
        -11    1    4    4    0    0  0.43974234572E-01  0.31583398950E-01 -0.56334654551E-01  0.78135131789E-01  0.51100000000E-03 0.  1.
         11    1    4    4    0    0  0.29938461916E-01  0.27649646890E-01 -0.32048337825E-01  0.51847580015E-01  0.51100000000E-03 0. -1.
</event>
<event>
 8    1  0.1157726E+005  0.1043930E+01  0.7957747E-01            NaN
         13   -1    0    0    0    0  0.00000000000E+00  0.00000000000E+00  0.74505805969E-08  0.10566000000E+00  0.10566000000E+00 0. -1.
     999900   -1    0    0    0    0 -0.00000000000E+00 -0.00000000000E+00 -0.74505805969E-08  0.93827000000E+00  0.93827000000E+00 0. -1.
     999902    2    1    2    0    0  0.99153174531E-02 -0.13507429242E-01 -0.16083839910E-01  0.10207038494E+01  0.10204395593E+01 0.  0.
     999903    2    3    3    0    0  0.45316100078E-01  0.11482711908E-01  0.11895524621E+00  0.12934910670E+00  0.19885653258E-01 0.  0.
         14    1    1    2    0    0 -0.99153174531E-02  0.13507429242E-01  0.16083839910E-01  0.23226150589E-01  0.00000000000E+00 0. -1.
     999901    1    3    3    0    0 -0.35400782625E-01 -0.24990141151E-01 -0.13503908612E+00  0.89135474271E+00  0.88000000000E+00 0. -1.
        -11    1    4    4    0    0  0.28113419905E-01 -0.10086736430E-02  0.82240639193E-01  0.86920455919E-01  0.51100000000E-03 0.  1.
         11    1    4    4    0    0  0.17202680173E-01  0.12491385551E-01  0.36714607016E-01  0.42428650785E-01  0.51100000000E-03 0. -1.
</event>
<event>
 8    1  0.1157726E+005  0.1043930E+01  0.7957747E-01            NaN
         13   -1    0    0    0    0  0.00000000000E+00  0.00000000000E+00  0.74505805969E-08  0.10566000000E+00  0.10566000000E+00 0. -1.
     999900   -1    0    0    0    0 -0.00000000000E+00 -0.00000000000E+00 -0.74505805969E-08  0.93827000000E+00  0.93827000000E+00 0.  1.
     999902    2    1    2    0    0 -0.20077678531E-01  0.12321956149E-01  0.52743152650E-02  0.10197895323E+01  0.10195037656E+01 0.  0.
     999903    2    3    3    0    0  0.68255658263E-01  0.24414426301E-01 -0.10426969620E+00  0.12852700271E+00  0.19802065157E-01 0.  0.
         14    1    1    2    0    0  0.20077678531E-01 -0.12321956149E-01 -0.52743152650E-02  0.24140467686E-01  0.00000000000E+00 0. -1.
     999901    1    3    3    0    0 -0.88333336795E-01 -0.12092470151E-01  0.10954401146E+00  0.89126252960E+00  0.88000000000E+00 0.  1.
        -11    1    4    4    0    0  0.35991654818E-02  0.53288866492E-02 -0.17462015212E-01  0.18615426972E-01  0.51100000000E-03 0.  1.
         11    1    4    4    0    0  0.64656492781E-01  0.19085539652E-01 -0.86807680987E-01  0.10991157574E+00  0.51100000000E-03 0. -1.
</event>
<event>
 8    1  0.1157726E+005  0.1043930E+01  0.7957747E-01            NaN
         13   -1    0    0    0    0  0.00000000000E+00  0.00000000000E+00  0.74505805969E-08  0.10566000000E+00  0.10566000000E+00 0. -1.
     999900   -1    0    0    0    0 -0.00000000000E+00 -0.00000000000E+00 -0.74505805969E-08  0.93827000000E+00  0.93827000000E+00 0. -1.
     999902    2    1    2    0    0 -0.62489216815E-02  0.87770307985E-02 -0.19566311086E-01  0.10215933525E+01  0.10213491333E+01 0.  0.
     999903    2    3    3    0    0  0.32512253939E-01 -0.11719093077E-01  0.12264791397E+00  0.12909830734E+00  0.20723859667E-01 0.  0.
         14    1    1    2    0    0  0.62489216815E-02 -0.87770307985E-02  0.19566311086E-01  0.22336647496E-01  0.00000000000E+00 0. -1.
     999901    1    3    3    0    0 -0.38761175621E-01  0.20496123875E-01 -0.14221422505E+00  0.89249504516E+00  0.88000000000E+00 0. -1.
        -11    1    4    4    0    0  0.10213480431E-01  0.57529768914E-02  0.42490048864E-01  0.44080350488E-01  0.51100000000E-03 0.  1.
         11    1    4    4    0    0  0.22298773508E-01 -0.17472069968E-01  0.80157865103E-01  0.85017956855E-01  0.51100000000E-03 0. -1.
</event>
<event>
 8    1  0.1157726E+005  0.1043930E+01  0.7957747E-01            NaN
         13   -1    0    0    0    0  0.00000000000E+00  0.00000000000E+00  0.74505805969E-08  0.10566000000E+00  0.10566000000E+00 0. -1.
     999900   -1    0    0    0    0 -0.00000000000E+00 -0.00000000000E+00 -0.74505805969E-08  0.93827000000E+00  0.93827000000E+00 0.  1.
     999902    2    1    2    0    0  0.18388569506E-01  0.11690610957E-01 -0.78924199586E-02  0.10207545784E+01  0.10204914547E+01 0.  0.
     999903    2    3    3    0    0 -0.66188440545E-01  0.11083608334E+00  0.81914535459E-02  0.13101203907E+00  0.20772757143E-01 0.  0.
         14    1    1    2    0    0 -0.18388569506E-01 -0.11690610957E-01  0.78924199586E-02  0.23175421589E-01  0.00000000000E+00 0. -1.
     999901    1    3    3    0    0  0.84577010051E-01 -0.99145472380E-01 -0.16083873505E-01  0.88974253934E+00  0.88000000000E+00 0. -1.
        -11    1    4    4    0    0 -0.33339609025E-01  0.73970100387E-01  0.89171027255E-02  0.81626473176E-01  0.51100000000E-03 0.  1.
         11    1    4    4    0    0 -0.32848831520E-01  0.36865982950E-01 -0.72564917951E-03  0.49385565896E-01  0.51100000000E-03 0. -1.
</event>
<event>
 8    1  0.1157726E+005  0.1043930E+01  0.7957747E-01            NaN
         13   -1    0    0    0    0  0.00000000000E+00  0.00000000000E+00  0.74505805969E-08  0.10566000000E+00  0.10566000000E+00 0. -1.
     999900   -1    0    0    0    0 -0.00000000000E+00 -0.00000000000E+00 -0.74505805969E-08  0.93827000000E+00  0.93827000000E+00 0. -1.
     999902    2    1    2    0    0  0.13956601452E-01  0.12966204168E-01  0.11187091802E-01  0.10218379155E+01  0.10215990727E+01 0.  0.
     999903    2    3    3    0    0 -0.61477731119E-01 -0.32148162535E-01 -0.10782667999E+00  0.12948713106E+00  0.18091667011E-01 0.  0.
         14    1    1    2    0    0 -0.13956601452E-01 -0.12966204168E-01 -0.11187091802E-01  0.22092084501E-01  0.00000000000E+00 0.  1.
     999901    1    3    3    0    0  0.75434332571E-01  0.45114366702E-01  0.11901377179E+00  0.89235078444E+00  0.88000000000E+00 0.  1.
        -11    1    4    4    0    0 -0.12882130023E-01 -0.10064157609E-01 -0.39707579978E-01  0.42944028351E-01  0.51100000000E-03 0. -1.
         11    1    4    4    0    0 -0.48595601096E-01 -0.22084004926E-01 -0.68119100009E-01  0.86543102709E-01  0.51100000000E-03 0.  1.
</event>
<event>
 8    1  0.1157726E+005  0.1043930E+01  0.7957747E-01            NaN
         13   -1    0    0    0    0  0.00000000000E+00  0.00000000000E+00  0.74505805969E-08  0.10566000000E+00  0.10566000000E+00 0.  1.
     999900   -1    0    0    0    0 -0.00000000000E+00 -0.00000000000E+00 -0.74505805969E-08  0.93827000000E+00  0.93827000000E+00 0.  1.
     999902    2    1    2    0    0  0.11918384084E-01  0.34192192759E-03 -0.29251351424E-01  0.10123419271E+01  0.10118489863E+01 0.  0.
     999903    2    3    3    0    0  0.64180527379E-01 -0.48433783371E-01  0.89071145327E-01  0.12154979967E+00  0.19383327964E-01 0.  0.
         14    1    1    2    0    0 -0.11918384084E-01 -0.34192192759E-03  0.29251351424E-01  0.31588072906E-01  0.00000000000E+00 0.  1.
     999901    1    3    3    0    0 -0.52262143295E-01  0.48775705299E-01 -0.11832249675E+00  0.89079212743E+00  0.88000000000E+00 0.  1.
        -11    1    4    4    0    0  0.56174701622E-02 -0.11158152069E-01  0.20233894387E-01  0.23785119964E-01  0.51100000000E-03 0.  1.
         11    1    4    4    0    0  0.58563057216E-01 -0.37275631302E-01  0.68837250940E-01  0.97764679703E-01  0.51100000000E-03 0. -1.
</event>
<event>
 8    1  0.1157726E+005  0.1043930E+01  0.7957747E-01            NaN
         13   -1    0    0    0    0  0.00000000000E+00  0.00000000000E+00  0.74505805969E-08  0.10566000000E+00  0.10566000000E+00 0. -1.
     999900   -1    0    0    0    0 -0.00000000000E+00 -0.00000000000E+00 -0.74505805969E-08  0.93827000000E+00  0.93827000000E+00 0. -1.
     999902    2    1    2    0    0  0.16666742657E-01 -0.12089040072E-01  0.10785735455E-01  0.10206865646E+01  0.10204218764E+01 0.  0.
     999903    2    3    3    0    0 -0.97816289017E-01 -0.37384979664E-01  0.75435564654E-01  0.13055969188E+00  0.19739443418E-01 0.  0.
         14    1    1    2    0    0 -0.16666742657E-01  0.12089040072E-01 -0.10785735455E-01  0.23243435417E-01  0.00000000000E+00 0. -1.
     999901    1    3    3    0    0  0.11448303167E+00  0.25295939591E-01 -0.64649829198E-01  0.89012687271E+00  0.88000000000E+00 0. -1.
        -11    1    4    4    0    0 -0.71485920573E-01 -0.25786625244E-01  0.43473648963E-01  0.87552305263E-01  0.51100000000E-03 0. -1.
         11    1    4    4    0    0 -0.26330368444E-01 -0.11598354420E-01  0.31961915690E-01  0.43007386613E-01  0.51100000000E-03 0.  1.
</event>
<event>
 8    1  0.1157726E+005  0.1043930E+01  0.7957747E-01            NaN
         13   -1    0    0    0    0  0.00000000000E+00  0.00000000000E+00  0.74505805969E-08  0.10566000000E+00  0.10566000000E+00 0. -1.
     999900   -1    0    0    0    0 -0.00000000000E+00 -0.00000000000E+00 -0.74505805969E-08  0.93827000000E+00  0.93827000000E+00 0.  1.
     999902    2    1    2    0    0  0.10645913283E-02  0.18057622503E-01 -0.17143371534E-01  0.10190079962E+01  0.10187031904E+01 0.  0.
     999903    2    3    3    0    0 -0.47869225127E-01 -0.81133334774E-01  0.82117086665E-01  0.12654735117E+00  0.19923238664E-01 0.  0.
         14    1    1    2    0    0 -0.10645913283E-02 -0.18057622503E-01  0.17143371534E-01  0.24922003786E-01  0.00000000000E+00 0. -1.
     999901    1    3    3    0    0  0.48933816456E-01  0.99190957277E-01 -0.99260458199E-01  0.89246064505E+00  0.88000000000E+00 0.  1.
        -11    1    4    4    0    0 -0.27676209449E-01 -0.30749869054E-01  0.42754576774E-01  0.59495730707E-01  0.51100000000E-03 0.  1.
         11    1    4    4    0    0 -0.20193015679E-01 -0.50383465720E-01  0.39362509891E-01  0.67051620458E-01  0.51100000000E-03 0. -1.
</event>
<event>
 8    1  0.1157726E+005  0.1043930E+01  0.7957747E-01            NaN
         13   -1    0    0    0    0  0.00000000000E+00  0.00000000000E+00  0.74505805969E-08  0.10566000000E+00  0.10566000000E+00 0. -1.
     999900   -1    0    0    0    0 -0.00000000000E+00 -0.00000000000E+00 -0.74505805969E-08  0.93827000000E+00  0.93827000000E+00 0.  1.
     999902    2    1    2    0    0 -0.23493691255E-01  0.42762117446E-02 -0.31532439077E-02  0.10198430230E+01  0.10195585363E+01 0.  0.
     999903    2    3    3    0    0 -0.11188149241E-01 -0.11867411554E+00 -0.48659291039E-01  0.13004584963E+00  0.18316004434E-01 0.  0.
         14    1    1    2    0    0  0.23493691255E-01 -0.42762117446E-02  0.31532439077E-02  0.24086977038E-01  0.00000000000E+00 0. -1.
     999901    1    3    3    0    0 -0.12305542014E-01  0.12295032729E+00  0.45506047131E-01  0.88979717333E+00  0.88000000000E+00 0.  1.
        -11    1    4    4    0    0 -0.57342725155E-02 -0.24974369871E-01 -0.17950140773E-01  0.31290089590E-01  0.51100000000E-03 0.  1.
         11    1    4    4    0    0 -0.54538767255E-02 -0.93699745671E-01 -0.30709150266E-01  0.98755760041E-01  0.51100000000E-03 0. -1.
</event>
<event>
 8    1  0.1157726E+005  0.1043930E+01  0.7957747E-01            NaN
         13   -1    0    0    0    0  0.00000000000E+00  0.00000000000E+00  0.74505805969E-08  0.10566000000E+00  0.10566000000E+00 0.  1.
     999900   -1    0    0    0    0 -0.00000000000E+00 -0.00000000000E+00 -0.74505805969E-08  0.93827000000E+00  0.93827000000E+00 0. -1.
     999902    2    1    2    0    0 -0.12367038933E-01  0.20268457055E-01 -0.46041093250E-02  0.10197442226E+01  0.10194573693E+01 0.  0.
     999903    2    3    3    0    0 -0.32456455861E-01 -0.66406331357E-01 -0.10442323461E+00  0.12964312649E+00  0.20973934970E-01 0.  0.
         14    1    1    2    0    0  0.12367038933E-01 -0.20268457055E-01  0.46041093250E-02  0.24185777350E-01  0.00000000000E+00 0.  1.
     999901    1    3    3    0    0  0.20089416928E-01  0.86674788412E-01  0.99819125282E-01  0.89010109616E+00  0.88000000000E+00 0.  1.
        -11    1    4    4    0    0 -0.10486789924E-01 -0.24936128409E-01 -0.56078028756E-01  0.62263871492E-01  0.51100000000E-03 0. -1.
         11    1    4    4    0    0 -0.21969665937E-01 -0.41470202948E-01 -0.48345205850E-01  0.67379254995E-01  0.51100000000E-03 0.  1.
</event>
<event>
 8    1  0.1157726E+005  0.1043930E+01  0.7957747E-01            NaN
         13   -1    0    0    0    0  0.00000000000E+00  0.00000000000E+00  0.74505805969E-08  0.10566000000E+00  0.10566000000E+00 0. -1.
     999900   -1    0    0    0    0 -0.00000000000E+00 -0.00000000000E+00 -0.74505805969E-08  0.93827000000E+00  0.93827000000E+00 0. -1.
     999902    2    1    2    0    0  0.10421761719E-01  0.20289992490E-01 -0.93708208800E-02  0.10192701298E+01  0.10189717800E+01 0.  0.
     999903    2    3    3    0    0  0.60614041765E-01  0.45164561991E-01  0.10394709244E+00  0.13023753276E+00  0.21045597957E-01 0.  0.
         14    1    1    2    0    0 -0.10421761719E-01 -0.20289992490E-01  0.93708208800E-02  0.24659870165E-01  0.00000000000E+00 0.  1.
     999901    1    3    3    0    0 -0.50192280046E-01 -0.24874569501E-01 -0.11331791332E+00  0.88903259708E+00  0.88000000000E+00 0. -1.
        -11    1    4    4    0    0  0.11308626771E-01  0.42103766983E-02  0.30213586944E-01  0.32538197068E-01  0.51100000000E-03 0. -1.
         11    1    4    4    0    0  0.49305414994E-01  0.40954185293E-01  0.73733505496E-01  0.97699335691E-01  0.51100000000E-03 0.  1.
</event>
<event>
 8    1  0.1157726E+005  0.1043930E+01  0.7957747E-01            NaN
         13   -1    0    0    0    0  0.00000000000E+00  0.00000000000E+00  0.74505805969E-08  0.10566000000E+00  0.10566000000E+00 0.  1.
     999900   -1    0    0    0    0 -0.00000000000E+00 -0.00000000000E+00 -0.74505805969E-08  0.93827000000E+00  0.93827000000E+00 0. -1.
     999902    2    1    2    0    0  0.12276531912E-01  0.18206742134E-01 -0.13989816423E-01  0.10178932249E+01  0.10175601720E+01 0.  0.
     999903    2    3    3    0    0 -0.12143662611E+00 -0.20625435961E-01  0.19637851010E-01  0.12631150305E+00  0.19917023889E-01 0.  0.
         14    1    1    2    0    0 -0.12276531912E-01 -0.18206742134E-01  0.13989816423E-01  0.26036775117E-01  0.00000000000E+00 0.  1.
     999901    1    3    3    0    0  0.13371315803E+00  0.38832178095E-01 -0.33627667433E-01  0.89158172183E+00  0.88000000000E+00 0. -1.
        -11    1    4    4    0    0 -0.55529308852E-01 -0.77408713486E-05  0.12174432053E-01  0.56850524345E-01  0.51100000000E-03 0.  1.
         11    1    4    4    0    0 -0.65907317263E-01 -0.20617695089E-01  0.74634189562E-02  0.69460978708E-01  0.51100000000E-03 0. -1.
</event>
<event>
 8    1  0.1157726E+005  0.1043930E+01  0.7957747E-01            NaN
         13   -1    0    0    0    0  0.00000000000E+00  0.00000000000E+00  0.74505805969E-08  0.10566000000E+00  0.10566000000E+00 0. -1.
     999900   -1    0    0    0    0 -0.00000000000E+00 -0.00000000000E+00 -0.74505805969E-08  0.93827000000E+00  0.93827000000E+00 0. -1.
     999902    2    1    2    0    0  0.60989726675E-02  0.21507642505E-01  0.10384934127E-01  0.10192799896E+01  0.10189818812E+01 0.  0.
     999903    2    3    3    0    0  0.10477293413E+00  0.73810706083E-01  0.25535752284E-01  0.13209246244E+00  0.19260216252E-01 0.  0.
         14    1    1    2    0    0 -0.60989726675E-02 -0.21507642505E-01 -0.10384934127E-01  0.24650010356E-01  0.00000000000E+00 0. -1.
     999901    1    3    3    0    0 -0.98673961466E-01 -0.52303063578E-01 -0.15150818157E-01  0.88718752720E+00  0.88000000000E+00 0.  1.
        -11    1    4    4    0    0  0.65912993416E-01  0.39071722725E-01  0.77522945120E-02  0.77016111360E-01  0.51100000000E-03 0. -1.
         11    1    4    4    0    0  0.38859940718E-01  0.34738983358E-01  0.17783457772E-01  0.55076351083E-01  0.51100000000E-03 0.  1.
</event>
<event>
 8    1  0.1157726E+005  0.1043930E+01  0.7957747E-01            NaN
         13   -1    0    0    0    0  0.00000000000E+00  0.00000000000E+00  0.74505805969E-08  0.10566000000E+00  0.10566000000E+00 0. -1.
     999900   -1    0    0    0    0 -0.00000000000E+00 -0.00000000000E+00 -0.74505805969E-08  0.93827000000E+00  0.93827000000E+00 0. -1.
     999902    2    1    2    0    0 -0.11147115317E-01  0.73965817347E-02 -0.19288785218E-01  0.10204560818E+01  0.10201860566E+01 0.  0.
     999903    2    3    3    0    0  0.37246317791E-01  0.24134600693E-01 -0.12360687289E+00  0.13281631867E+00  0.19792633457E-01 0.  0.
         14    1    1    2    0    0  0.11147115317E-01 -0.73965817347E-02  0.19288785218E-01  0.23473918216E-01  0.00000000000E+00 0. -1.
     999901    1    3    3    0    0 -0.48393433107E-01 -0.16738018959E-01  0.10431808767E+00  0.88763976311E+00  0.88000000000E+00 0.  1.
        -11    1    4    4    0    0  0.30103105819E-01  0.85359488236E-02 -0.74950592573E-01  0.81221375575E-01  0.51100000000E-03 0.  1.
         11    1    4    4    0    0  0.71432119718E-02  0.15598651870E-01 -0.48656280318E-01  0.51594943094E-01  0.51100000000E-03 0. -1.
</event>
<event>
 8    1  0.1157726E+005  0.1043930E+01  0.7957747E-01            NaN
         13   -1    0    0    0    0  0.00000000000E+00  0.00000000000E+00  0.74505805969E-08  0.10566000000E+00  0.10566000000E+00 0.  1.
     999900   -1    0    0    0    0 -0.00000000000E+00 -0.00000000000E+00 -0.74505805969E-08  0.93827000000E+00  0.93827000000E+00 0. -1.
     999902    2    1    2    0    0 -0.12995338019E-01  0.72047975248E-02 -0.18724703387E-01  0.10200259745E+01  0.10197458439E+01 0.  0.
     999903    2    3    3    0    0  0.11658794216E+00 -0.32184109723E-01 -0.41318892830E-01  0.12937800258E+00  0.20071160176E-01 0.  0.
         14    1    1    2    0    0  0.12995338019E-01 -0.72047975248E-02  0.18724703387E-01  0.23904025488E-01  0.00000000000E+00 0.  1.
     999901    1    3    3    0    0 -0.12958328018E+00  0.39388907247E-01  0.22594189443E-01  0.89064797194E+00  0.88000000000E+00 0. -1.
        -11    1    4    4    0    0  0.85288239742E-01 -0.25209461211E-01 -0.20906407371E-01  0.91361588006E-01  0.51100000000E-03 0.  1.
         11    1    4    4    0    0  0.31299702416E-01 -0.69746485114E-02 -0.20412485459E-01  0.38016414571E-01  0.51100000000E-03 0. -1.
</event>
<event>
 8    1  0.1157726E+005  0.1043930E+01  0.7957747E-01            NaN
         13   -1    0    0    0    0  0.00000000000E+00  0.00000000000E+00  0.74505805969E-08  0.10566000000E+00  0.10566000000E+00 0.  1.
     999900   -1    0    0    0    0 -0.00000000000E+00 -0.00000000000E+00 -0.74505805969E-08  0.93827000000E+00  0.93827000000E+00 0. -1.
     999902    2    1    2    0    0 -0.99722523894E-02 -0.13840081281E-01  0.13500845090E-01  0.10221753112E+01  0.10219437853E+01 0.  0.
     999903    2    3    3    0    0 -0.29619762083E-01  0.78716984033E-01  0.10079157044E+00  0.13280896051E+00  0.20139151872E-01 0.  0.
         14    1    1    2    0    0  0.99722523894E-02  0.13840081281E-01 -0.13500845090E-01  0.21754688822E-01  0.00000000000E+00 0. -1.
     999901    1    3    3    0    0  0.19647509693E-01 -0.92557065314E-01 -0.87290725349E-01  0.88936635067E+00  0.88000000000E+00 0. -1.
        -11    1    4    4    0    0 -0.24747780904E-01  0.37589653851E-01  0.50076721434E-01  0.67330334077E-01  0.51100000000E-03 0. -1.
         11    1    4    4    0    0 -0.48719811788E-02  0.41127330181E-01  0.50714849004E-01  0.65478626429E-01  0.51100000000E-03 0.  1.
</event>
<event>
 8    1  0.1157726E+005  0.1043930E+01  0.7957747E-01            NaN
         13   -1    0    0    0    0  0.00000000000E+00  0.00000000000E+00  0.74505805969E-08  0.10566000000E+00  0.10566000000E+00 0.  1.
     999900   -1    0    0    0    0 -0.00000000000E+00 -0.00000000000E+00 -0.74505805969E-08  0.93827000000E+00  0.93827000000E+00 0.  1.
     999902    2    1    2    0    0  0.14038388904E-01 -0.20405744106E-01  0.91784622870E-02  0.10175157060E+01  0.10171727961E+01 0.  0.
     999903    2    3    3    0    0 -0.59785818501E-02 -0.66922532069E-01  0.10984120466E+00  0.13033056280E+00  0.20164241071E-01 0.  0.
         14    1    1    2    0    0 -0.14038388904E-01  0.20405744106E-01 -0.91784622870E-02  0.26414293962E-01  0.00000000000E+00 0. -1.
     999901    1    3    3    0    0  0.20016970754E-01  0.46516787963E-01 -0.10066274238E+00  0.88718514324E+00  0.88000000000E+00 0.  1.
        -11    1    4    4    0    0 -0.46634990026E-02 -0.22987105504E-01  0.56716526585E-01  0.61377363509E-01  0.51100000000E-03 0.  1.
         11    1    4    4    0    0 -0.13150828475E-02 -0.43935426566E-01  0.53124678079E-01  0.68953199291E-01  0.51100000000E-03 0. -1.
</event>
<event>
 8    1  0.1157726E+005  0.1043930E+01  0.7957747E-01            NaN
         13   -1    0    0    0    0  0.00000000000E+00  0.00000000000E+00  0.74505805969E-08  0.10566000000E+00  0.10566000000E+00 0. -1.
     999900   -1    0    0    0    0 -0.00000000000E+00 -0.00000000000E+00 -0.74505805969E-08  0.93827000000E+00  0.93827000000E+00 0.  1.
     999902    2    1    2    0    0 -0.14972135820E-01  0.15631090393E-01  0.14763052717E-01  0.10177299320E+01  0.10173926336E+01 0.  0.
     999903    2    3    3    0    0  0.72801267290E-01 -0.92518416370E-01  0.41220126955E-01  0.12638237751E+00  0.20340221061E-01 0.  0.
         14    1    1    2    0    0  0.14972135820E-01 -0.15631090393E-01 -0.14763052717E-01  0.26200068004E-01  0.00000000000E+00 0.  1.
     999901    1    3    3    0    0 -0.87773403110E-01  0.10814950676E+00 -0.26457074238E-01  0.89134755448E+00  0.88000000000E+00 0. -1.
        -11    1    4    4    0    0  0.69350102235E-01 -0.89564107242E-01  0.43415585931E-01  0.12131092370E+00  0.51100000000E-03 0.  1.
         11    1    4    4    0    0  0.34511650558E-02 -0.29543091280E-02 -0.21954589759E-02  0.50714538134E-02  0.51100000000E-03 0. -1.
</event>
<event>
 8    1  0.1157726E+005  0.1043930E+01  0.7957747E-01            NaN
         13   -1    0    0    0    0  0.00000000000E+00  0.00000000000E+00  0.74505805969E-08  0.10566000000E+00  0.10566000000E+00 0.  1.
     999900   -1    0    0    0    0 -0.00000000000E+00 -0.00000000000E+00 -0.74505805969E-08  0.93827000000E+00  0.93827000000E+00 0. -1.
     999902    2    1    2    0    0  0.25246673185E-02 -0.38419067221E-02 -0.23594542089E-01  0.10198917678E+01  0.10196084451E+01 0.  0.
     999903    2    3    3    0    0  0.20380533869E-01  0.12231511421E+00  0.28769871105E-01  0.12917494539E+00  0.21956951270E-01 0.  0.
         14    1    1    2    0    0 -0.25246673185E-02  0.38419067221E-02  0.23594542089E-01  0.24038232229E-01  0.00000000000E+00 0.  1.
     999901    1    3    3    0    0 -0.17855866550E-01 -0.12615702093E+00 -0.52364413194E-01  0.89071682238E+00  0.88000000000E+00 0. -1.
        -11    1    4    4    0    0 -0.18722089000E-02  0.40370709383E-01  0.34382518016E-02  0.40563309020E-01  0.51100000000E-03 0.  1.
         11    1    4    4    0    0  0.22252742769E-01  0.81944404825E-01  0.25331619303E-01  0.88611636371E-01  0.51100000000E-03 0. -1.
</event>
<event>
 8    1  0.1157726E+005  0.1043930E+01  0.7957747E-01            NaN
         13   -1    0    0    0    0  0.00000000000E+00  0.00000000000E+00  0.74505805969E-08  0.10566000000E+00  0.10566000000E+00 0.  1.
     999900   -1    0    0    0    0 -0.00000000000E+00 -0.00000000000E+00 -0.74505805969E-08  0.93827000000E+00  0.93827000000E+00 0. -1.
     999902    2    1    2    0    0 -0.15806626996E-01 -0.16764342710E-01 -0.89515071637E-02  0.10192111383E+01  0.10189113417E+01 0.  0.
     999903    2    3    3    0    0 -0.11467482014E+00 -0.25430504079E-01 -0.57530569128E-01  0.13230080053E+00  0.19917593396E-01 0.  0.
         14    1    1    2    0    0  0.15806626996E-01  0.16764342710E-01  0.89515071637E-02  0.24718861705E-01  0.00000000000E+00 0.  1.
     999901    1    3    3    0    0  0.98868193140E-01  0.86661613680E-02  0.48579061964E-01  0.88691033776E+00  0.88000000000E+00 0.  1.
        -11    1    4    4    0    0 -0.69292456059E-01 -0.23907349551E-01 -0.30054036467E-01  0.79224441040E-01  0.51100000000E-03 0.  1.
         11    1    4    4    0    0 -0.45382364077E-01 -0.15231545273E-02 -0.27476532661E-01  0.53076359493E-01  0.51100000000E-03 0. -1.
</event>
<event>
 7    1  0.1157726E+005  0.1043930E+01  0.7957747E-01            NaN
         13   -1    0    0    0    0  0.00000000000E+00  0.00000000000E+00  0.74505805969E-08  0.10566000000E+00  0.10566000000E+00 0. -1.
     999900   -1    0    0    0    0 -0.00000000000E+00 -0.00000000000E+00 -0.74505805969E-08  0.93827000000E+00  0.93827000000E+00 0.  1.
     999903    2    1    2    0    0  0.77986902997E-01  0.47077499327E-01  0.33050521990E-01  0.99009363602E-01  0.20304410730E-01 0.  0.
         14    1    1    2    0    0  0.31088179710E-01  0.33186195769E-01  0.26396137108E-01  0.52579031576E-01  0.00000000000E+00 0.  1.
     999901    1    1    2    0    0 -0.10907508271E+00 -0.80263695096E-01 -0.59446659098E-01  0.89234160482E+00  0.88000000000E+00 0.  1.
        -11    1    3    3    0    0  0.47912599486E-01  0.35779476348E-01  0.29508093222E-01  0.66684157068E-01  0.51100000000E-03 0.  1.
         11    1    3    3    0    0  0.30074303511E-01  0.11298022979E-01  0.35424287681E-02  0.32325206534E-01  0.51100000000E-03 0. -1.
</event>
<event>
 8    1  0.1157726E+005  0.1043930E+01  0.7957747E-01            NaN
         13   -1    0    0    0    0  0.00000000000E+00  0.00000000000E+00  0.74505805969E-08  0.10566000000E+00  0.10566000000E+00 0. -1.
     999900   -1    0    0    0    0 -0.00000000000E+00 -0.00000000000E+00 -0.74505805969E-08  0.93827000000E+00  0.93827000000E+00 0. -1.
     999902    2    1    2    0    0 -0.20445898482E-01  0.40786771963E-02 -0.10556834467E-01  0.10205608510E+01  0.10202932585E+01 0.  0.
     999903    2    3    3    0    0  0.26217984595E-01  0.82787308754E-02  0.12427087479E+00  0.12906005477E+00  0.21385212525E-01 0.  0.
         14    1    1    2    0    0  0.20445898482E-01 -0.40786771963E-02  0.10556834467E-01  0.23369149030E-01  0.00000000000E+00 0. -1.
     999901    1    3    3    0    0 -0.46663883077E-01 -0.42000536791E-02 -0.13482770926E+00  0.89150079620E+00  0.88000000000E+00 0. -1.
        -11    1    4    4    0    0  0.48176936595E-02 -0.38713078971E-02  0.58611348783E-01  0.58938514777E-01  0.51100000000E-03 0. -1.
         11    1    4    4    0    0  0.21400290936E-01  0.12150038772E-01  0.65659526012E-01  0.70121539996E-01  0.51100000000E-03 0.  1.
</event>
<event>
 8    1  0.1157726E+005  0.1043930E+01  0.7957747E-01            NaN
         13   -1    0    0    0    0  0.00000000000E+00  0.00000000000E+00  0.74505805969E-08  0.10566000000E+00  0.10566000000E+00 0.  1.
     999900   -1    0    0    0    0 -0.00000000000E+00 -0.00000000000E+00 -0.74505805969E-08  0.93827000000E+00  0.93827000000E+00 0.  1.
     999902    2    1    2    0    0  0.94136905793E-02  0.15511543411E-01 -0.14763875157E-01  0.10205377457E+01  0.10202696178E+01 0.  0.
     999903    2    3    3    0    0 -0.56653621559E-01 -0.11056741660E+00  0.24150679474E-01  0.12825128028E+00  0.20744857805E-01 0.  0.
         14    1    1    2    0    0 -0.94136905793E-02 -0.15511543411E-01  0.14763875157E-01  0.23392254252E-01  0.00000000000E+00 0. -1.
     999901    1    3    3    0    0  0.66067312138E-01  0.12607896001E+00 -0.38914554632E-01  0.89228646547E+00  0.88000000000E+00 0.  1.
        -11    1    4    4    0    0 -0.46246827490E-02 -0.13513554280E-02 -0.19476186569E-03  0.48490107451E-02  0.51100000000E-03 0.  1.
         11    1    4    4    0    0 -0.52028938810E-01 -0.10921606117E+00  0.24345441340E-01  0.12340226954E+00  0.51100000000E-03 0. -1.
</event>
<event>
 8    1  0.1157726E+005  0.1043930E+01  0.7957747E-01            NaN
         13   -1    0    0    0    0  0.00000000000E+00  0.00000000000E+00  0.74505805969E-08  0.10566000000E+00  0.10566000000E+00 0. -1.
     999900   -1    0    0    0    0 -0.00000000000E+00 -0.00000000000E+00 -0.74505805969E-08  0.93827000000E+00  0.93827000000E+00 0.  1.
     999902    2    1    2    0    0 -0.20286627404E-01 -0.28818583281E-02 -0.77491317288E-02  0.10220233480E+01  0.10217885410E+01 0.  0.
     999903    2    3    3    0    0 -0.21886727137E-01  0.80859545545E-01 -0.10153057446E+00  0.13308570000E+00  0.19648182207E-01 0.  0.
         14    1    1    2    0    0  0.20286627404E-01  0.28818583281E-02  0.77491317288E-02  0.21906651990E-01  0.00000000000E+00 0.  1.
     999901    1    3    3    0    0  0.16000997321E-02 -0.83741403874E-01  0.93781442734E-01  0.88893764801E+00  0.88000000000E+00 0. -1.
        -11    1    4    4    0    0 -0.22348529942E-01  0.49168370956E-01 -0.58234643441E-01  0.79426194109E-01  0.51100000000E-03 0. -1.
         11    1    4    4    0    0  0.46180280594E-03  0.31691174590E-01 -0.43295931022E-01  0.53659505894E-01  0.51100000000E-03 0.  1.
</event>
<event>
 8    1  0.1157726E+005  0.1043930E+01  0.7957747E-01            NaN
         13   -1    0    0    0    0  0.00000000000E+00  0.00000000000E+00  0.74505805969E-08  0.10566000000E+00  0.10566000000E+00 0.  1.
     999900   -1    0    0    0    0 -0.00000000000E+00 -0.00000000000E+00 -0.74505805969E-08  0.93827000000E+00  0.93827000000E+00 0.  1.
     999902    2    1    2    0    0 -0.51022858524E-02 -0.22815653848E-01 -0.64111765685E-02  0.10196876699E+01  0.10193994574E+01 0.  0.
     999903    2    3    3    0    0 -0.11526280584E+00  0.47368171117E-01  0.28952480348E-01  0.12934408588E+00  0.19036501488E-01 0.  0.
         14    1    1    2    0    0  0.51022858524E-02  0.22815653848E-01  0.64111765685E-02  0.24242330054E-01  0.00000000000E+00 0.  1.
     999901    1    3    3    0    0  0.11016051999E+00 -0.70183824965E-01 -0.35363656917E-01  0.89034358406E+00  0.88000000000E+00 0. -1.
        -11    1    4    4    0    0 -0.63348819805E-01  0.18198026049E-01  0.21492878216E-01  0.69328537110E-01  0.51100000000E-03 0.  1.
         11    1    4    4    0    0 -0.51913986038E-01  0.29170145067E-01  0.74596021322E-02  0.60015548774E-01  0.51100000000E-03 0. -1.
</event>
<event>
 8    1  0.1157726E+005  0.1043930E+01  0.7957747E-01            NaN
         13   -1    0    0    0    0  0.00000000000E+00  0.00000000000E+00  0.74505805969E-08  0.10566000000E+00  0.10566000000E+00 0.  1.
     999900   -1    0    0    0    0 -0.00000000000E+00 -0.00000000000E+00 -0.74505805969E-08  0.93827000000E+00  0.93827000000E+00 0. -1.
     999902    2    1    2    0    0 -0.34655639820E-02  0.22300164355E-01 -0.93200386538E-03  0.10213429219E+01  0.10210931339E+01 0.  0.
     999903    2    3    3    0    0 -0.67429331967E-01 -0.10632806131E+00  0.22710525904E-01  0.12938128977E+00  0.19271188961E-01 0.  0.
         14    1    1    2    0    0  0.34655639820E-02 -0.22300164355E-01  0.93200386538E-03  0.22587078058E-01  0.00000000000E+00 0. -1.
     999901    1    3    3    0    0  0.63963767985E-01  0.12862822567E+00 -0.23642529769E-01  0.89196163217E+00  0.88000000000E+00 0. -1.
        -11    1    4    4    0    0 -0.22174975632E-02 -0.61894635146E-02  0.56191171372E-02  0.86638532099E-02  0.51100000000E-03 0.  1.
         11    1    4    4    0    0 -0.65211834403E-01 -0.10013859780E+00  0.17091408767E-01  0.12071743656E+00  0.51100000000E-03 0. -1.
</event>
<event>
 8    1  0.1157726E+005  0.1043930E+01  0.7957747E-01            NaN
         13   -1    0    0    0    0  0.00000000000E+00  0.00000000000E+00  0.74505805969E-08  0.10566000000E+00  0.10566000000E+00 0.  1.
     999900   -1    0    0    0    0 -0.00000000000E+00 -0.00000000000E+00 -0.74505805969E-08  0.93827000000E+00  0.93827000000E+00 0. -1.
     999902    2    1    2    0    0 -0.12863345555E-01  0.18931339680E-01  0.52615099186E-02  0.10204450097E+01  0.10201747268E+01 0.  0.
     999903    2    3    3    0    0  0.11069908134E+00 -0.59112423000E-01 -0.16338194794E-01  0.12813057554E+00  0.20048506634E-01 0.  0.
         14    1    1    2    0    0  0.12863345555E-01 -0.18931339680E-01 -0.52615099186E-02  0.23484990261E-01  0.00000000000E+00 0.  1.
     999901    1    3    3    0    0 -0.12356242689E+00  0.78043762680E-01  0.21599704713E-01  0.89231443420E+00  0.88000000000E+00 0. -1.
        -11    1    4    4    0    0  0.53120598298E-01 -0.28314214081E-01  0.22401319196E-02  0.60239289460E-01  0.51100000000E-03 0. -1.
         11    1    4    4    0    0  0.57578483038E-01 -0.30798208919E-01 -0.18578326714E-01  0.67891286083E-01  0.51100000000E-03 0.  1.
</event>
<event>
 8    1  0.1157726E+005  0.1043930E+01  0.7957747E-01            NaN
         13   -1    0    0    0    0  0.00000000000E+00  0.00000000000E+00  0.74505805969E-08  0.10566000000E+00  0.10566000000E+00 0. -1.
     999900   -1    0    0    0    0 -0.00000000000E+00 -0.00000000000E+00 -0.74505805969E-08  0.93827000000E+00  0.93827000000E+00 0.  1.
     999902    2    1    2    0    0  0.63832243854E-02  0.24200698380E-01  0.49091040355E-02  0.10184247327E+01  0.10181053077E+01 0.  0.
     999903    2    3    3    0    0  0.67027611380E-01  0.17519765950E-01 -0.10731319304E+00  0.12920247678E+00  0.19429763733E-01 0.  0.
         14    1    1    2    0    0 -0.63832243854E-02 -0.24200698380E-01 -0.49091040355E-02  0.25505267261E-01  0.00000000000E+00 0.  1.
     999901    1    3    3    0    0 -0.60644386994E-01  0.66809324305E-02  0.11222229708E+00  0.88922225596E+00  0.88000000000E+00 0.  1.
        -11    1    4    4    0    0  0.47590209067E-01  0.20207254083E-01 -0.84935933782E-01  0.99436085427E-01  0.51100000000E-03 0. -1.
         11    1    4    4    0    0  0.19437402313E-01 -0.26874881327E-02 -0.22377259260E-01  0.29766391352E-01  0.51100000000E-03 0.  1.
</event>
<event>
 8    1  0.1157726E+005  0.1043930E+01  0.7957747E-01            NaN
         13   -1    0    0    0    0  0.00000000000E+00  0.00000000000E+00  0.74505805969E-08  0.10566000000E+00  0.10566000000E+00 0. -1.
     999900   -1    0    0    0    0 -0.00000000000E+00 -0.00000000000E+00 -0.74505805969E-08  0.93827000000E+00  0.93827000000E+00 0.  1.
     999902    2    1    2    0    0 -0.16936124439E-01 -0.12216146473E-01  0.11895766951E-01  0.10198971929E+01  0.10196139996E+01 0.  0.
     999903    2    3    3    0    0  0.69983988504E-01  0.55927854763E-01  0.91132716576E-01  0.12946066786E+00  0.20717357638E-01 0.  0.
         14    1    1    2    0    0  0.16936124439E-01  0.12216146473E-01 -0.11895766951E-01  0.24032807098E-01  0.00000000000E+00 0. -1.
     999901    1    3    3    0    0 -0.86920112943E-01 -0.68144001235E-01 -0.79236949625E-01  0.89043652504E+00  0.88000000000E+00 0.  1.
        -11    1    4    4    0    0  0.12815778116E-01  0.21583656152E-02  0.87369738065E-02  0.15668393126E-01  0.51100000000E-03 0. -1.
         11    1    4    4    0    0  0.57168210388E-01  0.53769489148E-01  0.82395742770E-01  0.11379227474E+00  0.51100000000E-03 0.  1.
</event>
<event>
 8    1  0.1157726E+005  0.1043930E+01  0.7957747E-01            NaN
         13   -1    0    0    0    0  0.00000000000E+00  0.00000000000E+00  0.74505805969E-08  0.10566000000E+00  0.10566000000E+00 0.  1.
     999900   -1    0    0    0    0 -0.00000000000E+00 -0.00000000000E+00 -0.74505805969E-08  0.93827000000E+00  0.93827000000E+00 0.  1.
     999902    2    1    2    0    0 -0.15746672827E-02 -0.15872296193E-01 -0.17578871639E-01  0.10201934019E+01  0.10199172276E+01 0.  0.
     999903    2    3    3    0    0 -0.59348136285E-01 -0.17867051998E-01  0.11144297748E+00  0.12890871651E+00  0.18880866938E-01 0.  0.
         14    1    1    2    0    0  0.15746672827E-02  0.15872296193E-01  0.17578871639E-01  0.23736598147E-01  0.00000000000E+00 0.  1.
     999901    1    3    3    0    0  0.57773469002E-01  0.19947558054E-02 -0.12902184912E+00  0.89128468534E+00  0.88000000000E+00 0.  1.
        -11    1    4    4    0    0 -0.44972892679E-01 -0.19713484981E-01  0.95301855070E-01  0.10720954839E+00  0.51100000000E-03 0. -1.
         11    1    4    4    0    0 -0.14375243606E-01  0.18464329823E-02  0.16141122408E-01  0.21699168119E-01  0.51100000000E-03 0.  1.
</event>
<event>
 8    1  0.1157726E+005  0.1043930E+01  0.7957747E-01            NaN
         13   -1    0    0    0    0  0.00000000000E+00  0.00000000000E+00  0.74505805969E-08  0.10566000000E+00  0.10566000000E+00 0. -1.
     999900   -1    0    0    0    0 -0.00000000000E+00 -0.00000000000E+00 -0.74505805969E-08  0.93827000000E+00  0.93827000000E+00 0.  1.
     999902    2    1    2    0    0  0.20373144839E-01  0.13724464486E-01 -0.51737959302E-02  0.10188263325E+01  0.10185170110E+01 0.  0.
     999903    2    3    3    0    0 -0.11509057017E+00  0.92540875234E-02  0.48381816303E-01  0.12684056697E+00  0.20402249989E-01 0.  0.
         14    1    1    2    0    0 -0.20373144839E-01 -0.13724464486E-01  0.51737959302E-02  0.25103667469E-01  0.00000000000E+00 0. -1.
     999901    1    3    3    0    0  0.13546371501E+00  0.44703769628E-02 -0.53555612234E-01  0.89198576556E+00  0.88000000000E+00 0.  1.
        -11    1    4    4    0    0 -0.86746769848E-01  0.86681693872E-02  0.45501577517E-01  0.98340194820E-01  0.51100000000E-03 0. -1.
         11    1    4    4    0    0 -0.28343800317E-01  0.58591813619E-03  0.28802387865E-02  0.28500372155E-01  0.51100000000E-03 0.  1.
</event>
<event>
 8    1  0.1157726E+005  0.1043930E+01  0.7957747E-01            NaN
         13   -1    0    0    0    0  0.00000000000E+00  0.00000000000E+00  0.74505805969E-08  0.10566000000E+00  0.10566000000E+00 0. -1.
     999900   -1    0    0    0    0 -0.00000000000E+00 -0.00000000000E+00 -0.74505805969E-08  0.93827000000E+00  0.93827000000E+00 0. -1.
     999902    2    1    2    0    0 -0.47590231614E-02  0.19518322600E-01  0.13316034953E-01  0.10198275104E+01  0.10195426528E+01 0.  0.
     999903    2    3    3    0    0  0.37892525431E-01 -0.55861375907E-01  0.10974046140E+00  0.13033387716E+00  0.19687911660E-01 0.  0.
         14    1    1    2    0    0  0.47590231614E-02 -0.19518322600E-01 -0.13316034953E-01  0.24102489610E-01  0.00000000000E+00 0. -1.
     999901    1    3    3    0    0 -0.42651548592E-01  0.75379698507E-01 -0.96424426445E-01  0.88949363323E+00  0.88000000000E+00 0. -1.
        -11    1    4    4    0    0  0.24000117258E-01 -0.49444888637E-01  0.87563661418E-01  0.10338500163E+00  0.51100000000E-03 0.  1.
         11    1    4    4    0    0  0.13892408173E-01 -0.64164872701E-02  0.22176799980E-01  0.26948875526E-01  0.51100000000E-03 0. -1.
</event>
<event>
 8    1  0.1157726E+005  0.1043930E+01  0.7957747E-01            NaN
         13   -1    0    0    0    0  0.00000000000E+00  0.00000000000E+00  0.74505805969E-08  0.10566000000E+00  0.10566000000E+00 0.  1.
     999900   -1    0    0    0    0 -0.00000000000E+00 -0.00000000000E+00 -0.74505805969E-08  0.93827000000E+00  0.93827000000E+00 0.  1.
     999902    2    1    2    0    0 -0.17123544985E-01 -0.19616957430E-02  0.16973911755E-01  0.10197395531E+01  0.10194525876E+01 0.  0.
     999903    2    3    3    0    0 -0.59138489486E-01 -0.97538143506E-01 -0.59767653900E-01  0.13025128398E+00  0.19549274877E-01 0.  0.
         14    1    1    2    0    0  0.17123544985E-01  0.19616957430E-02 -0.16973911755E-01  0.24190446943E-01  0.00000000000E+00 0.  1.
     999901    1    3    3    0    0  0.42014944501E-01  0.95576447763E-01  0.76741565655E-01  0.88948826908E+00  0.88000000000E+00 0. -1.
        -11    1    4    4    0    0 -0.14389079343E-01 -0.11164590439E-01 -0.12511186415E-01  0.22101687504E-01  0.51100000000E-03 0. -1.
         11    1    4    4    0    0 -0.44749410142E-01 -0.86373553067E-01 -0.47256467486E-01  0.10814959647E+00  0.51100000000E-03 0.  1.
</event>
<event>
 8    1  0.1157726E+005  0.1043930E+01  0.7957747E-01            NaN
         13   -1    0    0    0    0  0.00000000000E+00  0.00000000000E+00  0.74505805969E-08  0.10566000000E+00  0.10566000000E+00 0. -1.
     999900   -1    0    0    0    0 -0.00000000000E+00 -0.00000000000E+00 -0.74505805969E-08  0.93827000000E+00  0.93827000000E+00 0. -1.
     999902    2    1    2    0    0  0.19935405177E-01 -0.10827993715E-02 -0.12892381605E-01  0.10201643454E+01  0.10198874866E+01 0.  0.
     999903    2    3    3    0    0 -0.92352104009E-01  0.86513101269E-01  0.10592696193E-01  0.12840592780E+00  0.19038100595E-01 0.  0.
         14    1    1    2    0    0 -0.19935405177E-01  0.10827993715E-02  0.12892381605E-01  0.23765654578E-01  0.00000000000E+00 0. -1.
     999901    1    3    3    0    0  0.11228750919E+00 -0.87595900641E-01 -0.23485077798E-01  0.89175841763E+00  0.88000000000E+00 0. -1.
        -11    1    4    4    0    0 -0.20605556920E-01  0.28138045365E-01 -0.25881784549E-02  0.34975682433E-01  0.51100000000E-03 0.  1.
         11    1    4    4    0    0 -0.71746547089E-01  0.58375055905E-01  0.13180874648E-01  0.93430245363E-01  0.51100000000E-03 0. -1.
</event>
<event>
 8    1  0.1157726E+005  0.1043930E+01  0.7957747E-01            NaN
         13   -1    0    0    0    0  0.00000000000E+00  0.00000000000E+00  0.74505805969E-08  0.10566000000E+00  0.10566000000E+00 0. -1.
     999900   -1    0    0    0    0 -0.00000000000E+00 -0.00000000000E+00 -0.74505805969E-08  0.93827000000E+00  0.93827000000E+00 0.  1.
     999902    2    1    2    0    0  0.89705729996E-02 -0.12438585838E-01  0.18280157043E-01  0.10200688655E+01  0.10197897512E+01 0.  0.
     999903    2    3    3    0    0 -0.59282180716E-01 -0.72308835060E-01  0.91822673783E-01  0.13234628108E+00  0.18471332330E-01 0.  0.
         14    1    1    2    0    0 -0.89705729996E-02  0.12438585838E-01 -0.18280157043E-01  0.23861134489E-01  0.00000000000E+00 0.  1.
     999901    1    3    3    0    0  0.68252753715E-01  0.59870249221E-01 -0.73542516741E-01  0.88772258443E+00  0.88000000000E+00 0.  1.
        -11    1    4    4    0    0 -0.26595871615E-01 -0.43353360979E-01  0.40940179978E-01  0.65293290259E-01  0.51100000000E-03 0. -1.
         11    1    4    4    0    0 -0.32686309101E-01 -0.28955474081E-01  0.50882493805E-01  0.67052990826E-01  0.51100000000E-03 0.  1.
</event>
<event>
 8    1  0.1157726E+005  0.1043930E+01  0.7957747E-01            NaN
         13   -1    0    0    0    0  0.00000000000E+00  0.00000000000E+00  0.74505805969E-08  0.10566000000E+00  0.10566000000E+00 0. -1.
     999900   -1    0    0    0    0 -0.00000000000E+00 -0.00000000000E+00 -0.74505805969E-08  0.93827000000E+00  0.93827000000E+00 0.  1.
     999902    2    1    2    0    0  0.18588563360E-01  0.10442979634E-01  0.11011004197E-01  0.10199334852E+01  0.10196511567E+01 0.  0.
     999903    2    3    3    0    0  0.80993109949E-01  0.10283765936E+00  0.11580862839E-01  0.13289829475E+00  0.19808390163E-01 0.  0.
         14    1    1    2    0    0 -0.18588563360E-01 -0.10442979634E-01 -0.11011004197E-01  0.23996514848E-01  0.00000000000E+00 0.  1.
     999901    1    3    3    0    0 -0.62404546589E-01 -0.92394679726E-01 -0.56985864214E-03  0.88703519040E+00  0.88000000000E+00 0. -1.
        -11    1    4    4    0    0  0.11475359406E-01  0.11424431354E-01  0.78262244814E-02  0.17992009779E-01  0.51100000000E-03 0. -1.
         11    1    4    4    0    0  0.69517750543E-01  0.91413228006E-01  0.37546383574E-02  0.11490628497E+00  0.51100000000E-03 0.  1.
</event>
<event>
 8    1  0.1157726E+005  0.1043930E+01  0.7957747E-01            NaN
         13   -1    0    0    0    0  0.00000000000E+00  0.00000000000E+00  0.74505805969E-08  0.10566000000E+00  0.10566000000E+00 0. -1.
     999900   -1    0    0    0    0 -0.00000000000E+00 -0.00000000000E+00 -0.74505805969E-08  0.93827000000E+00  0.93827000000E+00 0.  1.
     999902    2    1    2    0    0 -0.21748364153E-01  0.14851542453E-01 -0.24056652840E-02  0.10174848325E+01  0.10171411100E+01 0.  0.
     999903    2    3    3    0    0 -0.69271861254E-02  0.39379305468E-01 -0.12103099255E+00  0.12906305954E+00  0.20249853616E-01 0.  0.
         14    1    1    2    0    0  0.21748364153E-01 -0.14851542453E-01  0.24056652840E-02  0.26445167460E-01  0.00000000000E+00 0.  1.
     999901    1    3    3    0    0 -0.14821178027E-01 -0.24527763015E-01  0.11862532727E+00  0.88842177300E+00  0.88000000000E+00 0. -1.
        -11    1    4    4    0    0 -0.13639756210E-01  0.21471972448E-01 -0.62315974811E-01  0.67309957569E-01  0.51100000000E-03 0.  1.
         11    1    4    4    0    0  0.67125700845E-02  0.17907333020E-01 -0.58715017743E-01  0.61753101967E-01  0.51100000000E-03 0. -1.
</event>
<event>
 8    1  0.1157726E+005  0.1043930E+01  0.7957747E-01            NaN
         13   -1    0    0    0    0  0.00000000000E+00  0.00000000000E+00  0.74505805969E-08  0.10566000000E+00  0.10566000000E+00 0.  1.
     999900   -1    0    0    0    0 -0.00000000000E+00 -0.00000000000E+00 -0.74505805969E-08  0.93827000000E+00  0.93827000000E+00 0. -1.
     999902    2    1    2    0    0  0.28452139874E-03  0.36507894851E-02  0.23712396746E-01  0.10199365222E+01  0.10196542661E+01 0.  0.
     999903    2    3    3    0    0 -0.76174823586E-01 -0.10125812998E+00 -0.17995873189E-01  0.12943582453E+00  0.19338267355E-01 0.  0.
         14    1    1    2    0    0 -0.28452139874E-03 -0.36507894851E-02 -0.23712396746E-01  0.23993477775E-01  0.00000000000E+00 0. -1.
     999901    1    3    3    0    0  0.76459344985E-01  0.10490891946E+00  0.41708269935E-01  0.89050069770E+00  0.88000000000E+00 0. -1.
        -11    1    4    4    0    0 -0.20891018458E-01 -0.26651081330E-01  0.37223512015E-02  0.34070981901E-01  0.51100000000E-03 0. -1.
         11    1    4    4    0    0 -0.55283805128E-01 -0.74607048649E-01 -0.21718224390E-01  0.95364842627E-01  0.51100000000E-03 0.  1.
</event>
<event>
 8    1  0.1157726E+005  0.1043930E+01  0.7957747E-01            NaN
         13   -1    0    0    0    0  0.00000000000E+00  0.00000000000E+00  0.74505805969E-08  0.10566000000E+00  0.10566000000E+00 0.  1.
     999900   -1    0    0    0    0 -0.00000000000E+00 -0.00000000000E+00 -0.74505805969E-08  0.93827000000E+00  0.93827000000E+00 0.  1.
     999902    2    1    2    0    0 -0.33876333895E-02  0.60559347236E-02  0.23029336872E-01  0.10198779572E+01  0.10195943050E+01 0.  0.
     999903    2    3    3    0    0  0.32297512078E-01 -0.54345124754E-01  0.11384983759E+00  0.13242650449E+00  0.24051438671E-01 0.  0.
         14    1    1    2    0    0  0.33876333895E-02 -0.60559347236E-02 -0.23029336872E-01  0.24052042785E-01  0.00000000000E+00 0. -1.
     999901    1    3    3    0    0 -0.35685145467E-01  0.60401059478E-01 -0.90820500714E-01  0.88745145272E+00  0.88000000000E+00 0.  1.
        -11    1    4    4    0    0  0.18886378555E-01 -0.48040927519E-01  0.97716404698E-01  0.11051417502E+00  0.51100000000E-03 0.  1.
         11    1    4    4    0    0  0.13411133523E-01 -0.63041972349E-02  0.16133432889E-01  0.21912329472E-01  0.51100000000E-03 0. -1.
</event>
<event>
 8    1  0.1157726E+005  0.1043930E+01  0.7957747E-01            NaN
         13   -1    0    0    0    0  0.00000000000E+00  0.00000000000E+00  0.74505805969E-08  0.10566000000E+00  0.10566000000E+00 0.  1.
     999900   -1    0    0    0    0 -0.00000000000E+00 -0.00000000000E+00 -0.74505805969E-08  0.93827000000E+00  0.93827000000E+00 0.  1.
     999902    2    1    2    0    0  0.20177454872E-01  0.54215953426E-02 -0.10584858227E-01  0.10205085866E+01  0.10202397820E+01 0.  0.
     999903    2    3    3    0    0 -0.40065185496E-02 -0.12663241800E+00  0.19283140184E-01  0.12982613796E+00  0.20764515950E-01 0.  0.
         14    1    1    2    0    0 -0.20177454872E-01 -0.54215953426E-02  0.10584858227E-01  0.23421413383E-01  0.00000000000E+00 0.  1.
     999901    1    3    3    0    0  0.24183973422E-01  0.13205401335E+00 -0.29867998410E-01  0.89068244865E+00  0.88000000000E+00 0.  1.
        -11    1    4    4    0    0 -0.93155914301E-02 -0.11442956147E+00  0.19773324059E-01  0.11649957188E+00  0.51100000000E-03 0.  1.
         11    1    4    4    0    0  0.53090728805E-02 -0.12202856532E-01 -0.49018387540E-03  0.13326566085E-01  0.51100000000E-03 0. -1.
</event>
<event>
 8    1  0.1157726E+005  0.1043930E+01  0.7957747E-01            NaN
         13   -1    0    0    0    0  0.00000000000E+00  0.00000000000E+00  0.74505805969E-08  0.10566000000E+00  0.10566000000E+00 0. -1.
     999900   -1    0    0    0    0 -0.00000000000E+00 -0.00000000000E+00 -0.74505805969E-08  0.93827000000E+00  0.93827000000E+00 0. -1.
     999902    2    1    2    0    0 -0.17389022238E-01  0.90293003878E-02  0.12807297273E-01  0.10205220265E+01  0.10202535339E+01 0.  0.
     999903    2    3    3    0    0  0.11013445988E-01  0.22569119000E-02  0.12775616518E+00  0.13256605480E+00  0.33551922445E-01 0.  0.
         14    1    1    2    0    0  0.17389022238E-01 -0.90293003878E-02 -0.12807297273E-01  0.23407973499E-01  0.00000000000E+00 0.  1.
     999901    1    3    3    0    0 -0.28402468225E-01  0.67723884877E-02 -0.11494886791E+00  0.88795597170E+00  0.88000000000E+00 0. -1.
        -11    1    4    4    0    0  0.19125248726E-02 -0.13851537075E-01  0.30392201204E-01  0.33458479430E-01  0.51100000000E-03 0. -1.
         11    1    4    4    0    0  0.91009211149E-02  0.16108448975E-01  0.97363963976E-01  0.99107575370E-01  0.51100000000E-03 0.  1.
</event>
<event>
 8    1  0.1157726E+005  0.1043930E+01  0.7957747E-01            NaN
         13   -1    0    0    0    0  0.00000000000E+00  0.00000000000E+00  0.74505805969E-08  0.10566000000E+00  0.10566000000E+00 0.  1.
     999900   -1    0    0    0    0 -0.00000000000E+00 -0.00000000000E+00 -0.74505805969E-08  0.93827000000E+00  0.93827000000E+00 0.  1.
     999902    2    1    2    0    0 -0.74613776166E-02 -0.14489946838E-01  0.87528212799E-04  0.10276315836E+01  0.10275023276E+01 0.  0.
     999903    2    3    3    0    0 -0.79938257315E-01 -0.88595467686E-01 -0.67496226105E-01  0.13897411859E+00  0.22776813242E-01 0.  0.
         14    1    1    2    0    0  0.74613776166E-02  0.14489946838E-01 -0.87528212799E-04  0.16298416380E-01  0.00000000000E+00 0. -1.
     999901    1    3    3    0    0  0.72476879699E-01  0.74105520848E-01  0.67583754318E-01  0.88865746503E+00  0.88000000000E+00 0. -1.
        -11    1    4    4    0    0 -0.53699620312E-01 -0.47589471422E-01 -0.49025176772E-01  0.86903026934E-01  0.51100000000E-03 0.  1.
         11    1    4    4    0    0 -0.26238637003E-01 -0.41005996264E-01 -0.18471049333E-01  0.52071091653E-01  0.51100000000E-03 0. -1.
</event>
<event>
 8    1  0.1157726E+005  0.1043930E+01  0.7957747E-01            NaN
         13   -1    0    0    0    0  0.00000000000E+00  0.00000000000E+00  0.74505805969E-08  0.10566000000E+00  0.10566000000E+00 0. -1.
     999900   -1    0    0    0    0 -0.00000000000E+00 -0.00000000000E+00 -0.74505805969E-08  0.93827000000E+00  0.93827000000E+00 0.  1.
     999902    2    1    2    0    0  0.12227982431E-01  0.84523066604E-03  0.19003837787E-01  0.10213162029E+01  0.10210658169E+01 0.  0.
     999903    2    3    3    0    0 -0.69827663936E-01  0.10809875279E+00 -0.92374664849E-02  0.13056706964E+00  0.20029625140E-01 0.  0.
         14    1    1    2    0    0 -0.12227982431E-01 -0.84523066604E-03 -0.19003837787E-01  0.22613797113E-01  0.00000000000E+00 0.  1.
     999901    1    3    3    0    0  0.82055646367E-01 -0.10725352212E+00  0.28241304272E-01  0.89074913324E+00  0.88000000000E+00 0. -1.
        -11    1    4    4    0    0 -0.44778677196E-01  0.58265184370E-01 -0.13147158368E-01  0.74653000845E-01  0.51100000000E-03 0. -1.
         11    1    4    4    0    0 -0.25048986740E-01  0.49833568418E-01  0.39096918831E-02  0.55914068798E-01  0.51100000000E-03 0.  1.
</event>
<event>
 7    1  0.1157726E+005  0.1043930E+01  0.7957747E-01            NaN
         13   -1    0    0    0    0  0.00000000000E+00  0.00000000000E+00  0.74505805969E-08  0.10566000000E+00  0.10566000000E+00 0.  1.
     999900   -1    0    0    0    0 -0.00000000000E+00 -0.00000000000E+00 -0.74505805969E-08  0.93827000000E+00  0.93827000000E+00 0. -1.
     999903    2    1    2    0    0  0.86399524773E-01 -0.52009142309E-02  0.64643034169E-01  0.11001622620E+00  0.20806748185E-01 0.  0.
         14    1    1    2    0    0  0.40968874718E-02  0.12033259171E-01  0.41033279884E-01  0.42957116655E-01  0.00000000000E+00 0.  1.
     999901    1    1    2    0    0 -0.90496412245E-01 -0.68323449398E-02 -0.10567631405E+00  0.89095665715E+00  0.88000000000E+00 0. -1.
        -11    1    3    3    0    0  0.54810851491E-01 -0.12157889847E-01  0.35153617658E-01  0.66242597187E-01  0.51100000000E-03 0. -1.
         11    1    3    3    0    0  0.31588673283E-01  0.69569756164E-02  0.29489416510E-01  0.43773629009E-01  0.51100000000E-03 0.  1.
</event>
<event>
 8    1  0.1157726E+005  0.1043930E+01  0.7957747E-01            NaN
         13   -1    0    0    0    0  0.00000000000E+00  0.00000000000E+00  0.74505805969E-08  0.10566000000E+00  0.10566000000E+00 0. -1.
     999900   -1    0    0    0    0 -0.00000000000E+00 -0.00000000000E+00 -0.74505805969E-08  0.93827000000E+00  0.93827000000E+00 0.  1.
     999902    2    1    2    0    0 -0.55181224440E-02 -0.18117303177E-01  0.14576008286E-01  0.10200313313E+01  0.10197513277E+01 0.  0.
     999903    2    3    3    0    0  0.46830672921E-01 -0.66624234425E-01  0.10299172706E+00  0.13272605230E+00  0.19416708686E-01 0.  0.
         14    1    1    2    0    0  0.55181224440E-02  0.18117303177E-01 -0.14576008286E-01  0.23898668735E-01  0.00000000000E+00 0.  1.
     999901    1    3    3    0    0 -0.52348795365E-01  0.48506931248E-01 -0.88415718777E-01  0.88730527897E+00  0.88000000000E+00 0.  1.
        -11    1    4    4    0    0  0.35241207828E-01 -0.60173045010E-01  0.79561977504E-01  0.10579748324E+00  0.51100000000E-03 0. -1.
         11    1    4    4    0    0  0.11589465093E-01 -0.64511894153E-02  0.23429749560E-01  0.26928569057E-01  0.51100000000E-03 0.  1.
</event>
<event>
 8    1  0.1157726E+005  0.1043930E+01  0.7957747E-01            NaN
         13   -1    0    0    0    0  0.00000000000E+00  0.00000000000E+00  0.74505805969E-08  0.10566000000E+00  0.10566000000E+00 0.  1.
     999900   -1    0    0    0    0 -0.00000000000E+00 -0.00000000000E+00 -0.74505805969E-08  0.93827000000E+00  0.93827000000E+00 0.  1.
     999902    2    1    2    0    0 -0.21215390190E-01  0.10396538850E-01 -0.40297290355E-02  0.10199629493E+01  0.10196813220E+01 0.  0.
     999903    2    3    3    0    0  0.66545490039E-01 -0.37746617412E-01  0.10082961331E+00  0.12810241245E+00  0.19761269843E-01 0.  0.
         14    1    1    2    0    0  0.21215390190E-01 -0.10396538850E-01  0.40297290355E-02  0.23967050655E-01  0.00000000000E+00 0.  1.
     999901    1    3    3    0    0 -0.87760880230E-01  0.48143156262E-01 -0.10485934234E+00  0.89186053689E+00  0.88000000000E+00 0.  1.
        -11    1    4    4    0    0  0.43254617596E-01 -0.30491837661E-01  0.55928034279E-01  0.76999482120E-01  0.51100000000E-03 0. -1.
         11    1    4    4    0    0  0.23290872443E-01 -0.72547797502E-02  0.44901579026E-01  0.51102930331E-01  0.51100000000E-03 0.  1.
</event>
<event>
 8    1  0.1157726E+005  0.1043930E+01  0.7957747E-01            NaN
         13   -1    0    0    0    0  0.00000000000E+00  0.00000000000E+00  0.74505805969E-08  0.10566000000E+00  0.10566000000E+00 0.  1.
     999900   -1    0    0    0    0 -0.00000000000E+00 -0.00000000000E+00 -0.74505805969E-08  0.93827000000E+00  0.93827000000E+00 0. -1.
     999902    2    1    2    0    0 -0.16055257181E-01  0.16587951462E-01  0.47656975272E-02  0.10203579129E+01  0.10200855980E+01 0.  0.
     999903    2    3    3    0    0 -0.65782977510E-01  0.84116372889E-02  0.11269351325E+00  0.13233307559E+00  0.20348444539E-01 0.  0.
         14    1    1    2    0    0  0.16055257181E-01 -0.16587951462E-01 -0.47656975272E-02  0.23572087090E-01  0.00000000000E+00 0. -1.
     999901    1    3    3    0    0  0.49727720329E-01  0.81763141728E-02 -0.10792781573E+00  0.88802483732E+00  0.88000000000E+00 0. -1.
        -11    1    4    4    0    0 -0.56267771994E-01  0.12783033583E-01  0.85136177418E-01  0.10284890830E+00  0.51100000000E-03 0.  1.
         11    1    4    4    0    0 -0.95152055154E-02 -0.43713962945E-02  0.27557335835E-01  0.29484167291E-01  0.51100000000E-03 0. -1.
</event>
<event>
 8    1  0.1157726E+005  0.1043930E+01  0.7957747E-01            NaN
         13   -1    0    0    0    0  0.00000000000E+00  0.00000000000E+00  0.74505805969E-08  0.10566000000E+00  0.10566000000E+00 0.  1.
     999900   -1    0    0    0    0 -0.00000000000E+00 -0.00000000000E+00 -0.74505805969E-08  0.93827000000E+00  0.93827000000E+00 0. -1.
     999902    2    1    2    0    0  0.75526396953E-02  0.25118154636E-02  0.19882891352E-01  0.10225131620E+01  0.10222888464E+01 0.  0.
     999903    2    3    3    0    0  0.40696887771E-01  0.30878746074E-01 -0.11849950665E+00  0.13063149267E+00  0.20315515415E-01 0.  0.
         14    1    1    2    0    0 -0.75526396953E-02 -0.25118154636E-02 -0.19882891352E-01  0.21416838044E-01  0.00000000000E+00 0. -1.
     999901    1    3    3    0    0 -0.33144248075E-01 -0.28366930611E-01  0.13838239800E+00  0.89188166929E+00  0.88000000000E+00 0.  1.
        -11    1    4    4    0    0  0.23668522347E-01  0.21555762793E-01 -0.49508750621E-01  0.58959540099E-01  0.51100000000E-03 0. -1.
         11    1    4    4    0    0  0.17028365424E-01  0.93229832814E-02 -0.68990756032E-01  0.71671952570E-01  0.51100000000E-03 0.  1.
</event>
<event>
 8    1  0.1157726E+005  0.1043930E+01  0.7957747E-01            NaN
         13   -1    0    0    0    0  0.00000000000E+00  0.00000000000E+00  0.74505805969E-08  0.10566000000E+00  0.10566000000E+00 0. -1.
     999900   -1    0    0    0    0 -0.00000000000E+00 -0.00000000000E+00 -0.74505805969E-08  0.93827000000E+00  0.93827000000E+00 0. -1.
     999902    2    1    2    0    0 -0.13928638264E-01 -0.18220192922E-01 -0.83499475365E-02  0.10195229515E+01  0.10192307612E+01 0.  0.
     999903    2    3    3    0    0 -0.85373021017E-01 -0.25036880048E-01  0.93479983167E-01  0.13074845710E+00  0.21006039656E-01 0.  0.
         14    1    1    2    0    0  0.13928638264E-01  0.18220192922E-01  0.83499475365E-02  0.24407048529E-01  0.00000000000E+00 0. -1.
     999901    1    3    3    0    0  0.71444382753E-01  0.68166871252E-02 -0.10182993070E+00  0.88877449437E+00  0.88000000000E+00 0. -1.
        -11    1    4    4    0    0 -0.59076149323E-01 -0.78393139876E-02  0.66844825089E-01  0.89554106689E-01  0.51100000000E-03 0. -1.
         11    1    4    4    0    0 -0.26296871694E-01 -0.17197566060E-01  0.26635158078E-01  0.41194350415E-01  0.51100000000E-03 0.  1.
</event>
<event>
 8    1  0.1157726E+005  0.1043930E+01  0.7957747E-01            NaN
         13   -1    0    0    0    0  0.00000000000E+00  0.00000000000E+00  0.74505805969E-08  0.10566000000E+00  0.10566000000E+00 0.  1.
     999900   -1    0    0    0    0 -0.00000000000E+00 -0.00000000000E+00 -0.74505805969E-08  0.93827000000E+00  0.93827000000E+00 0.  1.
     999902    2    1    2    0    0 -0.13361302203E-01  0.16316642767E-01  0.11193182743E-01  0.10200543939E+01  0.10197749369E+01 0.  0.
     999903    2    3    3    0    0 -0.11807696361E+00 -0.49083688717E-01  0.21638901100E-01  0.13137465059E+00  0.20968522649E-01 0.  0.
         14    1    1    2    0    0  0.13361302203E-01 -0.16316642767E-01 -0.11193182743E-01  0.23875606121E-01  0.00000000000E+00 0. -1.
     999901    1    3    3    0    0  0.10471566141E+00  0.65400331484E-01 -0.10445718357E-01  0.88867974329E+00  0.88000000000E+00 0.  1.
        -11    1    4    4    0    0 -0.11376256075E+00 -0.45463405978E-01  0.16288872701E-01  0.12358976497E+00  0.51100000000E-03 0. -1.
         11    1    4    4    0    0 -0.43144028685E-02 -0.36202827389E-02  0.53500283992E-02  0.77848856185E-02  0.51100000000E-03 0.  1.
</event>
<event>
 8    1  0.1157726E+005  0.1043930E+01  0.7957747E-01            NaN
         13   -1    0    0    0    0  0.00000000000E+00  0.00000000000E+00  0.74505805969E-08  0.10566000000E+00  0.10566000000E+00 0.  1.
     999900   -1    0    0    0    0 -0.00000000000E+00 -0.00000000000E+00 -0.74505805969E-08  0.93827000000E+00  0.93827000000E+00 0.  1.
     999902    2    1    2    0    0 -0.21997399324E-01 -0.12998453147E-01  0.59523292762E-02  0.10176949931E+01  0.10173567828E+01 0.  0.
     999903    2    3    3    0    0 -0.34931932423E-01 -0.84553455335E-01  0.90948250739E-01  0.13061454180E+00  0.20470649841E-01 0.  0.
         14    1    1    2    0    0  0.21997399324E-01  0.12998453147E-01 -0.59523292762E-02  0.26235006861E-01  0.00000000000E+00 0.  1.
     999901    1    3    3    0    0  0.12934533100E-01  0.71555002188E-01 -0.84995921463E-01  0.88708045134E+00  0.88000000000E+00 0.  1.
        -11    1    4    4    0    0 -0.18982990703E-01 -0.67267743969E-01  0.72615866221E-01  0.10079002164E+00  0.51100000000E-03 0.  1.
         11    1    4    4    0    0 -0.15948941720E-01 -0.17285711366E-01  0.18332384518E-01  0.29824520156E-01  0.51100000000E-03 0. -1.
</event>
<event>
 8    1  0.1157726E+005  0.1043930E+01  0.7957747E-01            NaN
         13   -1    0    0    0    0  0.00000000000E+00  0.00000000000E+00  0.74505805969E-08  0.10566000000E+00  0.10566000000E+00 0.  1.
     999900   -1    0    0    0    0 -0.00000000000E+00 -0.00000000000E+00 -0.74505805969E-08  0.93827000000E+00  0.93827000000E+00 0. -1.
     999902    2    1    2    0    0 -0.12574648281E-01 -0.19375659802E-01 -0.13083112314E-01  0.10173837046E+01  0.10170373133E+01 0.  0.
     999903    2    3    3    0    0 -0.54021736155E-02 -0.30490074429E-01  0.12159166728E+00  0.12703979864E+00  0.19893435278E-01 0.  0.
         14    1    1    2    0    0  0.12574648281E-01  0.19375659802E-01  0.13083112314E-01  0.26546295410E-01  0.00000000000E+00 0. -1.
     999901    1    3    3    0    0 -0.71724746653E-02  0.11114414626E-01 -0.13467477960E+00  0.89034390595E+00  0.88000000000E+00 0. -1.
        -11    1    4    4    0    0  0.38326404023E-02 -0.17089723037E-01  0.37569106352E-01  0.41454151047E-01  0.51100000000E-03 0. -1.
         11    1    4    4    0    0 -0.92348140177E-02 -0.13400351392E-01  0.84022560931E-01  0.85585647592E-01  0.51100000000E-03 0.  1.
</event>
<event>
 8    1  0.1157726E+005  0.1043930E+01  0.7957747E-01            NaN
         13   -1    0    0    0    0  0.00000000000E+00  0.00000000000E+00  0.74505805969E-08  0.10566000000E+00  0.10566000000E+00 0. -1.
     999900   -1    0    0    0    0 -0.00000000000E+00 -0.00000000000E+00 -0.74505805969E-08  0.93827000000E+00  0.93827000000E+00 0.  1.
     999902    2    1    2    0    0  0.68544580105E-02 -0.20109901448E-01 -0.10902949978E-01  0.10200497561E+01  0.10197701892E+01 0.  0.
     999903    2    3    3    0    0  0.26677880811E-01 -0.67234390916E-01 -0.10994635474E+00  0.13301915818E+00  0.19331913432E-01 0.  0.
         14    1    1    2    0    0 -0.68544580105E-02  0.20109901448E-01  0.10902949978E-01  0.23880243907E-01  0.00000000000E+00 0. -1.
     999901    1    3    3    0    0 -0.19823422801E-01  0.47124489468E-01  0.99043404762E-01  0.88703059791E+00  0.88000000000E+00 0. -1.
        -11    1    4    4    0    0  0.29758362272E-01 -0.62047296838E-01 -0.10130029751E+00  0.12246402969E+00  0.51100000000E-03 0.  1.
         11    1    4    4    0    0 -0.30804814613E-02 -0.51870940781E-02 -0.86460572249E-02  0.10555128495E-01  0.51100000000E-03 0. -1.
</event>
<event>
 8    1  0.1157726E+005  0.1043930E+01  0.7957747E-01            NaN
         13   -1    0    0    0    0  0.00000000000E+00  0.00000000000E+00  0.74505805969E-08  0.10566000000E+00  0.10566000000E+00 0.  1.
     999900   -1    0    0    0    0 -0.00000000000E+00 -0.00000000000E+00 -0.74505805969E-08  0.93827000000E+00  0.93827000000E+00 0.  1.
     999902    2    1    2    0    0 -0.37748633928E-02  0.21854753011E-01  0.51399025627E-02  0.10211638317E+01  0.10209100218E+01 0.  0.
     999903    2    3    3    0    0 -0.96589633642E-01  0.56308879219E-01 -0.68454255840E-01  0.13255943793E+00  0.19641085420E-01 0.  0.
         14    1    1    2    0    0  0.37748633928E-02 -0.21854753011E-01 -0.51399025627E-02  0.22766168346E-01  0.00000000000E+00 0.  1.
     999901    1    3    3    0    0  0.92814770249E-01 -0.34454126208E-01  0.73594158403E-01  0.88860439372E+00  0.88000000000E+00 0. -1.
        -11    1    4    4    0    0 -0.33124046323E-01  0.28902198908E-01 -0.32225752610E-01  0.54509630331E-01  0.51100000000E-03 0.  1.
         11    1    4    4    0    0 -0.63465587319E-01  0.27406680311E-01 -0.36228503230E-01  0.78049807602E-01  0.51100000000E-03 0. -1.
</event>
<event>
 8    1  0.1157726E+005  0.1043930E+01  0.7957747E-01            NaN
         13   -1    0    0    0    0  0.00000000000E+00  0.00000000000E+00  0.74505805969E-08  0.10566000000E+00  0.10566000000E+00 0.  1.
     999900   -1    0    0    0    0 -0.00000000000E+00 -0.00000000000E+00 -0.74505805969E-08  0.93827000000E+00  0.93827000000E+00 0.  1.
     999902    2    1    2    0    0 -0.30796562037E-02 -0.11473988929E-01  0.20321642273E-01  0.10203905470E+01  0.10201189943E+01 0.  0.
     999903    2    3    3    0    0 -0.56645432365E-01 -0.66741656627E-01  0.98785539163E-01  0.13355325040E+00  0.20365024137E-01 0.  0.
         14    1    1    2    0    0  0.30796562037E-02  0.11473988929E-01 -0.20321642273E-01  0.23539453030E-01  0.00000000000E+00 0. -1.
     999901    1    3    3    0    0  0.53565776162E-01  0.55267667698E-01 -0.78463896889E-01  0.88683729657E+00  0.88000000000E+00 0.  1.
        -11    1    4    4    0    0 -0.90034397819E-02 -0.12276687189E-01  0.72532247863E-02  0.16871554968E-01  0.51100000000E-03 0.  1.
         11    1    4    4    0    0 -0.47641992584E-01 -0.54464969438E-01  0.91532314376E-01  0.11668169543E+00  0.51100000000E-03 0. -1.
</event>
<event>
 8    1  0.1157726E+005  0.1043930E+01  0.7957747E-01            NaN
         13   -1    0    0    0    0  0.00000000000E+00  0.00000000000E+00  0.74505805969E-08  0.10566000000E+00  0.10566000000E+00 0.  1.
     999900   -1    0    0    0    0 -0.00000000000E+00 -0.00000000000E+00 -0.74505805969E-08  0.93827000000E+00  0.93827000000E+00 0. -1.
     999902    2    1    2    0    0 -0.18925955890E-01  0.11181939704E-01  0.93193797191E-02  0.10200536850E+01  0.10197742112E+01 0.  0.
     999903    2    3    3    0    0 -0.52940683773E-01  0.10165506813E+00 -0.61805736600E-01  0.13190889335E+00  0.21060346457E-01 0.  0.
         14    1    1    2    0    0  0.18925955890E-01 -0.11181939704E-01 -0.93193797191E-02  0.23876315047E-01  0.00000000000E+00 0. -1.
     999901    1    3    3    0    0  0.34014727883E-01 -0.90473128427E-01  0.71125116319E-01  0.88814479160E+00  0.88000000000E+00 0.  1.
        -11    1    4    4    0    0 -0.29961142896E-01  0.56822662915E-01 -0.22702632848E-01  0.68133367476E-01  0.51100000000E-03 0.  1.
         11    1    4    4    0    0 -0.22979540877E-01  0.44832405216E-01 -0.39103103753E-01  0.63775525874E-01  0.51100000000E-03 0. -1.
</event>
<event>
 8    1  0.1157726E+005  0.1043930E+01  0.7957747E-01            NaN
         13   -1    0    0    0    0  0.00000000000E+00  0.00000000000E+00  0.74505805969E-08  0.10566000000E+00  0.10566000000E+00 0. -1.
     999900   -1    0    0    0    0 -0.00000000000E+00 -0.00000000000E+00 -0.74505805969E-08  0.93827000000E+00  0.93827000000E+00 0. -1.
     999902    2    1    2    0    0 -0.86547105692E-02 -0.61233058473E-02 -0.19921180075E-01  0.10213633807E+01  0.10211140500E+01 0.  0.
     999903    2    3    3    0    0 -0.12247439112E+00 -0.25229031551E-01 -0.42697281952E-01  0.13353530095E+00  0.19290883852E-01 0.  0.
         14    1    1    2    0    0  0.86547105692E-02  0.61233058473E-02  0.19921180075E-01  0.22566619266E-01  0.00000000000E+00 0. -1.
     999901    1    3    3    0    0  0.11381968055E+00  0.19105725703E-01  0.22776101877E-01  0.88782807978E+00  0.88000000000E+00 0. -1.
        -11    1    4    4    0    0 -0.48935544001E-01 -0.13513816374E-01 -0.80582189819E-02  0.51405317953E-01  0.51100000000E-03 0. -1.
         11    1    4    4    0    0 -0.73538847122E-01 -0.11715215176E-01 -0.34639062970E-01  0.82129982997E-01  0.51100000000E-03 0.  1.
</event>
<event>
 8    1  0.1157726E+005  0.1043930E+01  0.7957747E-01            NaN
         13   -1    0    0    0    0  0.00000000000E+00  0.00000000000E+00  0.74505805969E-08  0.10566000000E+00  0.10566000000E+00 0.  1.
     999900   -1    0    0    0    0 -0.00000000000E+00 -0.00000000000E+00 -0.74505805969E-08  0.93827000000E+00  0.93827000000E+00 0. -1.
     999902    2    1    2    0    0 -0.49181922110E-02  0.17129876163E-01 -0.16074998336E-01  0.10199294408E+01  0.10196470160E+01 0.  0.
     999903    2    3    3    0    0  0.11224831356E+00  0.19437451215E-01 -0.61626085226E-01  0.13099287582E+00  0.19592364065E-01 0.  0.
         14    1    1    2    0    0  0.49181922110E-02 -0.17129876163E-01  0.16074998336E-01  0.24000559233E-01  0.00000000000E+00 0. -1.
     999901    1    3    3    0    0 -0.11716650577E+00 -0.23075750519E-02  0.45551086890E-01  0.88893656494E+00  0.88000000000E+00 0. -1.
        -11    1    4    4    0    0  0.92832672691E-01  0.90969210802E-02 -0.53530348522E-01  0.10754728461E+00  0.51100000000E-03 0. -1.
         11    1    4    4    0    0  0.19415640867E-01  0.10340530135E-01 -0.80957367041E-02  0.23445591218E-01  0.51100000000E-03 0.  1.
</event>
<event>
 8    1  0.1157726E+005  0.1043930E+01  0.7957747E-01            NaN
         13   -1    0    0    0    0  0.00000000000E+00  0.00000000000E+00  0.74505805969E-08  0.10566000000E+00  0.10566000000E+00 0.  1.
     999900   -1    0    0    0    0 -0.00000000000E+00 -0.00000000000E+00 -0.74505805969E-08  0.93827000000E+00  0.93827000000E+00 0.  1.
     999902    2    1    2    0    0 -0.16168298099E-02 -0.23499775695E-01  0.34109542764E-02  0.10201289873E+01  0.10198512943E+01 0.  0.
     999903    2    3    3    0    0  0.62966116729E-01  0.93644448239E-01 -0.56808706157E-01  0.12798542616E+00  0.20470116565E-01 0.  0.
         14    1    1    2    0    0  0.16168298099E-02  0.23499775695E-01 -0.34109542764E-02  0.23801012698E-01  0.00000000000E+00 0.  1.
     999901    1    3    3    0    0 -0.64582946539E-01 -0.11714422393E+00  0.60219660434E-01  0.89214356114E+00  0.88000000000E+00 0. -1.
        -11    1    4    4    0    0  0.46703573318E-03  0.87906686044E-02 -0.77460485793E-02  0.11736965812E-01  0.51100000000E-03 0.  1.
         11    1    4    4    0    0  0.62499080996E-01  0.84853779634E-01 -0.49062657578E-01  0.11624846035E+00  0.51100000000E-03 0. -1.
</event>
<event>
 8    1  0.1157726E+005  0.1043930E+01  0.7957747E-01            NaN
         13   -1    0    0    0    0  0.00000000000E+00  0.00000000000E+00  0.74505805969E-08  0.10566000000E+00  0.10566000000E+00 0. -1.
     999900   -1    0    0    0    0 -0.00000000000E+00 -0.00000000000E+00 -0.74505805969E-08  0.93827000000E+00  0.93827000000E+00 0. -1.
     999902    2    1    2    0    0 -0.34124525988E-02 -0.23287031881E-01  0.31633790680E-02  0.10201826285E+01  0.10199062005E+01 0.  0.
     999903    2    3    3    0    0 -0.39234444590E-02 -0.12846645480E+00  0.29393483520E-01  0.13353106756E+00  0.21155276031E-01 0.  0.
         14    1    1    2    0    0  0.34124525988E-02  0.23287031881E-01 -0.31633790680E-02  0.23747371511E-01  0.00000000000E+00 0.  1.
     999901    1    3    3    0    0  0.51099186025E-03  0.10517942292E+00 -0.26230104452E-01  0.88665156093E+00  0.88000000000E+00 0. -1.
        -11    1    4    4    0    0  0.14656520593E-02 -0.83702141089E-01  0.28490131266E-01  0.88431585191E-01  0.51100000000E-03 0.  1.
         11    1    4    4    0    0 -0.53890965183E-02 -0.44764313714E-01  0.90335225386E-03  0.45099482368E-01  0.51100000000E-03 0. -1.
</event>
<event>
 8    1  0.1157726E+005  0.1043930E+01  0.7957747E-01            NaN
         13   -1    0    0    0    0  0.00000000000E+00  0.00000000000E+00  0.74505805969E-08  0.10566000000E+00  0.10566000000E+00 0. -1.
     999900   -1    0    0    0    0 -0.00000000000E+00 -0.00000000000E+00 -0.74505805969E-08  0.93827000000E+00  0.93827000000E+00 0.  1.
     999902    2    1    2    0    0 -0.91898208771E-02  0.13081952901E-01  0.17110860237E-01  0.10205126595E+01  0.10202439494E+01 0.  0.
     999903    2    3    3    0    0 -0.58929947185E-01 -0.28144553418E-01  0.11438712443E+00  0.13279852949E+00  0.16916874371E-01 0.  0.
         14    1    1    2    0    0  0.91898208771E-02 -0.13081952901E-01 -0.17110860237E-01  0.23417340530E-01  0.00000000000E+00 0.  1.
     999901    1    3    3    0    0  0.49740126307E-01  0.41226506319E-01 -0.97276264188E-01  0.88771412998E+00  0.88000000000E+00 0.  1.
        -11    1    4    4    0    0 -0.32032995183E-01 -0.13710657472E-01  0.77085599189E-01  0.84596368906E-01  0.51100000000E-03 0.  1.
         11    1    4    4    0    0 -0.26896952001E-01 -0.14433895946E-01  0.37301525236E-01  0.48202160585E-01  0.51100000000E-03 0. -1.
</event>
<event>
 8    1  0.1157726E+005  0.1043930E+01  0.7957747E-01            NaN
         13   -1    0    0    0    0  0.00000000000E+00  0.00000000000E+00  0.74505805969E-08  0.10566000000E+00  0.10566000000E+00 0. -1.
     999900   -1    0    0    0    0 -0.00000000000E+00 -0.00000000000E+00 -0.74505805969E-08  0.93827000000E+00  0.93827000000E+00 0.  1.
     999902    2    1    2    0    0 -0.70814158606E-02  0.12636150030E-01 -0.18952340705E-01  0.10200760704E+01  0.10197971266E+01 0.  0.
     999903    2    3    3    0    0  0.68393718721E-01  0.87171400277E-02  0.10598036485E+00  0.12804466094E+00  0.20246189081E-01 0.  0.
         14    1    1    2    0    0  0.70814158606E-02 -0.12636150030E-01  0.18952340705E-01  0.23853929579E-01  0.00000000000E+00 0. -1.
     999901    1    3    3    0    0 -0.75475134582E-01  0.39190100019E-02 -0.12493270555E+00  0.89203140948E+00  0.88000000000E+00 0.  1.
        -11    1    4    4    0    0  0.61185822068E-02  0.37512996230E-02  0.23483854137E-01  0.24561388870E-01  0.51100000000E-03 0.  1.
         11    1    4    4    0    0  0.62275136514E-01  0.49658404048E-02  0.82496510709E-01  0.10348327207E+00  0.51100000000E-03 0. -1.
</event>
<event>
 8    1  0.1157726E+005  0.1043930E+01  0.7957747E-01            NaN
         13   -1    0    0    0    0  0.00000000000E+00  0.00000000000E+00  0.74505805969E-08  0.10566000000E+00  0.10566000000E+00 0.  1.
     999900   -1    0    0    0    0 -0.00000000000E+00 -0.00000000000E+00 -0.74505805969E-08  0.93827000000E+00  0.93827000000E+00 0.  1.
     999902    2    1    2    0    0  0.15533327112E-01  0.95714558395E-02  0.14033806932E-01  0.10209116431E+01  0.10206521142E+01 0.  0.
     999903    2    3    3    0    0  0.11294406596E+00 -0.32816655002E-01  0.59797641513E-01  0.13334196552E+00  0.19262060031E-01 0.  0.
         14    1    1    2    0    0 -0.15533327112E-01 -0.95714558395E-02 -0.14033806932E-01  0.23018356915E-01  0.00000000000E+00 0.  1.
     999901    1    3    3    0    0 -0.97410738847E-01  0.42388110841E-01 -0.45763834581E-01  0.88756967757E+00  0.88000000000E+00 0. -1.
        -11    1    4    4    0    0  0.30210147585E-01 -0.12846568724E-01  0.25534134757E-01  0.41592553467E-01  0.51100000000E-03 0. -1.
         11    1    4    4    0    0  0.82733918373E-01 -0.19970086278E-01  0.34263506757E-01  0.91749412050E-01  0.51100000000E-03 0.  1.
</event>
<event>
 8    1  0.1157726E+005  0.1043930E+01  0.7957747E-01            NaN
         13   -1    0    0    0    0  0.00000000000E+00  0.00000000000E+00  0.74505805969E-08  0.10566000000E+00  0.10566000000E+00 0.  1.
     999900   -1    0    0    0    0 -0.00000000000E+00 -0.00000000000E+00 -0.74505805969E-08  0.93827000000E+00  0.93827000000E+00 0. -1.
     999902    2    1    2    0    0 -0.14074289893E-01  0.10547341375E-01  0.15740283752E-01  0.10203272760E+01  0.10200542445E+01 0.  0.
     999903    2    3    3    0    0 -0.11940553228E+00  0.23777233204E-01  0.50271936768E-01  0.13327477718E+00  0.20294350150E-01 0.  0.
         14    1    1    2    0    0  0.14074289893E-01 -0.10547341375E-01 -0.15740283752E-01  0.23602723967E-01  0.00000000000E+00 0.  1.
     999901    1    3    3    0    0  0.10533124239E+00 -0.13229891830E-01 -0.34531653015E-01  0.88705249885E+00  0.88000000000E+00 0. -1.
        -11    1    4    4    0    0 -0.59378905137E-01  0.21135221234E-01  0.20995880823E-01  0.66435232252E-01  0.51100000000E-03 0.  1.
         11    1    4    4    0    0 -0.60026627144E-01  0.26420119697E-02  0.29276055945E-01  0.66839544928E-01  0.51100000000E-03 0. -1.
</event>
<event>
 8    1  0.1157726E+005  0.1043930E+01  0.7957747E-01            NaN
         13   -1    0    0    0    0  0.00000000000E+00  0.00000000000E+00  0.74505805969E-08  0.10566000000E+00  0.10566000000E+00 0. -1.
     999900   -1    0    0    0    0 -0.00000000000E+00 -0.00000000000E+00 -0.74505805969E-08  0.93827000000E+00  0.93827000000E+00 0. -1.
     999902    2    1    2    0    0  0.18208554026E-02 -0.19170747205E-01 -0.18589700940E-01  0.10171641627E+01  0.10168119413E+01 0.  0.
     999903    2    3    3    0    0 -0.64849702482E-01 -0.94396456076E-01 -0.59173661953E-01  0.13051263681E+00  0.20392431568E-01 0.  0.
         14    1    1    2    0    0 -0.18208554026E-02  0.19170747205E-01  0.18589700940E-01  0.26765837253E-01  0.00000000000E+00 0. -1.
     999901    1    3    3    0    0  0.66670557884E-01  0.75225708871E-01  0.40583961013E-01  0.88665152594E+00  0.88000000000E+00 0.  1.
        -11    1    4    4    0    0 -0.53577213937E-01 -0.85224442428E-01 -0.45214837168E-01  0.11035563448E+00  0.51100000000E-03 0. -1.
         11    1    4    4    0    0 -0.11272488545E-01 -0.91720136479E-02 -0.13958824785E-01  0.20157002325E-01  0.51100000000E-03 0.  1.
</event>
<event>
 8    1  0.1157726E+005  0.1043930E+01  0.7957747E-01            NaN
         13   -1    0    0    0    0  0.00000000000E+00  0.00000000000E+00  0.74505805969E-08  0.10566000000E+00  0.10566000000E+00 0. -1.
     999900   -1    0    0    0    0 -0.00000000000E+00 -0.00000000000E+00 -0.74505805969E-08  0.93827000000E+00  0.93827000000E+00 0.  1.
     999902    2    1    2    0    0  0.20039107885E-02 -0.14734516514E-01 -0.19226443975E-01  0.10196240793E+01  0.10193343344E+01 0.  0.
     999903    2    3    3    0    0 -0.89318214331E-01 -0.24004931820E-01 -0.91655006516E-01  0.13189012823E+00  0.20985364929E-01 0.  0.
         14    1    1    2    0    0 -0.20039107885E-02  0.14734516514E-01  0.19226443975E-01  0.24305920745E-01  0.00000000000E+00 0.  1.
     999901    1    3    3    0    0  0.91322125119E-01  0.92704153063E-02  0.72428562541E-01  0.88773395103E+00  0.88000000000E+00 0. -1.
        -11    1    4    4    0    0 -0.68129950091E-01 -0.99282553414E-02 -0.60411882199E-01  0.91597581766E-01  0.51100000000E-03 0.  1.
         11    1    4    4    0    0 -0.21188264239E-01 -0.14076676479E-01 -0.31243124317E-01  0.40292546460E-01  0.51100000000E-03 0. -1.
</event>
<event>
 8    1  0.1157726E+005  0.1043930E+01  0.7957747E-01            NaN
         13   -1    0    0    0    0  0.00000000000E+00  0.00000000000E+00  0.74505805969E-08  0.10566000000E+00  0.10566000000E+00 0.  1.
     999900   -1    0    0    0    0 -0.00000000000E+00 -0.00000000000E+00 -0.74505805969E-08  0.93827000000E+00  0.93827000000E+00 0. -1.
     999902    2    1    2    0    0 -0.88004942966E-02 -0.22582942581E-01 -0.16889430210E-02  0.10196341048E+01  0.10193446018E+01 0.  0.
     999903    2    3    3    0    0 -0.94465746729E-01  0.58703529780E-01 -0.63899361093E-01  0.12956884753E+00  0.18305086424E-01 0.  0.
         14    1    1    2    0    0  0.88004942966E-02  0.22582942581E-01  0.16889430210E-02  0.24295895209E-01  0.00000000000E+00 0. -1.
     999901    1    3    3    0    0  0.85665252432E-01 -0.81286472360E-01  0.62210418072E-01  0.89006525726E+00  0.88000000000E+00 0. -1.
        -11    1    4    4    0    0 -0.34206050195E-01  0.31784540899E-01 -0.25315012204E-01  0.53117058221E-01  0.51100000000E-03 0.  1.
         11    1    4    4    0    0 -0.60259696534E-01  0.26918988880E-01 -0.38584348889E-01  0.76451789311E-01  0.51100000000E-03 0. -1.
</event>
<event>
 8    1  0.1157726E+005  0.1043930E+01  0.7957747E-01            NaN
         13   -1    0    0    0    0  0.00000000000E+00  0.00000000000E+00  0.74505805969E-08  0.10566000000E+00  0.10566000000E+00 0.  1.
     999900   -1    0    0    0    0 -0.00000000000E+00 -0.00000000000E+00 -0.74505805969E-08  0.93827000000E+00  0.93827000000E+00 0. -1.
     999902    2    1    2    0    0  0.23332542355E-01  0.25113745796E-03 -0.82591061931E-03  0.10205814940E+01  0.10203143796E+01 0.  0.
     999903    2    3    3    0    0 -0.67960113662E-01 -0.10805218031E+00  0.64895229466E-02  0.12922439766E+00  0.19052042508E-01 0.  0.
         14    1    1    2    0    0 -0.23332542355E-01 -0.25113745796E-03  0.82591061931E-03  0.23348505972E-01  0.00000000000E+00 0. -1.
     999901    1    3    3    0    0  0.91292656016E-01  0.10830331777E+00 -0.73154335659E-02  0.89135709637E+00  0.88000000000E+00 0.  1.
        -11    1    4    4    0    0 -0.50956505648E-01 -0.89554079587E-01  0.11238325037E-01  0.10364873231E+00  0.51100000000E-03 0. -1.
         11    1    4    4    0    0 -0.17003608014E-01 -0.18498100721E-01 -0.47488020902E-02  0.25575665350E-01  0.51100000000E-03 0.  1.
</event>
<event>
 8    1  0.1157726E+005  0.1043930E+01  0.7957747E-01            NaN
         13   -1    0    0    0    0  0.00000000000E+00  0.00000000000E+00  0.74505805969E-08  0.10566000000E+00  0.10566000000E+00 0.  1.
     999900   -1    0    0    0    0 -0.00000000000E+00 -0.00000000000E+00 -0.74505805969E-08  0.93827000000E+00  0.93827000000E+00 0. -1.
     999902    2    1    2    0    0 -0.20700772643E-01  0.10692904550E-01 -0.43301255012E-02  0.10202316840E+01  0.10199564102E+01 0.  0.
     999903    2    3    3    0    0 -0.47082825408E-01  0.10498405596E+00  0.61918051403E-01  0.13232647795E+00  0.20928622091E-01 0.  0.
         14    1    1    2    0    0  0.20700772643E-01 -0.10692904550E-01  0.43301255012E-02  0.23698316028E-01  0.00000000000E+00 0.  1.
     999901    1    3    3    0    0  0.26382052765E-01 -0.94291151409E-01 -0.66248176904E-01  0.88790520602E+00  0.88000000000E+00 0. -1.
        -11    1    4    4    0    0 -0.41046076132E-01  0.84099414388E-01  0.41058992160E-01  0.10219390307E+00  0.51100000000E-03 0. -1.
         11    1    4    4    0    0 -0.60367492760E-02  0.20884641571E-01  0.20859059242E-01  0.30132574879E-01  0.51100000000E-03 0.  1.
</event>
<event>
 8    1  0.1157726E+005  0.1043930E+01  0.7957747E-01            NaN
         13   -1    0    0    0    0  0.00000000000E+00  0.00000000000E+00  0.74505805969E-08  0.10566000000E+00  0.10566000000E+00 0. -1.
     999900   -1    0    0    0    0 -0.00000000000E+00 -0.00000000000E+00 -0.74505805969E-08  0.93827000000E+00  0.93827000000E+00 0.  1.
     999902    2    1    2    0    0  0.79565238704E-02  0.11489495014E-01  0.19439841254E-01  0.10199879409E+01  0.10197069076E+01 0.  0.
     999903    2    3    3    0    0 -0.10980903852E+00  0.25447019303E-01 -0.58620648129E-01  0.12860868366E+00  0.19955886156E-01 0.  0.
         14    1    1    2    0    0 -0.79565238704E-02 -0.11489495014E-01 -0.19439841254E-01  0.23942059138E-01  0.00000000000E+00 0.  1.
     999901    1    3    3    0    0  0.11776556239E+00 -0.13957524289E-01  0.78060489383E-01  0.89137925720E+00  0.88000000000E+00 0. -1.
        -11    1    4    4    0    0 -0.45812154463E-01  0.88965481702E-02 -0.13537582966E-01  0.48594540222E-01  0.51100000000E-03 0. -1.
         11    1    4    4    0    0 -0.63996884062E-01  0.16550471133E-01 -0.45083065163E-01  0.80014143436E-01  0.51100000000E-03 0.  1.
</event>
<event>
 8    1  0.1157726E+005  0.1043930E+01  0.7957747E-01            NaN
         13   -1    0    0    0    0  0.00000000000E+00  0.00000000000E+00  0.74505805969E-08  0.10566000000E+00  0.10566000000E+00 0. -1.
     999900   -1    0    0    0    0 -0.00000000000E+00 -0.00000000000E+00 -0.74505805969E-08  0.93827000000E+00  0.93827000000E+00 0.  1.
     999902    2    1    2    0    0  0.10061564098E-01  0.39325836742E-02  0.21284702347E-01  0.10200607972E+01  0.10197814919E+01 0.  0.
     999903    2    3    3    0    0  0.67184777119E-01  0.10754397737E+00  0.31107539301E-01  0.13208846068E+00  0.20004526941E-01 0.  0.
         14    1    1    2    0    0 -0.10061564098E-01 -0.39325836742E-02 -0.21284702347E-01  0.23869202762E-01  0.00000000000E+00 0.  1.
     999901    1    3    3    0    0 -0.57123213021E-01 -0.10361139370E+00 -0.98228369532E-02  0.88797233656E+00  0.88000000000E+00 0.  1.
        -11    1    4    4    0    0  0.43069691374E-01  0.84282558434E-01  0.19608263872E-01  0.96660711276E-01  0.51100000000E-03 0. -1.
         11    1    4    4    0    0  0.24115085745E-01  0.23261418936E-01  0.11499275428E-01  0.35427749403E-01  0.51100000000E-03 0.  1.
</event>
<event>
 8    1  0.1157726E+005  0.1043930E+01  0.7957747E-01            NaN
         13   -1    0    0    0    0  0.00000000000E+00  0.00000000000E+00  0.74505805969E-08  0.10566000000E+00  0.10566000000E+00 0.  1.
     999900   -1    0    0    0    0 -0.00000000000E+00 -0.00000000000E+00 -0.74505805969E-08  0.93827000000E+00  0.93827000000E+00 0.  1.
     999902    2    1    2    0    0  0.80914619309E-02  0.16476227026E-01 -0.18118411376E-01  0.10181382447E+01  0.10178115103E+01 0.  0.
     999903    2    3    3    0    0  0.76834854187E-01  0.98445504825E-01 -0.34870620766E-01  0.13150119771E+00  0.21942938943E-01 0.  0.
         14    1    1    2    0    0 -0.80914619309E-02 -0.16476227026E-01  0.18118411376E-01  0.25791755349E-01  0.00000000000E+00 0.  1.
     999901    1    3    3    0    0 -0.68743392256E-01 -0.81969277798E-01  0.16752209389E-01  0.88663704694E+00  0.88000000000E+00 0. -1.
        -11    1    4    4    0    0  0.69529687760E-01  0.75357824232E-01 -0.29454584222E-01  0.10668182978E+00  0.51100000000E-03 0. -1.
         11    1    4    4    0    0  0.73051664268E-02  0.23087680593E-01 -0.54160365431E-02  0.24819367931E-01  0.51100000000E-03 0.  1.
</event>
<event>
 8    1  0.1157726E+005  0.1043930E+01  0.7957747E-01            NaN
         13   -1    0    0    0    0  0.00000000000E+00  0.00000000000E+00  0.74505805969E-08  0.10566000000E+00  0.10566000000E+00 0. -1.
     999900   -1    0    0    0    0 -0.00000000000E+00 -0.00000000000E+00 -0.74505805969E-08  0.93827000000E+00  0.93827000000E+00 0.  1.
     999902    2    1    2    0    0 -0.39114358425E-02 -0.22112936314E-01  0.86631512275E-02  0.10198606944E+01  0.10195766300E+01 0.  0.
     999903    2    3    3    0    0 -0.64354346613E-02  0.28695092478E-03  0.12926128026E+00  0.13134956096E+00  0.22421673250E-01 0.  0.
         14    1    1    2    0    0  0.39114358425E-02  0.22112936314E-01 -0.86631512275E-02  0.24069305598E-01  0.00000000000E+00 0. -1.
     999901    1    3    3    0    0  0.25239988188E-02 -0.22399887239E-01 -0.12059812903E+00  0.88851113344E+00  0.88000000000E+00 0.  1.
        -11    1    4    4    0    0 -0.10477524881E-01 -0.76719587388E-02  0.53192207945E-01  0.54756822274E-01  0.51100000000E-03 0. -1.
         11    1    4    4    0    0  0.40420902196E-02  0.79589096636E-02  0.76069072313E-01  0.76592738689E-01  0.51100000000E-03 0.  1.
</event>
<event>
 8    1  0.1157726E+005  0.1043930E+01  0.7957747E-01            NaN
         13   -1    0    0    0    0  0.00000000000E+00  0.00000000000E+00  0.74505805969E-08  0.10566000000E+00  0.10566000000E+00 0. -1.
     999900   -1    0    0    0    0 -0.00000000000E+00 -0.00000000000E+00 -0.74505805969E-08  0.93827000000E+00  0.93827000000E+00 0.  1.
     999902    2    1    2    0    0  0.19913230818E-01  0.12069634086E-01 -0.54809477088E-02  0.10200081770E+01  0.10197276242E+01 0.  0.
     999903    2    3    3    0    0  0.89228213855E-01  0.93464691461E-01  0.26099940527E-01  0.13297544098E+00  0.17433826637E-01 0.  0.
         14    1    1    2    0    0 -0.19913230818E-01 -0.12069634086E-01  0.54809477088E-02  0.23921823015E-01  0.00000000000E+00 0. -1.
     999901    1    3    3    0    0 -0.69314983037E-01 -0.81395057375E-01 -0.31580888236E-01  0.88703273600E+00  0.88000000000E+00 0. -1.
        -11    1    4    4    0    0  0.42087506937E-01  0.31765641531E-01  0.11294299207E-01  0.53928068180E-01  0.51100000000E-03 0. -1.
         11    1    4    4    0    0  0.47140706917E-01  0.61699049930E-01  0.14805641320E-01  0.79047372802E-01  0.51100000000E-03 0.  1.
</event>
<event>
 8    1  0.1157726E+005  0.1043930E+01  0.7957747E-01            NaN
         13   -1    0    0    0    0  0.00000000000E+00  0.00000000000E+00  0.74505805969E-08  0.10566000000E+00  0.10566000000E+00 0.  1.
     999900   -1    0    0    0    0 -0.00000000000E+00 -0.00000000000E+00 -0.74505805969E-08  0.93827000000E+00  0.93827000000E+00 0. -1.
     999902    2    1    2    0    0  0.20269813487E-01  0.69871895377E-02  0.10559473721E-01  0.10200304468E+01  0.10197504223E+01 0.  0.
     999903    2    3    3    0    0 -0.16609588105E-01 -0.11737883244E+00  0.47648448861E-01  0.12974813781E+00  0.22595040660E-01 0.  0.
         14    1    1    2    0    0 -0.20269813487E-01 -0.69871895377E-02 -0.10559473721E-01  0.23899553169E-01  0.00000000000E+00 0. -1.
     999901    1    3    3    0    0  0.36879401592E-01  0.12436602198E+00 -0.37088975140E-01  0.89028230902E+00  0.88000000000E+00 0.  1.
        -11    1    4    4    0    0 -0.14917906217E-01 -0.48243666599E-01  0.28505770501E-01  0.57989959180E-01  0.51100000000E-03 0. -1.
         11    1    4    4    0    0 -0.16916818884E-02 -0.69135165845E-01  0.19142678359E-01  0.71758178626E-01  0.51100000000E-03 0.  1.
</event>
<event>
 8    1  0.1157726E+005  0.1043930E+01  0.7957747E-01            NaN
         13   -1    0    0    0    0  0.00000000000E+00  0.00000000000E+00  0.74505805969E-08  0.10566000000E+00  0.10566000000E+00 0. -1.
     999900   -1    0    0    0    0 -0.00000000000E+00 -0.00000000000E+00 -0.74505805969E-08  0.93827000000E+00  0.93827000000E+00 0.  1.
     999902    2    1    2    0    0 -0.22184376881E-01 -0.88873718523E-02  0.25070635057E-02  0.10199004906E+01  0.10196173760E+01 0.  0.
     999903    2    3    3    0    0  0.62776470544E-01  0.52699681843E-01  0.97086791168E-01  0.12863361939E+00  0.20065425431E-01 0.  0.
         14    1    1    2    0    0  0.22184376881E-01  0.88873718523E-02 -0.25070635057E-02  0.24029509431E-01  0.00000000000E+00 0. -1.
     999901    1    3    3    0    0 -0.84960847426E-01 -0.61587053695E-01 -0.94579727662E-01  0.89126687118E+00  0.88000000000E+00 0.  1.
        -11    1    4    4    0    0  0.50252962609E-02  0.12286233655E-01  0.10192021813E-01  0.16743463488E-01  0.51100000000E-03 0. -1.
         11    1    4    4    0    0  0.57751174283E-01  0.40413448188E-01  0.86894769354E-01  0.11189015590E+00  0.51100000000E-03 0.  1.
</event>
<event>
 8    1  0.1157726E+005  0.1043930E+01  0.7957747E-01            NaN
         13   -1    0    0    0    0  0.00000000000E+00  0.00000000000E+00  0.74505805969E-08  0.10566000000E+00  0.10566000000E+00 0.  1.
     999900   -1    0    0    0    0 -0.00000000000E+00 -0.00000000000E+00 -0.74505805969E-08  0.93827000000E+00  0.93827000000E+00 0.  1.
     999902    2    1    2    0    0 -0.50074803629E-03 -0.14189787206E-01  0.18421851300E-01  0.10206713368E+01  0.10204062977E+01 0.  0.
     999903    2    3    3    0    0 -0.12772413531E+00 -0.15837791436E-01  0.13011640957E-01  0.13150443649E+00  0.23660592513E-01 0.  0.
         14    1    1    2    0    0  0.50074803629E-03  0.14189787206E-01 -0.18421851300E-01  0.23258663222E-01  0.00000000000E+00 0. -1.
     999901    1    3    3    0    0  0.12722338728E+00  0.16480042299E-02  0.54102103432E-02  0.88916690029E+00  0.88000000000E+00 0. -1.
        -11    1    4    4    0    0 -0.59400944501E-01  0.14116863801E-03 -0.31924288746E-02  0.59489031420E-01  0.51100000000E-03 0. -1.
         11    1    4    4    0    0 -0.68323190811E-01 -0.15978960074E-01  0.16204069832E-01  0.72015405072E-01  0.51100000000E-03 0.  1.
</event>
<event>
 8    1  0.1157726E+005  0.1043930E+01  0.7957747E-01            NaN
         13   -1    0    0    0    0  0.00000000000E+00  0.00000000000E+00  0.74505805969E-08  0.10566000000E+00  0.10566000000E+00 0. -1.
     999900   -1    0    0    0    0 -0.00000000000E+00 -0.00000000000E+00 -0.74505805969E-08  0.93827000000E+00  0.93827000000E+00 0.  1.
     999902    2    1    2    0    0  0.16321028829E-01  0.16002721977E-01 -0.56415953322E-02  0.10203866211E+01  0.10201149768E+01 0.  0.
     999903    2    3    3    0    0  0.77262399237E-02 -0.11733188998E+00  0.47411257793E-01  0.12872155260E+00  0.22247326766E-01 0.  0.
         14    1    1    2    0    0 -0.16321028829E-01 -0.16002721977E-01  0.56415953322E-02  0.23543378912E-01  0.00000000000E+00 0. -1.
     999901    1    3    3    0    0  0.85947889050E-02  0.13333461196E+00 -0.53052853125E-01  0.89166506849E+00  0.88000000000E+00 0.  1.
        -11    1    4    4    0    0  0.57238249305E-02 -0.39448641409E-01  0.27109071280E-01  0.48209131371E-01  0.51100000000E-03 0. -1.
         11    1    4    4    0    0  0.20024149931E-02 -0.77883248569E-01  0.20302186513E-01  0.80512421226E-01  0.51100000000E-03 0.  1.
</event>
<event>
 8    1  0.1157726E+005  0.1043930E+01  0.7957747E-01            NaN
         13   -1    0    0    0    0  0.00000000000E+00  0.00000000000E+00  0.74505805969E-08  0.10566000000E+00  0.10566000000E+00 0.  1.
     999900   -1    0    0    0    0 -0.00000000000E+00 -0.00000000000E+00 -0.74505805969E-08  0.93827000000E+00  0.93827000000E+00 0. -1.
     999902    2    1    2    0    0  0.85936767619E-02 -0.29986198268E-02 -0.21932598323E-01  0.10201838030E+01  0.10199074027E+01 0.  0.
     999903    2    3    3    0    0 -0.40679261340E-01  0.12160566895E+00  0.15755951004E-02  0.12973072377E+00  0.19617267035E-01 0.  0.
         14    1    1    2    0    0 -0.85936767619E-02  0.29986198268E-02  0.21932598323E-01  0.23746196966E-01  0.00000000000E+00 0.  1.
     999901    1    3    3    0    0  0.49272938102E-01 -0.12460428878E+00 -0.23508193423E-01  0.89045307926E+00  0.88000000000E+00 0.  1.
        -11    1    4    4    0    0  0.60939705328E-03  0.66905137594E-02 -0.33465822753E-02  0.75229696968E-02  0.51100000000E-03 0. -1.
         11    1    4    4    0    0 -0.41288658394E-01  0.11491515519E+00  0.49221773757E-02  0.12220775407E+00  0.51100000000E-03 0.  1.
</event>
<event>
 8    1  0.1157726E+005  0.1043930E+01  0.7957747E-01            NaN
         13   -1    0    0    0    0  0.00000000000E+00  0.00000000000E+00  0.74505805969E-08  0.10566000000E+00  0.10566000000E+00 0. -1.
     999900   -1    0    0    0    0 -0.00000000000E+00 -0.00000000000E+00 -0.74505805969E-08  0.93827000000E+00  0.93827000000E+00 0. -1.
     999902    2    1    2    0    0 -0.93768462955E-02 -0.13794002006E-01 -0.16508157906E-01  0.10204625968E+01  0.10201927231E+01 0.  0.
     999903    2    3    3    0    0  0.11060410554E+00  0.15550126673E-01  0.60611838216E-01  0.12849622940E+00  0.19037106809E-01 0.  0.
         14    1    1    2    0    0  0.93768462955E-02  0.13794002006E-01  0.16508157906E-01  0.23467403249E-01  0.00000000000E+00 0. -1.
     999901    1    3    3    0    0 -0.11998095183E+00 -0.29344128679E-01 -0.77119996122E-01  0.89196636736E+00  0.88000000000E+00 0. -1.
        -11    1    4    4    0    0  0.85854716697E-01  0.18506780412E-01  0.52278356631E-01  0.10220969129E+00  0.51100000000E-03 0.  1.
         11    1    4    4    0    0  0.24749388841E-01 -0.29566537387E-02  0.83334815851E-02  0.26286538107E-01  0.51100000000E-03 0. -1.
</event>
<event>
 7    1  0.1157726E+005  0.1043930E+01  0.7957747E-01            NaN
         13   -1    0    0    0    0  0.00000000000E+00  0.00000000000E+00  0.74505805969E-08  0.10566000000E+00  0.10566000000E+00 0.  1.
     999900   -1    0    0    0    0 -0.00000000000E+00 -0.00000000000E+00 -0.74505805969E-08  0.93827000000E+00  0.93827000000E+00 0. -1.
     999903    2    1    2    0    0 -0.83882206440E-01 -0.75834242203E-01  0.36971678553E-01  0.12069001685E+00  0.20300697163E-01 0.  0.
         14    1    1    2    0    0  0.24279364287E-01  0.85834832714E-02 -0.28788789236E-01  0.38625873465E-01  0.00000000000E+00 0. -1.
     999901    1    1    2    0    0  0.59602842153E-01  0.67250758932E-01 -0.81828893166E-02  0.88461410968E+00  0.88000000000E+00 0. -1.
        -11    1    3    3    0    0 -0.69346658649E-01 -0.58720222435E-01  0.21385664163E-01  0.93352189805E-01  0.51100000000E-03 0.  1.
         11    1    3    3    0    0 -0.14535547791E-01 -0.17114019768E-01  0.15586014389E-01  0.27337827049E-01  0.51100000000E-03 0. -1.
</event>
<event>
 8    1  0.1157726E+005  0.1043930E+01  0.7957747E-01            NaN
         13   -1    0    0    0    0  0.00000000000E+00  0.00000000000E+00  0.74505805969E-08  0.10566000000E+00  0.10566000000E+00 0.  1.
     999900   -1    0    0    0    0 -0.00000000000E+00 -0.00000000000E+00 -0.74505805969E-08  0.93827000000E+00  0.93827000000E+00 0.  1.
     999902    2    1    2    0    0 -0.19086788774E-01  0.13875655667E-01 -0.63842248434E-02  0.10194841895E+01  0.10191910591E+01 0.  0.
     999903    2    3    3    0    0  0.42322478154E-01 -0.68040085168E-01  0.97010030987E-01  0.12753595173E+00  0.20828526702E-01 0.  0.
         14    1    1    2    0    0  0.19086788774E-01 -0.13875655667E-01  0.63842248434E-02  0.24445810535E-01  0.00000000000E+00 0.  1.
     999901    1    3    3    0    0 -0.61409266927E-01  0.81915740835E-01 -0.10339425583E+00  0.89194823774E+00  0.88000000000E+00 0.  1.
        -11    1    4    4    0    0  0.10959297512E-02 -0.11709761711E-01  0.72463643549E-02  0.13823548702E-01  0.51100000000E-03 0.  1.
         11    1    4    4    0    0  0.41226548403E-01 -0.56330323457E-01  0.89763666632E-01  0.11371240303E+00  0.51100000000E-03 0. -1.
</event>
<event>
 8    1  0.1157726E+005  0.1043930E+01  0.7957747E-01            NaN
         13   -1    0    0    0    0  0.00000000000E+00  0.00000000000E+00  0.74505805969E-08  0.10566000000E+00  0.10566000000E+00 0.  1.
     999900   -1    0    0    0    0 -0.00000000000E+00 -0.00000000000E+00 -0.74505805969E-08  0.93827000000E+00  0.93827000000E+00 0. -1.
     999902    2    1    2    0    0  0.19108774857E-01 -0.14028938539E-01 -0.32953302237E-02  0.10199964337E+01  0.10197156021E+01 0.  0.
     999903    2    3    3    0    0 -0.12625564225E+00 -0.69460643618E-02  0.74727345315E-03  0.12803380923E+00  0.20083895950E-01 0.  0.
         14    1    1    2    0    0 -0.19108774857E-01  0.14028938539E-01  0.32953302237E-02  0.23933566269E-01  0.00000000000E+00 0.  1.
     999901    1    3    3    0    0  0.14536441711E+00 -0.70828741772E-02 -0.40426036769E-02  0.89196262450E+00  0.88000000000E+00 0. -1.
        -11    1    4    4    0    0 -0.48017497191E-01  0.23384076085E-02 -0.80826200678E-02  0.48751800529E-01  0.51100000000E-03 0.  1.
         11    1    4    4    0    0 -0.78238145062E-01 -0.92844719703E-02  0.88298935209E-02  0.79282008697E-01  0.51100000000E-03 0. -1.
</event>
<event>
 8    1  0.1157726E+005  0.1043930E+01  0.7957747E-01            NaN
         13   -1    0    0    0    0  0.00000000000E+00  0.00000000000E+00  0.74505805969E-08  0.10566000000E+00  0.10566000000E+00 0. -1.
     999900   -1    0    0    0    0 -0.00000000000E+00 -0.00000000000E+00 -0.74505805969E-08  0.93827000000E+00  0.93827000000E+00 0.  1.
     999902    2    1    2    0    0 -0.69118702769E-02  0.41379041098E-02 -0.22690345581E-01  0.10198520436E+01  0.10195677726E+01 0.  0.
     999903    2    3    3    0    0  0.40430964839E-02 -0.86758708481E-01  0.91513618262E-01  0.12776194119E+00  0.20123398417E-01 0.  0.
         14    1    1    2    0    0  0.69118702769E-02 -0.41379041098E-02  0.22690345581E-01  0.24077956386E-01  0.00000000000E+00 0. -1.
     999901    1    3    3    0    0 -0.10954966761E-01  0.90896612591E-01 -0.11420396384E+00  0.89209010242E+00  0.88000000000E+00 0.  1.
        -11    1    4    4    0    0 -0.12080259671E-02 -0.35711005967E-01  0.24378886475E-01  0.43258831476E-01  0.51100000000E-03 0.  1.
         11    1    4    4    0    0  0.52511224510E-02 -0.51047702514E-01  0.67134731787E-01  0.84503109718E-01  0.51100000000E-03 0. -1.
</event>
<event>
 8    1  0.1157726E+005  0.1043930E+01  0.7957747E-01            NaN
         13   -1    0    0    0    0  0.00000000000E+00  0.00000000000E+00  0.74505805969E-08  0.10566000000E+00  0.10566000000E+00 0. -1.
     999900   -1    0    0    0    0 -0.00000000000E+00 -0.00000000000E+00 -0.74505805969E-08  0.93827000000E+00  0.93827000000E+00 0.  1.
     999902    2    1    2    0    0  0.75551461210E-02 -0.22813603098E-01 -0.55098046308E-02  0.10192743989E+01  0.10189761536E+01 0.  0.
     999903    2    3    3    0    0 -0.51283002254E-01  0.96415658841E-01  0.61116480069E-01  0.12679660845E+00  0.20401720238E-01 0.  0.
         14    1    1    2    0    0 -0.75551461210E-02  0.22813603098E-01  0.55098046308E-02  0.24655601114E-01  0.00000000000E+00 0. -1.
     999901    1    3    3    0    0  0.58838148375E-01 -0.11922926194E+00 -0.66626284700E-01  0.89247779043E+00  0.88000000000E+00 0.  1.
        -11    1    4    4    0    0 -0.34017138857E-01  0.43321403339E-01  0.26759641629E-01  0.61239278770E-01  0.51100000000E-03 0.  1.
         11    1    4    4    0    0 -0.17265863397E-01  0.53094255503E-01  0.34356838440E-01  0.65557329680E-01  0.51100000000E-03 0. -1.
</event>
<event>
 8    1  0.1157726E+005  0.1043930E+01  0.7957747E-01            NaN
         13   -1    0    0    0    0  0.00000000000E+00  0.00000000000E+00  0.74505805969E-08  0.10566000000E+00  0.10566000000E+00 0.  1.
     999900   -1    0    0    0    0 -0.00000000000E+00 -0.00000000000E+00 -0.74505805969E-08  0.93827000000E+00  0.93827000000E+00 0. -1.
     999902    2    1    2    0    0 -0.16386864072E-01  0.97473173367E-03 -0.22855626441E-01  0.10157900093E+01  0.10154001595E+01 0.  0.
     999903    2    3    3    0    0  0.98494684178E-01  0.64097321556E-01 -0.40679805826E-01  0.12590241369E+00  0.19669817685E-01 0.  0.
         14    1    1    2    0    0  0.16386864072E-01 -0.97473173367E-03  0.22855626441E-01  0.28139990691E-01  0.00000000000E+00 0.  1.
     999901    1    3    3    0    0 -0.11488154825E+00 -0.63122589822E-01  0.17824179386E-01  0.88988759562E+00  0.88000000000E+00 0.  1.
        -11    1    4    4    0    0  0.13634417709E-01  0.84413051229E-02  0.12592635626E-02  0.16093472098E-01  0.51100000000E-03 0. -1.
         11    1    4    4    0    0  0.84860266469E-01  0.55656016433E-01 -0.41939069389E-01  0.10980894159E+00  0.51100000000E-03 0.  1.
</event>
<event>
 8    1  0.1157726E+005  0.1043930E+01  0.7957747E-01            NaN
         13   -1    0    0    0    0  0.00000000000E+00  0.00000000000E+00  0.74505805969E-08  0.10566000000E+00  0.10566000000E+00 0.  1.
     999900   -1    0    0    0    0 -0.00000000000E+00 -0.00000000000E+00 -0.74505805969E-08  0.93827000000E+00  0.93827000000E+00 0.  1.
     999902    2    1    2    0    0  0.14810213907E-01  0.16738873482E-01  0.10097320241E-01  0.10194047437E+01  0.10191096817E+01 0.  0.
     999903    2    3    3    0    0  0.88976250638E-01 -0.77278567723E-01 -0.47775771189E-01  0.12941082518E+00  0.23997648940E-01 0.  0.
         14    1    1    2    0    0 -0.14810213907E-01 -0.16738873482E-01 -0.10097320241E-01  0.24525256318E-01  0.00000000000E+00 0.  1.
     999901    1    3    3    0    0 -0.74166036731E-01  0.94017441205E-01  0.57873091430E-01  0.88999391850E+00  0.88000000000E+00 0.  1.
        -11    1    4    4    0    0  0.62291225554E-01 -0.40024228263E-01 -0.34582886127E-01  0.81721311559E-01  0.51100000000E-03 0. -1.
         11    1    4    4    0    0  0.26685025084E-01 -0.37254339460E-01 -0.13192885062E-01  0.47689513623E-01  0.51100000000E-03 0.  1.
</event>
<event>
 8    1  0.1157726E+005  0.1043930E+01  0.7957747E-01            NaN
         13   -1    0    0    0    0  0.00000000000E+00  0.00000000000E+00  0.74505805969E-08  0.10566000000E+00  0.10566000000E+00 0. -1.
     999900   -1    0    0    0    0 -0.00000000000E+00 -0.00000000000E+00 -0.74505805969E-08  0.93827000000E+00  0.93827000000E+00 0. -1.
     999902    2    1    2    0    0 -0.97522434172E-02  0.21287755425E-01  0.12267539800E-01  0.10174957927E+01  0.10171523587E+01 0.  0.
     999903    2    3    3    0    0 -0.83814519615E-01 -0.58156723343E-01  0.75613268091E-01  0.12855860299E+00  0.20071619839E-01 0.  0.
         14    1    1    2    0    0  0.97522434172E-02 -0.21287755425E-01 -0.12267539800E-01  0.26434207297E-01  0.00000000000E+00 0.  1.
     999901    1    3    3    0    0  0.74062276198E-01  0.79444478768E-01 -0.63345728291E-01  0.88893718971E+00  0.88000000000E+00 0. -1.
        -11    1    4    4    0    0 -0.38722259329E-01 -0.15004254184E-01  0.28845782694E-01  0.50565613923E-01  0.51100000000E-03 0. -1.
         11    1    4    4    0    0 -0.45092260286E-01 -0.43152469159E-01  0.46767485397E-01  0.77992989067E-01  0.51100000000E-03 0.  1.
</event>
<event>
 8    1  0.1188656E+005  0.1043930E+01  0.7957747E-01            NaN
         13   -1    0    0    0    0  0.00000000000E+00  0.00000000000E+00  0.74505805969E-08  0.10566000000E+00  0.10566000000E+00 0. -1.
     999900   -1    0    0    0    0 -0.00000000000E+00 -0.00000000000E+00 -0.74505805969E-08  0.93827000000E+00  0.93827000000E+00 0. -1.
     999902    2    1    2    0    0 -0.10741756766E-01 -0.13614138482E-02 -0.21744382914E-01  0.10196389116E+01  0.10193495245E+01 0.  0.
     999903    2    3    3    0    0  0.73855938896E-01 -0.86389549194E-01 -0.61177199111E-01  0.13062738138E+00  0.20075087930E-01 0.  0.
         14    1    1    2    0    0  0.10741756766E-01  0.13614138482E-02  0.21744382914E-01  0.24291088375E-01  0.00000000000E+00 0. -1.
     999901    1    3    3    0    0 -0.84597695663E-01  0.85028135346E-01  0.39432816197E-01  0.88901153024E+00  0.88000000000E+00 0.  1.
        -11    1    4    4    0    0  0.44826816794E-01 -0.37065514838E-01 -0.29856225047E-01  0.65383110886E-01  0.51100000000E-03 0. -1.
         11    1    4    4    0    0  0.29029122102E-01 -0.49324034356E-01 -0.31320974064E-01  0.65244270496E-01  0.51100000000E-03 0.  1.
</event>
<event>
 8    1  0.1157726E+005  0.1043930E+01  0.7957747E-01            NaN
         13   -1    0    0    0    0  0.00000000000E+00  0.00000000000E+00  0.74505805969E-08  0.10566000000E+00  0.10566000000E+00 0. -1.
     999900   -1    0    0    0    0 -0.00000000000E+00 -0.00000000000E+00 -0.74505805969E-08  0.93827000000E+00  0.93827000000E+00 0. -1.
     999902    2    1    2    0    0  0.87638379015E-02  0.10805846404E-01 -0.21681933762E-01  0.10181680625E+01  0.10178420929E+01 0.  0.
     999903    2    3    3    0    0  0.11798364675E+00 -0.46327974769E-01  0.12574221847E-01  0.12891740923E+00  0.19878762585E-01 0.  0.
         14    1    1    2    0    0 -0.87638379015E-02 -0.10805846404E-01  0.21681933762E-01  0.25761937483E-01  0.00000000000E+00 0.  1.
     999901    1    3    3    0    0 -0.10921980885E+00  0.57133821172E-01 -0.34256155609E-01  0.88925065328E+00  0.88000000000E+00 0. -1.
        -11    1    4    4    0    0  0.61125369989E-01 -0.27059445650E-01 -0.29230137276E-02  0.66912850675E-01  0.51100000000E-03 0.  1.
         11    1    4    4    0    0  0.56858276761E-01 -0.19268529118E-01  0.15497235575E-01  0.62004558559E-01  0.51100000000E-03 0. -1.
</event>
<event>
 8    1  0.1157726E+005  0.1043930E+01  0.7957747E-01            NaN
         13   -1    0    0    0    0  0.00000000000E+00  0.00000000000E+00  0.74505805969E-08  0.10566000000E+00  0.10566000000E+00 0. -1.
     999900   -1    0    0    0    0 -0.00000000000E+00 -0.00000000000E+00 -0.74505805969E-08  0.93827000000E+00  0.93827000000E+00 0. -1.
     999902    2    1    2    0    0 -0.15067207577E-01 -0.24578497953E-02  0.16919393910E-01  0.10211412383E+01  0.10208869188E+01 0.  0.
     999903    2    3    3    0    0 -0.68260278146E-01 -0.10558381399E+00 -0.34761881987E-01  0.13202064944E+00  0.20338537086E-01 0.  0.
         14    1    1    2    0    0  0.15067207577E-01  0.24578497953E-02 -0.16919393910E-01  0.22788761706E-01  0.00000000000E+00 0. -1.
     999901    1    3    3    0    0  0.53193070569E-01  0.10312596419E+00  0.51681275897E-01  0.88912058885E+00  0.88000000000E+00 0.  1.
        -11    1    4    4    0    0 -0.10303781919E-01 -0.64386576649E-02 -0.63327516800E-02  0.13710911684E-01  0.51100000000E-03 0. -1.
         11    1    4    4    0    0 -0.57956496227E-01 -0.99145156321E-01 -0.28429130307E-01  0.11830973776E+00  0.51100000000E-03 0.  1.
</event>
<event>
 8    1  0.1157726E+005  0.1043930E+01  0.7957747E-01            NaN
         13   -1    0    0    0    0  0.00000000000E+00  0.00000000000E+00  0.74505805969E-08  0.10566000000E+00  0.10566000000E+00 0.  1.
     999900   -1    0    0    0    0 -0.00000000000E+00 -0.00000000000E+00 -0.74505805969E-08  0.93827000000E+00  0.93827000000E+00 0.  1.
     999902    2    1    2    0    0  0.11001252240E-02  0.12049219103E-01  0.20675073375E-01  0.10199747789E+01  0.10196934329E+01 0.  0.
     999903    2    3    3    0    0 -0.71809113932E-01  0.48086169237E-01  0.98630166723E-01  0.13279305263E+00  0.20910679674E-01 0.  0.
         14    1    1    2    0    0 -0.11001252240E-02 -0.12049219103E-01 -0.20675073375E-01  0.23955221050E-01  0.00000000000E+00 0. -1.
     999901    1    3    3    0    0  0.72909239156E-01 -0.36036950134E-01 -0.77955093348E-01  0.88718172632E+00  0.88000000000E+00 0. -1.
        -11    1    4    4    0    0 -0.34359873750E-01  0.34017955259E-01  0.61287126520E-01  0.78065326504E-01  0.51100000000E-03 0. -1.
         11    1    4    4    0    0 -0.37449240182E-01  0.14068213978E-01  0.37343040203E-01  0.54727726130E-01  0.51100000000E-03 0.  1.
</event>
<event>
 8    1  0.1157726E+005  0.1043930E+01  0.7957747E-01            NaN
         13   -1    0    0    0    0  0.00000000000E+00  0.00000000000E+00  0.74505805969E-08  0.10566000000E+00  0.10566000000E+00 0.  1.
     999900   -1    0    0    0    0 -0.00000000000E+00 -0.00000000000E+00 -0.74505805969E-08  0.93827000000E+00  0.93827000000E+00 0. -1.
     999902    2    1    2    0    0  0.66161249781E-02 -0.19569166477E-01  0.10158888013E-01  0.10209098264E+01  0.10206502561E+01 0.  0.
     999903    2    3    3    0    0 -0.73154554893E-01  0.61655556900E-01  0.86238399946E-01  0.13032074654E+00  0.19835290650E-01 0.  0.
         14    1    1    2    0    0 -0.66161249781E-02  0.19569166477E-01 -0.10158888013E-01  0.23020173587E-01  0.00000000000E+00 0.  1.
     999901    1    3    3    0    0  0.79770679871E-01 -0.81224723377E-01 -0.76079511933E-01  0.89058907987E+00  0.88000000000E+00 0. -1.
        -11    1    4    4    0    0 -0.19291617749E-01  0.27782268300E-01  0.34416889697E-01  0.48257687104E-01  0.51100000000E-03 0.  1.
         11    1    4    4    0    0 -0.53862937144E-01  0.33873288600E-01  0.51821510249E-01  0.82063059435E-01  0.51100000000E-03 0. -1.
</event>
<event>
 8    1  0.1157726E+005  0.1043930E+01  0.7957747E-01            NaN
         13   -1    0    0    0    0  0.00000000000E+00  0.00000000000E+00  0.74505805969E-08  0.10566000000E+00  0.10566000000E+00 0.  1.
     999900   -1    0    0    0    0 -0.00000000000E+00 -0.00000000000E+00 -0.74505805969E-08  0.93827000000E+00  0.93827000000E+00 0. -1.
     999902    2    1    2    0    0  0.15733194597E-02 -0.21543025648E-01  0.11506651004E-01  0.10194559258E+01  0.10191621090E+01 0.  0.
     999903    2    3    3    0    0 -0.26645596640E-01  0.45299909548E-01 -0.11450996783E+00  0.12752292756E+00  0.19684884963E-01 0.  0.
         14    1    1    2    0    0 -0.15733194597E-02  0.21543025648E-01 -0.11506651004E-01  0.24474074151E-01  0.00000000000E+00 0. -1.
     999901    1    3    3    0    0  0.28218916100E-01 -0.66842935196E-01  0.12601661883E+00  0.89193299829E+00  0.88000000000E+00 0. -1.
        -11    1    4    4    0    0 -0.16988325392E-01  0.15495008629E-01 -0.33235746394E-01  0.40417501796E-01  0.51100000000E-03 0.  1.
         11    1    4    4    0    0 -0.96572712479E-02  0.29804900919E-01 -0.81274221436E-01  0.87105425766E-01  0.51100000000E-03 0. -1.
</event>
<event>
 8    1  0.1157726E+005  0.1043930E+01  0.7957747E-01            NaN
         13   -1    0    0    0    0  0.00000000000E+00  0.00000000000E+00  0.74505805969E-08  0.10566000000E+00  0.10566000000E+00 0. -1.
     999900   -1    0    0    0    0 -0.00000000000E+00 -0.00000000000E+00 -0.74505805969E-08  0.93827000000E+00  0.93827000000E+00 0. -1.
     999902    2    1    2    0    0 -0.74347299939E-02 -0.20960605007E-01  0.41728022674E-04  0.10216898581E+01  0.10214477677E+01 0.  0.
     999903    2    3    3    0    0  0.11706697465E+00 -0.43627201595E-02 -0.55484966519E-01  0.13103876024E+00  0.19205866128E-01 0.  0.
         14    1    1    2    0    0  0.74347299939E-02  0.20960605007E-01 -0.41728022674E-04  0.22240141942E-01  0.00000000000E+00 0. -1.
     999901    1    3    3    0    0 -0.12450170465E+00 -0.16597884848E-01  0.55526694541E-01  0.89065109782E+00  0.88000000000E+00 0. -1.
        -11    1    4    4    0    0  0.70954912591E-01 -0.11984416828E-01 -0.32806947627E-01  0.79087184809E-01  0.51100000000E-03 0.  1.
         11    1    4    4    0    0  0.46112062062E-01  0.76216966685E-02 -0.22678018892E-01  0.51951575429E-01  0.51100000000E-03 0. -1.
</event>
<event>
 8    1  0.1157726E+005  0.1043930E+01  0.7957747E-01            NaN
         13   -1    0    0    0    0  0.00000000000E+00  0.00000000000E+00  0.74505805969E-08  0.10566000000E+00  0.10566000000E+00 0. -1.
     999900   -1    0    0    0    0 -0.00000000000E+00 -0.00000000000E+00 -0.74505805969E-08  0.93827000000E+00  0.93827000000E+00 0.  1.
     999902    2    1    2    0    0  0.19930240543E-01 -0.95337272155E-02 -0.51741791486E-02  0.10212390641E+01  0.10209869477E+01 0.  0.
     999903    2    3    3    0    0  0.67218363642E-01  0.38663171705E-01 -0.10596377225E+00  0.13291612184E+00  0.20620988265E-01 0.  0.
         14    1    1    2    0    0 -0.19930240543E-01  0.95337272155E-02  0.51741791486E-02  0.22690935912E-01  0.00000000000E+00 0. -1.
     999901    1    3    3    0    0 -0.47288123100E-01 -0.48196898920E-01  0.10078959310E+00  0.88832294225E+00  0.88000000000E+00 0. -1.
        -11    1    4    4    0    0  0.41727990373E-01  0.34254315101E-01 -0.77480447772E-01  0.94435502813E-01  0.51100000000E-03 0. -1.
         11    1    4    4    0    0  0.25490373270E-01  0.44088566041E-02 -0.28483324480E-01  0.38480619023E-01  0.51100000000E-03 0.  1.
</event>
<event>
 8    1  0.1157726E+005  0.1043930E+01  0.7957747E-01            NaN
         13   -1    0    0    0    0  0.00000000000E+00  0.00000000000E+00  0.74505805969E-08  0.10566000000E+00  0.10566000000E+00 0. -1.
     999900   -1    0    0    0    0 -0.00000000000E+00 -0.00000000000E+00 -0.74505805969E-08  0.93827000000E+00  0.93827000000E+00 0. -1.
     999902    2    1    2    0    0  0.21778196538E-01 -0.71293674446E-02 -0.87778431967E-02  0.10193908831E+01  0.10190954835E+01 0.  0.
     999903    2    3    3    0    0  0.79473451364E-01 -0.64432476803E-01 -0.82101887818E-01  0.13260522455E+00  0.19386904263E-01 0.  0.
         14    1    1    2    0    0 -0.21778196538E-01  0.71293674446E-02  0.87778431967E-02  0.24539116851E-01  0.00000000000E+00 0. -1.
     999901    1    3    3    0    0 -0.57695254826E-01  0.57303109358E-01  0.73324044621E-01  0.88678565860E+00  0.88000000000E+00 0.  1.
        -11    1    4    4    0    0  0.69133039202E-01 -0.46342560264E-01 -0.67411397858E-01  0.10710540455E+00  0.51100000000E-03 0.  1.
         11    1    4    4    0    0  0.10340412162E-01 -0.18089916539E-01 -0.14690489961E-01  0.25499820006E-01  0.51100000000E-03 0. -1.
</event>
<event>
 8    1  0.1157726E+005  0.1043930E+01  0.7957747E-01            NaN
         13   -1    0    0    0    0  0.00000000000E+00  0.00000000000E+00  0.74505805969E-08  0.10566000000E+00  0.10566000000E+00 0. -1.
     999900   -1    0    0    0    0 -0.00000000000E+00 -0.00000000000E+00 -0.74505805969E-08  0.93827000000E+00  0.93827000000E+00 0. -1.
     999902    2    1    2    0    0 -0.50994882019E-02  0.15209557515E-01 -0.18630542032E-01  0.10193447907E+01  0.10190482667E+01 0.  0.
     999903    2    3    3    0    0 -0.10669015806E+00 -0.69470999681E-01 -0.10024594869E-01  0.12942034262E+00  0.20979107673E-01 0.  0.
         14    1    1    2    0    0  0.50994882019E-02 -0.15209557515E-01  0.18630542032E-01  0.24585209296E-01  0.00000000000E+00 0. -1.
     999901    1    3    3    0    0  0.10159066986E+00  0.84680557196E-01 -0.86059471636E-02  0.88992444808E+00  0.88000000000E+00 0. -1.
        -11    1    4    4    0    0 -0.14746344963E-02 -0.30513937911E-02  0.26736633422E-02  0.43468549129E-02  0.51100000000E-03 0. -1.
         11    1    4    4    0    0 -0.10521552356E+00 -0.66419605890E-01 -0.12698258211E-01  0.12507348771E+00  0.51100000000E-03 0.  1.
</event>
<event>
 8    1  0.1157726E+005  0.1043930E+01  0.7957747E-01            NaN
         13   -1    0    0    0    0  0.00000000000E+00  0.00000000000E+00  0.74505805969E-08  0.10566000000E+00  0.10566000000E+00 0. -1.
     999900   -1    0    0    0    0 -0.00000000000E+00 -0.00000000000E+00 -0.74505805969E-08  0.93827000000E+00  0.93827000000E+00 0.  1.
     999902    2    1    2    0    0 -0.14584868043E-01  0.50891591239E-02  0.19232057986E-01  0.10192624105E+01  0.10189638716E+01 0.  0.
     999903    2    3    3    0    0  0.69761394131E-01  0.45013993164E-01 -0.94804791519E-01  0.12701093960E+00  0.15840410064E-01 0.  0.
         14    1    1    2    0    0  0.14584868043E-01 -0.50891591239E-02 -0.19232057986E-01  0.24667589481E-01  0.00000000000E+00 0.  1.
     999901    1    3    3    0    0 -0.84346262174E-01 -0.39924834040E-01  0.11403684950E+00  0.89225147092E+00  0.88000000000E+00 0. -1.
        -11    1    4    4    0    0  0.91842138919E-02  0.10336664099E-01 -0.23199505837E-01  0.27012489733E-01  0.51100000000E-03 0.  1.
         11    1    4    4    0    0  0.60577180239E-01  0.34677329065E-01 -0.71605285682E-01  0.99998449865E-01  0.51100000000E-03 0. -1.
</event>
<event>
 8    1  0.1157726E+005  0.1043930E+01  0.7957747E-01            NaN
         13   -1    0    0    0    0  0.00000000000E+00  0.00000000000E+00  0.74505805969E-08  0.10566000000E+00  0.10566000000E+00 0.  1.
     999900   -1    0    0    0    0 -0.00000000000E+00 -0.00000000000E+00 -0.74505805969E-08  0.93827000000E+00  0.93827000000E+00 0. -1.
     999902    2    1    2    0    0  0.11421808226E-01 -0.16702041461E-01  0.11961889405E-01  0.10204246242E+01  0.10201538664E+01 0.  0.
     999903    2    3    3    0    0  0.95394064649E-01 -0.56986819146E-01 -0.68058898747E-01  0.13189914361E+00  0.20441263674E-01 0.  0.
         14    1    1    2    0    0 -0.11421808226E-01  0.16702041461E-01 -0.11961889405E-01  0.23505375774E-01  0.00000000000E+00 0. -1.
     999901    1    3    3    0    0 -0.83972256423E-01  0.40284777685E-01  0.80020788152E-01  0.88852548061E+00  0.88000000000E+00 0.  1.
        -11    1    4    4    0    0  0.31200664164E-01 -0.20970756085E-01 -0.34402065110E-01  0.50960938570E-01  0.51100000000E-03 0. -1.
         11    1    4    4    0    0  0.64193400485E-01 -0.36016063060E-01 -0.33656833637E-01  0.80938205044E-01  0.51100000000E-03 0.  1.
</event>
<event>
 8    1  0.1157726E+005  0.1043930E+01  0.7957747E-01            NaN
         13   -1    0    0    0    0  0.00000000000E+00  0.00000000000E+00  0.74505805969E-08  0.10566000000E+00  0.10566000000E+00 0.  1.
     999900   -1    0    0    0    0 -0.00000000000E+00 -0.00000000000E+00 -0.74505805969E-08  0.93827000000E+00  0.93827000000E+00 0.  1.
     999902    2    1    2    0    0  0.18794112020E-02 -0.22069410108E-01  0.97139164105E-02  0.10197442352E+01  0.10194573821E+01 0.  0.
     999903    2    3    3    0    0  0.18744282720E-01 -0.12679800675E+00  0.27242026097E-01  0.13320053208E+00  0.23899186365E-01 0.  0.
         14    1    1    2    0    0 -0.18794112020E-02  0.22069410108E-01 -0.97139164105E-02  0.24185764843E-01  0.00000000000E+00 0. -1.
     999901    1    3    3    0    0 -0.16864871518E-01  0.10472859664E+00 -0.17528109686E-01  0.88654370308E+00  0.88000000000E+00 0. -1.
        -11    1    4    4    0    0  0.11579213823E-01 -0.21700674778E-01  0.91981727904E-03  0.24619192988E-01  0.51100000000E-03 0. -1.
         11    1    4    4    0    0  0.71650688973E-02 -0.10509733197E+00  0.26322208818E-01  0.10858133909E+00  0.51100000000E-03 0.  1.
</event>
<event>
 8    1  0.1157726E+005  0.1043930E+01  0.7957747E-01            NaN
         13   -1    0    0    0    0  0.00000000000E+00  0.00000000000E+00  0.74505805969E-08  0.10566000000E+00  0.10566000000E+00 0.  1.
     999900   -1    0    0    0    0 -0.00000000000E+00 -0.00000000000E+00 -0.74505805969E-08  0.93827000000E+00  0.93827000000E+00 0. -1.
     999902    2    1    2    0    0  0.18248891043E-01  0.65469516902E-02  0.13759519502E-01  0.10201558759E+01  0.10198788174E+01 0.  0.
     999903    2    3    3    0    0  0.38130626092E-01  0.71780019526E-01 -0.99760137954E-01  0.13024725745E+00  0.20148128927E-01 0.  0.
         14    1    1    2    0    0 -0.18248891043E-01 -0.65469516902E-02 -0.13759519502E-01  0.23774124120E-01  0.00000000000E+00 0. -1.
     999901    1    3    3    0    0 -0.19881735049E-01 -0.65233067836E-01  0.11351965746E+00  0.88990861843E+00  0.88000000000E+00 0.  1.
        -11    1    4    4    0    0  0.14265861722E-01  0.23949612183E-01 -0.49829778684E-01  0.57099620831E-01  0.51100000000E-03 0.  1.
         11    1    4    4    0    0  0.23864764370E-01  0.47830407344E-01 -0.49930359271E-01  0.73147636619E-01  0.51100000000E-03 0. -1.
</event>
<event>
 7    1  0.1157726E+005  0.1043930E+01  0.7957747E-01            NaN
         13   -1    0    0    0    0  0.00000000000E+00  0.00000000000E+00  0.74505805969E-08  0.10566000000E+00  0.10566000000E+00 0.  1.
     999900   -1    0    0    0    0 -0.00000000000E+00 -0.00000000000E+00 -0.74505805969E-08  0.93827000000E+00  0.93827000000E+00 0.  1.
     999903    2    1    2    0    0  0.67905333538E-01 -0.53253499656E-01  0.67782873764E-01  0.11152746702E+00  0.19919547550E-01 0.  0.
         14    1    1    2    0    0 -0.32385501146E-01  0.35296040137E-01 -0.13799561168E-01  0.49850366320E-01  0.00000000000E+00 0.  1.
     999901    1    1    2    0    0 -0.35519832392E-01  0.17957459519E-01 -0.53983312597E-01  0.88255216666E+00  0.88000000000E+00 0.  1.
        -11    1    3    3    0    0  0.44680429348E-02 -0.52043906999E-02  0.13633762971E-01  0.15270550218E-01  0.51100000000E-03 0. -1.
         11    1    3    3    0    0  0.63437290603E-01 -0.48049108956E-01  0.54149110793E-01  0.96256916797E-01  0.51100000000E-03 0.  1.
</event>
<event>
 8    1  0.1157726E+005  0.1043930E+01  0.7957747E-01            NaN
         13   -1    0    0    0    0  0.00000000000E+00  0.00000000000E+00  0.74505805969E-08  0.10566000000E+00  0.10566000000E+00 0. -1.
     999900   -1    0    0    0    0 -0.00000000000E+00 -0.00000000000E+00 -0.74505805969E-08  0.93827000000E+00  0.93827000000E+00 0. -1.
     999902    2    1    2    0    0  0.15503074375E-01  0.21243863850E-02 -0.18313103801E-01  0.10198420756E+01  0.10195575663E+01 0.  0.
     999903    2    3    3    0    0 -0.12001162630E+00 -0.26479154308E-01  0.28611222484E-01  0.12777465153E+00  0.20095359170E-01 0.  0.
         14    1    1    2    0    0 -0.15503074375E-01 -0.21243863850E-02  0.18313103801E-01  0.24087924431E-01  0.00000000000E+00 0. -1.
     999901    1    3    3    0    0  0.13551470068E+00  0.28603540693E-01 -0.46924326284E-01  0.89206742404E+00  0.88000000000E+00 0. -1.
        -11    1    4    4    0    0 -0.19409036226E-01  0.25183152962E-02  0.15806253380E-02  0.19642100107E-01  0.51100000000E-03 0. -1.
         11    1    4    4    0    0 -0.10060259008E+00 -0.28997469604E-01  0.27030597146E-01  0.10813255142E+00  0.51100000000E-03 0.  1.
</event>
<event>
 8    1  0.1157726E+005  0.1043930E+01  0.7957747E-01            NaN
         13   -1    0    0    0    0  0.00000000000E+00  0.00000000000E+00  0.74505805969E-08  0.10566000000E+00  0.10566000000E+00 0.  1.
     999900   -1    0    0    0    0 -0.00000000000E+00 -0.00000000000E+00 -0.74505805969E-08  0.93827000000E+00  0.93827000000E+00 0. -1.
     999902    2    1    2    0    0 -0.14161984457E-01  0.15964675155E-01 -0.86594991537E-02  0.10208991602E+01  0.10206393465E+01 0.  0.
     999903    2    3    3    0    0 -0.77032192631E-01 -0.99144303054E-01  0.29294108814E-01  0.13036942105E+00  0.19351733890E-01 0.  0.
         14    1    1    2    0    0  0.14161984457E-01 -0.15964675155E-01  0.86594991537E-02  0.23030839806E-01  0.00000000000E+00 0.  1.
     999901    1    3    3    0    0  0.62870208174E-01  0.11510897821E+00 -0.37953607968E-01  0.89052973914E+00  0.88000000000E+00 0. -1.
        -11    1    4    4    0    0 -0.47653969550E-01 -0.48276971323E-01  0.21190125389E-01  0.71069327484E-01  0.51100000000E-03 0. -1.
         11    1    4    4    0    0 -0.29378223081E-01 -0.50867331730E-01  0.81039834251E-02  0.59300093567E-01  0.51100000000E-03 0.  1.
</event>
<event>
 8    1  0.1157726E+005  0.1043930E+01  0.7957747E-01            NaN
         13   -1    0    0    0    0  0.00000000000E+00  0.00000000000E+00  0.74505805969E-08  0.10566000000E+00  0.10566000000E+00 0. -1.
     999900   -1    0    0    0    0 -0.00000000000E+00 -0.00000000000E+00 -0.74505805969E-08  0.93827000000E+00  0.93827000000E+00 0.  1.
     999902    2    1    2    0    0 -0.79614236831E-02 -0.15107170202E-01 -0.15359321913E-01  0.10209622045E+01  0.10207038275E+01 0.  0.
     999903    2    3    3    0    0 -0.10841259179E+00  0.44713954005E-01 -0.57939631279E-01  0.13220909663E+00  0.19225415921E-01 0.  0.
         14    1    1    2    0    0  0.79614236831E-02  0.15107170202E-01  0.15359321913E-01  0.22967795458E-01  0.00000000000E+00 0. -1.
     999901    1    3    3    0    0  0.10045116811E+00 -0.59821124207E-01  0.42580309366E-01  0.88875310791E+00  0.88000000000E+00 0. -1.
        -11    1    4    4    0    0 -0.49619934111E-01  0.22013861109E-01 -0.16336431353E-01  0.56691163796E-01  0.51100000000E-03 0. -1.
         11    1    4    4    0    0 -0.58792657681E-01  0.22700092896E-01 -0.41603199925E-01  0.75517932835E-01  0.51100000000E-03 0.  1.
</event>
<event>
 8    1  0.1157726E+005  0.1043930E+01  0.7957747E-01            NaN
         13   -1    0    0    0    0  0.00000000000E+00  0.00000000000E+00  0.74505805969E-08  0.10566000000E+00  0.10566000000E+00 0.  1.
     999900   -1    0    0    0    0 -0.00000000000E+00 -0.00000000000E+00 -0.74505805969E-08  0.93827000000E+00  0.93827000000E+00 0.  1.
     999902    2    1    2    0    0 -0.25036753517E-01  0.18720831876E-04 -0.15352512242E-02  0.10188462129E+01  0.10185373873E+01 0.  0.
     999903    2    3    3    0    0 -0.10791759391E+00 -0.29123253273E-01  0.67419048603E-01  0.13178748668E+00  0.18117466026E-01 0.  0.
         14    1    1    2    0    0  0.25036753517E-01 -0.18720831876E-04  0.15352512242E-02  0.25083787064E-01  0.00000000000E+00 0. -1.
     999901    1    3    3    0    0  0.82880840391E-01  0.29141974105E-01 -0.68954299828E-01  0.88705872625E+00  0.88000000000E+00 0.  1.
        -11    1    4    4    0    0 -0.54948441290E-01 -0.84161899748E-02  0.41002431096E-01  0.69076942106E-01  0.51100000000E-03 0.  1.
         11    1    4    4    0    0 -0.52969152618E-01 -0.20707063298E-01  0.26416617508E-01  0.62710544576E-01  0.51100000000E-03 0. -1.
</event>
<event>
 8    1  0.1157726E+005  0.1043930E+01  0.7957747E-01            NaN
         13   -1    0    0    0    0  0.00000000000E+00  0.00000000000E+00  0.74505805969E-08  0.10566000000E+00  0.10566000000E+00 0.  1.
     999900   -1    0    0    0    0 -0.00000000000E+00 -0.00000000000E+00 -0.74505805969E-08  0.93827000000E+00  0.93827000000E+00 0.  1.
     999902    2    1    2    0    0 -0.11477514252E-01 -0.19695549690E-01  0.78269753004E-03  0.10211207776E+01  0.10208659960E+01 0.  0.
     999903    2    3    3    0    0 -0.95116756045E-01 -0.47150164951E-01  0.77956284536E-01  0.13336797350E+00  0.20964224776E-01 0.  0.
         14    1    1    2    0    0  0.11477514252E-01  0.19695549690E-01 -0.78269753004E-03  0.22809222398E-01  0.00000000000E+00 0.  1.
     999901    1    3    3    0    0  0.83639241793E-01  0.27454615261E-01 -0.77173587005E-01  0.88775280411E+00  0.88000000000E+00 0.  1.
        -11    1    4    4    0    0 -0.46736217927E-01 -0.33210334580E-01  0.48024455602E-01  0.74791776593E-01  0.51100000000E-03 0.  1.
         11    1    4    4    0    0 -0.48380538117E-01 -0.13939830370E-01  0.29931828933E-01  0.58576196903E-01  0.51100000000E-03 0. -1.
</event>
<event>
 8    1  0.1157726E+005  0.1043930E+01  0.7957747E-01            NaN
         13   -1    0    0    0    0  0.00000000000E+00  0.00000000000E+00  0.74505805969E-08  0.10566000000E+00  0.10566000000E+00 0. -1.
     999900   -1    0    0    0    0 -0.00000000000E+00 -0.00000000000E+00 -0.74505805969E-08  0.93827000000E+00  0.93827000000E+00 0. -1.
     999902    2    1    2    0    0 -0.16303026267E-01 -0.74404239340E-02  0.13271879670E-01  0.10216299694E+01  0.10213865591E+01 0.  0.
     999903    2    3    3    0    0  0.73440873015E-01  0.14342853008E-03 -0.10473552362E+00  0.12919665006E+00  0.18129039613E-01 0.  0.
         14    1    1    2    0    0  0.16303026267E-01  0.74404239340E-02 -0.13271879670E-01  0.22300030577E-01  0.00000000000E+00 0. -1.
     999901    1    3    3    0    0 -0.89743899281E-01 -0.75838524640E-02  0.11800740329E+00  0.89243331936E+00  0.88000000000E+00 0.  1.
        -11    1    4    4    0    0  0.63178883371E-01 -0.24521360216E-02 -0.98042204491E-01  0.11666241579E+00  0.51100000000E-03 0. -1.
         11    1    4    4    0    0  0.10261989644E-01  0.25955645517E-02 -0.66933191326E-02  0.12534234273E-01  0.51100000000E-03 0.  1.
</event>
<event>
 8    1  0.1157726E+005  0.1043930E+01  0.7957747E-01            NaN
         13   -1    0    0    0    0  0.00000000000E+00  0.00000000000E+00  0.74505805969E-08  0.10566000000E+00  0.10566000000E+00 0.  1.
     999900   -1    0    0    0    0 -0.00000000000E+00 -0.00000000000E+00 -0.74505805969E-08  0.93827000000E+00  0.93827000000E+00 0. -1.
     999902    2    1    2    0    0  0.37452076103E-02  0.21124316533E-01  0.11909373220E-01  0.10193923453E+01  0.10190969812E+01 0.  0.
     999903    2    3    3    0    0  0.48506824285E-01 -0.53420186305E-02  0.12017446791E+00  0.13123391349E+00  0.19974687654E-01 0.  0.
         14    1    1    2    0    0 -0.37452076103E-02 -0.21124316533E-01 -0.11909373220E-01  0.24537654727E-01  0.00000000000E+00 0.  1.
     999901    1    3    3    0    0 -0.44761616674E-01  0.26466335163E-01 -0.10826509469E+00  0.88815843179E+00  0.88000000000E+00 0. -1.
        -11    1    4    4    0    0  0.20894479072E-01 -0.32226626446E-02  0.77697501918E-01  0.80524081712E-01  0.51100000000E-03 0. -1.
         11    1    4    4    0    0  0.27612345213E-01 -0.21193559859E-02  0.42476965990E-01  0.50709831775E-01  0.51100000000E-03 0.  1.
</event>
<event>
 8    1  0.1157726E+005  0.1043930E+01  0.7957747E-01            NaN
         13   -1    0    0    0    0  0.00000000000E+00  0.00000000000E+00  0.74505805969E-08  0.10566000000E+00  0.10566000000E+00 0. -1.
     999900   -1    0    0    0    0 -0.00000000000E+00 -0.00000000000E+00 -0.74505805969E-08  0.93827000000E+00  0.93827000000E+00 0.  1.
     999902    2    1    2    0    0  0.22426489755E-01 -0.26089558611E-02 -0.37510031458E-02  0.10210427958E+01  0.10207862492E+01 0.  0.
     999903    2    3    3    0    0  0.42711088655E-01  0.10327186970E+00  0.66622825310E-01  0.13167521714E+00  0.20259461740E-01 0.  0.
         14    1    1    2    0    0 -0.22426489755E-01  0.26089558611E-02  0.37510031458E-02  0.22887204242E-01  0.00000000000E+00 0. -1.
     999901    1    3    3    0    0 -0.20284598901E-01 -0.10588082556E+00 -0.70373828456E-01  0.88936757862E+00  0.88000000000E+00 0. -1.
        -11    1    4    4    0    0  0.23406541647E-02  0.27061597919E-01  0.19045398703E-01  0.33178262109E-01  0.51100000000E-03 0.  1.
         11    1    4    4    0    0  0.40370434491E-01  0.76210271780E-01  0.47577426608E-01  0.98496955026E-01  0.51100000000E-03 0. -1.
</event>
<event>
 8    1  0.1157726E+005  0.1043930E+01  0.7957747E-01            NaN
         13   -1    0    0    0    0  0.00000000000E+00  0.00000000000E+00  0.74505805969E-08  0.10566000000E+00  0.10566000000E+00 0.  1.
     999900   -1    0    0    0    0 -0.00000000000E+00 -0.00000000000E+00 -0.74505805969E-08  0.93827000000E+00  0.93827000000E+00 0.  1.
     999902    2    1    2    0    0 -0.12903987334E-01 -0.20533320920E-02 -0.17256537115E-01  0.10222847434E+01  0.10220555657E+01 0.  0.
     999903    2    3    3    0    0  0.29069238147E-01  0.97052949736E-01  0.80642109273E-01  0.13033858371E+00  0.14856007409E-01 0.  0.
         14    1    1    2    0    0  0.12903987334E-01  0.20533320920E-02  0.17256537115E-01  0.21645256639E-01  0.00000000000E+00 0.  1.
     999901    1    3    3    0    0 -0.41973225481E-01 -0.99106281828E-01 -0.97898646388E-01  0.89194615965E+00  0.88000000000E+00 0.  1.
        -11    1    4    4    0    0  0.89962727392E-02  0.40978593153E-01  0.25061293708E-01  0.48872360116E-01  0.51100000000E-03 0.  1.
         11    1    4    4    0    0  0.20072965408E-01  0.56074356583E-01  0.55580815565E-01  0.81466223592E-01  0.51100000000E-03 0. -1.
</event>
<event>
 8    1  0.1157726E+005  0.1043930E+01  0.7957747E-01            NaN
         13   -1    0    0    0    0  0.00000000000E+00  0.00000000000E+00  0.74505805969E-08  0.10566000000E+00  0.10566000000E+00 0.  1.
     999900   -1    0    0    0    0 -0.00000000000E+00 -0.00000000000E+00 -0.74505805969E-08  0.93827000000E+00  0.93827000000E+00 0. -1.
     999902    2    1    2    0    0  0.90191589610E-02 -0.14435332034E-01 -0.16386550047E-01  0.10203028321E+01  0.10200292281E+01 0.  0.
     999903    2    3    3    0    0 -0.10150962661E-01 -0.63787423744E-01 -0.11474501144E+00  0.13324166769E+00  0.20372699591E-01 0.  0.
         14    1    1    2    0    0 -0.90191589610E-02  0.14435332034E-01  0.16386550047E-01  0.23627167874E-01  0.00000000000E+00 0.  1.
     999901    1    3    3    0    0  0.19170121622E-01  0.49352091710E-01  0.98358461392E-01  0.88706116443E+00  0.88000000000E+00 0.  1.
        -11    1    4    4    0    0 -0.60662864671E-02 -0.30008611283E-02 -0.10710903673E-01  0.12680283021E-01  0.51100000000E-03 0. -1.
         11    1    4    4    0    0 -0.40846761936E-02 -0.60786562615E-01 -0.10403410777E+00  0.12056138467E+00  0.51100000000E-03 0.  1.
</event>
<event>
 8    1  0.1157726E+005  0.1043930E+01  0.7957747E-01            NaN
         13   -1    0    0    0    0  0.00000000000E+00  0.00000000000E+00  0.74505805969E-08  0.10566000000E+00  0.10566000000E+00 0.  1.
     999900   -1    0    0    0    0 -0.00000000000E+00 -0.00000000000E+00 -0.74505805969E-08  0.93827000000E+00  0.93827000000E+00 0. -1.
     999902    2    1    2    0    0 -0.14596637936E-01  0.15388339486E-01  0.10401879647E-01  0.10203066655E+01  0.10200331513E+01 0.  0.
     999903    2    3    3    0    0  0.98157934569E-01  0.22928101178E-01 -0.77515390019E-01  0.12873508235E+00  0.20085014224E-01 0.  0.
         14    1    1    2    0    0  0.14596637936E-01 -0.15388339486E-01 -0.10401879647E-01  0.23623334467E-01  0.00000000000E+00 0.  1.
     999901    1    3    3    0    0 -0.11275457250E+00 -0.75397616924E-02  0.87917269666E-01  0.89157158318E+00  0.88000000000E+00 0.  1.
        -11    1    4    4    0    0  0.26341128483E-01  0.15481786409E-01 -0.21897406131E-01  0.37593859557E-01  0.51100000000E-03 0. -1.
         11    1    4    4    0    0  0.71816806086E-01  0.74463147692E-02 -0.55617983888E-01  0.91141222796E-01  0.51100000000E-03 0.  1.
</event>
<event>
 8    1  0.1157726E+005  0.1043930E+01  0.7957747E-01            NaN
         13   -1    0    0    0    0  0.00000000000E+00  0.00000000000E+00  0.74505805969E-08  0.10566000000E+00  0.10566000000E+00 0. -1.
     999900   -1    0    0    0    0 -0.00000000000E+00 -0.00000000000E+00 -0.74505805969E-08  0.93827000000E+00  0.93827000000E+00 0.  1.
     999902    2    1    2    0    0 -0.16153095505E-01  0.12182874227E-01 -0.12690252140E-01  0.10200472150E+01  0.10197675880E+01 0.  0.
     999903    2    3    3    0    0  0.52612188424E-01  0.39443711557E-01  0.10857192997E+00  0.12865710159E+00  0.20998501329E-01 0.  0.
         14    1    1    2    0    0  0.16153095505E-01 -0.12182874227E-01  0.12690252140E-01  0.23882784976E-01  0.00000000000E+00 0. -1.
     999901    1    3    3    0    0 -0.68765283929E-01 -0.27260837329E-01 -0.12126218211E+00  0.89139011344E+00  0.88000000000E+00 0.  1.
        -11    1    4    4    0    0  0.23771524014E-01  0.27617077726E-01  0.71239032654E-01  0.80019055422E-01  0.51100000000E-03 0.  1.
         11    1    4    4    0    0  0.28840664410E-01  0.11826633830E-01  0.37332897319E-01  0.48638046163E-01  0.51100000000E-03 0. -1.
</event>
<event>
 8    1  0.1157726E+005  0.1043930E+01  0.7957747E-01            NaN
         13   -1    0    0    0    0  0.00000000000E+00  0.00000000000E+00  0.74505805969E-08  0.10566000000E+00  0.10566000000E+00 0. -1.
     999900   -1    0    0    0    0 -0.00000000000E+00 -0.00000000000E+00 -0.74505805969E-08  0.93827000000E+00  0.93827000000E+00 0.  1.
     999902    2    1    2    0    0 -0.15941022718E-01  0.17441863296E-01 -0.28416121250E-02  0.10201306395E+01  0.10198529855E+01 0.  0.
     999903    2    3    3    0    0  0.54627431012E-02  0.42429615705E-01  0.12188320856E+00  0.13072702480E+00  0.20097876306E-01 0.  0.
         14    1    1    2    0    0  0.15941022718E-01 -0.17441863296E-01  0.28416121250E-02  0.23799360495E-01  0.00000000000E+00 0.  1.
     999901    1    3    3    0    0 -0.21403765819E-01 -0.24987752410E-01 -0.12472482069E+00  0.88940361471E+00  0.88000000000E+00 0.  1.
        -11    1    4    4    0    0  0.10830518225E-01  0.13476170480E-01  0.36116782868E-01  0.40044855120E-01  0.51100000000E-03 0.  1.
         11    1    4    4    0    0 -0.53677751237E-02  0.28953445226E-01  0.85766425692E-01  0.90682169676E-01  0.51100000000E-03 0. -1.
</event>
<event>
 8    1  0.1157726E+005  0.1043930E+01  0.7957747E-01            NaN
         13   -1    0    0    0    0  0.00000000000E+00  0.00000000000E+00  0.74505805969E-08  0.10566000000E+00  0.10566000000E+00 0.  1.
     999900   -1    0    0    0    0 -0.00000000000E+00 -0.00000000000E+00 -0.74505805969E-08  0.93827000000E+00  0.93827000000E+00 0.  1.
     999902    2    1    2    0    0  0.14416804959E-01  0.13213953218E-01 -0.17460149080E-01  0.10177134092E+01  0.10173756797E+01 0.  0.
     999903    2    3    3    0    0 -0.50494183273E-02 -0.73890280772E-01 -0.10351593268E+00  0.12902241721E+00  0.21117897797E-01 0.  0.
         14    1    1    2    0    0 -0.14416804959E-01 -0.13213953218E-01  0.17460149080E-01  0.26216590754E-01  0.00000000000E+00 0.  1.
     999901    1    3    3    0    0  0.19466223286E-01  0.87104233990E-01  0.86055783599E-01  0.88869099203E+00  0.88000000000E+00 0. -1.
        -11    1    4    4    0    0 -0.99924696542E-02 -0.15755791449E-01 -0.24546148110E-01  0.30836162570E-01  0.51100000000E-03 0. -1.
         11    1    4    4    0    0  0.49430513268E-02 -0.58134489323E-01 -0.78969784568E-01  0.98186254644E-01  0.51100000000E-03 0.  1.
</event>
<event>
 8    1  0.1157726E+005  0.1043930E+01  0.7957747E-01            NaN
         13   -1    0    0    0    0  0.00000000000E+00  0.00000000000E+00  0.74505805969E-08  0.10566000000E+00  0.10566000000E+00 0.  1.
     999900   -1    0    0    0    0 -0.00000000000E+00 -0.00000000000E+00 -0.74505805969E-08  0.93827000000E+00  0.93827000000E+00 0.  1.
     999902    2    1    2    0    0  0.43604813995E-02 -0.23156637605E-01  0.12375188243E-02  0.10203339174E+01  0.10200610412E+01 0.  0.
     999903    2    3    3    0    0 -0.41478361541E-01 -0.12197799635E+00  0.27563532205E-01  0.13322630300E+00  0.19758882441E-01 0.  0.
         14    1    1    2    0    0 -0.43604813995E-02  0.23156637605E-01 -0.12375188243E-02  0.23596082642E-01  0.00000000000E+00 0. -1.
     999901    1    3    3    0    0  0.45838842940E-01  0.98821358742E-01 -0.26326013380E-01  0.88710761435E+00  0.88000000000E+00 0. -1.
        -11    1    4    4    0    0 -0.34530968635E-01 -0.71678484951E-01  0.16860180299E-01  0.81330927699E-01  0.51100000000E-03 0. -1.
         11    1    4    4    0    0 -0.69473929051E-02 -0.50299511397E-01  0.10703351906E-01  0.51895375304E-01  0.51100000000E-03 0.  1.
</event>
<event>
 8    1  0.1157726E+005  0.1043930E+01  0.7957747E-01            NaN
         13   -1    0    0    0    0  0.00000000000E+00  0.00000000000E+00  0.74505805969E-08  0.10566000000E+00  0.10566000000E+00 0. -1.
     999900   -1    0    0    0    0 -0.00000000000E+00 -0.00000000000E+00 -0.74505805969E-08  0.93827000000E+00  0.93827000000E+00 0.  1.
     999902    2    1    2    0    0 -0.90074523730E-02 -0.18194039447E-01 -0.13361699119E-01  0.10196258384E+01  0.10193361359E+01 0.  0.
     999903    2    3    3    0    0  0.12040723705E+00 -0.66170892922E-02  0.39790628441E-01  0.12849882298E+00  0.19671420634E-01 0.  0.
         14    1    1    2    0    0  0.90074523730E-02  0.18194039447E-01  0.13361699119E-01  0.24304161640E-01  0.00000000000E+00 0. -1.
     999901    1    3    3    0    0 -0.12941468943E+00 -0.11576950155E-01 -0.53152327561E-01  0.89112701538E+00  0.88000000000E+00 0. -1.
        -11    1    4    4    0    0  0.54509471408E-01 -0.10323217825E-01  0.25025152527E-01  0.60863541463E-01  0.51100000000E-03 0. -1.
         11    1    4    4    0    0  0.65897765647E-01  0.37061285325E-02  0.14765475914E-01  0.67635281518E-01  0.51100000000E-03 0.  1.
</event>
<event>
 8    1  0.1157726E+005  0.1043930E+01  0.7957747E-01            NaN
         13   -1    0    0    0    0  0.00000000000E+00  0.00000000000E+00  0.74505805969E-08  0.10566000000E+00  0.10566000000E+00 0. -1.
     999900   -1    0    0    0    0 -0.00000000000E+00 -0.00000000000E+00 -0.74505805969E-08  0.93827000000E+00  0.93827000000E+00 0. -1.
     999902    2    1    2    0    0 -0.87210440831E-02  0.12516076126E-02 -0.25719312902E-01  0.10167434925E+01  0.10163799602E+01 0.  0.
     999903    2    3    3    0    0  0.10542260709E+00 -0.21151638811E-01 -0.66898949522E-01  0.12813421900E+00  0.19534347225E-01 0.  0.
         14    1    1    2    0    0  0.87210440831E-02 -0.12516076126E-02  0.25719312902E-01  0.27186507456E-01  0.00000000000E+00 0. -1.
     999901    1    3    3    0    0 -0.11414365117E+00  0.22403246423E-01  0.41179636620E-01  0.88860927354E+00  0.88000000000E+00 0. -1.
        -11    1    4    4    0    0  0.11246914935E-01 -0.10584344484E-02 -0.80350202620E-03  0.11336671272E-01  0.51100000000E-03 0.  1.
         11    1    4    4    0    0  0.94175692157E-01 -0.20093204362E-01 -0.66095447496E-01  0.11679754773E+00  0.51100000000E-03 0. -1.
</event>
<event>
 8    1  0.1157726E+005  0.1043930E+01  0.7957747E-01            NaN
         13   -1    0    0    0    0  0.00000000000E+00  0.00000000000E+00  0.74505805969E-08  0.10566000000E+00  0.10566000000E+00 0. -1.
     999900   -1    0    0    0    0 -0.00000000000E+00 -0.00000000000E+00 -0.74505805969E-08  0.93827000000E+00  0.93827000000E+00 0. -1.
     999902    2    1    2    0    0  0.16056785449E-01 -0.11466648345E-01 -0.12206519082E-01  0.10207286317E+01  0.10204649117E+01 0.  0.
     999903    2    3    3    0    0 -0.60033952453E-01  0.10871491440E+00  0.25825971311E-01  0.12849554626E+00  0.20521124598E-01 0.  0.
         14    1    1    2    0    0 -0.16056785449E-01  0.11466648345E-01  0.12206519082E-01  0.23201368307E-01  0.00000000000E+00 0. -1.
     999901    1    3    3    0    0  0.76090737902E-01 -0.12018156274E+00 -0.38032490393E-01  0.89223308543E+00  0.88000000000E+00 0.  1.
        -11    1    4    4    0    0 -0.41797213253E-01  0.54798970860E-01  0.12683629708E-01  0.70079025582E-01  0.51100000000E-03 0. -1.
         11    1    4    4    0    0 -0.18236739200E-01  0.53915943537E-01  0.13142341603E-01  0.58416520677E-01  0.51100000000E-03 0.  1.
</event>
<event>
 8    1  0.1157726E+005  0.1043930E+01  0.7957747E-01            NaN
         13   -1    0    0    0    0  0.00000000000E+00  0.00000000000E+00  0.74505805969E-08  0.10566000000E+00  0.10566000000E+00 0.  1.
     999900   -1    0    0    0    0 -0.00000000000E+00 -0.00000000000E+00 -0.74505805969E-08  0.93827000000E+00  0.93827000000E+00 0. -1.
     999902    2    1    2    0    0  0.67743015993E-02  0.21977846897E-01 -0.71060086374E-02  0.10198590159E+01  0.10195749114E+01 0.  0.
     999903    2    3    3    0    0  0.11811297191E+00 -0.41357256752E-01  0.28532676590E-01  0.12987151558E+00  0.19783834480E-01 0.  0.
         14    1    1    2    0    0 -0.67743015993E-02 -0.21977846897E-01  0.71060086374E-02  0.24070984091E-01  0.00000000000E+00 0. -1.
     999901    1    3    3    0    0 -0.11133867031E+00  0.63335103648E-01 -0.35638685227E-01  0.88998750033E+00  0.88000000000E+00 0. -1.
        -11    1    4    4    0    0  0.42637516524E-01 -0.50385845235E-02  0.98478890795E-02  0.44052096314E-01  0.51100000000E-03 0.  1.
         11    1    4    4    0    0  0.75475455382E-01 -0.36318672228E-01  0.18684787510E-01  0.85819419264E-01  0.51100000000E-03 0. -1.
</event>
<event>
 8    1  0.1157726E+005  0.1043930E+01  0.7957747E-01            NaN
         13   -1    0    0    0    0  0.00000000000E+00  0.00000000000E+00  0.74505805969E-08  0.10566000000E+00  0.10566000000E+00 0.  1.
     999900   -1    0    0    0    0 -0.00000000000E+00 -0.00000000000E+00 -0.74505805969E-08  0.93827000000E+00  0.93827000000E+00 0. -1.
     999902    2    1    2    0    0  0.18335609071E-01 -0.40867659932E-02  0.13268500031E-01  0.10209311020E+01  0.10206720167E+01 0.  0.
     999903    2    3    3    0    0 -0.69151421709E-01 -0.68550674147E-02  0.10971810365E+00  0.13134458564E+00  0.19606805802E-01 0.  0.
         14    1    1    2    0    0 -0.18335609071E-01  0.40867659932E-02 -0.13268500031E-01  0.22998898003E-01  0.00000000000E+00 0. -1.
     999901    1    3    3    0    0  0.87487030780E-01  0.27683014215E-02 -0.96449603622E-01  0.88958651636E+00  0.88000000000E+00 0. -1.
        -11    1    4    4    0    0 -0.57541615383E-01 -0.50382618844E-02  0.10217047660E+00  0.11736902911E+00  0.51100000000E-03 0.  1.
         11    1    4    4    0    0 -0.11609806326E-01 -0.18168055303E-02  0.75476270536E-02  0.13975556533E-01  0.51100000000E-03 0. -1.
</event>
<event>
 8    1  0.1157726E+005  0.1043930E+01  0.7957747E-01            NaN
         13   -1    0    0    0    0  0.00000000000E+00  0.00000000000E+00  0.74505805969E-08  0.10566000000E+00  0.10566000000E+00 0.  1.
     999900   -1    0    0    0    0 -0.00000000000E+00 -0.00000000000E+00 -0.74505805969E-08  0.93827000000E+00  0.93827000000E+00 0.  1.
     999902    2    1    2    0    0 -0.18979565484E-01  0.50569136078E-02 -0.12767661596E-01  0.10205033173E+01  0.10202343903E+01 0.  0.
     999903    2    3    3    0    0  0.10632471447E+00 -0.16840293711E-01  0.66097590613E-01  0.12786656121E+00  0.19809734758E-01 0.  0.
         14    1    1    2    0    0  0.18979565484E-01 -0.50569136078E-02  0.12767661596E-01  0.23426682732E-01  0.00000000000E+00 0.  1.
     999901    1    3    3    0    0 -0.12530427995E+00  0.21897207319E-01 -0.78865252208E-01  0.89263675606E+00  0.88000000000E+00 0.  1.
        -11    1    4    4    0    0  0.40758316300E-01  0.27802552115E-02  0.28079462571E-01  0.49575069399E-01  0.51100000000E-03 0.  1.
         11    1    4    4    0    0  0.65566398169E-01 -0.19620548922E-01  0.38018128042E-01  0.78291491809E-01  0.51100000000E-03 0. -1.
</event>
<event>
 8    1  0.1157726E+005  0.1043930E+01  0.7957747E-01            NaN
         13   -1    0    0    0    0  0.00000000000E+00  0.00000000000E+00  0.74505805969E-08  0.10566000000E+00  0.10566000000E+00 0.  1.
     999900   -1    0    0    0    0 -0.00000000000E+00 -0.00000000000E+00 -0.74505805969E-08  0.93827000000E+00  0.93827000000E+00 0.  1.
     999902    2    1    2    0    0  0.13890786589E-01 -0.89199253355E-03  0.19187179561E-01  0.10202256236E+01  0.10199502074E+01 0.  0.
     999903    2    3    3    0    0 -0.84984278711E-01  0.10947082844E-01 -0.92357921837E-01  0.12761218434E+00  0.20315452595E-01 0.  0.
         14    1    1    2    0    0 -0.13890786589E-01  0.89199253355E-03 -0.19187179561E-01  0.23704376436E-01  0.00000000000E+00 0. -1.
     999901    1    3    3    0    0  0.98875065299E-01 -0.11839075377E-01  0.11154510140E+00  0.89261343923E+00  0.88000000000E+00 0. -1.
        -11    1    4    4    0    0 -0.74340207765E-01  0.23830130822E-02 -0.77296451833E-01  0.10727137470E+00  0.51100000000E-03 0. -1.
         11    1    4    4    0    0 -0.10644070945E-01  0.85640697614E-02 -0.15061470004E-01  0.20340809641E-01  0.51100000000E-03 0.  1.
</event>
<event>
 8    1  0.1157726E+005  0.1043930E+01  0.7957747E-01            NaN
         13   -1    0    0    0    0  0.00000000000E+00  0.00000000000E+00  0.74505805969E-08  0.10566000000E+00  0.10566000000E+00 0.  1.
     999900   -1    0    0    0    0 -0.00000000000E+00 -0.00000000000E+00 -0.74505805969E-08  0.93827000000E+00  0.93827000000E+00 0. -1.
     999902    2    1    2    0    0 -0.22830498371E-01 -0.23312716392E-02 -0.29969656298E-02  0.10207859233E+01  0.10205235190E+01 0.  0.
     999903    2    3    3    0    0 -0.97763750582E-01 -0.65481896646E-01  0.58860998627E-01  0.13318837854E+00  0.20709835874E-01 0.  0.
         14    1    1    2    0    0  0.22830498371E-01  0.23312716392E-02  0.29969656298E-02  0.23144076700E-01  0.00000000000E+00 0. -1.
     999901    1    3    3    0    0  0.74933252211E-01  0.63150625007E-01 -0.61857964256E-01  0.88759754476E+00  0.88000000000E+00 0.  1.
        -11    1    4    4    0    0 -0.19865763994E-01 -0.12685705670E-01  0.21599723204E-01  0.31974753648E-01  0.51100000000E-03 0.  1.
         11    1    4    4    0    0 -0.77897986588E-01 -0.52796190977E-01  0.37261275423E-01  0.10121362489E+00  0.51100000000E-03 0. -1.
</event>
<event>
 8    1  0.1157726E+005  0.1043930E+01  0.7957747E-01            NaN
         13   -1    0    0    0    0  0.00000000000E+00  0.00000000000E+00  0.74505805969E-08  0.10566000000E+00  0.10566000000E+00 0. -1.
     999900   -1    0    0    0    0 -0.00000000000E+00 -0.00000000000E+00 -0.74505805969E-08  0.93827000000E+00  0.93827000000E+00 0.  1.
     999902    2    1    2    0    0 -0.56420465282E-02 -0.73564234646E-02 -0.21603685548E-01  0.10204210893E+01  0.10201502490E+01 0.  0.
     999903    2    3    3    0    0  0.52202617443E-01  0.10028211801E+00  0.57444126325E-01  0.12846782965E+00  0.20555756985E-01 0.  0.
         14    1    1    2    0    0  0.56420465282E-02  0.73564234646E-02  0.21603685548E-01  0.23508910746E-01  0.00000000000E+00 0. -1.
     999901    1    3    3    0    0 -0.57844663971E-01 -0.10763854147E+00 -0.79047811873E-01  0.89195325961E+00  0.88000000000E+00 0.  1.
        -11    1    4    4    0    0  0.19373303216E-01  0.20512329810E-01  0.94922526391E-02  0.29773218383E-01  0.51100000000E-03 0. -1.
         11    1    4    4    0    0  0.32829314227E-01  0.79769788198E-01  0.47951873686E-01  0.98694611265E-01  0.51100000000E-03 0.  1.
</event>
<event>
 8    1  0.1157726E+005  0.1043930E+01  0.7957747E-01            NaN
         13   -1    0    0    0    0  0.00000000000E+00  0.00000000000E+00  0.74505805969E-08  0.10566000000E+00  0.10566000000E+00 0. -1.
     999900   -1    0    0    0    0 -0.00000000000E+00 -0.00000000000E+00 -0.74505805969E-08  0.93827000000E+00  0.93827000000E+00 0. -1.
     999902    2    1    2    0    0  0.17377722528E-01  0.10134314713E-01 -0.11531491188E-01  0.10207423985E+01  0.10204789950E+01 0.  0.
     999903    2    3    3    0    0  0.32914516189E-01  0.12069051985E-01 -0.12598118442E+00  0.13319303792E+00  0.25300180448E-01 0.  0.
         14    1    1    2    0    0 -0.17377722528E-01 -0.10134314713E-01  0.11531491188E-01  0.23187601514E-01  0.00000000000E+00 0. -1.
     999901    1    3    3    0    0 -0.15536793662E-01 -0.19347372724E-02  0.11444969323E+00  0.88754936057E+00  0.88000000000E+00 0.  1.
        -11    1    4    4    0    0  0.14531130671E-03 -0.27094616439E-02 -0.38689964935E-01  0.38788359148E-01  0.51100000000E-03 0.  1.
         11    1    4    4    0    0  0.32769204883E-01  0.14778513629E-01 -0.87291219483E-01  0.94404678769E-01  0.51100000000E-03 0. -1.
</event>
<event>
 8    1  0.1157726E+005  0.1043930E+01  0.7957747E-01            NaN
         13   -1    0    0    0    0  0.00000000000E+00  0.00000000000E+00  0.74505805969E-08  0.10566000000E+00  0.10566000000E+00 0. -1.
     999900   -1    0    0    0    0 -0.00000000000E+00 -0.00000000000E+00 -0.74505805969E-08  0.93827000000E+00  0.93827000000E+00 0.  1.
     999902    2    1    2    0    0  0.75519808970E-02 -0.19770568523E-01  0.34389838567E-02  0.10224885820E+01  0.10222637458E+01 0.  0.
     999903    2    3    3    0    0  0.29809416550E-01  0.67058261249E-01  0.10769779679E+00  0.13181213167E+00  0.19753756768E-01 0.  0.
         14    1    1    2    0    0 -0.75519808970E-02  0.19770568523E-01 -0.34389838567E-02  0.21441417984E-01  0.00000000000E+00 0. -1.
     999901    1    3    3    0    0 -0.22257435653E-01 -0.86828829772E-01 -0.10425881293E+00  0.89067645034E+00  0.88000000000E+00 0. -1.
        -11    1    4    4    0    0  0.96806338869E-02  0.40286532492E-01  0.48472908213E-01  0.63769924920E-01  0.51100000000E-03 0. -1.
         11    1    4    4    0    0  0.20128782664E-01  0.26771728758E-01  0.59224888575E-01  0.68042206753E-01  0.51100000000E-03 0.  1.
</event>
<event>
 8    1  0.1157726E+005  0.1043930E+01  0.7957747E-01            NaN
         13   -1    0    0    0    0  0.00000000000E+00  0.00000000000E+00  0.74505805969E-08  0.10566000000E+00  0.10566000000E+00 0.  1.
     999900   -1    0    0    0    0 -0.00000000000E+00 -0.00000000000E+00 -0.74505805969E-08  0.93827000000E+00  0.93827000000E+00 0.  1.
     999902    2    1    2    0    0  0.15897887820E-01 -0.15689033186E-01  0.86524807635E-02  0.10199768369E+01  0.10196955397E+01 0.  0.
     999903    2    3    3    0    0 -0.67934064129E-01  0.31058842430E-01 -0.10186718201E+00  0.12788505019E+00  0.19949298987E-01 0.  0.
         14    1    1    2    0    0 -0.15897887820E-01  0.15689033186E-01 -0.86524807635E-02  0.23953163106E-01  0.00000000000E+00 0. -1.
     999901    1    3    3    0    0  0.83831951949E-01 -0.46747875615E-01  0.11051966277E+00  0.89209178670E+00  0.88000000000E+00 0. -1.
        -11    1    4    4    0    0 -0.37686450438E-01  0.25647552746E-01 -0.50562028739E-01  0.68079698734E-01  0.51100000000E-03 0.  1.
         11    1    4    4    0    0 -0.30247613691E-01  0.54112896839E-02 -0.51305153269E-01  0.59805351458E-01  0.51100000000E-03 0. -1.
</event>
<event>
 8    1  0.1540611E+005  0.1043930E+01  0.7957747E-01            NaN
         13   -1    0    0    0    0  0.00000000000E+00  0.00000000000E+00  0.74505805969E-08  0.10566000000E+00  0.10566000000E+00 0. -1.
     999900   -1    0    0    0    0 -0.00000000000E+00 -0.00000000000E+00 -0.74505805969E-08  0.93827000000E+00  0.93827000000E+00 0. -1.
     999902    2    1    2    0    0  0.74521170633E-02 -0.39959643009E-02  0.22309690560E-01  0.10200715828E+01  0.10197925328E+01 0.  0.
     999903    2    3    3    0    0  0.28224561317E-01 -0.25723354241E-01  0.12629878406E+00  0.13343901769E+00  0.19906576076E-01 0.  0.
         14    1    1    2    0    0 -0.74521170633E-02  0.39959643009E-02 -0.22309690560E-01  0.23858417222E-01  0.00000000000E+00 0.  1.
     999901    1    3    3    0    0 -0.20772444253E-01  0.21727389940E-01 -0.10398909350E+00  0.88663256509E+00  0.88000000000E+00 0. -1.
        -11    1    4    4    0    0  0.20594901109E-01 -0.59989923655E-02  0.53933265400E-01  0.58044776671E-01  0.51100000000E-03 0. -1.
         11    1    4    4    0    0  0.76296602073E-02 -0.19724361876E-01  0.72365518661E-01  0.75394241015E-01  0.51100000000E-03 0.  1.
</event>
<event>
 8    1  0.1157726E+005  0.1043930E+01  0.7957747E-01            NaN
         13   -1    0    0    0    0  0.00000000000E+00  0.00000000000E+00  0.74505805969E-08  0.10566000000E+00  0.10566000000E+00 0. -1.
     999900   -1    0    0    0    0 -0.00000000000E+00 -0.00000000000E+00 -0.74505805969E-08  0.93827000000E+00  0.93827000000E+00 0.  1.
     999902    2    1    2    0    0 -0.16183124315E-01 -0.14759296655E-01 -0.32183482468E-03  0.10220248881E+01  0.10217901144E+01 0.  0.
     999903    2    3    3    0    0 -0.63384403790E-01  0.10816737695E+00 -0.34265273521E-01  0.13158056928E+00  0.20532246862E-01 0.  0.
         14    1    1    2    0    0  0.16183124315E-01  0.14759296655E-01  0.32183482468E-03  0.21905111915E-01  0.00000000000E+00 0. -1.
     999901    1    3    3    0    0  0.47201279475E-01 -0.12292667361E+00  0.33943438697E-01  0.89044431881E+00  0.88000000000E+00 0.  1.
        -11    1    4    4    0    0 -0.21181695444E-01  0.25511104490E-01 -0.16333092969E-02  0.33202552529E-01  0.51100000000E-03 0. -1.
         11    1    4    4    0    0 -0.42202708345E-01  0.82656272462E-01 -0.32631964224E-01  0.98378016747E-01  0.51100000000E-03 0.  1.
</event>
<event>
 8    1  0.1157726E+005  0.1043930E+01  0.7957747E-01            NaN
         13   -1    0    0    0    0  0.00000000000E+00  0.00000000000E+00  0.74505805969E-08  0.10566000000E+00  0.10566000000E+00 0. -1.
     999900   -1    0    0    0    0 -0.00000000000E+00 -0.00000000000E+00 -0.74505805969E-08  0.93827000000E+00  0.93827000000E+00 0.  1.
     999902    2    1    2    0    0 -0.22441815164E-01 -0.89035944993E-02 -0.24277210175E-02  0.10196647390E+01  0.10193759743E+01 0.  0.
     999903    2    3    3    0    0  0.91242527989E-01  0.61433292878E-02  0.86912255772E-01  0.12773863709E+00  0.20011991221E-01 0.  0.
         14    1    1    2    0    0  0.22441815164E-01  0.89035944993E-02  0.24277210175E-02  0.24265261017E-01  0.00000000000E+00 0. -1.
     999901    1    3    3    0    0 -0.11368434315E+00 -0.15046923787E-01 -0.89339976789E-01  0.89192610190E+00  0.88000000000E+00 0.  1.
        -11    1    4    4    0    0  0.50335309603E-01 -0.63813774796E-02  0.44392504221E-01  0.67418995271E-01  0.51100000000E-03 0.  1.
         11    1    4    4    0    0  0.40907218385E-01  0.12524706767E-01  0.42519751551E-01  0.60319641814E-01  0.51100000000E-03 0. -1.
</event>
<event>
 8    1  0.1157726E+005  0.1043930E+01  0.7957747E-01            NaN
         13   -1    0    0    0    0  0.00000000000E+00  0.00000000000E+00  0.74505805969E-08  0.10566000000E+00  0.10566000000E+00 0. -1.
     999900   -1    0    0    0    0 -0.00000000000E+00 -0.00000000000E+00 -0.74505805969E-08  0.93827000000E+00  0.93827000000E+00 0.  1.
     999902    2    1    2    0    0 -0.12536169605E-01 -0.63316762064E-02 -0.18381434641E-01  0.10207972783E+01  0.10205351345E+01 0.  0.
     999903    2    3    3    0    0  0.19786607742E-01 -0.90610060798E-01 -0.93238165614E-01  0.13301851186E+00  0.19971880380E-01 0.  0.
         14    1    1    2    0    0  0.12536169605E-01  0.63316762064E-02  0.18381434641E-01  0.23132721661E-01  0.00000000000E+00 0. -1.
     999901    1    3    3    0    0 -0.32322777347E-01  0.84278384592E-01  0.74856730972E-01  0.88777876648E+00  0.88000000000E+00 0. -1.
        -11    1    4    4    0    0  0.23322823201E-01 -0.72738104189E-01 -0.71247304692E-01  0.10445681131E+00  0.51100000000E-03 0. -1.
         11    1    4    4    0    0 -0.35362154594E-02 -0.17871956609E-01 -0.21990860922E-01  0.28561700543E-01  0.51100000000E-03 0.  1.
</event>
<event>
 8    1  0.1157726E+005  0.1043930E+01  0.7957747E-01            NaN
         13   -1    0    0    0    0  0.00000000000E+00  0.00000000000E+00  0.74505805969E-08  0.10566000000E+00  0.10566000000E+00 0. -1.
     999900   -1    0    0    0    0 -0.00000000000E+00 -0.00000000000E+00 -0.74505805969E-08  0.93827000000E+00  0.93827000000E+00 0. -1.
     999902    2    1    2    0    0  0.53440103445E-02  0.25720421176E-02  0.23066531849E-01  0.10201132257E+01  0.10198351604E+01 0.  0.
     999903    2    3    3    0    0  0.10553840538E+00 -0.69610333547E-01  0.29299494014E-01  0.13146928013E+00  0.21018033275E-01 0.  0.
         14    1    1    2    0    0 -0.53440103445E-02 -0.25720421176E-02 -0.23066531849E-01  0.23816774315E-01  0.00000000000E+00 0.  1.
     999901    1    3    3    0    0 -0.10019439503E+00  0.72182375665E-01 -0.62329621647E-02  0.88864394555E+00  0.88000000000E+00 0.  1.
        -11    1    4    4    0    0  0.82283393953E-01 -0.58388786678E-01  0.15168627988E-01  0.10203017067E+00  0.51100000000E-03 0.  1.
         11    1    4    4    0    0  0.23255011423E-01 -0.11221546869E-01  0.14130866026E-01  0.29439109465E-01  0.51100000000E-03 0. -1.
</event>
<event>
 8    1  0.1157726E+005  0.1043930E+01  0.7957747E-01            NaN
         13   -1    0    0    0    0  0.00000000000E+00  0.00000000000E+00  0.74505805969E-08  0.10566000000E+00  0.10566000000E+00 0.  1.
     999900   -1    0    0    0    0 -0.00000000000E+00 -0.00000000000E+00 -0.74505805969E-08  0.93827000000E+00  0.93827000000E+00 0. -1.
     999902    2    1    2    0    0 -0.12907915397E-01 -0.83828504614E-02 -0.16313845359E-01  0.10215017140E+01  0.10212554645E+01 0.  0.
     999903    2    3    3    0    0 -0.12872377670E+00  0.68417030494E-02  0.24500764111E-01  0.13284490000E+00  0.20757177655E-01 0.  0.
         14    1    1    2    0    0  0.12907915397E-01  0.83828504614E-02  0.16313845359E-01  0.22428285984E-01  0.00000000000E+00 0.  1.
     999901    1    3    3    0    0  0.11581586130E+00 -0.15224553511E-01 -0.40814609471E-01  0.88865681402E+00  0.88000000000E+00 0.  1.
        -11    1    4    4    0    0 -0.65914377503E-01  0.13679421982E-01  0.10582636329E-01  0.68147524240E-01  0.51100000000E-03 0.  1.
         11    1    4    4    0    0 -0.62809399197E-01 -0.68377189322E-02  0.13918127782E-01  0.64697375756E-01  0.51100000000E-03 0. -1.
</event>
<event>
 8    1  0.1157726E+005  0.1043930E+01  0.7957747E-01            NaN
         13   -1    0    0    0    0  0.00000000000E+00  0.00000000000E+00  0.74505805969E-08  0.10566000000E+00  0.10566000000E+00 0.  1.
     999900   -1    0    0    0    0 -0.00000000000E+00 -0.00000000000E+00 -0.74505805969E-08  0.93827000000E+00  0.93827000000E+00 0. -1.
     999902    2    1    2    0    0  0.25386103730E-01  0.26658888903E-02 -0.29820481353E-02  0.10182307036E+01  0.10179063375E+01 0.  0.
     999903    2    3    3    0    0 -0.82427687633E-01  0.63326037071E-01 -0.70261534162E-01  0.12703487973E+00  0.19916496298E-01 0.  0.
         14    1    1    2    0    0 -0.25386103730E-01 -0.26658888903E-02  0.29820481353E-02  0.25699296435E-01  0.00000000000E+00 0. -1.
     999901    1    3    3    0    0  0.10781379136E+00 -0.60660148181E-01  0.67279486027E-01  0.89119582384E+00  0.88000000000E+00 0. -1.
        -11    1    4    4    0    0 -0.65597715438E-01  0.59401350825E-01 -0.57329203286E-01  0.10544420051E+00  0.51100000000E-03 0. -1.
         11    1    4    4    0    0 -0.16829972196E-01  0.39246862461E-02 -0.12932330876E-01  0.21590679219E-01  0.51100000000E-03 0.  1.
</event>
<event>
 8    1  0.1157726E+005  0.1043930E+01  0.7957747E-01            NaN
         13   -1    0    0    0    0  0.00000000000E+00  0.00000000000E+00  0.74505805969E-08  0.10566000000E+00  0.10566000000E+00 0. -1.
     999900   -1    0    0    0    0 -0.00000000000E+00 -0.00000000000E+00 -0.74505805969E-08  0.93827000000E+00  0.93827000000E+00 0.  1.
     999902    2    1    2    0    0  0.10366530054E-03  0.24446408347E-01  0.44081198386E-03  0.10194793979E+01  0.10191861512E+01 0.  0.
     999903    2    3    3    0    0  0.12551508427E+00  0.14128873456E-01  0.24762646551E-01  0.13019540099E+00  0.19595722248E-01 0.  0.
         14    1    1    2    0    0 -0.10366530054E-03 -0.24446408347E-01 -0.44081198386E-03  0.24450602094E-01  0.00000000000E+00 0.  1.
     999901    1    3    3    0    0 -0.12541141897E+00  0.10317534891E-01 -0.24321834567E-01  0.88928399692E+00  0.88000000000E+00 0. -1.
        -11    1    4    4    0    0  0.55476307358E-01  0.15470597791E-02  0.19550687411E-01  0.58843050323E-01  0.51100000000E-03 0. -1.
         11    1    4    4    0    0  0.70038776911E-01  0.12581813677E-01  0.52119591396E-02  0.71352350666E-01  0.51100000000E-03 0.  1.
</event>
<event>
 8    1  0.1157726E+005  0.1043930E+01  0.7957747E-01            NaN
         13   -1    0    0    0    0  0.00000000000E+00  0.00000000000E+00  0.74505805969E-08  0.10566000000E+00  0.10566000000E+00 0.  1.
     999900   -1    0    0    0    0 -0.00000000000E+00 -0.00000000000E+00 -0.74505805969E-08  0.93827000000E+00  0.93827000000E+00 0. -1.
     999902    2    1    2    0    0  0.36333645157E-02 -0.19646929766E-01  0.11653419727E-01  0.10207998167E+01  0.10205377310E+01 0.  0.
     999903    2    3    3    0    0  0.94983146368E-01  0.86143955210E-01  0.12820803047E-01  0.12976791114E+00  0.15256430050E-01 0.  0.
         14    1    1    2    0    0 -0.36333645157E-02  0.19646929766E-01 -0.11653419727E-01  0.23130183274E-01  0.00000000000E+00 0. -1.
     999901    1    3    3    0    0 -0.91349781852E-01 -0.10579088498E+00 -0.11673833198E-02  0.89103190559E+00  0.88000000000E+00 0. -1.
        -11    1    4    4    0    0  0.79297642781E-01  0.65357558135E-01  0.13913601198E-01  0.10369945022E+00  0.51100000000E-03 0.  1.
         11    1    4    4    0    0  0.15685503587E-01  0.20786397075E-01 -0.10927981509E-02  0.26068460923E-01  0.51100000000E-03 0. -1.
</event>
<event>
 8    1  0.1157726E+005  0.1043930E+01  0.7957747E-01            NaN
         13   -1    0    0    0    0  0.00000000000E+00  0.00000000000E+00  0.74505805969E-08  0.10566000000E+00  0.10566000000E+00 0. -1.
     999900   -1    0    0    0    0 -0.00000000000E+00 -0.00000000000E+00 -0.74505805969E-08  0.93827000000E+00  0.93827000000E+00 0.  1.
     999902    2    1    2    0    0  0.20134975877E-01 -0.11824982590E-02 -0.12587792185E-01  0.10201546332E+01  0.10198775454E+01 0.  0.
     999903    2    3    3    0    0  0.59473849762E-01 -0.37429252498E-01  0.10803582817E+00  0.13031676481E+00  0.19303659553E-01 0.  0.
         14    1    1    2    0    0 -0.20134975877E-01  0.11824982590E-02  0.12587792185E-01  0.23775366827E-01  0.00000000000E+00 0. -1.
     999901    1    3    3    0    0 -0.39338873885E-01  0.36246754239E-01 -0.12062362036E+00  0.88983786837E+00  0.88000000000E+00 0.  1.
        -11    1    4    4    0    0  0.36160499590E-01 -0.22890345623E-01  0.48121155471E-01  0.64400748274E-01  0.51100000000E-03 0.  1.
         11    1    4    4    0    0  0.23313350171E-01 -0.14538906875E-01  0.59914672703E-01  0.65916016532E-01  0.51100000000E-03 0. -1.
</event>
<event>
 8    1  0.1157726E+005  0.1043930E+01  0.7957747E-01            NaN
         13   -1    0    0    0    0  0.00000000000E+00  0.00000000000E+00  0.74505805969E-08  0.10566000000E+00  0.10566000000E+00 0.  1.
     999900   -1    0    0    0    0 -0.00000000000E+00 -0.00000000000E+00 -0.74505805969E-08  0.93827000000E+00  0.93827000000E+00 0.  1.
     999902    2    1    2    0    0  0.16558560059E-02 -0.12251312866E-01 -0.19964846237E-01  0.10204474190E+01  0.10201771921E+01 0.  0.
     999903    2    3    3    0    0  0.12326439385E+00  0.18063079769E-02  0.37215312778E-01  0.13013521320E+00  0.18783521211E-01 0.  0.
         14    1    1    2    0    0 -0.16558560059E-02  0.12251312866E-01  0.19964846237E-01  0.23482581019E-01  0.00000000000E+00 0.  1.
     999901    1    3    3    0    0 -0.12160853784E+00 -0.14057620843E-01 -0.57180159015E-01  0.89031220578E+00  0.88000000000E+00 0.  1.
        -11    1    4    4    0    0  0.50930746278E-01  0.53484725518E-02  0.23831803020E-01  0.56486839452E-01  0.51100000000E-03 0. -1.
         11    1    4    4    0    0  0.72333647573E-01 -0.35421645749E-02  0.13383509758E-01  0.73648373746E-01  0.51100000000E-03 0.  1.
</event>
<event>
 8    1  0.1157726E+005  0.1043930E+01  0.7957747E-01            NaN
         13   -1    0    0    0    0  0.00000000000E+00  0.00000000000E+00  0.74505805969E-08  0.10566000000E+00  0.10566000000E+00 0. -1.
     999900   -1    0    0    0    0 -0.00000000000E+00 -0.00000000000E+00 -0.74505805969E-08  0.93827000000E+00  0.93827000000E+00 0. -1.
     999902    2    1    2    0    0 -0.97621808179E-02  0.15567126598E-02  0.20947324537E-01  0.10207672296E+01  0.10205043964E+01 0.  0.
     999903    2    3    3    0    0 -0.49381130730E-01  0.11557724730E+00 -0.30832812145E-01  0.13101921689E+00  0.20464034929E-01 0.  0.
         14    1    1    2    0    0  0.97621808179E-02 -0.15567126598E-02 -0.20947324537E-01  0.23162770427E-01  0.00000000000E+00 0.  1.
     999901    1    3    3    0    0  0.39618949912E-01 -0.11402053464E+00  0.51780136681E-01  0.88974801268E+00  0.88000000000E+00 0.  1.
        -11    1    4    4    0    0 -0.23329298733E-01  0.66525443665E-01 -0.79464950562E-02  0.70945745037E-01  0.51100000000E-03 0. -1.
         11    1    4    4    0    0 -0.26051831997E-01  0.49051803633E-01 -0.22886317089E-01  0.60073471857E-01  0.51100000000E-03 0.  1.
</event>
<event>
 8    1  0.1157726E+005  0.1043930E+01  0.7957747E-01            NaN
         13   -1    0    0    0    0  0.00000000000E+00  0.00000000000E+00  0.74505805969E-08  0.10566000000E+00  0.10566000000E+00 0.  1.
     999900   -1    0    0    0    0 -0.00000000000E+00 -0.00000000000E+00 -0.74505805969E-08  0.93827000000E+00  0.93827000000E+00 0.  1.
     999902    2    1    2    0    0  0.17821710165E-01  0.13492741975E-01 -0.45560486494E-02  0.10211171743E+01  0.10208623113E+01 0.  0.
     999903    2    3    3    0    0 -0.10449550969E+00  0.75501525531E-01 -0.24900111108E-02  0.13049331424E+00  0.20062726719E-01 0.  0.
         14    1    1    2    0    0 -0.17821710165E-01 -0.13492741975E-01  0.45560486494E-02  0.22812825746E-01  0.00000000000E+00 0. -1.
     999901    1    3    3    0    0  0.12231721986E+00 -0.62008783557E-01 -0.20660375386E-02  0.89062386001E+00  0.88000000000E+00 0. -1.
        -11    1    4    4    0    0 -0.73764935592E-01  0.45894806756E-01 -0.89244375777E-02  0.87335592499E-01  0.51100000000E-03 0.  1.
         11    1    4    4    0    0 -0.30730574099E-01  0.29606718776E-01  0.64344264668E-02  0.43157721743E-01  0.51100000000E-03 0. -1.
</event>
<event>
 8    1  0.1157726E+005  0.1043930E+01  0.7957747E-01            NaN
         13   -1    0    0    0    0  0.00000000000E+00  0.00000000000E+00  0.74505805969E-08  0.10566000000E+00  0.10566000000E+00 0. -1.
     999900   -1    0    0    0    0 -0.00000000000E+00 -0.00000000000E+00 -0.74505805969E-08  0.93827000000E+00  0.93827000000E+00 0.  1.
     999902    2    1    2    0    0  0.91725970713E-02  0.87165977415E-02  0.19785451683E-01  0.10204442658E+01  0.10201739655E+01 0.  0.
     999903    2    3    3    0    0  0.91373922194E-01 -0.82542390414E-01 -0.36829087186E-01  0.13011260467E+00  0.20260018742E-01 0.  0.
         14    1    1    2    0    0 -0.91725970713E-02 -0.87165977415E-02 -0.19785451683E-01  0.23485734213E-01  0.00000000000E+00 0.  1.
     999901    1    3    3    0    0 -0.82201325123E-01  0.91258988155E-01  0.56614538869E-01  0.89033166111E+00  0.88000000000E+00 0.  1.
        -11    1    4    4    0    0  0.46396820380E-01 -0.48005747141E-01 -0.29280317000E-01  0.72902776247E-01  0.51100000000E-03 0.  1.
         11    1    4    4    0    0  0.44977101815E-01 -0.34536643272E-01 -0.75487701859E-02  0.57209828426E-01  0.51100000000E-03 0. -1.
</event>
<event>
 8    1  0.1157726E+005  0.1043930E+01  0.7957747E-01            NaN
         13   -1    0    0    0    0  0.00000000000E+00  0.00000000000E+00  0.74505805969E-08  0.10566000000E+00  0.10566000000E+00 0.  1.
     999900   -1    0    0    0    0 -0.00000000000E+00 -0.00000000000E+00 -0.74505805969E-08  0.93827000000E+00  0.93827000000E+00 0. -1.
     999902    2    1    2    0    0  0.21618511845E-01 -0.11110769026E-01 -0.22964773829E-02  0.10195151879E+01  0.10192228094E+01 0.  0.
     999903    2    3    3    0    0  0.96358746866E-01  0.41070486083E-02  0.87230408409E-01  0.13169045969E+00  0.20769137561E-01 0.  0.
         14    1    1    2    0    0 -0.21618511845E-01  0.11110769026E-01  0.22964773829E-02  0.24414812125E-01  0.00000000000E+00 0.  1.
     999901    1    3    3    0    0 -0.74740235021E-01 -0.15217817635E-01 -0.89526885792E-01  0.88782472819E+00  0.88000000000E+00 0. -1.
        -11    1    4    4    0    0  0.33894962745E-01 -0.83847175333E-02  0.29239509439E-01  0.45545384188E-01  0.51100000000E-03 0. -1.
         11    1    4    4    0    0  0.62463784121E-01  0.12491766142E-01  0.57990898971E-01  0.86145075498E-01  0.51100000000E-03 0.  1.
</event>
<event>
 8    1  0.1157726E+005  0.1043930E+01  0.7957747E-01            NaN
         13   -1    0    0    0    0  0.00000000000E+00  0.00000000000E+00  0.74505805969E-08  0.10566000000E+00  0.10566000000E+00 0. -1.
     999900   -1    0    0    0    0 -0.00000000000E+00 -0.00000000000E+00 -0.74505805969E-08  0.93827000000E+00  0.93827000000E+00 0.  1.
     999902    2    1    2    0    0  0.12830204700E-01  0.20308145937E-01 -0.24722033531E-02  0.10197815687E+01  0.10194956112E+01 0.  0.
     999903    2    3    3    0    0  0.12975887974E+00  0.96150005725E-02 -0.92215658355E-02  0.13195714221E+00  0.19945801473E-01 0.  0.
         14    1    1    2    0    0 -0.12830204700E-01 -0.20308145937E-01  0.24722033531E-02  0.24148431284E-01  0.00000000000E+00 0. -1.
     999901    1    3    3    0    0 -0.11692867504E+00  0.10693145364E-01  0.67493624824E-02  0.88782442650E+00  0.88000000000E+00 0.  1.
        -11    1    4    4    0    0  0.10365709517E+00  0.97634856029E-02 -0.15072115160E-01  0.10520241825E+00  0.51100000000E-03 0.  1.
         11    1    4    4    0    0  0.26101784572E-01 -0.14848503045E-03  0.58505493243E-02  0.26754723957E-01  0.51100000000E-03 0. -1.
</event>
<event>
 8    1  0.1157726E+005  0.1043930E+01  0.7957747E-01            NaN
         13   -1    0    0    0    0  0.00000000000E+00  0.00000000000E+00  0.74505805969E-08  0.10566000000E+00  0.10566000000E+00 0. -1.
     999900   -1    0    0    0    0 -0.00000000000E+00 -0.00000000000E+00 -0.74505805969E-08  0.93827000000E+00  0.93827000000E+00 0. -1.
     999902    2    1    2    0    0 -0.17575096803E-01 -0.78720453203E-02 -0.13488587415E-01  0.10204184047E+01  0.10201475018E+01 0.  0.
     999903    2    3    3    0    0 -0.30224159877E-01 -0.12664771499E+00 -0.12084667320E-01  0.13234767015E+00  0.20413795764E-01 0.  0.
         14    1    1    2    0    0  0.17575096803E-01  0.78720453203E-02  0.13488587415E-01  0.23511595344E-01  0.00000000000E+00 0. -1.
     999901    1    3    3    0    0  0.12649063074E-01  0.11877566967E+00 -0.14039200949E-02  0.88807073451E+00  0.88000000000E+00 0.  1.
        -11    1    4    4    0    0 -0.25730268820E-02 -0.49135089886E-01 -0.87838245090E-02  0.49982939284E-01  0.51100000000E-03 0.  1.
         11    1    4    4    0    0 -0.27651132995E-01 -0.77512625100E-01 -0.33008428110E-02  0.82364730862E-01  0.51100000000E-03 0. -1.
</event>
<event>
 8    1  0.1157726E+005  0.1043930E+01  0.7957747E-01            NaN
         13   -1    0    0    0    0  0.00000000000E+00  0.00000000000E+00  0.74505805969E-08  0.10566000000E+00  0.10566000000E+00 0.  1.
     999900   -1    0    0    0    0 -0.00000000000E+00 -0.00000000000E+00 -0.74505805969E-08  0.93827000000E+00  0.93827000000E+00 0.  1.
     999902    2    1    2    0    0  0.11617042009E-01 -0.16438236811E-01  0.12336596687E-01  0.10203214653E+01  0.10200482977E+01 0.  0.
     999903    2    3    3    0    0  0.94028559406E-01 -0.52717505061E-01  0.75938945116E-01  0.13344317473E+00  0.20490294577E-01 0.  0.
         14    1    1    2    0    0 -0.11617042009E-01  0.16438236811E-01 -0.12336596687E-01  0.23608534735E-01  0.00000000000E+00 0. -1.
     999901    1    3    3    0    0 -0.82411517397E-01  0.36279268250E-01 -0.63602348429E-01  0.88687829054E+00  0.88000000000E+00 0.  1.
        -11    1    4    4    0    0  0.37523326670E-01 -0.10430508310E-01  0.30909095133E-01  0.49723523919E-01  0.51100000000E-03 0. -1.
         11    1    4    4    0    0  0.56505232736E-01 -0.42286996751E-01  0.45029849983E-01  0.83719650807E-01  0.51100000000E-03 0.  1.
</event>
<event>
 8    1  0.1328469E+005  0.1043930E+01  0.7957747E-01            NaN
         13   -1    0    0    0    0  0.00000000000E+00  0.00000000000E+00  0.74505805969E-08  0.10566000000E+00  0.10566000000E+00 0.  1.
     999900   -1    0    0    0    0 -0.00000000000E+00 -0.00000000000E+00 -0.74505805969E-08  0.93827000000E+00  0.93827000000E+00 0. -1.
     999902    2    1    2    0    0  0.24525073002E-02 -0.14906123155E-01 -0.17371943087E-01  0.10209084513E+01  0.10206488496E+01 0.  0.
     999903    2    3    3    0    0  0.23606775445E-01 -0.19647583904E-01 -0.12895494986E+00  0.13359748440E+00  0.16601245280E-01 0.  0.
         14    1    1    2    0    0 -0.24525073002E-02  0.14906123155E-01  0.17371943087E-01  0.23021548736E-01  0.00000000000E+00 0.  1.
     999901    1    3    3    0    0 -0.21154268145E-01  0.47414607487E-02  0.11158300677E+00  0.88731096686E+00  0.88000000000E+00 0.  1.
        -11    1    4    4    0    0  0.16112187960E-01 -0.17539615372E-01 -0.66130827245E-01  0.70290740083E-01  0.51100000000E-03 0.  1.
         11    1    4    4    0    0  0.74945874850E-02 -0.21079685319E-02 -0.62824122616E-01  0.63306744320E-01  0.51100000000E-03 0. -1.
</event>
<event>
 8    1  0.1157726E+005  0.1043930E+01  0.7957747E-01            NaN
         13   -1    0    0    0    0  0.00000000000E+00  0.00000000000E+00  0.74505805969E-08  0.10566000000E+00  0.10566000000E+00 0.  1.
     999900   -1    0    0    0    0 -0.00000000000E+00 -0.00000000000E+00 -0.74505805969E-08  0.93827000000E+00  0.93827000000E+00 0. -1.
     999902    2    1    2    0    0 -0.41772997387E-02 -0.30341629812E-02  0.22938463544E-01  0.10204176822E+01  0.10201467625E+01 0.  0.
     999903    2    3    3    0    0 -0.27025420653E-01  0.10554983572E+00 -0.65969146704E-01  0.12900471138E+00  0.20473056938E-01 0.  0.
         14    1    1    2    0    0  0.41772997387E-02  0.30341629812E-02 -0.22938463544E-01  0.23512317790E-01  0.00000000000E+00 0. -1.
     999901    1    3    3    0    0  0.22848120915E-01 -0.10858399870E+00  0.88907610248E-01  0.89141297083E+00  0.88000000000E+00 0.  1.
        -11    1    4    4    0    0 -0.20485648212E-01  0.58839620304E-01 -0.47508431333E-01  0.78352248653E-01  0.51100000000E-03 0. -1.
         11    1    4    4    0    0 -0.65397724414E-02  0.46710215412E-01 -0.18460715371E-01  0.50652462728E-01  0.51100000000E-03 0.  1.
</event>
<event>
 8    1  0.1157726E+005  0.1043930E+01  0.7957747E-01            NaN
         13   -1    0    0    0    0  0.00000000000E+00  0.00000000000E+00  0.74505805969E-08  0.10566000000E+00  0.10566000000E+00 0.  1.
     999900   -1    0    0    0    0 -0.00000000000E+00 -0.00000000000E+00 -0.74505805969E-08  0.93827000000E+00  0.93827000000E+00 0.  1.
     999902    2    1    2    0    0  0.21182609668E-01  0.12264261998E-01 -0.20215882109E-02  0.10193698312E+01  0.10190739182E+01 0.  0.
     999903    2    3    3    0    0  0.87262064844E-01  0.12832451263E-02  0.96271790981E-01  0.13136720418E+00  0.19307250351E-01 0.  0.
         14    1    1    2    0    0 -0.21182609668E-01 -0.12264261998E-01  0.20215882109E-02  0.24560168843E-01  0.00000000000E+00 0.  1.
     999901    1    3    3    0    0 -0.66079455176E-01  0.10981016872E-01 -0.98293379192E-01  0.88800262698E+00  0.88000000000E+00 0.  1.
        -11    1    4    4    0    0  0.21941761998E-01  0.78088480762E-02  0.31163565560E-01  0.38908199230E-01  0.51100000000E-03 0.  1.
         11    1    4    4    0    0  0.65320302846E-01 -0.65256029498E-02  0.65108225421E-01  0.92459004949E-01  0.51100000000E-03 0. -1.
</event>
<event>
 8    1  0.1157726E+005  0.1043930E+01  0.7957747E-01            NaN
         13   -1    0    0    0    0  0.00000000000E+00  0.00000000000E+00  0.74505805969E-08  0.10566000000E+00  0.10566000000E+00 0.  1.
     999900   -1    0    0    0    0 -0.00000000000E+00 -0.00000000000E+00 -0.74505805969E-08  0.93827000000E+00  0.93827000000E+00 0.  1.
     999902    2    1    2    0    0 -0.48375342942E-02  0.21310923513E-01  0.86073376476E-02  0.10204429086E+01  0.10201725767E+01 0.  0.
     999903    2    3    3    0    0 -0.17198619949E-01  0.12849143466E+00  0.28261179333E-01  0.13363586542E+00  0.15937658571E-01 0.  0.
         14    1    1    2    0    0  0.48375342942E-02 -0.21310923513E-01 -0.86073376476E-02  0.23487091357E-01  0.00000000000E+00 0. -1.
     999901    1    3    3    0    0  0.12361085655E-01 -0.10718051115E+00 -0.19653841686E-01  0.88680704322E+00  0.88000000000E+00 0. -1.
        -11    1    4    4    0    0 -0.78387277188E-03  0.65797193497E-01  0.14225329966E-01  0.67323890724E-01  0.51100000000E-03 0.  1.
         11    1    4    4    0    0 -0.16414747178E-01  0.62694241166E-01  0.14035849368E-01  0.66311974701E-01  0.51100000000E-03 0. -1.
</event>
<event>
 8    1  0.1157726E+005  0.1043930E+01  0.7957747E-01            NaN
         13   -1    0    0    0    0  0.00000000000E+00  0.00000000000E+00  0.74505805969E-08  0.10566000000E+00  0.10566000000E+00 0. -1.
     999900   -1    0    0    0    0 -0.00000000000E+00 -0.00000000000E+00 -0.74505805969E-08  0.93827000000E+00  0.93827000000E+00 0. -1.
     999902    2    1    2    0    0 -0.13438892016E-01 -0.93350393807E-02 -0.16252191862E-01  0.10208674650E+01  0.10206069276E+01 0.  0.
     999903    2    3    3    0    0  0.31831286059E-01  0.12011350703E+00 -0.35493094786E-01  0.13003834139E+00  0.14481889063E-01 0.  0.
         14    1    1    2    0    0  0.13438892016E-01  0.93350393807E-02  0.16252191862E-01  0.23062534968E-01  0.00000000000E+00 0.  1.
     999901    1    3    3    0    0 -0.45270178075E-01 -0.12944854641E+00  0.19240902924E-01  0.89082912365E+00  0.88000000000E+00 0.  1.
        -11    1    4    4    0    0  0.90897194365E-02  0.25611032808E-01 -0.13635490697E-01  0.30409467744E-01  0.51100000000E-03 0. -1.
         11    1    4    4    0    0  0.22741566623E-01  0.94502474217E-01 -0.21857604089E-01  0.99628873642E-01  0.51100000000E-03 0.  1.
</event>
<event>
 8    1  0.1157726E+005  0.1043930E+01  0.7957747E-01            NaN
         13   -1    0    0    0    0  0.00000000000E+00  0.00000000000E+00  0.74505805969E-08  0.10566000000E+00  0.10566000000E+00 0.  1.
     999900   -1    0    0    0    0 -0.00000000000E+00 -0.00000000000E+00 -0.74505805969E-08  0.93827000000E+00  0.93827000000E+00 0. -1.
     999902    2    1    2    0    0 -0.13780794754E-01 -0.18186900871E-01 -0.63659479492E-02  0.10202403617E+01  0.10199652919E+01 0.  0.
     999903    2    3    3    0    0 -0.11646062362E+00  0.38360516366E-01  0.42056364556E-01  0.13114785925E+00  0.19910226371E-01 0.  0.
         14    1    1    2    0    0  0.13780794754E-01  0.18186900871E-01  0.63659479492E-02  0.23689638255E-01  0.00000000000E+00 0.  1.
     999901    1    3    3    0    0  0.10267982887E+00 -0.56547417237E-01 -0.48422312505E-01  0.88909250250E+00  0.88000000000E+00 0.  1.
        -11    1    4    4    0    0 -0.34306410313E-01  0.19767050098E-02  0.12022369695E-01  0.36409279659E-01  0.51100000000E-03 0.  1.
         11    1    4    4    0    0 -0.82154213312E-01  0.36383811356E-01  0.30033994860E-01  0.94738579586E-01  0.51100000000E-03 0. -1.
</event>
<event>
 8    1  0.1157726E+005  0.1043930E+01  0.7957747E-01            NaN
         13   -1    0    0    0    0  0.00000000000E+00  0.00000000000E+00  0.74505805969E-08  0.10566000000E+00  0.10566000000E+00 0.  1.
     999900   -1    0    0    0    0 -0.00000000000E+00 -0.00000000000E+00 -0.74505805969E-08  0.93827000000E+00  0.93827000000E+00 0. -1.
     999902    2    1    2    0    0 -0.12498356798E-01  0.74802661525E-02 -0.19816005651E-01  0.10193365581E+01  0.10190398330E+01 0.  0.
     999903    2    3    3    0    0  0.16860170732E-01 -0.65255168622E-01 -0.11052057512E+00  0.13120386220E+00  0.21381149242E-01 0.  0.
         14    1    1    2    0    0  0.12498356798E-01 -0.74802661525E-02  0.19816005651E-01  0.24593441897E-01  0.00000000000E+00 0.  1.
     999901    1    3    3    0    0 -0.29358527529E-01  0.72735434775E-01  0.90704569466E-01  0.88813269590E+00  0.88000000000E+00 0.  1.
        -11    1    4    4    0    0  0.16467377027E-01 -0.39872763138E-01 -0.53077670608E-01  0.68399649009E-01  0.51100000000E-03 0.  1.
         11    1    4    4    0    0  0.39279370471E-03 -0.25382405485E-01 -0.57442904509E-01  0.62804213191E-01  0.51100000000E-03 0. -1.
</event>
<event>
 8    1  0.1157726E+005  0.1043930E+01  0.7957747E-01            NaN
         13   -1    0    0    0    0  0.00000000000E+00  0.00000000000E+00  0.74505805969E-08  0.10566000000E+00  0.10566000000E+00 0. -1.
     999900   -1    0    0    0    0 -0.00000000000E+00 -0.00000000000E+00 -0.74505805969E-08  0.93827000000E+00  0.93827000000E+00 0.  1.
     999902    2    1    2    0    0 -0.75628616389E-02 -0.21776679996E-01  0.12382536428E-01  0.10177623124E+01  0.10174258580E+01 0.  0.
     999903    2    3    3    0    0 -0.26659892252E-01  0.10277877095E+00  0.66927142378E-01  0.12711430615E+00  0.20114144983E-01 0.  0.
         14    1    1    2    0    0  0.75628616389E-02  0.21776679996E-01 -0.12382536428E-01  0.26167687636E-01  0.00000000000E+00 0. -1.
     999901    1    3    3    0    0  0.19097030613E-01 -0.12455545094E+00 -0.54544605950E-01  0.89064800622E+00  0.88000000000E+00 0.  1.
        -11    1    4    4    0    0 -0.47201487793E-03  0.30992959629E-01  0.25814617254E-01  0.40341565780E-01  0.51100000000E-03 0. -1.
         11    1    4    4    0    0 -0.26187877374E-01  0.71785811318E-01  0.41112525124E-01  0.86772740368E-01  0.51100000000E-03 0.  1.
</event>
<event>
 8    1  0.1157726E+005  0.1043930E+01  0.7957747E-01            NaN
         13   -1    0    0    0    0  0.00000000000E+00  0.00000000000E+00  0.74505805969E-08  0.10566000000E+00  0.10566000000E+00 0.  1.
     999900   -1    0    0    0    0 -0.00000000000E+00 -0.00000000000E+00 -0.74505805969E-08  0.93827000000E+00  0.93827000000E+00 0. -1.
     999902    2    1    2    0    0 -0.37521790452E-02  0.18341799635E-01  0.13454147776E-01  0.10208754006E+01  0.10206150445E+01 0.  0.
     999903    2    3    3    0    0 -0.45587402225E-01  0.11226604658E+00 -0.50708843005E-01  0.13256867460E+00  0.17921782002E-01 0.  0.
         14    1    1    2    0    0  0.37521790452E-02 -0.18341799635E-01 -0.13454147776E-01  0.23054599407E-01  0.00000000000E+00 0. -1.
     999901    1    3    3    0    0  0.41835223180E-01 -0.93924246943E-01  0.64162990781E-01  0.88830672600E+00  0.88000000000E+00 0. -1.
        -11    1    4    4    0    0 -0.35102376671E-01  0.69728752488E-01 -0.26086992528E-01  0.82310801670E-01  0.51100000000E-03 0. -1.
         11    1    4    4    0    0 -0.10485025554E-01  0.42537294090E-01 -0.24621850478E-01  0.50257872928E-01  0.51100000000E-03 0.  1.
</event>
<event>
 7    1  0.1157726E+005  0.1043930E+01  0.7957747E-01            NaN
         13   -1    0    0    0    0  0.00000000000E+00  0.00000000000E+00  0.74505805969E-08  0.10566000000E+00  0.10566000000E+00 0.  1.
     999900   -1    0    0    0    0 -0.00000000000E+00 -0.00000000000E+00 -0.74505805969E-08  0.93827000000E+00  0.93827000000E+00 0. -1.
     999903    2    1    2    0    0 -0.98687225941E-01  0.13428726794E-01 -0.26662703764E-01  0.10510558478E+00  0.20415310726E-01 0.  0.
         14    1    1    2    0    0 -0.19617073851E-01  0.28933538892E-01 -0.32767591858E-01  0.47913404549E-01  0.00000000000E+00 0. -1.
     999901    1    1    2    0    0  0.11830429979E+00 -0.42362265685E-01  0.59430295623E-01  0.89091101067E+00  0.88000000000E+00 0. -1.
        -11    1    3    3    0    0 -0.30146638047E-01  0.13425381984E-01 -0.11069985775E-01  0.34811871150E-01  0.51100000000E-03 0. -1.
         11    1    3    3    0    0 -0.68540587894E-01  0.33448094224E-05 -0.15592717990E-01  0.70293713626E-01  0.51100000000E-03 0.  1.
</event>
<event>
 8    1  0.1157726E+005  0.1043930E+01  0.7957747E-01            NaN
         13   -1    0    0    0    0  0.00000000000E+00  0.00000000000E+00  0.74505805969E-08  0.10566000000E+00  0.10566000000E+00 0. -1.
     999900   -1    0    0    0    0 -0.00000000000E+00 -0.00000000000E+00 -0.74505805969E-08  0.93827000000E+00  0.93827000000E+00 0. -1.
     999902    2    1    2    0    0 -0.65268064589E-03  0.21477626514E-01  0.10228983388E-01  0.10201319637E+01  0.10198543409E+01 0.  0.
     999903    2    3    3    0    0  0.72321837108E-01  0.32951323035E-01 -0.10113061144E+00  0.13004326846E+00  0.19173244104E-01 0.  0.
         14    1    1    2    0    0  0.65268064589E-03 -0.21477626514E-01 -0.10228983388E-01  0.23798036344E-01  0.00000000000E+00 0.  1.
     999901    1    3    3    0    0 -0.72974517754E-01 -0.11473696521E-01  0.11135959483E+00  0.89008869519E+00  0.88000000000E+00 0.  1.
        -11    1    4    4    0    0  0.38689300571E-01  0.71739943392E-02 -0.47091324755E-01  0.61369228133E-01  0.51100000000E-03 0. -1.
         11    1    4    4    0    0  0.33632536537E-01  0.25777328696E-01 -0.54039286685E-01  0.68674040328E-01  0.51100000000E-03 0.  1.
</event>
<event>
 8    1  0.1157726E+005  0.1043930E+01  0.7957747E-01            NaN
         13   -1    0    0    0    0  0.00000000000E+00  0.00000000000E+00  0.74505805969E-08  0.10566000000E+00  0.10566000000E+00 0. -1.
     999900   -1    0    0    0    0 -0.00000000000E+00 -0.00000000000E+00 -0.74505805969E-08  0.93827000000E+00  0.93827000000E+00 0. -1.
     999902    2    1    2    0    0  0.16813716059E-01 -0.17139174923E-01 -0.11032642010E-01  0.10175070639E+01  0.10171639265E+01 0.  0.
     999903    2    3    3    0    0  0.69602492781E-01 -0.10693714636E+00 -0.24251232674E-01  0.13126496276E+00  0.19034386967E-01 0.  0.
         14    1    1    2    0    0 -0.16813716059E-01  0.17139174923E-01  0.11032642010E-01  0.26422936144E-01  0.00000000000E+00 0. -1.
     999901    1    3    3    0    0 -0.52788776722E-01  0.89797971441E-01  0.13218590664E-01  0.88624210110E+00  0.88000000000E+00 0.  1.
        -11    1    4    4    0    0  0.47144110291E-01 -0.69219524558E-01 -0.24852540207E-01  0.87360286119E-01  0.51100000000E-03 0. -1.
         11    1    4    4    0    0  0.22458382490E-01 -0.37717621806E-01  0.60130753232E-03  0.43904676636E-01  0.51100000000E-03 0.  1.
</event>
<event>
 8    1  0.1157726E+005  0.1043930E+01  0.7957747E-01            NaN
         13   -1    0    0    0    0  0.00000000000E+00  0.00000000000E+00  0.74505805969E-08  0.10566000000E+00  0.10566000000E+00 0. -1.
     999900   -1    0    0    0    0 -0.00000000000E+00 -0.00000000000E+00 -0.74505805969E-08  0.93827000000E+00  0.93827000000E+00 0. -1.
     999902    2    1    2    0    0 -0.10983468266E-01 -0.18715389376E-01 -0.89989208209E-02  0.10204378109E+01  0.10201673602E+01 0.  0.
     999903    2    3    3    0    0  0.66270253992E-01  0.98515022699E-01  0.42680568841E-01  0.12781141826E+00  0.20424774636E-01 0.  0.
         14    1    1    2    0    0  0.10983468266E-01  0.18715389376E-01  0.89989208209E-02  0.23492189140E-01  0.00000000000E+00 0. -1.
     999901    1    3    3    0    0 -0.77253722258E-01 -0.11723041208E+00 -0.51679489662E-01  0.89262639260E+00  0.88000000000E+00 0. -1.
        -11    1    4    4    0    0  0.21151858178E-01  0.44053461095E-01  0.25074710814E-01  0.54928233016E-01  0.51100000000E-03 0.  1.
         11    1    4    4    0    0  0.45118395814E-01  0.54461561604E-01  0.17605858027E-01  0.72883185242E-01  0.51100000000E-03 0. -1.
</event>
<event>
 8    1  0.1249375E+005  0.1043930E+01  0.7957747E-01            NaN
         13   -1    0    0    0    0  0.00000000000E+00  0.00000000000E+00  0.74505805969E-08  0.10566000000E+00  0.10566000000E+00 0.  1.
     999900   -1    0    0    0    0 -0.00000000000E+00 -0.00000000000E+00 -0.74505805969E-08  0.93827000000E+00  0.93827000000E+00 0.  1.
     999902    2    1    2    0    0  0.20777612069E-01  0.24083081899E-03 -0.10988236293E-01  0.10204245007E+01  0.10201537399E+01 0.  0.
     999903    2    3    3    0    0  0.71933490516E-01 -0.98782093549E-01 -0.49038537301E-01  0.13257863066E+00  0.15491484889E-01 0.  0.
         14    1    1    2    0    0 -0.20777612069E-01 -0.24083081899E-03  0.10988236293E-01  0.23505499348E-01  0.00000000000E+00 0.  1.
     999901    1    3    3    0    0 -0.51155878446E-01  0.99022924368E-01  0.38050301008E-01  0.88784586999E+00  0.88000000000E+00 0. -1.
        -11    1    4    4    0    0  0.48753202491E-01 -0.59982402746E-01 -0.24167574301E-01  0.80988247054E-01  0.51100000000E-03 0. -1.
         11    1    4    4    0    0  0.23180288024E-01 -0.38799690804E-01 -0.24870963000E-01  0.51590383609E-01  0.51100000000E-03 0.  1.
</event>
<event>
 8    1  0.1157726E+005  0.1043930E+01  0.7957747E-01            NaN
         13   -1    0    0    0    0  0.00000000000E+00  0.00000000000E+00  0.74505805969E-08  0.10566000000E+00  0.10566000000E+00 0. -1.
     999900   -1    0    0    0    0 -0.00000000000E+00 -0.00000000000E+00 -0.74505805969E-08  0.93827000000E+00  0.93827000000E+00 0. -1.
     999902    2    1    2    0    0  0.13429928454E-01  0.60739825574E-02 -0.18576727180E-01  0.10202160582E+01  0.10199404171E+01 0.  0.
     999903    2    3    3    0    0  0.47849827410E-01 -0.10133187333E-01 -0.12235435017E+00  0.13330163346E+00  0.20160630151E-01 0.  0.
         14    1    1    2    0    0 -0.13429928454E-01 -0.60739825574E-02  0.18576727180E-01  0.23713941788E-01  0.00000000000E+00 0. -1.
     999901    1    3    3    0    0 -0.34419898957E-01  0.16207169890E-01  0.10377762299E+00  0.88691442475E+00  0.88000000000E+00 0.  1.
        -11    1    4    4    0    0  0.39617224115E-01 -0.60553989803E-02 -0.74763600964E-01  0.84829531729E-01  0.51100000000E-03 0. -1.
         11    1    4    4    0    0  0.82326032957E-02 -0.40777883525E-02 -0.47590749209E-01  0.48472101731E-01  0.51100000000E-03 0.  1.
</event>
<event>
 8    1  0.1157726E+005  0.1043930E+01  0.7957747E-01            NaN
         13   -1    0    0    0    0  0.00000000000E+00  0.00000000000E+00  0.74505805969E-08  0.10566000000E+00  0.10566000000E+00 0.  1.
     999900   -1    0    0    0    0 -0.00000000000E+00 -0.00000000000E+00 -0.74505805969E-08  0.93827000000E+00  0.93827000000E+00 0.  1.
     999902    2    1    2    0    0 -0.18064866315E-02 -0.13876767983E-01  0.19421342783E-01  0.10199922340E+01  0.10197113027E+01 0.  0.
     999903    2    3    3    0    0  0.66245744279E-01 -0.11219282712E+00  0.57608737240E-02  0.13180094719E+00  0.19041347731E-01 0.  0.
         14    1    1    2    0    0  0.18064866315E-02  0.13876767983E-01 -0.19421342783E-01  0.23937765959E-01  0.00000000000E+00 0.  1.
     999901    1    3    3    0    0 -0.68052230911E-01  0.98316059135E-01  0.13660469059E-01  0.88819128685E+00  0.88000000000E+00 0.  1.
        -11    1    4    4    0    0  0.61994846302E-01 -0.91431764456E-01  0.53699886664E-02  0.11059939610E+00  0.51100000000E-03 0. -1.
         11    1    4    4    0    0  0.42508979778E-02 -0.20761062662E-01  0.39088505758E-03  0.21201551089E-01  0.51100000000E-03 0.  1.
</event>
<event>
 8    1  0.1157726E+005  0.1043930E+01  0.7957747E-01            NaN
         13   -1    0    0    0    0  0.00000000000E+00  0.00000000000E+00  0.74505805969E-08  0.10566000000E+00  0.10566000000E+00 0. -1.
     999900   -1    0    0    0    0 -0.00000000000E+00 -0.00000000000E+00 -0.74505805969E-08  0.93827000000E+00  0.93827000000E+00 0.  1.
     999902    2    1    2    0    0  0.11843486514E-01 -0.16110798474E-01  0.12535884067E-01  0.10203296951E+01  0.10200567202E+01 0.  0.
     999903    2    3    3    0    0 -0.16793350372E-01  0.83484627077E-01  0.96591865833E-01  0.13027086265E+00  0.19718253873E-01 0.  0.
         14    1    1    2    0    0 -0.11843486514E-01  0.16110798474E-01 -0.12535884067E-01  0.23600304863E-01  0.00000000000E+00 0.  1.
     999901    1    3    3    0    0  0.28636836886E-01 -0.99595425550E-01 -0.84055981766E-01  0.89005883249E+00  0.88000000000E+00 0.  1.
        -11    1    4    4    0    0 -0.20211267742E-01  0.70744516019E-01  0.87070503260E-01  0.11399480492E+00  0.51100000000E-03 0.  1.
         11    1    4    4    0    0  0.34179173697E-02  0.12740111058E-01  0.95213625730E-02  0.16276057728E-01  0.51100000000E-03 0. -1.
</event>
<event>
 8    1  0.1157726E+005  0.1043930E+01  0.7957747E-01            NaN
         13   -1    0    0    0    0  0.00000000000E+00  0.00000000000E+00  0.74505805969E-08  0.10566000000E+00  0.10566000000E+00 0.  1.
     999900   -1    0    0    0    0 -0.00000000000E+00 -0.00000000000E+00 -0.74505805969E-08  0.93827000000E+00  0.93827000000E+00 0. -1.
     999902    2    1    2    0    0  0.16385590905E-01 -0.14682629576E-01 -0.91235701703E-02  0.10201117983E+01  0.10198336993E+01 0.  0.
     999903    2    3    3    0    0  0.48700654765E-02 -0.12896918788E+00  0.20310225332E-01  0.13215888677E+00  0.19917257341E-01 0.  0.
         14    1    1    2    0    0 -0.16385590905E-01  0.14682629576E-01  0.91235701703E-02  0.23818201721E-01  0.00000000000E+00 0. -1.
     999901    1    3    3    0    0  0.11515525429E-01  0.11428655830E+00 -0.29433795502E-01  0.88795291151E+00  0.88000000000E+00 0. -1.
        -11    1    4    4    0    0 -0.64189562440E-02 -0.77492823265E-01  0.14959509571E-01  0.79185786000E-01  0.51100000000E-03 0.  1.
         11    1    4    4    0    0  0.11289021721E-01 -0.51476364614E-01  0.53507157605E-02  0.52973100772E-01  0.51100000000E-03 0. -1.
</event>
<event>
 8    1  0.1157726E+005  0.1043930E+01  0.7957747E-01            NaN
         13   -1    0    0    0    0  0.00000000000E+00  0.00000000000E+00  0.74505805969E-08  0.10566000000E+00  0.10566000000E+00 0. -1.
     999900   -1    0    0    0    0 -0.00000000000E+00 -0.00000000000E+00 -0.74505805969E-08  0.93827000000E+00  0.93827000000E+00 0.  1.
     999902    2    1    2    0    0 -0.20089852672E-01  0.81689050517E-02  0.85398174973E-02  0.10206220255E+01  0.10203558484E+01 0.  0.
     999903    2    3    3    0    0  0.64633640370E-01  0.10737322057E+00  0.32033810068E-01  0.13069420029E+00  0.18662610684E-01 0.  0.
         14    1    1    2    0    0  0.20089852672E-01 -0.81689050517E-02 -0.85398174973E-02  0.23307974451E-01  0.00000000000E+00 0.  1.
     999901    1    3    3    0    0 -0.84723493043E-01 -0.99204315519E-01 -0.23493992571E-01  0.88992782526E+00  0.88000000000E+00 0.  1.
        -11    1    4    4    0    0  0.22609902436E-01  0.42354089039E-01  0.33448888377E-02  0.48130301774E-01  0.51100000000E-03 0.  1.
         11    1    4    4    0    0  0.42023737935E-01  0.65019131531E-01  0.28688921230E-01  0.82563898512E-01  0.51100000000E-03 0. -1.
</event>
<event>
 8    1  0.1157726E+005  0.1043930E+01  0.7957747E-01            NaN
         13   -1    0    0    0    0  0.00000000000E+00  0.00000000000E+00  0.74505805969E-08  0.10566000000E+00  0.10566000000E+00 0.  1.
     999900   -1    0    0    0    0 -0.00000000000E+00 -0.00000000000E+00 -0.74505805969E-08  0.93827000000E+00  0.93827000000E+00 0.  1.
     999902    2    1    2    0    0 -0.27311743911E-02  0.23143115241E-01  0.62592736383E-02  0.10198003170E+01  0.10195148086E+01 0.  0.
     999903    2    3    3    0    0  0.57065259101E-01 -0.11102790254E+00  0.17450078929E-01  0.12755443741E+00  0.19544572359E-01 0.  0.
         14    1    1    2    0    0  0.27311743911E-02 -0.23143115241E-01 -0.62592736383E-02  0.24129683030E-01  0.00000000000E+00 0. -1.
     999901    1    3    3    0    0 -0.59796433492E-01  0.13417101778E+00 -0.11190805291E-01  0.89224587956E+00  0.88000000000E+00 0. -1.
        -11    1    4    4    0    0  0.32300397723E-01 -0.49206208179E-01  0.15749321949E-01  0.60933315019E-01  0.51100000000E-03 0.  1.
         11    1    4    4    0    0  0.24764861378E-01 -0.61821694364E-01  0.17007569804E-02  0.66621122390E-01  0.51100000000E-03 0. -1.
</event>
<event>
 8    1  0.1157726E+005  0.1043930E+01  0.7957747E-01            NaN
         13   -1    0    0    0    0  0.00000000000E+00  0.00000000000E+00  0.74505805969E-08  0.10566000000E+00  0.10566000000E+00 0.  1.
     999900   -1    0    0    0    0 -0.00000000000E+00 -0.00000000000E+00 -0.74505805969E-08  0.93827000000E+00  0.93827000000E+00 0. -1.
     999902    2    1    2    0    0 -0.43638782238E-02 -0.12858380162E-01  0.20046803232E-01  0.10197172824E+01  0.10194297820E+01 0.  0.
     999903    2    3    3    0    0  0.67915937637E-01  0.66697252872E-01  0.88708363569E-01  0.13052220797E+00  0.10284691572E-01 0.  0.
         14    1    1    2    0    0  0.43638782238E-02  0.12858380162E-01 -0.20046803232E-01  0.24212717596E-01  0.00000000000E+00 0. -1.
     999901    1    3    3    0    0 -0.72279815860E-01 -0.79555633035E-01 -0.68661560336E-01  0.88919507443E+00  0.88000000000E+00 0.  1.
        -11    1    4    4    0    0  0.35744780994E-01  0.29000707695E-01  0.39067320378E-01  0.60375881423E-01  0.51100000000E-03 0. -1.
         11    1    4    4    0    0  0.32171156642E-01  0.37696545177E-01  0.49641043191E-01  0.70146326547E-01  0.51100000000E-03 0.  1.
</event>
<event>
 8    1  0.1157726E+005  0.1043930E+01  0.7957747E-01            NaN
         13   -1    0    0    0    0  0.00000000000E+00  0.00000000000E+00  0.74505805969E-08  0.10566000000E+00  0.10566000000E+00 0.  1.
     999900   -1    0    0    0    0 -0.00000000000E+00 -0.00000000000E+00 -0.74505805969E-08  0.93827000000E+00  0.93827000000E+00 0. -1.
     999902    2    1    2    0    0 -0.17819595304E-01  0.12570019830E-01  0.10483143634E-01  0.10197341393E+01  0.10194470438E+01 0.  0.
     999903    2    3    3    0    0  0.20258912683E-01 -0.82015585617E-01 -0.93624861160E-01  0.12775045883E+00  0.20434903416E-01 0.  0.
         14    1    1    2    0    0  0.17819595304E-01 -0.12570019830E-01 -0.10483143634E-01  0.24195860716E-01  0.00000000000E+00 0. -1.
     999901    1    3    3    0    0 -0.38078507987E-01  0.94585605447E-01  0.10410800479E+00  0.89198368045E+00  0.88000000000E+00 0. -1.
        -11    1    4    4    0    0  0.18805882326E-01 -0.72998381333E-01 -0.91130711555E-01  0.11826873043E+00  0.51100000000E-03 0. -1.
         11    1    4    4    0    0  0.14530303569E-02 -0.90172042838E-02 -0.24941496055E-02  0.94817284062E-02  0.51100000000E-03 0.  1.
</event>
<event>
 8    1  0.1157726E+005  0.1043930E+01  0.7957747E-01            NaN
         13   -1    0    0    0    0  0.00000000000E+00  0.00000000000E+00  0.74505805969E-08  0.10566000000E+00  0.10566000000E+00 0. -1.
     999900   -1    0    0    0    0 -0.00000000000E+00 -0.00000000000E+00 -0.74505805969E-08  0.93827000000E+00  0.93827000000E+00 0.  1.
     999902    2    1    2    0    0 -0.21150229624E-03 -0.18545261773E-01  0.15003798978E-01  0.10200744880E+01  0.10197955068E+01 0.  0.
     999903    2    3    3    0    0  0.11258025069E+00 -0.64899224636E-01  0.74405356049E-02  0.13163322809E+00  0.19639831057E-01 0.  0.
         14    1    1    2    0    0  0.21150229624E-03  0.18545261773E-01 -0.15003798978E-01  0.23855511967E-01  0.00000000000E+00 0.  1.
     999901    1    3    3    0    0 -0.11279175299E+00  0.46353962863E-01  0.75632633732E-02  0.88844125994E+00  0.88000000000E+00 0.  1.
        -11    1    4    4    0    0  0.25383933601E-01 -0.21702522759E-01 -0.40539684677E-02  0.33645792612E-01  0.51100000000E-03 0. -1.
         11    1    4    4    0    0  0.87196317089E-01 -0.43196701876E-01  0.11494504073E-01  0.97987435479E-01  0.51100000000E-03 0.  1.
</event>
<event>
 8    1  0.1157726E+005  0.1043930E+01  0.7957747E-01            NaN
         13   -1    0    0    0    0  0.00000000000E+00  0.00000000000E+00  0.74505805969E-08  0.10566000000E+00  0.10566000000E+00 0. -1.
     999900   -1    0    0    0    0 -0.00000000000E+00 -0.00000000000E+00 -0.74505805969E-08  0.93827000000E+00  0.93827000000E+00 0. -1.
     999902    2    1    2    0    0  0.74522087741E-02  0.36833010764E-02  0.23001376357E-01  0.10194725791E+01  0.10191791668E+01 0.  0.
     999903    2    3    3    0    0 -0.30489728592E-01 -0.78054053160E-01  0.99659578601E-01  0.13155531626E+00  0.18780598105E-01 0.  0.
         14    1    1    2    0    0 -0.74522087741E-02 -0.36833010764E-02 -0.23001376357E-01  0.24457420894E-01  0.00000000000E+00 0.  1.
     999901    1    3    3    0    0  0.37941937366E-01  0.81737354237E-01 -0.76658202243E-01  0.88791726285E+00  0.88000000000E+00 0. -1.
        -11    1    4    4    0    0 -0.90317414244E-02 -0.29186566452E-01  0.50315387797E-01  0.58867031390E-01  0.51100000000E-03 0.  1.
         11    1    4    4    0    0 -0.21457987168E-01 -0.48867486708E-01  0.49344190804E-01  0.72688284871E-01  0.51100000000E-03 0. -1.
</event>
<event>
 8    1  0.1157726E+005  0.1043930E+01  0.7957747E-01            NaN
         13   -1    0    0    0    0  0.00000000000E+00  0.00000000000E+00  0.74505805969E-08  0.10566000000E+00  0.10566000000E+00 0.  1.
     999900   -1    0    0    0    0 -0.00000000000E+00 -0.00000000000E+00 -0.74505805969E-08  0.93827000000E+00  0.93827000000E+00 0. -1.
     999902    2    1    2    0    0  0.12832455070E-01 -0.19254185152E-01 -0.36850429189E-02  0.10204997825E+01  0.10202307734E+01 0.  0.
     999903    2    3    3    0    0  0.18829080035E-01  0.61560012775E-01 -0.11149492717E+00  0.13022461988E+00  0.19574560295E-01 0.  0.
         14    1    1    2    0    0 -0.12832455070E-01  0.19254185152E-01  0.36850429189E-02  0.23430217461E-01  0.00000000000E+00 0.  1.
     999901    1    3    3    0    0 -0.59966249652E-02 -0.80814197926E-01  0.10780988425E+00  0.89027516265E+00  0.88000000000E+00 0. -1.
        -11    1    4    4    0    0  0.17175337365E-01  0.33833082174E-01 -0.77746141775E-01  0.86512388390E-01  0.51100000000E-03 0.  1.
         11    1    4    4    0    0  0.16537426702E-02  0.27726930600E-01 -0.33748785398E-01  0.43712231494E-01  0.51100000000E-03 0. -1.
</event>
<event>
 8    1  0.1157726E+005  0.1043930E+01  0.7957747E-01            NaN
         13   -1    0    0    0    0  0.00000000000E+00  0.00000000000E+00  0.74505805969E-08  0.10566000000E+00  0.10566000000E+00 0. -1.
     999900   -1    0    0    0    0 -0.00000000000E+00 -0.00000000000E+00 -0.74505805969E-08  0.93827000000E+00  0.93827000000E+00 0.  1.
     999902    2    1    2    0    0  0.32759356249E-02  0.10385864562E-01  0.21065050704E-01  0.10202164111E+01  0.10199407783E+01 0.  0.
     999903    2    3    3    0    0  0.79935766745E-01  0.98669407369E-01 -0.26564799443E-01  0.13120610956E+00  0.19595302001E-01 0.  0.
         14    1    1    2    0    0 -0.32759356249E-02 -0.10385864562E-01 -0.21065050704E-01  0.23713588891E-01  0.00000000000E+00 0.  1.
     999901    1    3    3    0    0 -0.76659831120E-01 -0.88283542807E-01  0.47629850147E-01  0.88901030155E+00  0.88000000000E+00 0.  1.
        -11    1    4    4    0    0  0.30909095887E-01  0.44413392091E-01 -0.20359728889E-01  0.57816098857E-01  0.51100000000E-03 0.  1.
         11    1    4    4    0    0  0.49026670858E-01  0.54256015278E-01 -0.62050705536E-02  0.73390010702E-01  0.51100000000E-03 0. -1.
</event>
<event>
 8    1  0.1157726E+005  0.1043930E+01  0.7957747E-01            NaN
         13   -1    0    0    0    0  0.00000000000E+00  0.00000000000E+00  0.74505805969E-08  0.10566000000E+00  0.10566000000E+00 0.  1.
     999900   -1    0    0    0    0 -0.00000000000E+00 -0.00000000000E+00 -0.74505805969E-08  0.93827000000E+00  0.93827000000E+00 0. -1.
     999902    2    1    2    0    0  0.20235983703E-01  0.12769670377E-01  0.31405026835E-02  0.10197965735E+01  0.10195109754E+01 0.  0.
     999903    2    3    3    0    0  0.25141306738E-01  0.13500254236E-01 -0.12561272043E+00  0.13041364786E+00  0.20367175632E-01 0.  0.
         14    1    1    2    0    0 -0.20235983703E-01 -0.12769670377E-01 -0.31405026835E-02  0.24133426509E-01  0.00000000000E+00 0.  1.
     999901    1    3    3    0    0 -0.49053230355E-02 -0.73058385888E-03  0.12875322312E+00  0.88938292563E+00  0.88000000000E+00 0.  1.
        -11    1    4    4    0    0  0.11842020442E-01 -0.29338599207E-02 -0.28170617086E-01  0.30703188274E-01  0.51100000000E-03 0.  1.
         11    1    4    4    0    0  0.13299286297E-01  0.16434114157E-01 -0.97442103348E-01  0.99710459582E-01  0.51100000000E-03 0. -1.
</event>
<event>
 8    1  0.1157726E+005  0.1043930E+01  0.7957747E-01            NaN
         13   -1    0    0    0    0  0.00000000000E+00  0.00000000000E+00  0.74505805969E-08  0.10566000000E+00  0.10566000000E+00 0. -1.
     999900   -1    0    0    0    0 -0.00000000000E+00 -0.00000000000E+00 -0.74505805969E-08  0.93827000000E+00  0.93827000000E+00 0.  1.
     999902    2    1    2    0    0  0.88462134963E-03  0.15723255416E-01 -0.17589507067E-01  0.10203208053E+01  0.10200476222E+01 0.  0.
     999903    2    3    3    0    0  0.23253851136E-01 -0.10183274112E+00  0.70922032091E-01  0.12782201688E+00  0.19947045027E-01 0.  0.
         14    1    1    2    0    0 -0.88462134963E-03 -0.15723255416E-01  0.17589507067E-01  0.23609194706E-01  0.00000000000E+00 0. -1.
     999901    1    3    3    0    0 -0.22369229786E-01  0.11755599654E+00 -0.88511539157E-01  0.89249878842E+00  0.88000000000E+00 0.  1.
        -11    1    4    4    0    0  0.16939183011E-01 -0.54309447178E-01  0.27723726997E-01  0.63287582775E-01  0.51100000000E-03 0.  1.
         11    1    4    4    0    0  0.63146681252E-02 -0.47523293944E-01  0.43198305094E-01  0.64534434101E-01  0.51100000000E-03 0. -1.
</event>
<event>
 8    1  0.1157726E+005  0.1043930E+01  0.7957747E-01            NaN
         13   -1    0    0    0    0  0.00000000000E+00  0.00000000000E+00  0.74505805969E-08  0.10566000000E+00  0.10566000000E+00 0. -1.
     999900   -1    0    0    0    0 -0.00000000000E+00 -0.00000000000E+00 -0.74505805969E-08  0.93827000000E+00  0.93827000000E+00 0.  1.
     999902    2    1    2    0    0 -0.69561195840E-02 -0.85085933350E-02 -0.21202296847E-01  0.10200486024E+01  0.10197690082E+01 0.  0.
     999903    2    3    3    0    0  0.10567510922E+00  0.65139176584E-01 -0.32141317567E-01  0.12975120832E+00  0.19798250693E-01 0.  0.
         14    1    1    2    0    0  0.69561195840E-02  0.85085933350E-02  0.21202296847E-01  0.23881397610E-01  0.00000000000E+00 0. -1.
     999901    1    3    3    0    0 -0.11263122880E+00 -0.73647769919E-01  0.10939020720E-01  0.89029739407E+00  0.88000000000E+00 0.  1.
        -11    1    4    4    0    0  0.44537396624E-01  0.37383905700E-01 -0.96861095950E-02  0.58950979157E-01  0.51100000000E-03 0.  1.
         11    1    4    4    0    0  0.61137712596E-01  0.27755270884E-01 -0.22455207972E-01  0.70800229162E-01  0.51100000000E-03 0. -1.
</event>
<event>
 8    1  0.1157726E+005  0.1043930E+01  0.7957747E-01            NaN
         13   -1    0    0    0    0  0.00000000000E+00  0.00000000000E+00  0.74505805969E-08  0.10566000000E+00  0.10566000000E+00 0. -1.
     999900   -1    0    0    0    0 -0.00000000000E+00 -0.00000000000E+00 -0.74505805969E-08  0.93827000000E+00  0.93827000000E+00 0. -1.
     999902    2    1    2    0    0 -0.71731847479E-02 -0.12897439341E-01  0.20133109809E-01  0.10189672151E+01  0.10186613985E+01 0.  0.
     999903    2    3    3    0    0 -0.51135788358E-01  0.12030529954E-01  0.11934394120E+00  0.13195148621E+00  0.20214250206E-01 0.  0.
         14    1    1    2    0    0  0.71731847479E-02  0.12897439341E-01 -0.20133109809E-01  0.24962784932E-01  0.00000000000E+00 0.  1.
     999901    1    3    3    0    0  0.43962603610E-01 -0.24927969294E-01 -0.99210831390E-01  0.88701572885E+00  0.88000000000E+00 0. -1.
        -11    1    4    4    0    0 -0.44576935909E-01  0.17053884276E-01  0.10597095575E+00  0.11622410579E+00  0.51100000000E-03 0. -1.
         11    1    4    4    0    0 -0.65588524484E-02 -0.50233543227E-02  0.13372985454E-01  0.15727380425E-01  0.51100000000E-03 0.  1.
</event>
<event>
 8    1  0.1157726E+005  0.1043930E+01  0.7957747E-01            NaN
         13   -1    0    0    0    0  0.00000000000E+00  0.00000000000E+00  0.74505805969E-08  0.10566000000E+00  0.10566000000E+00 0.  1.
     999900   -1    0    0    0    0 -0.00000000000E+00 -0.00000000000E+00 -0.74505805969E-08  0.93827000000E+00  0.93827000000E+00 0. -1.
     999902    2    1    2    0    0  0.19013064193E-01  0.87687112312E-02 -0.96007663390E-02  0.10208960767E+01  0.10206361927E+01 0.  0.
     999903    2    3    3    0    0  0.11362368645E+00 -0.42821652076E-01 -0.51164028547E-01  0.13334875958E+00  0.20496288774E-01 0.  0.
         14    1    1    2    0    0 -0.19013064193E-01 -0.87687112312E-02  0.96007663390E-02  0.23033923265E-01  0.00000000000E+00 0.  1.
     999901    1    3    3    0    0 -0.94610622261E-01  0.51590363307E-01  0.41563262208E-01  0.88754731716E+00  0.88000000000E+00 0. -1.
        -11    1    4    4    0    0  0.61380517069E-01 -0.31347445744E-01 -0.35951867947E-01  0.77736916328E-01  0.51100000000E-03 0. -1.
         11    1    4    4    0    0  0.52243169385E-01 -0.11474206332E-01 -0.15212160599E-01  0.55611843248E-01  0.51100000000E-03 0.  1.
</event>
<event>
 8    1  0.1157726E+005  0.1043930E+01  0.7957747E-01            NaN
         13   -1    0    0    0    0  0.00000000000E+00  0.00000000000E+00  0.74505805969E-08  0.10566000000E+00  0.10566000000E+00 0.  1.
     999900   -1    0    0    0    0 -0.00000000000E+00 -0.00000000000E+00 -0.74505805969E-08  0.93827000000E+00  0.93827000000E+00 0.  1.
     999902    2    1    2    0    0 -0.21562917236E-01  0.65535614254E-03  0.86697168792E-02  0.10206802068E+01  0.10204153722E+01 0.  0.
     999903    2    3    3    0    0  0.12506622777E+00 -0.22663900638E-01  0.26115100488E-03  0.12820354166E+00  0.16759062467E-01 0.  0.
         14    1    1    2    0    0  0.21562917236E-01 -0.65535614254E-03 -0.86697168792E-02  0.23249793164E-01  0.00000000000E+00 0. -1.
     999901    1    3    3    0    0 -0.14662914500E+00  0.23319256781E-01  0.84085658743E-02  0.89247666517E+00  0.88000000000E+00 0. -1.
        -11    1    4    4    0    0  0.62315253710E-01 -0.13613077078E-01  0.81771474104E-02  0.64308891868E-01  0.51100000000E-03 0. -1.
         11    1    4    4    0    0  0.62750974056E-01 -0.90508235603E-02 -0.79159964056E-02  0.63894649793E-01  0.51100000000E-03 0.  1.
</event>
<event>
 8    1  0.1157726E+005  0.1043930E+01  0.7957747E-01            NaN
         13   -1    0    0    0    0  0.00000000000E+00  0.00000000000E+00  0.74505805969E-08  0.10566000000E+00  0.10566000000E+00 0. -1.
     999900   -1    0    0    0    0 -0.00000000000E+00 -0.00000000000E+00 -0.74505805969E-08  0.93827000000E+00  0.93827000000E+00 0.  1.
     999902    2    1    2    0    0  0.46981862951E-03 -0.13918587211E-01  0.18462134341E-01  0.10208042956E+01  0.10205423126E+01 0.  0.
     999903    2    3    3    0    0 -0.49759651893E-01  0.11146923522E+00  0.40644416137E-01  0.13022181242E+00  0.20108170200E-01 0.  0.
         14    1    1    2    0    0 -0.46981862951E-03  0.13918587211E-01 -0.18462134341E-01  0.23125704398E-01  0.00000000000E+00 0.  1.
     999901    1    3    3    0    0  0.50229470522E-01 -0.12538782244E+00 -0.22182281796E-01  0.89058248318E+00  0.88000000000E+00 0.  1.
        -11    1    4    4    0    0 -0.39790892418E-01  0.65277429937E-01  0.24414189948E-01  0.80254419009E-01  0.51100000000E-03 0. -1.
         11    1    4    4    0    0 -0.99687594752E-02  0.46191805287E-01  0.16230226190E-01  0.49967393412E-01  0.51100000000E-03 0.  1.
</event>
<event>
 8    1  0.1157726E+005  0.1043930E+01  0.7957747E-01            NaN
         13   -1    0    0    0    0  0.00000000000E+00  0.00000000000E+00  0.74505805969E-08  0.10566000000E+00  0.10566000000E+00 0. -1.
     999900   -1    0    0    0    0 -0.00000000000E+00 -0.00000000000E+00 -0.74505805969E-08  0.93827000000E+00  0.93827000000E+00 0. -1.
     999902    2    1    2    0    0  0.10373902410E-01 -0.21187978874E-01 -0.47677019557E-02  0.10198617786E+01  0.10195777401E+01 0.  0.
     999903    2    3    3    0    0  0.10021060124E+00 -0.83205818897E-01 -0.17896668404E-01  0.13301950699E+00  0.20212016217E-01 0.  0.
         14    1    1    2    0    0 -0.10373902410E-01  0.21187978874E-01  0.47677019557E-02  0.24068221411E-01  0.00000000000E+00 0. -1.
     999901    1    3    3    0    0 -0.89836698833E-01  0.62017840023E-01  0.13128966449E-01  0.88684227160E+00  0.88000000000E+00 0. -1.
        -11    1    4    4    0    0  0.74759817648E-01 -0.58650429151E-01 -0.42749446099E-02  0.95118029031E-01  0.51100000000E-03 0. -1.
         11    1    4    4    0    0  0.25450783595E-01 -0.24555389745E-01 -0.13621723795E-01  0.37901477956E-01  0.51100000000E-03 0.  1.
</event>
<event>
 8    1  0.1157726E+005  0.1043930E+01  0.7957747E-01            NaN
         13   -1    0    0    0    0  0.00000000000E+00  0.00000000000E+00  0.74505805969E-08  0.10566000000E+00  0.10566000000E+00 0.  1.
     999900   -1    0    0    0    0 -0.00000000000E+00 -0.00000000000E+00 -0.74505805969E-08  0.93827000000E+00  0.93827000000E+00 0. -1.
     999902    2    1    2    0    0 -0.23743202245E-01  0.16517423076E-02  0.38977424011E-02  0.10198123653E+01  0.10195271454E+01 0.  0.
     999903    2    3    3    0    0  0.42856956534E-01  0.11607886654E+00  0.32009921841E-01  0.12946443193E+00  0.20624792331E-01 0.  0.
         14    1    1    2    0    0  0.23743202245E-01 -0.16517423076E-02 -0.38977424011E-02  0.24117634654E-01  0.00000000000E+00 0.  1.
     999901    1    3    3    0    0 -0.66600158779E-01 -0.11442712423E+00 -0.28112179440E-01  0.89034793342E+00  0.88000000000E+00 0. -1.
        -11    1    4    4    0    0  0.32896401190E-01  0.66408436336E-01  0.25551459974E-01  0.78392549746E-01  0.51100000000E-03 0. -1.
         11    1    4    4    0    0  0.99605553435E-02  0.49670430199E-01  0.64584618671E-02  0.51071882182E-01  0.51100000000E-03 0.  1.
</event>
<event>
 8    1  0.1157726E+005  0.1043930E+01  0.7957747E-01            NaN
         13   -1    0    0    0    0  0.00000000000E+00  0.00000000000E+00  0.74505805969E-08  0.10566000000E+00  0.10566000000E+00 0.  1.
     999900   -1    0    0    0    0 -0.00000000000E+00 -0.00000000000E+00 -0.74505805969E-08  0.93827000000E+00  0.93827000000E+00 0. -1.
     999902    2    1    2    0    0 -0.85424488100E-02  0.14866522211E-01 -0.19386090415E-01  0.10180493621E+01  0.10177203429E+01 0.  0.
     999903    2    3    3    0    0 -0.99204763072E-01  0.78068549791E-01 -0.29206294271E-01  0.13108228952E+00  0.19831175388E-01 0.  0.
         14    1    1    2    0    0  0.85424488100E-02 -0.14866522211E-01  0.19386090415E-01  0.25880637858E-01  0.00000000000E+00 0.  1.
     999901    1    3    3    0    0  0.90662314262E-01 -0.63202027581E-01  0.98202038559E-02  0.88696707263E+00  0.88000000000E+00 0. -1.
        -11    1    4    4    0    0 -0.49063882993E-01  0.28716366516E-01 -0.19263166412E-01  0.60026869163E-01  0.51100000000E-03 0. -1.
         11    1    4    4    0    0 -0.50140880079E-01  0.49352183275E-01 -0.99431278591E-02  0.71055420354E-01  0.51100000000E-03 0.  1.
</event>
<event>
 8    1  0.1157726E+005  0.1043930E+01  0.7957747E-01            NaN
         13   -1    0    0    0    0  0.00000000000E+00  0.00000000000E+00  0.74505805969E-08  0.10566000000E+00  0.10566000000E+00 0. -1.
     999900   -1    0    0    0    0 -0.00000000000E+00 -0.00000000000E+00 -0.74505805969E-08  0.93827000000E+00  0.93827000000E+00 0.  1.
     999902    2    1    2    0    0  0.12054725602E-01  0.18951883917E-02 -0.20166426389E-01  0.10203589817E+01  0.10200866918E+01 0.  0.
     999903    2    3    3    0    0  0.62256732127E-01 -0.10489653990E+00 -0.46292429684E-01  0.13209816265E+00  0.20682136022E-01 0.  0.
         14    1    1    2    0    0 -0.12054725602E-01 -0.18951883917E-02  0.20166426389E-01  0.23571018257E-01  0.00000000000E+00 0.  1.
     999901    1    3    3    0    0 -0.50202006524E-01  0.10679172829E+00  0.26126003295E-01  0.88826081909E+00  0.88000000000E+00 0.  1.
        -11    1    4    4    0    0  0.26626852932E-01 -0.30765012972E-01 -0.84478666242E-02  0.41558427445E-01  0.51100000000E-03 0.  1.
         11    1    4    4    0    0  0.35629879195E-01 -0.74131526930E-01 -0.37844563060E-01  0.90539735203E-01  0.51100000000E-03 0. -1.
</event>
<event>
 8    1  0.1157726E+005  0.1043930E+01  0.7957747E-01            NaN
         13   -1    0    0    0    0  0.00000000000E+00  0.00000000000E+00  0.74505805969E-08  0.10566000000E+00  0.10566000000E+00 0.  1.
     999900   -1    0    0    0    0 -0.00000000000E+00 -0.00000000000E+00 -0.74505805969E-08  0.93827000000E+00  0.93827000000E+00 0. -1.
     999902    2    1    2    0    0 -0.58528663420E-02  0.68426602935E-02  0.20659975214E-01  0.10213930832E+01  0.10211444157E+01 0.  0.
     999903    2    3    3    0    0 -0.93588693935E-01  0.28878251951E-01 -0.83778868060E-01  0.13061218153E+00  0.21162376105E-01 0.  0.
         14    1    1    2    0    0  0.58528663420E-02 -0.68426602935E-02 -0.20659975214E-01  0.22536916829E-01  0.00000000000E+00 0. -1.
     999901    1    3    3    0    0  0.87735827593E-01 -0.22035591658E-01  0.10443884327E+00  0.89078090164E+00  0.88000000000E+00 0.  1.
        -11    1    4    4    0    0 -0.45394458710E-01  0.18126734874E-01 -0.28899981924E-01  0.56786490250E-01  0.51100000000E-03 0.  1.
         11    1    4    4    0    0 -0.48194235226E-01  0.10751517077E-01 -0.54878886136E-01  0.73825691280E-01  0.51100000000E-03 0. -1.
</event>
<event>
 8    1  0.1157726E+005  0.1043930E+01  0.7957747E-01            NaN
         13   -1    0    0    0    0  0.00000000000E+00  0.00000000000E+00  0.74505805969E-08  0.10566000000E+00  0.10566000000E+00 0. -1.
     999900   -1    0    0    0    0 -0.00000000000E+00 -0.00000000000E+00 -0.74505805969E-08  0.93827000000E+00  0.93827000000E+00 0. -1.
     999902    2    1    2    0    0 -0.11948208200E-01 -0.21028756895E-01  0.44356977272E-02  0.10193404959E+01  0.10190438670E+01 0.  0.
     999903    2    3    3    0    0 -0.19608481429E-01  0.12397373179E+00 -0.80262081264E-02  0.12735411678E+00  0.20016801038E-01 0.  0.
         14    1    1    2    0    0  0.11948208200E-01  0.21028756895E-01 -0.44356977272E-02  0.24589504063E-01  0.00000000000E+00 0. -1.
     999901    1    3    3    0    0  0.76602732289E-02 -0.14500248869E+00  0.12461905854E-01  0.89198637916E+00  0.88000000000E+00 0.  1.
        -11    1    4    4    0    0 -0.21474798885E-01  0.95287559816E-01 -0.11667244729E-01  0.98373125209E-01  0.51100000000E-03 0. -1.
         11    1    4    4    0    0  0.18663174565E-02  0.28686171978E-01  0.36410366027E-02  0.28980991566E-01  0.51100000000E-03 0.  1.
</event>
<event>
 8    1  0.1157726E+005  0.1043930E+01  0.7957747E-01            NaN
         13   -1    0    0    0    0  0.00000000000E+00  0.00000000000E+00  0.74505805969E-08  0.10566000000E+00  0.10566000000E+00 0.  1.
     999900   -1    0    0    0    0 -0.00000000000E+00 -0.00000000000E+00 -0.74505805969E-08  0.93827000000E+00  0.93827000000E+00 0. -1.
     999902    2    1    2    0    0 -0.18655996743E-01  0.76515453815E-02  0.13634826226E-01  0.10195886597E+01  0.10192980595E+01 0.  0.
     999903    2    3    3    0    0 -0.53454176827E-01 -0.10485980071E+00 -0.50213508907E-01  0.12945028493E+00  0.19571738999E-01 0.  0.
         14    1    1    2    0    0  0.18655996743E-01 -0.76515453815E-02 -0.13634826226E-01  0.24341340296E-01  0.00000000000E+00 0.  1.
     999901    1    3    3    0    0  0.34798180083E-01  0.11251134609E+00  0.63848335132E-01  0.89013837477E+00  0.88000000000E+00 0.  1.
        -11    1    4    4    0    0 -0.25334599644E-01 -0.65017432342E-01 -0.22296282842E-01  0.73256356701E-01  0.51100000000E-03 0.  1.
         11    1    4    4    0    0 -0.28119577182E-01 -0.39842368370E-01 -0.27917226065E-01  0.56193928234E-01  0.51100000000E-03 0. -1.
</event>
<event>
 8    1  0.1157726E+005  0.1043930E+01  0.7957747E-01            NaN
         13   -1    0    0    0    0  0.00000000000E+00  0.00000000000E+00  0.74505805969E-08  0.10566000000E+00  0.10566000000E+00 0. -1.
     999900   -1    0    0    0    0 -0.00000000000E+00 -0.00000000000E+00 -0.74505805969E-08  0.93827000000E+00  0.93827000000E+00 0.  1.
     999902    2    1    2    0    0  0.20640298157E-01  0.37187529201E-02  0.10347573233E-01  0.10205436086E+01  0.10202756166E+01 0.  0.
     999903    2    3    3    0    0 -0.19480340643E-01 -0.11768373922E+00  0.49152779176E-01  0.13045705394E+00  0.19341692673E-01 0.  0.
         14    1    1    2    0    0 -0.20640298157E-01 -0.37187529201E-02 -0.10347573233E-01  0.23386391409E-01  0.00000000000E+00 0.  1.
     999901    1    3    3    0    0  0.40120638801E-01  0.12140249214E+00 -0.38805205943E-01  0.89008655465E+00  0.88000000000E+00 0. -1.
        -11    1    4    4    0    0 -0.52369207198E-02 -0.82525765095E-01  0.37255858913E-01  0.90698331779E-01  0.51100000000E-03 0.  1.
         11    1    4    4    0    0 -0.14243419924E-01 -0.35157974122E-01  0.11896920263E-01  0.39758722166E-01  0.51100000000E-03 0. -1.
</event>
<event>
 8    1  0.1157726E+005  0.1043930E+01  0.7957747E-01            NaN
         13   -1    0    0    0    0  0.00000000000E+00  0.00000000000E+00  0.74505805969E-08  0.10566000000E+00  0.10566000000E+00 0.  1.
     999900   -1    0    0    0    0 -0.00000000000E+00 -0.00000000000E+00 -0.74505805969E-08  0.93827000000E+00  0.93827000000E+00 0.  1.
     999902    2    1    2    0    0 -0.20514036163E-01 -0.68142539130E-02  0.20849922437E-02  0.10222134872E+01  0.10219827819E+01 0.  0.
     999903    2    3    3    0    0 -0.17663721190E-01 -0.51710721868E-01 -0.11949010930E+00  0.13271681915E+00  0.18704600074E-01 0.  0.
         14    1    1    2    0    0  0.20514036163E-01  0.68142539130E-02 -0.20849922437E-02  0.21716512812E-01  0.00000000000E+00 0.  1.
     999901    1    3    3    0    0 -0.28503149724E-02  0.44896467955E-01  0.12157510154E+00  0.88949666803E+00  0.88000000000E+00 0. -1.
        -11    1    4    4    0    0 -0.47163871878E-02 -0.25760373458E-02 -0.46051104690E-02  0.70956634605E-02  0.51100000000E-03 0.  1.
         11    1    4    4    0    0 -0.12947334002E-01 -0.49134684522E-01 -0.11488499883E+00  0.12562115569E+00  0.51100000000E-03 0. -1.
</event>
<event>
 8    1  0.1157726E+005  0.1043930E+01  0.7957747E-01            NaN
         13   -1    0    0    0    0  0.00000000000E+00  0.00000000000E+00  0.74505805969E-08  0.10566000000E+00  0.10566000000E+00 0.  1.
     999900   -1    0    0    0    0 -0.00000000000E+00 -0.00000000000E+00 -0.74505805969E-08  0.93827000000E+00  0.93827000000E+00 0. -1.
     999902    2    1    2    0    0 -0.59378963066E-02  0.17758182526E-01 -0.87334999351E-02  0.10232687880E+01  0.10230601775E+01 0.  0.
     999903    2    3    3    0    0 -0.12059551672E-01  0.12050297848E+00  0.56047248898E-01  0.13490483492E+00  0.19789385156E-01 0.  0.
         14    1    1    2    0    0  0.59378963066E-02 -0.17758182526E-01  0.87334999351E-02  0.20661211976E-01  0.00000000000E+00 0.  1.
     999901    1    3    3    0    0  0.61216553651E-02 -0.10274479596E+00 -0.64780748834E-01  0.88836395311E+00  0.88000000000E+00 0. -1.
        -11    1    4    4    0    0 -0.92835312559E-02  0.21862319348E-01  0.14511683635E-01  0.27838732779E-01  0.51100000000E-03 0.  1.
         11    1    4    4    0    0 -0.27760204157E-02  0.98640659136E-01  0.41535565264E-01  0.10706610214E+00  0.51100000000E-03 0. -1.
</event>
<event>
 8    1  0.1157726E+005  0.1043930E+01  0.7957747E-01            NaN
         13   -1    0    0    0    0  0.00000000000E+00  0.00000000000E+00  0.74505805969E-08  0.10566000000E+00  0.10566000000E+00 0. -1.
     999900   -1    0    0    0    0 -0.00000000000E+00 -0.00000000000E+00 -0.74505805969E-08  0.93827000000E+00  0.93827000000E+00 0. -1.
     999902    2    1    2    0    0  0.10196431062E-01  0.17242464963E-01 -0.12879564161E-01  0.10201150262E+01  0.10198370035E+01 0.  0.
     999903    2    3    3    0    0 -0.37981932181E-01  0.45514419365E-01  0.11325902532E+00  0.12936736167E+00  0.19852403055E-01 0.  0.
         14    1    1    2    0    0 -0.10196431062E-01 -0.17242464963E-01  0.12879564161E-01  0.23814973806E-01  0.00000000000E+00 0. -1.
     999901    1    3    3    0    0  0.48178363242E-01 -0.28271954402E-01 -0.12613858948E+00  0.89074766452E+00  0.88000000000E+00 0. -1.
        -11    1    4    4    0    0 -0.94437398637E-02  0.25541902648E-02  0.28629819429E-01  0.30259474418E-01  0.51100000000E-03 0. -1.
         11    1    4    4    0    0 -0.28538192317E-01  0.42960229101E-01  0.84629205895E-01  0.99107887257E-01  0.51100000000E-03 0.  1.
</event>
<event>
 8    1  0.1157726E+005  0.1043930E+01  0.7957747E-01            NaN
         13   -1    0    0    0    0  0.00000000000E+00  0.00000000000E+00  0.74505805969E-08  0.10566000000E+00  0.10566000000E+00 0. -1.
     999900   -1    0    0    0    0 -0.00000000000E+00 -0.00000000000E+00 -0.74505805969E-08  0.93827000000E+00  0.93827000000E+00 0.  1.
     999902    2    1    2    0    0  0.38816749363E-02 -0.17283109613E-01 -0.15183788274E-01  0.10205993184E+01  0.10203326163E+01 0.  0.
     999903    2    3    3    0    0 -0.40856725424E-01  0.95532394021E-01  0.71878763205E-01  0.12801388819E+00  0.20622527733E-01 0.  0.
         14    1    1    2    0    0 -0.38816749363E-02  0.17283109613E-01  0.15183788274E-01  0.23330681614E-01  0.00000000000E+00 0. -1.
     999901    1    3    3    0    0  0.44738400360E-01 -0.11281550363E+00 -0.87062551479E-01  0.89258543020E+00  0.88000000000E+00 0.  1.
        -11    1    4    4    0    0 -0.17788418026E-01  0.26111835132E-01  0.13251565750E-01  0.34265447110E-01  0.51100000000E-03 0. -1.
         11    1    4    4    0    0 -0.23068307398E-01  0.69420558889E-01  0.58627197455E-01  0.93748441081E-01  0.51100000000E-03 0.  1.
</event>
<event>
 8    1  0.1157726E+005  0.1043930E+01  0.7957747E-01            NaN
         13   -1    0    0    0    0  0.00000000000E+00  0.00000000000E+00  0.74505805969E-08  0.10566000000E+00  0.10566000000E+00 0. -1.
     999900   -1    0    0    0    0 -0.00000000000E+00 -0.00000000000E+00 -0.74505805969E-08  0.93827000000E+00  0.93827000000E+00 0. -1.
     999902    2    1    2    0    0  0.10721086406E-01  0.14507262290E-01  0.17815503927E-01  0.10185766071E+01  0.10182610225E+01 0.  0.
     999903    2    3    3    0    0  0.90531614437E-01 -0.88152854829E-01  0.15403360974E-01  0.12901793083E+00  0.21011042826E-01 0.  0.
         14    1    1    2    0    0 -0.10721086406E-01 -0.14507262290E-01 -0.17815503927E-01  0.25353392930E-01  0.00000000000E+00 0.  1.
     999901    1    3    3    0    0 -0.79810528030E-01  0.10266011712E+00  0.24121429526E-02  0.88955867624E+00  0.88000000000E+00 0. -1.
        -11    1    4    4    0    0  0.62614845896E-01 -0.57183578549E-01  0.69367913324E-03  0.84801667991E-01  0.51100000000E-03 0. -1.
         11    1    4    4    0    0  0.27916768540E-01 -0.30969276279E-01  0.14709681841E-01  0.44216262844E-01  0.51100000000E-03 0.  1.
</event>
<event>
 8    1  0.1157726E+005  0.1043930E+01  0.7957747E-01            NaN
         13   -1    0    0    0    0  0.00000000000E+00  0.00000000000E+00  0.74505805969E-08  0.10566000000E+00  0.10566000000E+00 0. -1.
     999900   -1    0    0    0    0 -0.00000000000E+00 -0.00000000000E+00 -0.74505805969E-08  0.93827000000E+00  0.93827000000E+00 0. -1.
     999902    2    1    2    0    0 -0.14195769112E-01 -0.13401501884E-01 -0.11854447857E-01  0.10210903843E+01  0.10208349155E+01 0.  0.
     999903    2    3    3    0    0 -0.67251865378E-01  0.52708422667E-01 -0.99522546016E-01  0.13268103778E+00  0.19963201217E-01 0.  0.
         14    1    1    2    0    0  0.14195769112E-01  0.13401501884E-01  0.11854447857E-01  0.22839615746E-01  0.00000000000E+00 0. -1.
     999901    1    3    3    0    0  0.53056096266E-01 -0.66109924551E-01  0.87668098160E-01  0.88840934648E+00  0.88000000000E+00 0.  1.
        -11    1    4    4    0    0 -0.77594483624E-02  0.13711151476E-01 -0.25798111232E-01  0.30232571472E-01  0.51100000000E-03 0. -1.
         11    1    4    4    0    0 -0.59492417016E-01  0.38997271191E-01 -0.73724434785E-01  0.10244846630E+00  0.51100000000E-03 0.  1.
</event>
<event>
 8    1  0.1157726E+005  0.1043930E+01  0.7957747E-01            NaN
         13   -1    0    0    0    0  0.00000000000E+00  0.00000000000E+00  0.74505805969E-08  0.10566000000E+00  0.10566000000E+00 0.  1.
     999900   -1    0    0    0    0 -0.00000000000E+00 -0.00000000000E+00 -0.74505805969E-08  0.93827000000E+00  0.93827000000E+00 0. -1.
     999902    2    1    2    0    0  0.22655533625E-01 -0.26206333014E-02  0.58817210751E-02  0.10203771750E+01  0.10201053101E+01 0.  0.
     999903    2    3    3    0    0  0.84969511560E-01  0.56397357128E-01  0.82887605323E-01  0.13285474641E+00  0.19482010718E-01 0.  0.
         14    1    1    2    0    0 -0.22655533625E-01  0.26206333014E-02 -0.58817210751E-02  0.23552825001E-01  0.00000000000E+00 0. -1.
     999901    1    3    3    0    0 -0.62313977935E-01 -0.59017990430E-01 -0.77005884248E-01  0.88752242859E+00  0.88000000000E+00 0.  1.
        -11    1    4    4    0    0  0.25698140717E-01  0.13822391740E-01  0.13504571962E-01  0.32157231451E-01  0.51100000000E-03 0.  1.
         11    1    4    4    0    0  0.59271370842E-01  0.42574965389E-01  0.69383033361E-01  0.10069751496E+00  0.51100000000E-03 0. -1.
</event>
<event>
 8    1  0.1157726E+005  0.1043930E+01  0.7957747E-01            NaN
         13   -1    0    0    0    0  0.00000000000E+00  0.00000000000E+00  0.74505805969E-08  0.10566000000E+00  0.10566000000E+00 0.  1.
     999900   -1    0    0    0    0 -0.00000000000E+00 -0.00000000000E+00 -0.74505805969E-08  0.93827000000E+00  0.93827000000E+00 0.  1.
     999902    2    1    2    0    0  0.10057262473E-01  0.19756702673E-01 -0.86477170728E-02  0.10201338062E+01  0.10198562270E+01 0.  0.
     999903    2    3    3    0    0  0.70035663328E-01  0.57535352890E-01  0.92851650324E-01  0.13146808920E+00  0.21145177707E-01 0.  0.
         14    1    1    2    0    0 -0.10057262473E-01 -0.19756702673E-01  0.86477170728E-02  0.23796193804E-01  0.00000000000E+00 0. -1.
     999901    1    3    3    0    0 -0.59978400855E-01 -0.37778650216E-01 -0.10149936740E+00  0.88866571700E+00  0.88000000000E+00 0. -1.
        -11    1    4    4    0    0  0.59741074952E-01  0.38222627551E-01  0.74965649942E-01  0.10319920099E+00  0.51100000000E-03 0. -1.
         11    1    4    4    0    0  0.10294588376E-01  0.19312725339E-01  0.17886000382E-01  0.28268888208E-01  0.51100000000E-03 0.  1.
</event>
<event>
 8    1  0.1157726E+005  0.1043930E+01  0.7957747E-01            NaN
         13   -1    0    0    0    0  0.00000000000E+00  0.00000000000E+00  0.74505805969E-08  0.10566000000E+00  0.10566000000E+00 0. -1.
     999900   -1    0    0    0    0 -0.00000000000E+00 -0.00000000000E+00 -0.74505805969E-08  0.93827000000E+00  0.93827000000E+00 0. -1.
     999902    2    1    2    0    0  0.12797285414E-01  0.19765364613E-01 -0.48703282698E-02  0.10198850369E+01  0.10196015537E+01 0.  0.
     999903    2    3    3    0    0  0.26736073540E-01  0.12636622373E+00  0.24555032146E-01  0.13285409900E+00  0.19079357664E-01 0.  0.
         14    1    1    2    0    0 -0.12797285414E-01 -0.19765364613E-01  0.48703282698E-02  0.24044963084E-01  0.00000000000E+00 0.  1.
     999901    1    3    3    0    0 -0.13938788125E-01 -0.10660085912E+00 -0.29425360416E-01  0.88703093791E+00  0.88000000000E+00 0. -1.
        -11    1    4    4    0    0  0.98158407026E-02  0.67357266778E-01  0.21515052327E-01  0.71389850218E-01  0.51100000000E-03 0.  1.
         11    1    4    4    0    0  0.16920232837E-01  0.59008956957E-01  0.30399798187E-02  0.61464248785E-01  0.51100000000E-03 0. -1.
</event>
<event>
 8    1  0.1157726E+005  0.1043930E+01  0.7957747E-01            NaN
         13   -1    0    0    0    0  0.00000000000E+00  0.00000000000E+00  0.74505805969E-08  0.10566000000E+00  0.10566000000E+00 0. -1.
     999900   -1    0    0    0    0 -0.00000000000E+00 -0.00000000000E+00 -0.74505805969E-08  0.93827000000E+00  0.93827000000E+00 0. -1.
     999902    2    1    2    0    0  0.15810973925E-01  0.12950595930E-01 -0.11517754855E-01  0.10204701725E+01  0.10202004751E+01 0.  0.
     999903    2    3    3    0    0 -0.68332913566E-01 -0.11662506188E-01 -0.10903837148E+00  0.13075321226E+00  0.20040831650E-01 0.  0.
         14    1    1    2    0    0 -0.15810973925E-01 -0.12950595930E-01  0.11517754855E-01  0.23459827542E-01  0.00000000000E+00 0. -1.
     999901    1    3    3    0    0  0.84143887491E-01  0.24613102117E-01  0.97520616629E-01  0.88971696020E+00  0.88000000000E+00 0. -1.
        -11    1    4    4    0    0 -0.14784919250E-01  0.15898383368E-02 -0.38008645332E-01  0.40817149143E-01  0.51100000000E-03 0.  1.
         11    1    4    4    0    0 -0.53547994316E-01 -0.13252344524E-01 -0.71029726152E-01  0.89936063116E-01  0.51100000000E-03 0. -1.
</event>
<event>
 8    1  0.1157726E+005  0.1043930E+01  0.7957747E-01            NaN
         13   -1    0    0    0    0  0.00000000000E+00  0.00000000000E+00  0.74505805969E-08  0.10566000000E+00  0.10566000000E+00 0. -1.
     999900   -1    0    0    0    0 -0.00000000000E+00 -0.00000000000E+00 -0.74505805969E-08  0.93827000000E+00  0.93827000000E+00 0. -1.
     999902    2    1    2    0    0  0.21197829904E-01  0.61925703620E-02  0.95566486994E-02  0.10198670522E+01  0.10195831397E+01 0.  0.
     999903    2    3    3    0    0  0.73241231459E-01 -0.10686825598E+00 -0.58918482943E-03  0.13105087100E+00  0.19720079386E-01 0.  0.
         14    1    1    2    0    0 -0.21197829904E-01 -0.61925703620E-02 -0.95566486994E-02  0.24062947755E-01  0.00000000000E+00 0.  1.
     999901    1    3    3    0    0 -0.52043401555E-01  0.11306082634E+00  0.10145833529E-01  0.88881618124E+00  0.88000000000E+00 0.  1.
        -11    1    4    4    0    0  0.31194281721E-01 -0.52930735384E-01  0.86157116584E-02  0.62042224080E-01  0.51100000000E-03 0. -1.
         11    1    4    4    0    0  0.42046949738E-01 -0.53937520592E-01 -0.92048964879E-02  0.69008646924E-01  0.51100000000E-03 0.  1.
</event>
<event>
 8    1  0.1157726E+005  0.1043930E+01  0.7957747E-01            NaN
         13   -1    0    0    0    0  0.00000000000E+00  0.00000000000E+00  0.74505805969E-08  0.10566000000E+00  0.10566000000E+00 0.  1.
     999900   -1    0    0    0    0 -0.00000000000E+00 -0.00000000000E+00 -0.74505805969E-08  0.93827000000E+00  0.93827000000E+00 0. -1.
     999902    2    1    2    0    0  0.20979278400E-01 -0.10003704351E-01  0.39343805089E-02  0.10203570585E+01  0.10200847235E+01 0.  0.
     999903    2    3    3    0    0  0.10658662252E+00 -0.69012666229E-01 -0.35049380927E-01  0.13337881261E+00  0.20928266778E-01 0.  0.
         14    1    1    2    0    0 -0.20979278400E-01  0.10003704351E-01 -0.39343805089E-02  0.23572941542E-01  0.00000000000E+00 0. -1.
     999901    1    3    3    0    0 -0.85607344119E-01  0.59008961878E-01  0.38983761436E-01  0.88697824585E+00  0.88000000000E+00 0. -1.
        -11    1    4    4    0    0  0.36786624877E-01 -0.12511646962E-01 -0.11874010008E-01  0.40633118441E-01  0.51100000000E-03 0. -1.
         11    1    4    4    0    0  0.69799997642E-01 -0.56501019268E-01 -0.23175370919E-01  0.92745694171E-01  0.51100000000E-03 0.  1.
</event>
<event>
 8    1  0.1157726E+005  0.1043930E+01  0.7957747E-01            NaN
         13   -1    0    0    0    0  0.00000000000E+00  0.00000000000E+00  0.74505805969E-08  0.10566000000E+00  0.10566000000E+00 0. -1.
     999900   -1    0    0    0    0 -0.00000000000E+00 -0.00000000000E+00 -0.74505805969E-08  0.93827000000E+00  0.93827000000E+00 0. -1.
     999902    2    1    2    0    0 -0.10288631371E-01  0.18988193707E-01  0.93928381109E-02  0.10203793558E+01  0.10201075418E+01 0.  0.
     999903    2    3    3    0    0 -0.11728156694E+00  0.51591305961E-01 -0.27324136001E-01  0.13254007562E+00  0.20090655603E-01 0.  0.
         14    1    1    2    0    0  0.10288631371E-01 -0.18988193707E-01 -0.93928381109E-02  0.23550644227E-01  0.00000000000E+00 0.  1.
     999901    1    3    3    0    0  0.10699293557E+00 -0.32603112254E-01  0.36716974112E-01  0.88783928015E+00  0.88000000000E+00 0. -1.
        -11    1    4    4    0    0 -0.83322429624E-01  0.31237944173E-01 -0.10816655348E-01  0.89642052568E-01  0.51100000000E-03 0. -1.
         11    1    4    4    0    0 -0.33959137317E-01  0.20353361789E-01 -0.16507480653E-01  0.42898023054E-01  0.51100000000E-03 0.  1.
</event>
<event>
 8    1  0.1157726E+005  0.1043930E+01  0.7957747E-01            NaN
         13   -1    0    0    0    0  0.00000000000E+00  0.00000000000E+00  0.74505805969E-08  0.10566000000E+00  0.10566000000E+00 0. -1.
     999900   -1    0    0    0    0 -0.00000000000E+00 -0.00000000000E+00 -0.74505805969E-08  0.93827000000E+00  0.93827000000E+00 0.  1.
     999902    2    1    2    0    0 -0.12346801989E-01  0.13279126823E-01  0.52921358910E-02  0.10250412353E+01  0.10248671859E+01 0.  0.
     999903    2    3    3    0    0  0.11100478942E+00  0.17765461384E-01 -0.68646851639E-01  0.13335591181E+00  0.20826283484E-01 0.  0.
         14    1    1    2    0    0  0.12346801989E-01 -0.13279126823E-01 -0.52921358910E-02  0.18888764672E-01  0.00000000000E+00 0.  1.
     999901    1    3    3    0    0 -0.12335159140E+00 -0.44863345616E-02  0.73938987530E-01  0.89168532352E+00  0.88000000000E+00 0. -1.
        -11    1    4    4    0    0  0.85234387652E-01  0.19361225480E-01 -0.60401682622E-01  0.10624679889E+00  0.51100000000E-03 0. -1.
         11    1    4    4    0    0  0.25770401763E-01 -0.15957640954E-02 -0.82451690168E-02  0.27109112917E-01  0.51100000000E-03 0.  1.
</event>
<event>
 8    1  0.1344189E+005  0.1043930E+01  0.7957747E-01            NaN
         13   -1    0    0    0    0  0.00000000000E+00  0.00000000000E+00  0.74505805969E-08  0.10566000000E+00  0.10566000000E+00 0. -1.
     999900   -1    0    0    0    0 -0.00000000000E+00 -0.00000000000E+00 -0.74505805969E-08  0.93827000000E+00  0.93827000000E+00 0. -1.
     999902    2    1    2    0    0 -0.11096860235E-01 -0.19551310930E-01 -0.78412028721E-02  0.10201207890E+01  0.10198429024E+01 0.  0.
     999903    2    3    3    0    0  0.84189450023E-02 -0.17110947751E-01 -0.12869278404E+00  0.13164348107E+00  0.20112440856E-01 0.  0.
         14    1    1    2    0    0  0.11096860235E-01  0.19551310930E-01  0.78412028721E-02  0.23809211004E-01  0.00000000000E+00 0.  1.
     999901    1    3    3    0    0 -0.19515805237E-01 -0.24403631789E-02  0.12085158117E+00  0.88847730792E+00  0.88000000000E+00 0.  1.
        -11    1    4    4    0    0  0.12352259977E-01 -0.60017277198E-02 -0.43001345569E-01  0.45143946481E-01  0.51100000000E-03 0.  1.
         11    1    4    4    0    0 -0.39333149743E-02 -0.11109220031E-01 -0.85691438469E-01  0.86499534590E-01  0.51100000000E-03 0. -1.
</event>
<event>
 8    1  0.1157726E+005  0.1043930E+01  0.7957747E-01            NaN
         13   -1    0    0    0    0  0.00000000000E+00  0.00000000000E+00  0.74505805969E-08  0.10566000000E+00  0.10566000000E+00 0.  1.
     999900   -1    0    0    0    0 -0.00000000000E+00 -0.00000000000E+00 -0.74505805969E-08  0.93827000000E+00  0.93827000000E+00 0. -1.
     999902    2    1    2    0    0 -0.23240040978E-01  0.45113049689E-02  0.63667648718E-02  0.10194149623E+01  0.10191201491E+01 0.  0.
     999903    2    3    3    0    0 -0.90025443548E-01 -0.88857599278E-01 -0.29337078798E-01  0.13124110168E+00  0.19060670068E-01 0.  0.
         14    1    1    2    0    0  0.23240040978E-01 -0.45113049689E-02 -0.63667648718E-02  0.24515037673E-01  0.00000000000E+00 0. -1.
     999901    1    3    3    0    0  0.66785402570E-01  0.93368904247E-01  0.35703843669E-01  0.88817386064E+00  0.88000000000E+00 0. -1.
        -11    1    4    4    0    0 -0.92891936086E-02 -0.18995077025E-01 -0.50727321565E-02  0.21750765541E-01  0.51100000000E-03 0.  1.
         11    1    4    4    0    0 -0.80736249939E-01 -0.69862522253E-01 -0.24264346641E-01  0.10949033614E+00  0.51100000000E-03 0. -1.
</event>
<event>
 8    1  0.1157726E+005  0.1043930E+01  0.7957747E-01            NaN
         13   -1    0    0    0    0  0.00000000000E+00  0.00000000000E+00  0.74505805969E-08  0.10566000000E+00  0.10566000000E+00 0. -1.
     999900   -1    0    0    0    0 -0.00000000000E+00 -0.00000000000E+00 -0.74505805969E-08  0.93827000000E+00  0.93827000000E+00 0.  1.
     999902    2    1    2    0    0  0.65456739588E-02  0.56068441062E-02 -0.22844671394E-01  0.10195135801E+01  0.10192211627E+01 0.  0.
     999903    2    3    3    0    0 -0.14426253365E-01 -0.12410121092E+00  0.23008785696E-01  0.12857781319E+00  0.19839921593E-01 0.  0.
         14    1    1    2    0    0 -0.65456739588E-02 -0.56068441062E-02  0.22844671394E-01  0.24416419875E-01  0.00000000000E+00 0. -1.
     999901    1    3    3    0    0  0.20971927324E-01  0.12970805502E+00 -0.45853457090E-01  0.89093576693E+00  0.88000000000E+00 0. -1.
        -11    1    4    4    0    0 -0.10555874787E-01 -0.45694637907E-01  0.47191231475E-03  0.46903200832E-01  0.51100000000E-03 0. -1.
         11    1    4    4    0    0 -0.38703785780E-02 -0.78406573010E-01  0.22536873381E-01  0.81674612360E-01  0.51100000000E-03 0.  1.
</event>
<event>
 8    1  0.1157726E+005  0.1043930E+01  0.7957747E-01            NaN
         13   -1    0    0    0    0  0.00000000000E+00  0.00000000000E+00  0.74505805969E-08  0.10566000000E+00  0.10566000000E+00 0. -1.
     999900   -1    0    0    0    0 -0.00000000000E+00 -0.00000000000E+00 -0.74505805969E-08  0.93827000000E+00  0.93827000000E+00 0. -1.
     999902    2    1    2    0    0  0.14780455422E-02 -0.17122850996E-01  0.17574532804E-01  0.10193486890E+01  0.10190522602E+01 0.  0.
     999903    2    3    3    0    0 -0.87340937679E-01  0.16518314863E-02  0.95983995813E-01  0.13121055544E+00  0.19290268639E-01 0.  0.
         14    1    1    2    0    0 -0.14780455422E-02  0.17122850996E-01 -0.17574532804E-01  0.24581310952E-01  0.00000000000E+00 0.  1.
     999901    1    3    3    0    0  0.88818983221E-01 -0.18774682482E-01 -0.78409463010E-01  0.88813813361E+00  0.88000000000E+00 0.  1.
        -11    1    4    4    0    0 -0.48966226439E-01 -0.66024572749E-02  0.62053394076E-01  0.79323190878E-01  0.51100000000E-03 0.  1.
         11    1    4    4    0    0 -0.38374711240E-01  0.82542887612E-02  0.33930601737E-01  0.51887364560E-01  0.51100000000E-03 0. -1.
</event>
<event>
 8    1  0.1157726E+005  0.1043930E+01  0.7957747E-01            NaN
         13   -1    0    0    0    0  0.00000000000E+00  0.00000000000E+00  0.74505805969E-08  0.10566000000E+00  0.10566000000E+00 0. -1.
     999900   -1    0    0    0    0 -0.00000000000E+00 -0.00000000000E+00 -0.74505805969E-08  0.93827000000E+00  0.93827000000E+00 0.  1.
     999902    2    1    2    0    0  0.17229030715E-01 -0.93616740925E-02 -0.13598172719E-01  0.10200680901E+01  0.10197889575E+01 0.  0.
     999903    2    3    3    0    0  0.96255758093E-01  0.63205329323E-01 -0.61791132433E-01  0.13224279482E+00  0.20246681573E-01 0.  0.
         14    1    1    2    0    0 -0.17229030715E-01  0.93616740925E-02  0.13598172719E-01  0.23861909867E-01  0.00000000000E+00 0. -1.
     999901    1    3    3    0    0 -0.79026727378E-01 -0.72567003415E-01  0.48192959713E-01  0.88782529531E+00  0.88000000000E+00 0. -1.
        -11    1    4    4    0    0  0.85873251921E-01  0.51569731841E-01 -0.59402082058E-01  0.11645823763E+00  0.51100000000E-03 0. -1.
         11    1    4    4    0    0  0.10382506171E-01  0.11635597482E-01 -0.23890503743E-02  0.15784557195E-01  0.51100000000E-03 0.  1.
</event>
<event>
 8    1  0.1157726E+005  0.1043930E+01  0.7957747E-01            NaN
         13   -1    0    0    0    0  0.00000000000E+00  0.00000000000E+00  0.74505805969E-08  0.10566000000E+00  0.10566000000E+00 0. -1.
     999900   -1    0    0    0    0 -0.00000000000E+00 -0.00000000000E+00 -0.74505805969E-08  0.93827000000E+00  0.93827000000E+00 0.  1.
     999902    2    1    2    0    0  0.52357896956E-02  0.48736454355E-02  0.22044218108E-01  0.10207542915E+01  0.10204911612E+01 0.  0.
     999903    2    3    3    0    0  0.74846854332E-01 -0.57550918506E-01  0.91496121601E-01  0.13307974898E+00  0.20603870887E-01 0.  0.
         14    1    1    2    0    0 -0.52357896956E-02 -0.48736454355E-02 -0.22044218108E-01  0.23175708524E-01  0.00000000000E+00 0.  1.
     999901    1    3    3    0    0 -0.69611064636E-01  0.62424563941E-01 -0.69451903492E-01  0.88767454250E+00  0.88000000000E+00 0. -1.
        -11    1    4    4    0    0  0.69071160217E-01 -0.52430109966E-01  0.90397117704E-01  0.12526628283E+00  0.51100000000E-03 0.  1.
         11    1    4    4    0    0  0.57756941152E-02 -0.51208085392E-02  0.10990038972E-02  0.78134661434E-02  0.51100000000E-03 0. -1.
</event>
<event>
 8    1  0.1157726E+005  0.1043930E+01  0.7957747E-01            NaN
         13   -1    0    0    0    0  0.00000000000E+00  0.00000000000E+00  0.74505805969E-08  0.10566000000E+00  0.10566000000E+00 0.  1.
     999900   -1    0    0    0    0 -0.00000000000E+00 -0.00000000000E+00 -0.74505805969E-08  0.93827000000E+00  0.93827000000E+00 0.  1.
     999902    2    1    2    0    0  0.19906280791E-02  0.18550409390E-01 -0.14184176449E-01  0.10204934655E+01  0.10202243096E+01 0.  0.
     999903    2    3    3    0    0 -0.78091818144E-01  0.10197419030E+00  0.24065284695E-01  0.13210405385E+00  0.19372030575E-01 0.  0.
         14    1    1    2    0    0 -0.19906280791E-02 -0.18550409390E-01  0.14184176449E-01  0.23436534518E-01  0.00000000000E+00 0.  1.
     999901    1    3    3    0    0  0.80082446223E-01 -0.83423780911E-01 -0.38249461144E-01  0.88838941163E+00  0.88000000000E+00 0. -1.
        -11    1    4    4    0    0 -0.57037951137E-01  0.66938732714E-01  0.84701818129E-02  0.88352288642E-01  0.51100000000E-03 0. -1.
         11    1    4    4    0    0 -0.21053867007E-01  0.35035457587E-01  0.15595102883E-01  0.43751765213E-01  0.51100000000E-03 0.  1.
</event>
<event>
 8    1  0.1157726E+005  0.1043930E+01  0.7957747E-01            NaN
         13   -1    0    0    0    0  0.00000000000E+00  0.00000000000E+00  0.74505805969E-08  0.10566000000E+00  0.10566000000E+00 0. -1.
     999900   -1    0    0    0    0 -0.00000000000E+00 -0.00000000000E+00 -0.74505805969E-08  0.93827000000E+00  0.93827000000E+00 0. -1.
     999902    2    1    2    0    0 -0.25364686902E-02  0.22565773540E-01 -0.29553383745E-02  0.10210306150E+01  0.10207737922E+01 0.  0.
     999903    2    3    3    0    0  0.81034867713E-01 -0.94446433085E-01 -0.27617296462E-01  0.12901927149E+00  0.19911776486E-01 0.  0.
         14    1    1    2    0    0  0.25364686902E-02 -0.22565773540E-01  0.29553383745E-02  0.22899385008E-01  0.00000000000E+00 0.  1.
     999901    1    3    3    0    0 -0.83571336403E-01  0.11701220663E+00  0.24661958087E-01  0.89201134351E+00  0.88000000000E+00 0.  1.
        -11    1    4    4    0    0  0.50330668320E-01 -0.71807656489E-01 -0.22450970003E-01  0.90519737511E-01  0.51100000000E-03 0.  1.
         11    1    4    4    0    0  0.30704199393E-01 -0.22638776596E-01 -0.51663264590E-02  0.38499533974E-01  0.51100000000E-03 0. -1.
</event>
<event>
 8    1  0.1157726E+005  0.1043930E+01  0.7957747E-01            NaN
         13   -1    0    0    0    0  0.00000000000E+00  0.00000000000E+00  0.74505805969E-08  0.10566000000E+00  0.10566000000E+00 0. -1.
     999900   -1    0    0    0    0 -0.00000000000E+00 -0.00000000000E+00 -0.74505805969E-08  0.93827000000E+00  0.93827000000E+00 0.  1.
     999902    2    1    2    0    0 -0.74661818978E-02  0.22241052688E-01  0.14672569187E-02  0.10204233809E+01  0.10201525941E+01 0.  0.
     999903    2    3    3    0    0  0.41877886081E-01  0.22705333760E-01  0.12048454960E+00  0.13104147840E+00  0.19648227524E-01 0.  0.
         14    1    1    2    0    0  0.74661818978E-02 -0.22241052688E-01 -0.14672569187E-02  0.23506619060E-01  0.00000000000E+00 0. -1.
     999901    1    3    3    0    0 -0.49344067979E-01 -0.46428107247E-03 -0.11901729269E+00  0.88938190254E+00  0.88000000000E+00 0.  1.
        -11    1    4    4    0    0  0.20932445912E-01  0.45572482616E-03  0.50995044250E-01  0.55128310658E-01  0.51100000000E-03 0.  1.
         11    1    4    4    0    0  0.20945440168E-01  0.22249608934E-01  0.69489505355E-01  0.75913167745E-01  0.51100000000E-03 0. -1.
</event>
<event>
 8    1  0.1157726E+005  0.1043930E+01  0.7957747E-01            NaN
         13   -1    0    0    0    0  0.00000000000E+00  0.00000000000E+00  0.74505805969E-08  0.10566000000E+00  0.10566000000E+00 0.  1.
     999900   -1    0    0    0    0 -0.00000000000E+00 -0.00000000000E+00 -0.74505805969E-08  0.93827000000E+00  0.93827000000E+00 0. -1.
     999902    2    1    2    0    0  0.21575125144E-01 -0.13288691123E-02 -0.81161067624E-02  0.10208405412E+01  0.10205793881E+01 0.  0.
     999903    2    3    3    0    0 -0.39183263666E-01  0.12198092801E+00 -0.11159745131E-01  0.13016318571E+00  0.20080837933E-01 0.  0.
         14    1    1    2    0    0 -0.21575125144E-01  0.13288691123E-02  0.81161067624E-02  0.23089458787E-01  0.00000000000E+00 0.  1.
     999901    1    3    3    0    0  0.60758388810E-01 -0.12330979712E+00  0.30436383687E-02  0.89067735551E+00  0.88000000000E+00 0.  1.
        -11    1    4    4    0    0 -0.25115353975E-01  0.10017537208E+00 -0.45362387377E-02  0.10337661612E+00  0.51100000000E-03 0. -1.
         11    1    4    4    0    0 -0.14067909691E-01  0.21805555931E-01 -0.66235063934E-02  0.26786569592E-01  0.51100000000E-03 0.  1.
</event>
<event>
 8    1  0.1157726E+005  0.1043930E+01  0.7957747E-01            NaN
         13   -1    0    0    0    0  0.00000000000E+00  0.00000000000E+00  0.74505805969E-08  0.10566000000E+00  0.10566000000E+00 0. -1.
     999900   -1    0    0    0    0 -0.00000000000E+00 -0.00000000000E+00 -0.74505805969E-08  0.93827000000E+00  0.93827000000E+00 0.  1.
     999902    2    1    2    0    0 -0.48347731303E-02 -0.88529135380E-02 -0.21531979146E-01  0.10201523795E+01  0.10198752386E+01 0.  0.
     999903    2    3    3    0    0 -0.10295318468E+00 -0.63539242243E-01  0.43579967320E-01  0.13062588593E+00  0.22963340002E-01 0.  0.
         14    1    1    2    0    0  0.48347731303E-02  0.88529135380E-02  0.21531979146E-01  0.23777620471E-01  0.00000000000E+00 0. -1.
     999901    1    3    3    0    0  0.98118411550E-01  0.54686328705E-01 -0.65111946466E-01  0.88952649359E+00  0.88000000000E+00 0.  1.
        -11    1    4    4    0    0 -0.50805909480E-01 -0.27271982167E-01  0.32351259278E-01  0.66120091858E-01  0.51100000000E-03 0.  1.
         11    1    4    4    0    0 -0.52147275201E-01 -0.36267260076E-01  0.11228708042E-01  0.64505794077E-01  0.51100000000E-03 0. -1.
</event>
<event>
 8    1  0.1157726E+005  0.1043930E+01  0.7957747E-01            NaN
         13   -1    0    0    0    0  0.00000000000E+00  0.00000000000E+00  0.74505805969E-08  0.10566000000E+00  0.10566000000E+00 0.  1.
     999900   -1    0    0    0    0 -0.00000000000E+00 -0.00000000000E+00 -0.74505805969E-08  0.93827000000E+00  0.93827000000E+00 0.  1.
     999902    2    1    2    0    0 -0.26893343171E-01  0.61044411790E-02 -0.11710984439E-01  0.10139689709E+01  0.10135262259E+01 0.  0.
     999903    2    3    3    0    0 -0.86418180678E-01 -0.23252853377E-01  0.86310721365E-01  0.12604255962E+00  0.20697561934E-01 0.  0.
         14    1    1    2    0    0  0.26893343171E-01 -0.61044411790E-02  0.11710984439E-01  0.29961029114E-01  0.00000000000E+00 0. -1.
     999901    1    3    3    0    0  0.59524837507E-01  0.29357294556E-01 -0.98021705804E-01  0.88792641127E+00  0.88000000000E+00 0.  1.
        -11    1    4    4    0    0 -0.24098958451E-01  0.28297144090E-02  0.24120385359E-01  0.34217264545E-01  0.51100000000E-03 0.  1.
         11    1    4    4    0    0 -0.62319222227E-01 -0.26082567786E-01  0.62190336006E-01  0.91825295070E-01  0.51100000000E-03 0. -1.
</event>
<event>
 8    1  0.1157726E+005  0.1043930E+01  0.7957747E-01            NaN
         13   -1    0    0    0    0  0.00000000000E+00  0.00000000000E+00  0.74505805969E-08  0.10566000000E+00  0.10566000000E+00 0. -1.
     999900   -1    0    0    0    0 -0.00000000000E+00 -0.00000000000E+00 -0.74505805969E-08  0.93827000000E+00  0.93827000000E+00 0. -1.
     999902    2    1    2    0    0 -0.73014631472E-03 -0.24330794169E-01 -0.42699820810E-02  0.10192165744E+01  0.10189169113E+01 0.  0.
     999903    2    3    3    0    0  0.73329899674E-01  0.63698649519E-03  0.10463244550E+00  0.12906601453E+00  0.18232046448E-01 0.  0.
         14    1    1    2    0    0  0.73014631472E-03  0.24330794169E-01  0.42699820810E-02  0.24713425612E-01  0.00000000000E+00 0.  1.
     999901    1    3    3    0    0 -0.74060045989E-01 -0.24967780664E-01 -0.10890242758E+00  0.89015055986E+00  0.88000000000E+00 0. -1.
        -11    1    4    4    0    0  0.44301790075E-01 -0.73330714774E-02  0.70116190925E-01  0.83264421525E-01  0.51100000000E-03 0.  1.
         11    1    4    4    0    0  0.29028109599E-01  0.79700579726E-02  0.34516254573E-01  0.45801593004E-01  0.51100000000E-03 0. -1.
</event>
<event>
 8    1  0.1157726E+005  0.1043930E+01  0.7957747E-01            NaN
         13   -1    0    0    0    0  0.00000000000E+00  0.00000000000E+00  0.74505805969E-08  0.10566000000E+00  0.10566000000E+00 0.  1.
     999900   -1    0    0    0    0 -0.00000000000E+00 -0.00000000000E+00 -0.74505805969E-08  0.93827000000E+00  0.93827000000E+00 0. -1.
     999902    2    1    2    0    0  0.13992448816E-01  0.18795728769E-01  0.55668024685E-02  0.10198456205E+01  0.10195611960E+01 0.  0.
     999903    2    3    3    0    0 -0.71905384784E-01 -0.10089483189E+00 -0.21150996218E-01  0.12719893294E+00  0.19546161684E-01 0.  0.
         14    1    1    2    0    0 -0.13992448816E-01 -0.18795728769E-01 -0.55668024685E-02  0.24084379451E-01  0.00000000000E+00 0.  1.
     999901    1    3    3    0    0  0.85897833600E-01  0.11969056066E+00  0.26717798687E-01  0.89264668761E+00  0.88000000000E+00 0.  1.
        -11    1    4    4    0    0 -0.26381252357E-01 -0.50624881903E-01 -0.39223201613E-02  0.57223202113E-01  0.51100000000E-03 0. -1.
         11    1    4    4    0    0 -0.45524132426E-01 -0.50269949992E-01 -0.17228676057E-01  0.69975730829E-01  0.51100000000E-03 0.  1.
</event>
<event>
 7    1  0.1157726E+005  0.1043930E+01  0.7957747E-01            NaN
         13   -1    0    0    0    0  0.00000000000E+00  0.00000000000E+00  0.74505805969E-08  0.10566000000E+00  0.10566000000E+00 0.  1.
     999900   -1    0    0    0    0 -0.00000000000E+00 -0.00000000000E+00 -0.74505805969E-08  0.93827000000E+00  0.93827000000E+00 0.  1.
     999903    2    1    2    0    0  0.12982132562E-01  0.50854083719E-01  0.22806163566E-01  0.60226411522E-01  0.18773011251E-01 0.  0.
         14    1    1    2    0    0  0.72003596544E-01  0.38380233038E-01 -0.48176881181E-01  0.94755327469E-01  0.00000000000E+00 0. -1.
     999901    1    1    2    0    0 -0.84985729106E-01 -0.89234316758E-01  0.25370717615E-01  0.88894826101E+00  0.88000000000E+00 0. -1.
        -11    1    3    3    0    0  0.16626493346E-01  0.31949306499E-01  0.11115550279E-01  0.37696353215E-01  0.51100000000E-03 0.  1.
         11    1    3    3    0    0 -0.36443607838E-02  0.18904777220E-01  0.11690613287E-01  0.22530058306E-01  0.51100000000E-03 0. -1.
</event>
<event>
 8    1  0.1157726E+005  0.1043930E+01  0.7957747E-01            NaN
         13   -1    0    0    0    0  0.00000000000E+00  0.00000000000E+00  0.74505805969E-08  0.10566000000E+00  0.10566000000E+00 0. -1.
     999900   -1    0    0    0    0 -0.00000000000E+00 -0.00000000000E+00 -0.74505805969E-08  0.93827000000E+00  0.93827000000E+00 0.  1.
     999902    2    1    2    0    0 -0.14917688062E-01  0.18394542581E-01 -0.26341578107E-03  0.10202452792E+01  0.10199703249E+01 0.  0.
     999903    2    3    3    0    0 -0.22205441555E-01  0.12937513258E+00  0.96088473155E-03  0.13324398173E+00  0.22847949656E-01 0.  0.
         14    1    1    2    0    0  0.14917688062E-01 -0.18394542581E-01  0.26341578107E-03  0.23684720850E-01  0.00000000000E+00 0. -1.
     999901    1    3    3    0    0  0.72877534938E-02 -0.11098059000E+00 -0.12243005126E-02  0.88700129742E+00  0.88000000000E+00 0. -1.
        -11    1    4    4    0    0  0.27432346764E-02  0.46893368214E-01  0.26831802743E-02  0.47052884038E-01  0.51100000000E-03 0.  1.
         11    1    4    4    0    0 -0.24948676232E-01  0.82481764367E-01 -0.17222955428E-02  0.86191097695E-01  0.51100000000E-03 0. -1.
</event>
<event>
 8    1  0.1157726E+005  0.1043930E+01  0.7957747E-01            NaN
         13   -1    0    0    0    0  0.00000000000E+00  0.00000000000E+00  0.74505805969E-08  0.10566000000E+00  0.10566000000E+00 0. -1.
     999900   -1    0    0    0    0 -0.00000000000E+00 -0.00000000000E+00 -0.74505805969E-08  0.93827000000E+00  0.93827000000E+00 0. -1.
     999902    2    1    2    0    0 -0.43054795137E-02  0.15531893950E-01  0.18066774311E-01  0.10197187378E+01  0.10194312723E+01 0.  0.
     999903    2    3    3    0    0  0.57212241017E-01 -0.11223505672E+00  0.11697497508E-01  0.12834373741E+00  0.21571625033E-01 0.  0.
         14    1    1    2    0    0  0.43054795137E-02 -0.15531893950E-01 -0.18066774311E-01  0.24211262204E-01  0.00000000000E+00 0. -1.
     999901    1    3    3    0    0 -0.61517720531E-01  0.12776695067E+00  0.63692768028E-02  0.89137500038E+00  0.88000000000E+00 0.  1.
        -11    1    4    4    0    0  0.12095818571E-01 -0.91765166327E-02 -0.36978973337E-03  0.15195892532E-01  0.51100000000E-03 0. -1.
         11    1    4    4    0    0  0.45116422446E-01 -0.10305854008E+00  0.12067287242E-01  0.11314784488E+00  0.51100000000E-03 0.  1.
</event>
<event>
 8    1  0.1157726E+005  0.1043930E+01  0.7957747E-01            NaN
         13   -1    0    0    0    0  0.00000000000E+00  0.00000000000E+00  0.74505805969E-08  0.10566000000E+00  0.10566000000E+00 0.  1.
     999900   -1    0    0    0    0 -0.00000000000E+00 -0.00000000000E+00 -0.74505805969E-08  0.93827000000E+00  0.93827000000E+00 0. -1.
     999902    2    1    2    0    0  0.22831249511E-01  0.61176803251E-02 -0.40208355207E-02  0.10199537808E+01  0.10196719355E+01 0.  0.
     999903    2    3    3    0    0 -0.64342853591E-01 -0.81974832677E-01  0.71707584743E-01  0.12804884828E+00  0.19865896278E-01 0.  0.
         14    1    1    2    0    0 -0.22831249511E-01 -0.61176803251E-02  0.40208355207E-02  0.23976219157E-01  0.00000000000E+00 0.  1.
     999901    1    3    3    0    0  0.87174103102E-01  0.88092513002E-01 -0.75728420264E-01  0.89190493257E+00  0.88000000000E+00 0. -1.
        -11    1    4    4    0    0 -0.17719061173E-01 -0.38069707086E-01  0.26512165489E-01  0.49663102666E-01  0.51100000000E-03 0.  1.
         11    1    4    4    0    0 -0.46623792418E-01 -0.43905125590E-01  0.45195419254E-01  0.78385745612E-01  0.51100000000E-03 0. -1.
</event>
<event>
 8    1  0.1157726E+005  0.1043930E+01  0.7957747E-01            NaN
         13   -1    0    0    0    0  0.00000000000E+00  0.00000000000E+00  0.74505805969E-08  0.10566000000E+00  0.10566000000E+00 0.  1.
     999900   -1    0    0    0    0 -0.00000000000E+00 -0.00000000000E+00 -0.74505805969E-08  0.93827000000E+00  0.93827000000E+00 0.  1.
     999902    2    1    2    0    0 -0.11909244797E-01 -0.50415432288E-02  0.10348318181E-01  0.10273669399E+01  0.10272334176E+01 0.  0.
     999903    2    3    3    0    0 -0.39096532369E-01  0.11867822028E+00 -0.52655808395E-01  0.13606718763E+00  0.11339602169E-01 0.  0.
         14    1    1    2    0    0  0.11909244797E-01  0.50415432288E-02 -0.10348318181E-01  0.16563060072E-01  0.00000000000E+00 0. -1.
     999901    1    3    3    0    0  0.27187287572E-01 -0.12371976351E+00  0.63004126576E-01  0.89129975230E+00  0.88000000000E+00 0. -1.
        -11    1    4    4    0    0 -0.92034579545E-02  0.44179173404E-01 -0.16922550299E-01  0.48198929766E-01  0.51100000000E-03 0. -1.
         11    1    4    4    0    0 -0.29893074414E-01  0.74499046881E-01 -0.35733258096E-01  0.87868257859E-01  0.51100000000E-03 0.  1.
</event>
<event>
 8    1  0.1157726E+005  0.1043930E+01  0.7957747E-01            NaN
         13   -1    0    0    0    0  0.00000000000E+00  0.00000000000E+00  0.74505805969E-08  0.10566000000E+00  0.10566000000E+00 0.  1.
     999900   -1    0    0    0    0 -0.00000000000E+00 -0.00000000000E+00 -0.74505805969E-08  0.93827000000E+00  0.93827000000E+00 0.  1.
     999902    2    1    2    0    0  0.18059775893E-02 -0.23062278848E-01  0.86673983652E-02  0.10192266793E+01  0.10189272642E+01 0.  0.
     999903    2    3    3    0    0 -0.37576487689E-01  0.11943665353E+00  0.13740021522E-02  0.12686457904E+00  0.20386929630E-01 0.  0.
         14    1    1    2    0    0 -0.18059775893E-02  0.23062278848E-01 -0.86673983652E-02  0.24703320731E-01  0.00000000000E+00 0. -1.
     999901    1    3    3    0    0  0.39382465278E-01 -0.14249893238E+00  0.72933962130E-02  0.89236210023E+00  0.88000000000E+00 0.  1.
        -11    1    4    4    0    0 -0.26646326688E-01  0.89685766898E-01  0.97745562995E-02  0.94071071972E-01  0.51100000000E-03 0. -1.
         11    1    4    4    0    0 -0.10930161000E-01  0.29750886630E-01 -0.84005541473E-02  0.32793507066E-01  0.51100000000E-03 0.  1.
</event>
<event>
 8    1  0.1157726E+005  0.1043930E+01  0.7957747E-01            NaN
         13   -1    0    0    0    0  0.00000000000E+00  0.00000000000E+00  0.74505805969E-08  0.10566000000E+00  0.10566000000E+00 0.  1.
     999900   -1    0    0    0    0 -0.00000000000E+00 -0.00000000000E+00 -0.74505805969E-08  0.93827000000E+00  0.93827000000E+00 0. -1.
     999902    2    1    2    0    0 -0.10096295805E-01  0.26554902511E-02 -0.21370726604E-01  0.10201456612E+01  0.10198683617E+01 0.  0.
     999903    2    3    3    0    0 -0.67512189966E-03  0.96434778146E-01 -0.88867952485E-01  0.13254260302E+00  0.19232951166E-01 0.  0.
         14    1    1    2    0    0  0.10096295805E-01 -0.26554902511E-02  0.21370726604E-01  0.23784338819E-01  0.00000000000E+00 0.  1.
     999901    1    3    3    0    0 -0.94211739055E-02 -0.93779287895E-01  0.67497225881E-01  0.88760305816E+00  0.88000000000E+00 0.  1.
        -11    1    4    4    0    0  0.81604785626E-02  0.47525206591E-01 -0.37730546246E-01  0.61229844952E-01  0.51100000000E-03 0. -1.
         11    1    4    4    0    0 -0.88356004622E-02  0.48909571556E-01 -0.51137406239E-01  0.71312758067E-01  0.51100000000E-03 0.  1.
</event>
<event>
 8    1  0.1157726E+005  0.1043930E+01  0.7957747E-01            NaN
         13   -1    0    0    0    0  0.00000000000E+00  0.00000000000E+00  0.74505805969E-08  0.10566000000E+00  0.10566000000E+00 0.  1.
     999900   -1    0    0    0    0 -0.00000000000E+00 -0.00000000000E+00 -0.74505805969E-08  0.93827000000E+00  0.93827000000E+00 0. -1.
     999902    2    1    2    0    0 -0.10122756878E-01 -0.13127017672E-01  0.18256000449E-01  0.10192709175E+01  0.10189725869E+01 0.  0.
     999903    2    3    3    0    0 -0.12456011612E+00  0.21404175075E-01  0.28665566077E-01  0.13112865885E+00  0.19991229411E-01 0.  0.
         14    1    1    2    0    0  0.10122756878E-01  0.13127017672E-01 -0.18256000449E-01  0.24659082550E-01  0.00000000000E+00 0. -1.
     999901    1    3    3    0    0  0.11443735924E+00 -0.34531192748E-01 -0.10409565628E-01  0.88814225860E+00  0.88000000000E+00 0. -1.
        -11    1    4    4    0    0 -0.50455075893E-01  0.38973450579E-02  0.27119906335E-02  0.50680568229E-01  0.51100000000E-03 0.  1.
         11    1    4    4    0    0 -0.74105040228E-01  0.17506830018E-01  0.25953575444E-01  0.80448090616E-01  0.51100000000E-03 0. -1.
</event>
<event>
 8    1  0.1157726E+005  0.1043930E+01  0.7957747E-01            NaN
         13   -1    0    0    0    0  0.00000000000E+00  0.00000000000E+00  0.74505805969E-08  0.10566000000E+00  0.10566000000E+00 0. -1.
     999900   -1    0    0    0    0 -0.00000000000E+00 -0.00000000000E+00 -0.74505805969E-08  0.93827000000E+00  0.93827000000E+00 0. -1.
     999902    2    1    2    0    0  0.12798914931E-01 -0.15329470780E-01  0.10517771138E-01  0.10213594792E+01  0.10211100614E+01 0.  0.
     999903    2    3    3    0    0 -0.59828484492E-01  0.14829025103E-01  0.11464937524E+00  0.13173727572E+00  0.20270249822E-01 0.  0.
         14    1    1    2    0    0 -0.12798914931E-01  0.15329470780E-01 -0.10517771138E-01  0.22570520764E-01  0.00000000000E+00 0. -1.
     999901    1    3    3    0    0  0.72627399424E-01 -0.30158495883E-01 -0.10413160410E+00  0.88962220352E+00  0.88000000000E+00 0.  1.
        -11    1    4    4    0    0 -0.31003948039E-01  0.13469429343E-01  0.78569826029E-01  0.85534490143E-01  0.51100000000E-03 0.  1.
         11    1    4    4    0    0 -0.28824536453E-01  0.13595957603E-02  0.36079549213E-01  0.46202785574E-01  0.51100000000E-03 0. -1.
</event>
<event>
 8    1  0.1157726E+005  0.1043930E+01  0.7957747E-01            NaN
         13   -1    0    0    0    0  0.00000000000E+00  0.00000000000E+00  0.74505805969E-08  0.10566000000E+00  0.10566000000E+00 0. -1.
     999900   -1    0    0    0    0 -0.00000000000E+00 -0.00000000000E+00 -0.74505805969E-08  0.93827000000E+00  0.93827000000E+00 0. -1.
     999902    2    1    2    0    0  0.37214469327E-02 -0.88923219517E-02  0.21343573820E-01  0.10205105487E+01  0.10202417896E+01 0.  0.
     999903    2    3    3    0    0  0.27347543324E-01 -0.12780495815E+00  0.56147750684E-02  0.13205919796E+00  0.18058533007E-01 0.  0.
         14    1    1    2    0    0 -0.37214469327E-02  0.88923219517E-02 -0.21343573820E-01  0.23419451325E-01  0.00000000000E+00 0.  1.
     999901    1    3    3    0    0 -0.23626096391E-01  0.11891263619E+00  0.15728798751E-01  0.88845135072E+00  0.88000000000E+00 0.  1.
        -11    1    4    4    0    0  0.23715923733E-01 -0.10783647944E+00 -0.18435838660E-02  0.11043011934E+00  0.51100000000E-03 0. -1.
         11    1    4    4    0    0  0.36316195905E-02 -0.19968478710E-01  0.74583589344E-02  0.21629078617E-01  0.51100000000E-03 0.  1.
</event>
<event>
 8    1  0.1157726E+005  0.1043930E+01  0.7957747E-01            NaN
         13   -1    0    0    0    0  0.00000000000E+00  0.00000000000E+00  0.74505805969E-08  0.10566000000E+00  0.10566000000E+00 0. -1.
     999900   -1    0    0    0    0 -0.00000000000E+00 -0.00000000000E+00 -0.74505805969E-08  0.93827000000E+00  0.93827000000E+00 0. -1.
     999902    2    1    2    0    0 -0.11933260308E-01 -0.13740111139E-01 -0.15290826463E-01  0.10201602139E+01  0.10198832577E+01 0.  0.
     999903    2    3    3    0    0  0.95595294404E-01  0.53135735390E-01  0.62702813625E-01  0.12768176780E+00  0.20226821383E-01 0.  0.
         14    1    1    2    0    0  0.11933260308E-01  0.13740111139E-01  0.15290826463E-01  0.23769786066E-01  0.00000000000E+00 0. -1.
     999901    1    3    3    0    0 -0.10752855471E+00 -0.66875846529E-01 -0.77993640088E-01  0.89247844614E+00  0.88000000000E+00 0. -1.
        -11    1    4    4    0    0  0.62477913828E-01  0.40676378581E-01  0.33212680410E-01  0.81617404711E-01  0.51100000000E-03 0.  1.
         11    1    4    4    0    0  0.33117380576E-01  0.12459356808E-01  0.29490133216E-01  0.46064363085E-01  0.51100000000E-03 0. -1.
</event>
<event>
 8    1  0.1157726E+005  0.1043930E+01  0.7957747E-01            NaN
         13   -1    0    0    0    0  0.00000000000E+00  0.00000000000E+00  0.74505805969E-08  0.10566000000E+00  0.10566000000E+00 0. -1.
     999900   -1    0    0    0    0 -0.00000000000E+00 -0.00000000000E+00 -0.74505805969E-08  0.93827000000E+00  0.93827000000E+00 0.  1.
     999902    2    1    2    0    0  0.20256520796E-01 -0.14384534163E-01 -0.16759372625E-03  0.10190850901E+01  0.10187821904E+01 0.  0.
     999903    2    3    3    0    0 -0.55957291202E-01  0.61665497038E-01 -0.94237682662E-01  0.12754634505E+00  0.21295007346E-01 0.  0.
         14    1    1    2    0    0 -0.20256520796E-01  0.14384534163E-01  0.16759372625E-03  0.24844909851E-01  0.00000000000E+00 0. -1.
     999901    1    3    3    0    0  0.76213811998E-01 -0.76050031201E-01  0.94070088936E-01  0.89153874510E+00  0.88000000000E+00 0. -1.
        -11    1    4    4    0    0 -0.31617244731E-01  0.26310709284E-01 -0.59447396003E-01  0.72292168317E-01  0.51100000000E-03 0.  1.
         11    1    4    4    0    0 -0.24340046470E-01  0.35354787755E-01 -0.34790286659E-01  0.55254176730E-01  0.51100000000E-03 0. -1.
</event>
<event>
 8    1  0.1157726E+005  0.1043930E+01  0.7957747E-01            NaN
         13   -1    0    0    0    0  0.00000000000E+00  0.00000000000E+00  0.74505805969E-08  0.10566000000E+00  0.10566000000E+00 0. -1.
     999900   -1    0    0    0    0 -0.00000000000E+00 -0.00000000000E+00 -0.74505805969E-08  0.93827000000E+00  0.93827000000E+00 0. -1.
     999902    2    1    2    0    0 -0.57012358660E-04  0.13334015899E-01 -0.19920585885E-01  0.10199585801E+01  0.10196768489E+01 0.  0.
     999903    2    3    3    0    0  0.65315805144E-01  0.33478708020E-01  0.10371510539E+00  0.12868690544E+00  0.20408778805E-01 0.  0.
         14    1    1    2    0    0  0.57012358660E-04 -0.13334015899E-01  0.19920585885E-01  0.23971419908E-01  0.00000000000E+00 0. -1.
     999901    1    3    3    0    0 -0.65372817502E-01 -0.20144692121E-01 -0.12363569127E+00  0.89127167466E+00  0.88000000000E+00 0. -1.
        -11    1    4    4    0    0  0.40519898711E-01  0.14379198683E-01  0.45588951074E-01  0.62667672107E-01  0.51100000000E-03 0. -1.
         11    1    4    4    0    0  0.24795906433E-01  0.19099509337E-01  0.58126154315E-01  0.66019233328E-01  0.51100000000E-03 0.  1.
</event>
<event>
 8    1  0.1157726E+005  0.1043930E+01  0.7957747E-01            NaN
         13   -1    0    0    0    0  0.00000000000E+00  0.00000000000E+00  0.74505805969E-08  0.10566000000E+00  0.10566000000E+00 0.  1.
     999900   -1    0    0    0    0 -0.00000000000E+00 -0.00000000000E+00 -0.74505805969E-08  0.93827000000E+00  0.93827000000E+00 0.  1.
     999902    2    1    2    0    0  0.61334846894E-02 -0.20826457767E-01 -0.10241735501E-01  0.10199247063E+01  0.10196421688E+01 0.  0.
     999903    2    3    3    0    0  0.35774352488E-01  0.10471992428E+00  0.60544222843E-01  0.12770773330E+00  0.19939794058E-01 0.  0.
         14    1    1    2    0    0 -0.61334846894E-02  0.20826457767E-01  0.10241735501E-01  0.24005293658E-01  0.00000000000E+00 0.  1.
     999901    1    3    3    0    0 -0.29640867799E-01 -0.12554638205E+00 -0.70785958344E-01  0.89221697304E+00  0.88000000000E+00 0. -1.
        -11    1    4    4    0    0  0.26702930208E-01  0.93007374882E-01  0.46784699321E-01  0.10748249846E+00  0.51100000000E-03 0. -1.
         11    1    4    4    0    0  0.90714222796E-02  0.11712549399E-01  0.13759523522E-01  0.20225234836E-01  0.51100000000E-03 0.  1.
</event>
<event>
 8    1  0.1157726E+005  0.1043930E+01  0.7957747E-01            NaN
         13   -1    0    0    0    0  0.00000000000E+00  0.00000000000E+00  0.74505805969E-08  0.10566000000E+00  0.10566000000E+00 0.  1.
     999900   -1    0    0    0    0 -0.00000000000E+00 -0.00000000000E+00 -0.74505805969E-08  0.93827000000E+00  0.93827000000E+00 0.  1.
     999902    2    1    2    0    0 -0.16922549200E-02  0.43785243537E-03  0.23704023179E-01  0.10201616144E+01  0.10198846911E+01 0.  0.
     999903    2    3    3    0    0 -0.90139133281E-02  0.12315340978E+00  0.40229023831E-01  0.13146268314E+00  0.20397296986E-01 0.  0.
         14    1    1    2    0    0  0.16922549200E-02 -0.43785243537E-03 -0.23704023179E-01  0.23768385649E-01  0.00000000000E+00 0. -1.
     999901    1    3    3    0    0  0.73216584081E-02 -0.12271555735E+00 -0.16525000652E-01  0.88869893122E+00  0.88000000000E+00 0.  1.
        -11    1    4    4    0    0 -0.10723406844E-01  0.30163529393E-01  0.12959462758E-01  0.34540393104E-01  0.51100000000E-03 0. -1.
         11    1    4    4    0    0  0.17094935164E-02  0.92989880389E-01  0.27269561073E-01  0.96922290032E-01  0.51100000000E-03 0.  1.
</event>
<event>
 8    1  0.1157726E+005  0.1043930E+01  0.7957747E-01            NaN
         13   -1    0    0    0    0  0.00000000000E+00  0.00000000000E+00  0.74505805969E-08  0.10566000000E+00  0.10566000000E+00 0. -1.
     999900   -1    0    0    0    0 -0.00000000000E+00 -0.00000000000E+00 -0.74505805969E-08  0.93827000000E+00  0.93827000000E+00 0. -1.
     999902    2    1    2    0    0 -0.57359935588E-02 -0.40109159092E-02 -0.21984376145E-01  0.10208583320E+01  0.10205975858E+01 0.  0.
     999903    2    3    3    0    0 -0.10502516494E+00  0.13695748233E-01 -0.78400343887E-01  0.13330291014E+00  0.20129409803E-01 0.  0.
         14    1    1    2    0    0  0.57359935588E-02  0.40109159092E-02  0.21984376145E-01  0.23071667973E-01  0.00000000000E+00 0. -1.
     999901    1    3    3    0    0  0.99289171383E-01 -0.17706664142E-01  0.56415967741E-01  0.88755542189E+00  0.88000000000E+00 0.  1.
        -11    1    4    4    0    0 -0.20821364597E-01  0.63300272440E-02 -0.76479925798E-02  0.23072741061E-01  0.51100000000E-03 0.  1.
         11    1    4    4    0    0 -0.84203800345E-01  0.73657209887E-02 -0.70752351307E-01  0.11023016908E+00  0.51100000000E-03 0. -1.
</event>
<event>
 8    1  0.1157726E+005  0.1043930E+01  0.7957747E-01            NaN
         13   -1    0    0    0    0  0.00000000000E+00  0.00000000000E+00  0.74505805969E-08  0.10566000000E+00  0.10566000000E+00 0.  1.
     999900   -1    0    0    0    0 -0.00000000000E+00 -0.00000000000E+00 -0.74505805969E-08  0.93827000000E+00  0.93827000000E+00 0. -1.
     999902    2    1    2    0    0 -0.12539766190E-02 -0.22986114936E-01 -0.46350862270E-02  0.10204477096E+01  0.10201774895E+01 0.  0.
     999903    2    3    3    0    0  0.11482172876E+00 -0.87559587894E-02  0.58744383743E-01  0.13045162876E+00  0.17493673636E-01 0.  0.
         14    1    1    2    0    0  0.12539766190E-02  0.22986114936E-01  0.46350862270E-02  0.23482290381E-01  0.00000000000E+00 0. -1.
     999901    1    3    3    0    0 -0.11607570537E+00 -0.14230156147E-01 -0.63379469970E-01  0.88999608085E+00  0.88000000000E+00 0. -1.
        -11    1    4    4    0    0  0.86989227362E-01 -0.46414798944E-03  0.48834333232E-01  0.99761687704E-01  0.51100000000E-03 0.  1.
         11    1    4    4    0    0  0.27832501394E-01 -0.82918107999E-02  0.99100505110E-02  0.30689941061E-01  0.51100000000E-03 0. -1.
</event>
<event>
 8    1  0.1157726E+005  0.1043930E+01  0.7957747E-01            NaN
         13   -1    0    0    0    0  0.00000000000E+00  0.00000000000E+00  0.74505805969E-08  0.10566000000E+00  0.10566000000E+00 0. -1.
     999900   -1    0    0    0    0 -0.00000000000E+00 -0.00000000000E+00 -0.74505805969E-08  0.93827000000E+00  0.93827000000E+00 0.  1.
     999902    2    1    2    0    0 -0.23252048205E-01 -0.26958116559E-02 -0.58574269424E-02  0.10198004622E+01  0.10195149572E+01 0.  0.
     999903    2    3    3    0    0  0.76424928527E-02 -0.48040003352E-01 -0.11965226432E+00  0.13077862137E+00  0.20497166384E-01 0.  0.
         14    1    1    2    0    0  0.23252048205E-01  0.26958116559E-02  0.58574269424E-02  0.24129537845E-01  0.00000000000E+00 0.  1.
     999901    1    3    3    0    0 -0.30894541058E-01  0.45344191696E-01  0.11379483738E+00  0.88902184079E+00  0.88000000000E+00 0. -1.
        -11    1    4    4    0    0  0.12415910844E-01 -0.18660541315E-01 -0.41874265373E-01  0.47498272240E-01  0.51100000000E-03 0.  1.
         11    1    4    4    0    0 -0.47734179917E-02 -0.29379462037E-01 -0.77777998949E-01  0.83280349125E-01  0.51100000000E-03 0. -1.
</event>
<event>
 6    1  0.1157726E+005  0.1043930E+01  0.7957747E-01            NaN
         13   -1    0    0    0    0  0.00000000000E+00  0.00000000000E+00  0.74505805969E-08  0.10566000000E+00  0.10566000000E+00 0. -1.
     999900   -1    0    0    0    0 -0.00000000000E+00 -0.00000000000E+00 -0.74505805969E-08  0.93827000000E+00  0.93827000000E+00 0.  1.
         14    1    1    2    0    0 -0.30038625473E-01 -0.21450019140E-01 -0.12808139496E-01  0.39070075234E-01  0.00000000000E+00 0.  1.
     999901    1    1    2    0    0  0.45097160711E-01 -0.45280183003E-01 -0.67452923342E-01  0.88489205316E+00  0.88000000000E+00 0.  1.
        -11    1    1    2    0    0 -0.69454501997E-02  0.93379956378E-03  0.43693771332E-01  0.44255146981E-01  0.51100000000E-03 0.  1.
         11    1    1    2    0    0 -0.81130850384E-02  0.65796402579E-01  0.36567291506E-01  0.75712724626E-01  0.51100000000E-03 0. -1.
</event>
<event>
 8    1  0.1157726E+005  0.1043930E+01  0.7957747E-01            NaN
         13   -1    0    0    0    0  0.00000000000E+00  0.00000000000E+00  0.74505805969E-08  0.10566000000E+00  0.10566000000E+00 0.  1.
     999900   -1    0    0    0    0 -0.00000000000E+00 -0.00000000000E+00 -0.74505805969E-08  0.93827000000E+00  0.93827000000E+00 0.  1.
     999902    2    1    2    0    0 -0.16047950186E-01  0.14468545921E-01  0.61028263404E-02  0.10214773829E+01  0.10212305928E+01 0.  0.
     999903    2    3    3    0    0  0.56824317357E-01 -0.10212721872E+00  0.52138434155E-01  0.12961180058E+00  0.20538517156E-01 0.  0.
         14    1    1    2    0    0  0.16047950186E-01 -0.14468545921E-01 -0.61028263404E-02  0.22452617121E-01  0.00000000000E+00 0.  1.
     999901    1    3    3    0    0 -0.72872267543E-01  0.11659576464E+00 -0.46035607815E-01  0.89186558230E+00  0.88000000000E+00 0. -1.
        -11    1    4    4    0    0  0.12720656041E-01 -0.99153897365E-02  0.39931091176E-02  0.16623359623E-01  0.51100000000E-03 0.  1.
         11    1    4    4    0    0  0.44103661316E-01 -0.92211828979E-01  0.48145325037E-01  0.11298844095E+00  0.51100000000E-03 0. -1.
</event>
<event>
 8    1  0.1157726E+005  0.1043930E+01  0.7957747E-01            NaN
         13   -1    0    0    0    0  0.00000000000E+00  0.00000000000E+00  0.74505805969E-08  0.10566000000E+00  0.10566000000E+00 0. -1.
     999900   -1    0    0    0    0 -0.00000000000E+00 -0.00000000000E+00 -0.74505805969E-08  0.93827000000E+00  0.93827000000E+00 0. -1.
     999902    2    1    2    0    0 -0.12271980414E-01 -0.15950206033E-01  0.12425671785E-01  0.10202781947E+01  0.10200040130E+01 0.  0.
     999903    2    3    3    0    0 -0.69660238436E-01 -0.23099917739E-01  0.10932941937E+00  0.13307198030E+00  0.19211324332E-01 0.  0.
         14    1    1    2    0    0  0.12271980414E-01  0.15950206033E-01 -0.12425671785E-01  0.23651805324E-01  0.00000000000E+00 0. -1.
     999901    1    3    3    0    0  0.57388258022E-01  0.71497117062E-02 -0.96903747582E-01  0.88720621438E+00  0.88000000000E+00 0. -1.
        -11    1    4    4    0    0 -0.62205851281E-01 -0.15349539813E-01  0.10031027998E+00  0.11902768458E+00  0.51100000000E-03 0. -1.
         11    1    4    4    0    0 -0.74543871551E-02 -0.77503779263E-02  0.90191393830E-02  0.14044295713E-01  0.51100000000E-03 0.  1.
</event>
<event>
 8    1  0.1157726E+005  0.1043930E+01  0.7957747E-01            NaN
         13   -1    0    0    0    0  0.00000000000E+00  0.00000000000E+00  0.74505805969E-08  0.10566000000E+00  0.10566000000E+00 0.  1.
     999900   -1    0    0    0    0 -0.00000000000E+00 -0.00000000000E+00 -0.74505805969E-08  0.93827000000E+00  0.93827000000E+00 0.  1.
     999902    2    1    2    0    0 -0.47580442155E-02  0.88208145781E-02  0.21379653590E-01  0.10203178137E+01  0.10200445606E+01 0.  0.
     999903    2    3    3    0    0 -0.27336795570E-01  0.81260427149E-02  0.12892356035E+00  0.13348300687E+00  0.19572831857E-01 0.  0.
         14    1    1    2    0    0  0.47580442155E-02 -0.88208145781E-02 -0.21379653590E-01  0.23612186307E-01  0.00000000000E+00 0. -1.
     999901    1    3    3    0    0  0.22578751354E-01  0.69477186318E-03 -0.10754390676E+00  0.88683480683E+00  0.88000000000E+00 0.  1.
        -11    1    4    4    0    0  0.25720214530E-02  0.15073700028E-02  0.23633349434E-01  0.23826115611E-01  0.51100000000E-03 0. -1.
         11    1    4    4    0    0 -0.29908817023E-01  0.66186727121E-02  0.10529021091E+00  0.10965689125E+00  0.51100000000E-03 0.  1.
</event>
<event>
 7    1  0.1157726E+005  0.1043930E+01  0.7957747E-01            NaN
         13   -1    0    0    0    0  0.00000000000E+00  0.00000000000E+00  0.74505805969E-08  0.10566000000E+00  0.10566000000E+00 0.  1.
     999900   -1    0    0    0    0 -0.00000000000E+00 -0.00000000000E+00 -0.74505805969E-08  0.93827000000E+00  0.93827000000E+00 0. -1.
     999903    2    1    2    0    0  0.36003729527E-01 -0.18136325721E-01 -0.64822858927E-01  0.78886893358E-01  0.19898342989E-01 0.  0.
         14    1    1    2    0    0 -0.33156554554E-01 -0.54895403689E-01 -0.40354194219E-01  0.75771521346E-01  0.00000000000E+00 0.  1.
     999901    1    1    2    0    0 -0.28471749737E-02  0.73031729409E-01  0.10517705315E+00  0.88927158530E+00  0.88000000000E+00 0.  1.
        -11    1    3    3    0    0  0.37206495144E-01 -0.17527175356E-01 -0.53555244586E-01  0.67527405552E-01  0.51100000000E-03 0.  1.
         11    1    3    3    0    0 -0.12027656163E-02 -0.60915036455E-03 -0.11267614341E-01  0.11359487807E-01  0.51100000000E-03 0. -1.
</event>
<event>
 8    1  0.1157726E+005  0.1043930E+01  0.7957747E-01            NaN
         13   -1    0    0    0    0  0.00000000000E+00  0.00000000000E+00  0.74505805969E-08  0.10566000000E+00  0.10566000000E+00 0. -1.
     999900   -1    0    0    0    0 -0.00000000000E+00 -0.00000000000E+00 -0.74505805969E-08  0.93827000000E+00  0.93827000000E+00 0.  1.
     999902    2    1    2    0    0 -0.22160206615E-01 -0.25048981073E-02  0.81500293685E-02  0.10201861113E+01  0.10199097653E+01 0.  0.
     999903    2    3    3    0    0  0.11272556579E+00 -0.56873282715E-01  0.19982645504E-01  0.12817147933E+00  0.93272999473E-02 0.  0.
         14    1    1    2    0    0  0.22160206615E-01  0.25048981073E-02 -0.81500293685E-02  0.23743888697E-01  0.00000000000E+00 0.  1.
     999901    1    3    3    0    0 -0.13488577240E+00  0.54368384607E-01 -0.11832616135E-01  0.89201463197E+00  0.88000000000E+00 0.  1.
        -11    1    4    4    0    0  0.62174124198E-01 -0.30213515577E-01  0.63805066247E-02  0.69422260328E-01  0.51100000000E-03 0. -1.
         11    1    4    4    0    0  0.50551441590E-01 -0.26659767137E-01  0.13602138879E-01  0.58749219006E-01  0.51100000000E-03 0.  1.
</event>
<event>
 8    1  0.1157726E+005  0.1043930E+01  0.7957747E-01            NaN
         13   -1    0    0    0    0  0.00000000000E+00  0.00000000000E+00  0.74505805969E-08  0.10566000000E+00  0.10566000000E+00 0.  1.
     999900   -1    0    0    0    0 -0.00000000000E+00 -0.00000000000E+00 -0.74505805969E-08  0.93827000000E+00  0.93827000000E+00 0. -1.
     999902    2    1    2    0    0  0.80179418433E-02  0.92675106654E-03  0.22293010507E-01  0.10202208335E+01  0.10199453047E+01 0.  0.
     999903    2    3    3    0    0 -0.12668108792E+00 -0.86966332408E-02  0.19003297356E-01  0.12991343694E+00  0.19815305246E-01 0.  0.
         14    1    1    2    0    0 -0.80179418433E-02 -0.92675106654E-03 -0.22293010507E-01  0.23709166506E-01  0.00000000000E+00 0. -1.
     999901    1    3    3    0    0  0.13469902976E+00  0.96233843073E-02  0.32897131502E-02  0.89030739655E+00  0.88000000000E+00 0.  1.
        -11    1    4    4    0    0 -0.60315300199E-01  0.47455579897E-02  0.13374991931E-01  0.61964564784E-01  0.51100000000E-03 0. -1.
         11    1    4    4    0    0 -0.66365787718E-01 -0.13442191230E-01  0.56283054251E-02  0.67948872158E-01  0.51100000000E-03 0.  1.
</event>
<event>
 8    1  0.1157726E+005  0.1043930E+01  0.7957747E-01            NaN
         13   -1    0    0    0    0  0.00000000000E+00  0.00000000000E+00  0.74505805969E-08  0.10566000000E+00  0.10566000000E+00 0.  1.
     999900   -1    0    0    0    0 -0.00000000000E+00 -0.00000000000E+00 -0.74505805969E-08  0.93827000000E+00  0.93827000000E+00 0.  1.
     999902    2    1    2    0    0 -0.15287838256E-01  0.15946699507E-01 -0.13022300028E-01  0.10182863746E+01  0.10179634302E+01 0.  0.
     999903    2    3    3    0    0 -0.10085075292E+00  0.74504072556E-01  0.32379829470E-01  0.13103706826E+00  0.20013213357E-01 0.  0.
         14    1    1    2    0    0  0.15287838256E-01 -0.15946699507E-01  0.13022300028E-01  0.25643625363E-01  0.00000000000E+00 0.  1.
     999901    1    3    3    0    0  0.85562914668E-01 -0.58557373048E-01 -0.45402129498E-01  0.88724930638E+00  0.88000000000E+00 0. -1.
        -11    1    4    4    0    0 -0.22253610661E-01  0.71813367996E-02  0.40231081055E-02  0.23732705398E-01  0.51100000000E-03 0. -1.
         11    1    4    4    0    0 -0.78597142263E-01  0.67322735756E-01  0.28356721364E-01  0.10730436286E+00  0.51100000000E-03 0.  1.
</event>
<event>
 8    1  0.1157726E+005  0.1043930E+01  0.7957747E-01            NaN
         13   -1    0    0    0    0  0.00000000000E+00  0.00000000000E+00  0.74505805969E-08  0.10566000000E+00  0.10566000000E+00 0. -1.
     999900   -1    0    0    0    0 -0.00000000000E+00 -0.00000000000E+00 -0.74505805969E-08  0.93827000000E+00  0.93827000000E+00 0. -1.
     999902    2    1    2    0    0  0.14366977716E-01  0.67636066268E-02 -0.17229340936E-01  0.10204991099E+01  0.10202300851E+01 0.  0.
     999903    2    3    3    0    0 -0.22810125506E-02  0.33556088608E-01 -0.12720531847E+00  0.13309294113E+00  0.20033068464E-01 0.  0.
         14    1    1    2    0    0 -0.14366977716E-01 -0.67636066268E-02  0.17229340936E-01  0.23430890132E-01  0.00000000000E+00 0. -1.
     999901    1    3    3    0    0  0.16647990267E-01 -0.26792481981E-01  0.10997597753E+00  0.88740616873E+00  0.88000000000E+00 0.  1.
        -11    1    4    4    0    0  0.53940668124E-02  0.27607286013E-01 -0.77577430911E-01  0.82521373629E-01  0.51100000000E-03 0.  1.
         11    1    4    4    0    0 -0.76750793630E-02  0.59488025952E-02 -0.49627887558E-01  0.50571567506E-01  0.51100000000E-03 0. -1.
</event>
<event>
 8    1  0.1157726E+005  0.1043930E+01  0.7957747E-01            NaN
         13   -1    0    0    0    0  0.00000000000E+00  0.00000000000E+00  0.74505805969E-08  0.10566000000E+00  0.10566000000E+00 0.  1.
     999900   -1    0    0    0    0 -0.00000000000E+00 -0.00000000000E+00 -0.74505805969E-08  0.93827000000E+00  0.93827000000E+00 0.  1.
     999902    2    1    2    0    0  0.14406625346E-01  0.14467460041E-01  0.13591788098E-01  0.10194025672E+01  0.10191074522E+01 0.  0.
     999903    2    3    3    0    0 -0.11253785512E+00 -0.54907996173E-01  0.14404794221E-01  0.12759063863E+00  0.19804446210E-01 0.  0.
         14    1    1    2    0    0 -0.14406625346E-01 -0.14467460041E-01 -0.13591788098E-01  0.24527432756E-01  0.00000000000E+00 0. -1.
     999901    1    3    3    0    0  0.12694448047E+00  0.69375456214E-01 -0.81300612344E-03  0.89181192862E+00  0.88000000000E+00 0. -1.
        -11    1    4    4    0    0 -0.93106028765E-01 -0.52264833769E-01  0.85365847677E-02  0.10711433070E+00  0.51100000000E-03 0.  1.
         11    1    4    4    0    0 -0.19431826356E-01 -0.26431624034E-02  0.58682094537E-02  0.20476307924E-01  0.51100000000E-03 0. -1.
</event>
<event>
 8    1  0.1364008E+005  0.1043930E+01  0.7957747E-01            NaN
         13   -1    0    0    0    0  0.00000000000E+00  0.00000000000E+00  0.74505805969E-08  0.10566000000E+00  0.10566000000E+00 0. -1.
     999900   -1    0    0    0    0 -0.00000000000E+00 -0.00000000000E+00 -0.74505805969E-08  0.93827000000E+00  0.93827000000E+00 0.  1.
     999902    2    1    2    0    0 -0.13678131667E-01  0.16264978973E-01 -0.59543353352E-02  0.10218597726E+01  0.10216214074E+01 0.  0.
     999903    2    3    3    0    0 -0.20754635083E-01 -0.36641045005E-01 -0.12357320653E+00  0.13243112280E+00  0.22233844854E-01 0.  0.
         14    1    1    2    0    0  0.13678131667E-01 -0.16264978973E-01  0.59543353352E-02  0.22070227370E-01  0.00000000000E+00 0. -1.
     999901    1    3    3    0    0  0.70765034160E-02  0.52906023978E-01  0.11761887120E+00  0.88942864983E+00  0.88000000000E+00 0. -1.
        -11    1    4    4    0    0 -0.48368923649E-02 -0.62749111558E-02 -0.56961512696E-01  0.57512129915E-01  0.51100000000E-03 0. -1.
         11    1    4    4    0    0 -0.15917742718E-01 -0.30366133849E-01 -0.66611693837E-01  0.74918992886E-01  0.51100000000E-03 0.  1.
</event>
<event>
 8    1  0.1157726E+005  0.1043930E+01  0.7957747E-01            NaN
         13   -1    0    0    0    0  0.00000000000E+00  0.00000000000E+00  0.74505805969E-08  0.10566000000E+00  0.10566000000E+00 0. -1.
     999900   -1    0    0    0    0 -0.00000000000E+00 -0.00000000000E+00 -0.74505805969E-08  0.93827000000E+00  0.93827000000E+00 0. -1.
     999902    2    1    2    0    0 -0.17465850440E-01 -0.15919023147E-02  0.15403522482E-01  0.10205877938E+01  0.10203208252E+01 0.  0.
     999903    2    3    3    0    0 -0.99751421984E-01  0.16368726741E-01 -0.82177610795E-01  0.13119722885E+00  0.15532924361E-01 0.  0.
         14    1    1    2    0    0  0.17465850440E-01  0.15919023147E-02 -0.15403522482E-01  0.23342206182E-01  0.00000000000E+00 0.  1.
     999901    1    3    3    0    0  0.82285571545E-01 -0.17960629055E-01  0.97581133278E-01  0.88939056497E+00  0.88000000000E+00 0.  1.
        -11    1    4    4    0    0 -0.23384974254E-01  0.54601832882E-02 -0.11743829571E-01  0.26736665394E-01  0.51100000000E-03 0.  1.
         11    1    4    4    0    0 -0.76366447730E-01  0.10908543452E-01 -0.70433781225E-01  0.10446056346E+00  0.51100000000E-03 0. -1.
</event>
<event>
 8    1  0.1157726E+005  0.1043930E+01  0.7957747E-01            NaN
         13   -1    0    0    0    0  0.00000000000E+00  0.00000000000E+00  0.74505805969E-08  0.10566000000E+00  0.10566000000E+00 0.  1.
     999900   -1    0    0    0    0 -0.00000000000E+00 -0.00000000000E+00 -0.74505805969E-08  0.93827000000E+00  0.93827000000E+00 0.  1.
     999902    2    1    2    0    0 -0.15872272335E-01 -0.52414724351E-02 -0.16569673403E-01  0.10203937272E+01  0.10201222487E+01 0.  0.
     999903    2    3    3    0    0 -0.11904098855E+00  0.28561492785E-01  0.44022400655E-01  0.13165426933E+00  0.20207895736E-01 0.  0.
         14    1    1    2    0    0  0.15872272335E-01  0.52414724351E-02  0.16569673403E-01  0.23536272837E-01  0.00000000000E+00 0.  1.
     999901    1    3    3    0    0  0.10316871621E+00 -0.33802965220E-01 -0.60592074059E-01  0.88873945783E+00  0.88000000000E+00 0. -1.
        -11    1    4    4    0    0 -0.77186815137E-01  0.92433791487E-02  0.23689809813E-01  0.81269383529E-01  0.51100000000E-03 0.  1.
         11    1    4    4    0    0 -0.41854173410E-01  0.19318113637E-01  0.20332590843E-01  0.50384885806E-01  0.51100000000E-03 0. -1.
</event>
<event>
 8    1  0.1157726E+005  0.1043930E+01  0.7957747E-01            NaN
         13   -1    0    0    0    0  0.00000000000E+00  0.00000000000E+00  0.74505805969E-08  0.10566000000E+00  0.10566000000E+00 0. -1.
     999900   -1    0    0    0    0 -0.00000000000E+00 -0.00000000000E+00 -0.74505805969E-08  0.93827000000E+00  0.93827000000E+00 0.  1.
     999902    2    1    2    0    0 -0.80253400518E-02 -0.21396417820E-01 -0.17048430153E-02  0.10210145190E+01  0.10207573310E+01 0.  0.
     999903    2    3    3    0    0 -0.81870274866E-01 -0.98032803135E-01  0.35942277769E-01  0.13380343047E+00  0.17272471680E-01 0.  0.
         14    1    1    2    0    0  0.80253400518E-02  0.21396417820E-01  0.17048430153E-02  0.22915480972E-01  0.00000000000E+00 0. -1.
     999901    1    3    3    0    0  0.73844934814E-01  0.76636385314E-01 -0.37647120784E-01  0.88721108856E+00  0.88000000000E+00 0.  1.
        -11    1    4    4    0    0 -0.53011286933E-01 -0.67708262726E-01  0.16154881827E-01  0.87497695464E-01  0.51100000000E-03 0.  1.
         11    1    4    4    0    0 -0.28858987933E-01 -0.30324540408E-01  0.19787395942E-01  0.46305735009E-01  0.51100000000E-03 0. -1.
</event>
<event>
 8    1  0.1677269E+005  0.1043930E+01  0.7957747E-01            NaN
         13   -1    0    0    0    0  0.00000000000E+00  0.00000000000E+00  0.74505805969E-08  0.10566000000E+00  0.10566000000E+00 0. -1.
     999900   -1    0    0    0    0 -0.00000000000E+00 -0.00000000000E+00 -0.74505805969E-08  0.93827000000E+00  0.93827000000E+00 0.  1.
     999902    2    1    2    0    0 -0.24862028233E-01 -0.46828566379E-02  0.54055843588E-02  0.10180597480E+01  0.10177309962E+01 0.  0.
     999903    2    3    3    0    0 -0.42383894842E-01 -0.38279549139E-01 -0.11401715691E+00  0.12918543483E+00  0.20669931711E-01 0.  0.
         14    1    1    2    0    0  0.24862028233E-01  0.46828566379E-02 -0.54055843588E-02  0.25870251959E-01  0.00000000000E+00 0.  1.
     999901    1    3    3    0    0  0.17521866609E-01  0.33596692501E-01  0.11942274127E+00  0.88887431321E+00  0.88000000000E+00 0. -1.
        -11    1    4    4    0    0 -0.25931830551E-01 -0.34856657375E-01 -0.74552168200E-01  0.86288662658E-01  0.51100000000E-03 0.  1.
         11    1    4    4    0    0 -0.16452064291E-01 -0.34228917642E-02 -0.39464988713E-01  0.42896772170E-01  0.51100000000E-03 0. -1.
</event>
<event>
 8    1  0.1157726E+005  0.1043930E+01  0.7957747E-01            NaN
         13   -1    0    0    0    0  0.00000000000E+00  0.00000000000E+00  0.74505805969E-08  0.10566000000E+00  0.10566000000E+00 0. -1.
     999900   -1    0    0    0    0 -0.00000000000E+00 -0.00000000000E+00 -0.74505805969E-08  0.93827000000E+00  0.93827000000E+00 0.  1.
     999902    2    1    2    0    0  0.66796575495E-03  0.11186285275E-01 -0.20196301294E-01  0.10208330361E+01  0.10205717112E+01 0.  0.
     999903    2    3    3    0    0  0.11070173134E+00  0.26034082846E-01  0.59870242195E-01  0.13024977885E+00  0.21163936272E-01 0.  0.
         14    1    1    2    0    0 -0.66796575495E-03 -0.11186285275E-01  0.20196301294E-01  0.23096963923E-01  0.00000000000E+00 0. -1.
     999901    1    3    3    0    0 -0.11003376559E+00 -0.14847797572E-01 -0.80066543489E-01  0.89058325722E+00  0.88000000000E+00 0.  1.
        -11    1    4    4    0    0  0.45639114386E-01  0.99648177766E-02  0.13083190523E-01  0.48514506598E-01  0.51100000000E-03 0.  1.
         11    1    4    4    0    0  0.65062616958E-01  0.16069265070E-01  0.46787051672E-01  0.81735272254E-01  0.51100000000E-03 0. -1.
</event>
<event>
 8    1  0.1157726E+005  0.1043930E+01  0.7957747E-01            NaN
         13   -1    0    0    0    0  0.00000000000E+00  0.00000000000E+00  0.74505805969E-08  0.10566000000E+00  0.10566000000E+00 0. -1.
     999900   -1    0    0    0    0 -0.00000000000E+00 -0.00000000000E+00 -0.74505805969E-08  0.93827000000E+00  0.93827000000E+00 0. -1.
     999902    2    1    2    0    0 -0.19909603428E-01  0.11796157103E-01  0.21255792667E-02  0.10206908150E+01  0.10204262248E+01 0.  0.
     999903    2    3    3    0    0  0.66290218348E-01  0.46207691627E-01 -0.10002563778E+00  0.12993302857E+00  0.18652610734E-01 0.  0.
         14    1    1    2    0    0  0.19909603428E-01 -0.11796157103E-01 -0.21255792667E-02  0.23239184975E-01  0.00000000000E+00 0.  1.
     999901    1    3    3    0    0 -0.86199821776E-01 -0.34411534524E-01  0.10215121704E+00  0.89075778645E+00  0.88000000000E+00 0.  1.
        -11    1    4    4    0    0  0.45640109090E-01  0.31707458015E-01 -0.81416398229E-01  0.98576231785E-01  0.51100000000E-03 0. -1.
         11    1    4    4    0    0  0.20650109258E-01  0.14500233612E-01 -0.18609239549E-01  0.31356796787E-01  0.51100000000E-03 0.  1.
</event>
<event>
 8    1  0.1157726E+005  0.1043930E+01  0.7957747E-01            NaN
         13   -1    0    0    0    0  0.00000000000E+00  0.00000000000E+00  0.74505805969E-08  0.10566000000E+00  0.10566000000E+00 0. -1.
     999900   -1    0    0    0    0 -0.00000000000E+00 -0.00000000000E+00 -0.74505805969E-08  0.93827000000E+00  0.93827000000E+00 0.  1.
     999902    2    1    2    0    0 -0.67507223512E-02  0.99249435878E-02  0.20765145111E-01  0.10199452547E+01  0.10196632064E+01 0.  0.
     999903    2    3    3    0    0  0.76878189429E-01  0.85975980390E-01 -0.54923106826E-01  0.12949241112E+00  0.21204048223E-01 0.  0.
         14    1    1    2    0    0  0.67507223512E-02 -0.99249435878E-02 -0.20765145111E-01  0.23984745339E-01  0.00000000000E+00 0.  1.
     999901    1    3    3    0    0 -0.83628911780E-01 -0.76051036802E-01  0.75688251937E-01  0.89045284354E+00  0.88000000000E+00 0. -1.
        -11    1    4    4    0    0  0.67945257156E-01  0.68068674137E-01 -0.38492276819E-01  0.10359449244E+00  0.51100000000E-03 0. -1.
         11    1    4    4    0    0  0.89329322727E-02  0.17907306252E-01 -0.16430830007E-01  0.25897918679E-01  0.51100000000E-03 0.  1.
</event>
<event>
 8    1  0.1157726E+005  0.1043930E+01  0.7957747E-01            NaN
         13   -1    0    0    0    0  0.00000000000E+00  0.00000000000E+00  0.74505805969E-08  0.10566000000E+00  0.10566000000E+00 0. -1.
     999900   -1    0    0    0    0 -0.00000000000E+00 -0.00000000000E+00 -0.74505805969E-08  0.93827000000E+00  0.93827000000E+00 0.  1.
     999902    2    1    2    0    0 -0.11508073662E-01  0.22643300969E-01 -0.75579216921E-02  0.10174294902E+01  0.10170843085E+01 0.  0.
     999903    2    3    3    0    0 -0.21159911908E-01  0.12604865213E+00  0.23487984266E-01  0.13077867231E+00  0.14675528977E-01 0.  0.
         14    1    1    2    0    0  0.11508073662E-01 -0.22643300969E-01  0.75579216921E-02  0.26500509778E-01  0.00000000000E+00 0. -1.
     999901    1    3    3    0    0  0.96518382460E-02 -0.10340535116E+00 -0.31045905959E-01  0.88665081791E+00  0.88000000000E+00 0.  1.
        -11    1    4    4    0    0 -0.17772244184E-01  0.98633291434E-01  0.12316259535E-01  0.10097687959E+00  0.51100000000E-03 0. -1.
         11    1    4    4    0    0 -0.33876677240E-02  0.27415360693E-01  0.11171724732E-01  0.29801792715E-01  0.51100000000E-03 0.  1.
</event>
<event>
 8    1  0.1157726E+005  0.1043930E+01  0.7957747E-01            NaN
         13   -1    0    0    0    0  0.00000000000E+00  0.00000000000E+00  0.74505805969E-08  0.10566000000E+00  0.10566000000E+00 0. -1.
     999900   -1    0    0    0    0 -0.00000000000E+00 -0.00000000000E+00 -0.74505805969E-08  0.93827000000E+00  0.93827000000E+00 0.  1.
     999902    2    1    2    0    0 -0.14980315131E-01 -0.37030284747E-02 -0.17634765613E-01  0.10204969631E+01  0.10202278885E+01 0.  0.
     999903    2    3    3    0    0  0.28093220586E-01 -0.12604103153E+00 -0.84297711052E-02  0.13094277788E+00  0.19984478113E-01 0.  0.
         14    1    1    2    0    0  0.14980315131E-01  0.37030284747E-02  0.17634765613E-01  0.23433036925E-01  0.00000000000E+00 0. -1.
     999901    1    3    3    0    0 -0.43073535717E-01  0.12233800306E+00 -0.92049945080E-02  0.88955418519E+00  0.88000000000E+00 0.  1.
        -11    1    4    4    0    0  0.49754312161E-02 -0.60984058768E-01  0.13848223017E-02  0.61204486710E-01  0.51100000000E-03 0.  1.
         11    1    4    4    0    0  0.23117789370E-01 -0.65056972765E-01 -0.98145934069E-02  0.69738291171E-01  0.51100000000E-03 0. -1.
</event>
<event>
 8    1  0.1157726E+005  0.1043930E+01  0.7957747E-01            NaN
         13   -1    0    0    0    0  0.00000000000E+00  0.00000000000E+00  0.74505805969E-08  0.10566000000E+00  0.10566000000E+00 0.  1.
     999900   -1    0    0    0    0 -0.00000000000E+00 -0.00000000000E+00 -0.74505805969E-08  0.93827000000E+00  0.93827000000E+00 0.  1.
     999902    2    1    2    0    0  0.11042445913E-01  0.15802941449E-01 -0.14067551987E-01  0.10200644476E+01  0.10197852287E+01 0.  0.
     999903    2    3    3    0    0  0.88766191012E-01  0.86304414597E-01 -0.45206605490E-01  0.13328314489E+00  0.19820970865E-01 0.  0.
         14    1    1    2    0    0 -0.11042445913E-01 -0.15802941449E-01  0.14067551987E-01  0.23865552352E-01  0.00000000000E+00 0.  1.
     999901    1    3    3    0    0 -0.77723745098E-01 -0.70501473148E-01  0.31139053503E-01  0.88678130276E+00  0.88000000000E+00 0. -1.
        -11    1    4    4    0    0  0.41833547865E-01  0.51546747673E-01 -0.30482174269E-01  0.73051604991E-01  0.51100000000E-03 0.  1.
         11    1    4    4    0    0  0.46932643146E-01  0.34757666924E-01 -0.14724431221E-01  0.60231539898E-01  0.51100000000E-03 0. -1.
</event>
<event>
 8    1  0.1157726E+005  0.1043930E+01  0.7957747E-01            NaN
         13   -1    0    0    0    0  0.00000000000E+00  0.00000000000E+00  0.74505805969E-08  0.10566000000E+00  0.10566000000E+00 0. -1.
     999900   -1    0    0    0    0 -0.00000000000E+00 -0.00000000000E+00 -0.74505805969E-08  0.93827000000E+00  0.93827000000E+00 0. -1.
     999902    2    1    2    0    0  0.19877880250E-01 -0.48879617150E-02 -0.12337447484E-01  0.10200294790E+01  0.10197494316E+01 0.  0.
     999903    2    3    3    0    0 -0.91300088942E-01 -0.12512496974E-01  0.86483933279E-01  0.12751374264E+00  0.16971005464E-01 0.  0.
         14    1    1    2    0    0 -0.19877880250E-01  0.48879617150E-02  0.12337447484E-01  0.23900520986E-01  0.00000000000E+00 0.  1.
     999901    1    3    3    0    0  0.11117796919E+00  0.76245352587E-02 -0.98821380763E-01  0.89251573637E+00  0.88000000000E+00 0. -1.
        -11    1    4    4    0    0 -0.46446766065E-01 -0.72958915046E-02  0.32631003008E-01  0.57232644435E-01  0.51100000000E-03 0. -1.
         11    1    4    4    0    0 -0.44853322877E-01 -0.52166054691E-02  0.53852930271E-01  0.70281098210E-01  0.51100000000E-03 0.  1.
</event>
<event>
 8    1  0.1157726E+005  0.1043930E+01  0.7957747E-01            NaN
         13   -1    0    0    0    0  0.00000000000E+00  0.00000000000E+00  0.74505805969E-08  0.10566000000E+00  0.10566000000E+00 0. -1.
     999900   -1    0    0    0    0 -0.00000000000E+00 -0.00000000000E+00 -0.74505805969E-08  0.93827000000E+00  0.93827000000E+00 0.  1.
     999902    2    1    2    0    0  0.16775142561E-01  0.12564156946E-01  0.94811182878E-02  0.10209266296E+01  0.10206674424E+01 0.  0.
     999903    2    3    3    0    0 -0.25133408424E-01 -0.15873419435E-01 -0.12441602564E+00  0.12935864699E+00  0.19252492084E-01 0.  0.
         14    1    1    2    0    0 -0.16775142561E-01 -0.12564156946E-01 -0.94811182878E-02  0.23003370442E-01  0.00000000000E+00 0.  1.
     999901    1    3    3    0    0  0.41908550985E-01  0.28437576381E-01  0.13389714392E+00  0.89156798257E+00  0.88000000000E+00 0. -1.
        -11    1    4    4    0    0 -0.18262314778E-01 -0.63133264690E-02 -0.43662467414E-01  0.47749789673E-01  0.51100000000E-03 0.  1.
         11    1    4    4    0    0 -0.68710936465E-02 -0.95600929658E-02 -0.80753558222E-01  0.81608857313E-01  0.51100000000E-03 0. -1.
</event>
<event>
 8    1  0.1157726E+005  0.1043930E+01  0.7957747E-01            NaN
         13   -1    0    0    0    0  0.00000000000E+00  0.00000000000E+00  0.74505805969E-08  0.10566000000E+00  0.10566000000E+00 0. -1.
     999900   -1    0    0    0    0 -0.00000000000E+00 -0.00000000000E+00 -0.74505805969E-08  0.93827000000E+00  0.93827000000E+00 0.  1.
     999902    2    1    2    0    0  0.16974374354E-02  0.21295599507E-01 -0.98106329564E-02  0.10204218658E+01  0.10201510437E+01 0.  0.
     999903    2    3    3    0    0  0.27850397474E-01 -0.91302293256E-01  0.82837740509E-01  0.12803966977E+00  0.20501521626E-01 0.  0.
         14    1    1    2    0    0 -0.16974374354E-02 -0.21295599507E-01  0.98106329564E-02  0.23508134150E-01  0.00000000000E+00 0. -1.
     999901    1    3    3    0    0 -0.26152960039E-01  0.11259789276E+00 -0.92648373466E-01  0.89238219608E+00  0.88000000000E+00 0.  1.
        -11    1    4    4    0    0  0.67256732179E-02 -0.32248776951E-01  0.41214290739E-01  0.52764544698E-01  0.51100000000E-03 0.  1.
         11    1    4    4    0    0  0.21124724256E-01 -0.59053516305E-01  0.41623449770E-01  0.75275125072E-01  0.51100000000E-03 0. -1.
</event>
<event>
 7    1  0.1157726E+005  0.1043930E+01  0.7957747E-01            NaN
         13   -1    0    0    0    0  0.00000000000E+00  0.00000000000E+00  0.74505805969E-08  0.10566000000E+00  0.10566000000E+00 0.  1.
     999900   -1    0    0    0    0 -0.00000000000E+00 -0.00000000000E+00 -0.74505805969E-08  0.93827000000E+00  0.93827000000E+00 0. -1.
     999902    2    1    2    0    0  0.12101704560E-01 -0.89183133933E-03  0.21209428927E-01  0.10194946467E+01  0.10192017701E+01 0.  0.
         14    1    1    2    0    0 -0.12101704560E-01  0.89183133933E-03 -0.21209428927E-01  0.24435353319E-01  0.00000000000E+00 0. -1.
     999901    1    3    3    0    0  0.96430167493E-01 -0.40155091302E-01 -0.58538556222E-01  0.88810921126E+00  0.88000000000E+00 0. -1.
        -11    1    3    3    0    0 -0.22243048283E-01  0.15775296176E-01  0.53407448204E-01  0.59968573528E-01  0.51100000000E-03 0.  1.
         11    1    3    3    0    0 -0.62085414650E-01  0.23487963787E-01  0.26340536946E-01  0.71416861893E-01  0.51100000000E-03 0. -1.
</event>
<event>
 8    1  0.1157726E+005  0.1043930E+01  0.7957747E-01            NaN
         13   -1    0    0    0    0  0.00000000000E+00  0.00000000000E+00  0.74505805969E-08  0.10566000000E+00  0.10566000000E+00 0. -1.
     999900   -1    0    0    0    0 -0.00000000000E+00 -0.00000000000E+00 -0.74505805969E-08  0.93827000000E+00  0.93827000000E+00 0.  1.
     999902    2    1    2    0    0 -0.22722286684E-01  0.22561324683E-02  0.48493407415E-02  0.10205867236E+01  0.10203197302E+01 0.  0.
     999903    2    3    3    0    0 -0.10366224986E+00 -0.67648611596E-01 -0.43667724512E-01  0.13278502477E+00  0.20069776846E-01 0.  0.
         14    1    1    2    0    0  0.22722286684E-01 -0.22561324683E-02 -0.48493407415E-02  0.23343276366E-01  0.00000000000E+00 0.  1.
     999901    1    3    3    0    0  0.80939963177E-01  0.69904744064E-01  0.48517065254E-01  0.88780169886E+00  0.88000000000E+00 0.  1.
        -11    1    4    4    0    0 -0.72616473396E-02 -0.11602682687E-01 -0.71278420441E-02  0.15440887955E-01  0.51100000000E-03 0. -1.
         11    1    4    4    0    0 -0.96400602521E-01 -0.56045928909E-01 -0.36539882468E-01  0.11734413682E+00  0.51100000000E-03 0.  1.
</event>
<event>
 8    1  0.1157726E+005  0.1043930E+01  0.7957747E-01            NaN
         13   -1    0    0    0    0  0.00000000000E+00  0.00000000000E+00  0.74505805969E-08  0.10566000000E+00  0.10566000000E+00 0. -1.
     999900   -1    0    0    0    0 -0.00000000000E+00 -0.00000000000E+00 -0.74505805969E-08  0.93827000000E+00  0.93827000000E+00 0.  1.
     999902    2    1    2    0    0  0.21895847317E-01 -0.69012078465E-02  0.63900230896E-02  0.10200996161E+01  0.10198212293E+01 0.  0.
     999903    2    3    3    0    0  0.92276297771E-01  0.91094843502E-01 -0.10801739095E-01  0.13170094968E+00  0.20378344813E-01 0.  0.
         14    1    1    2    0    0 -0.21895847317E-01  0.69012078465E-02 -0.63900230896E-02  0.23830383853E-01  0.00000000000E+00 0.  1.
     999901    1    3    3    0    0 -0.70380450454E-01 -0.97996051349E-01  0.17191762184E-01  0.88839866646E+00  0.88000000000E+00 0. -1.
        -11    1    4    4    0    0  0.36378290452E-01  0.45812195138E-01  0.24412135133E-02  0.58552180865E-01  0.51100000000E-03 0.  1.
         11    1    4    4    0    0  0.55898007319E-01  0.45282648364E-01 -0.13242952608E-01  0.73148768820E-01  0.51100000000E-03 0. -1.
</event>
<event>
 8    1  0.1157726E+005  0.1043930E+01  0.7957747E-01            NaN
         13   -1    0    0    0    0  0.00000000000E+00  0.00000000000E+00  0.74505805969E-08  0.10566000000E+00  0.10566000000E+00 0.  1.
     999900   -1    0    0    0    0 -0.00000000000E+00 -0.00000000000E+00 -0.74505805969E-08  0.93827000000E+00  0.93827000000E+00 0. -1.
     999902    2    1    2    0    0 -0.23219851975E-02 -0.22315255558E-01  0.49514979721E-02  0.10209543699E+01  0.10206958146E+01 0.  0.
     999903    2    3    3    0    0 -0.88260515468E-01 -0.67279754423E-01 -0.69744532926E-01  0.13247998414E+00  0.19239604409E-01 0.  0.
         14    1    1    2    0    0  0.23219851975E-02  0.22315255558E-01 -0.49514979721E-02  0.22975630090E-01  0.00000000000E+00 0. -1.
     999901    1    3    3    0    0  0.85938530271E-01  0.44964498865E-01  0.74696030898E-01  0.88847438577E+00  0.88000000000E+00 0.  1.
        -11    1    4    4    0    0 -0.12296502078E-01 -0.17518225928E-01 -0.17925906764E-01  0.27922955742E-01  0.51100000000E-03 0.  1.
         11    1    4    4    0    0 -0.75964013390E-01 -0.49761528495E-01 -0.51818626162E-01  0.10455702839E+00  0.51100000000E-03 0. -1.
</event>
<event>
 8    1  0.1157726E+005  0.1043930E+01  0.7957747E-01            NaN
         13   -1    0    0    0    0  0.00000000000E+00  0.00000000000E+00  0.74505805969E-08  0.10566000000E+00  0.10566000000E+00 0. -1.
     999900   -1    0    0    0    0 -0.00000000000E+00 -0.00000000000E+00 -0.74505805969E-08  0.93827000000E+00  0.93827000000E+00 0. -1.
     999902    2    1    2    0    0 -0.71538627789E-02 -0.13011765267E-01 -0.19932974502E-01  0.10190742711E+01  0.10187711042E+01 0.  0.
     999903    2    3    3    0    0 -0.70387676389E-01 -0.98329774447E-01 -0.49866372691E-01  0.13218437588E+00  0.19049529395E-01 0.  0.
         14    1    1    2    0    0  0.71538627789E-02  0.13011765267E-01  0.19932974502E-01  0.24855728927E-01  0.00000000000E+00 0.  1.
     999901    1    3    3    0    0  0.63233813610E-01  0.85318009180E-01  0.29933398190E-01  0.88688989520E+00  0.88000000000E+00 0.  1.
        -11    1    4    4    0    0 -0.36884525903E-01 -0.62526055729E-01 -0.22371854069E-01  0.75965366263E-01  0.51100000000E-03 0. -1.
         11    1    4    4    0    0 -0.33503150486E-01 -0.35803718719E-01 -0.27494518623E-01  0.56219009613E-01  0.51100000000E-03 0.  1.
</event>
<event>
 8    1  0.1157726E+005  0.1043930E+01  0.7957747E-01            NaN
         13   -1    0    0    0    0  0.00000000000E+00  0.00000000000E+00  0.74505805969E-08  0.10566000000E+00  0.10566000000E+00 0.  1.
     999900   -1    0    0    0    0 -0.00000000000E+00 -0.00000000000E+00 -0.74505805969E-08  0.93827000000E+00  0.93827000000E+00 0.  1.
     999902    2    1    2    0    0 -0.56622041931E-02  0.13037554355E-01  0.17186973284E-01  0.10216268516E+01  0.10213833724E+01 0.  0.
     999903    2    3    3    0    0 -0.12493121072E+00  0.35161862873E-01  0.23508842560E-01  0.13328314162E+00  0.19172014765E-01 0.  0.
         14    1    1    2    0    0  0.56622041931E-02 -0.13037554355E-01 -0.17186973284E-01  0.22303148445E-01  0.00000000000E+00 0. -1.
     999901    1    3    3    0    0  0.11926900652E+00 -0.22124308518E-01 -0.63218692752E-02  0.88834370993E+00  0.88000000000E+00 0. -1.
        -11    1    4    4    0    0 -0.23678795747E-01  0.37578633063E-02 -0.25490314578E-02  0.24115670985E-01  0.51100000000E-03 0. -1.
         11    1    4    4    0    0 -0.10125241497E+00  0.31403999567E-01  0.26057874017E-01  0.10916747064E+00  0.51100000000E-03 0.  1.
</event>
<event>
 8    1  0.1157726E+005  0.1043930E+01  0.7957747E-01            NaN
         13   -1    0    0    0    0  0.00000000000E+00  0.00000000000E+00  0.74505805969E-08  0.10566000000E+00  0.10566000000E+00 0. -1.
     999900   -1    0    0    0    0 -0.00000000000E+00 -0.00000000000E+00 -0.74505805969E-08  0.93827000000E+00  0.93827000000E+00 0. -1.
     999902    2    1    2    0    0  0.39299953109E-02  0.18866059973E-01 -0.14098392525E-01  0.10200524425E+01  0.10197729392E+01 0.  0.
     999903    2    3    3    0    0 -0.63919080509E-01  0.84757380162E-01 -0.77155427471E-01  0.13274113699E+00  0.19944601187E-01 0.  0.
         14    1    1    2    0    0 -0.39299953109E-02 -0.18866059973E-01  0.14098392525E-01  0.23877557535E-01  0.00000000000E+00 0. -1.
     999901    1    3    3    0    0  0.67849075820E-01 -0.65891320189E-01  0.63057034946E-01  0.88731130547E+00  0.88000000000E+00 0.  1.
        -11    1    4    4    0    0 -0.15616024622E-01  0.26859118323E-01 -0.12791192432E-01  0.33602800284E-01  0.51100000000E-03 0.  1.
         11    1    4    4    0    0 -0.48303055886E-01  0.57898261839E-01 -0.64364235039E-01  0.99138336708E-01  0.51100000000E-03 0. -1.
</event>
<event>
 8    1  0.1157726E+005  0.1043930E+01  0.7957747E-01            NaN
         13   -1    0    0    0    0  0.00000000000E+00  0.00000000000E+00  0.74505805969E-08  0.10566000000E+00  0.10566000000E+00 0. -1.
     999900   -1    0    0    0    0 -0.00000000000E+00 -0.00000000000E+00 -0.74505805969E-08  0.93827000000E+00  0.93827000000E+00 0.  1.
     999902    2    1    2    0    0 -0.23208440322E-01 -0.23826904839E-02 -0.56711371179E-02  0.10199201955E+01  0.10196375505E+01 0.  0.
     999903    2    3    3    0    0  0.58794832050E-01 -0.45864897699E-01  0.10260547474E+00  0.12843880831E+00  0.20204527136E-01 0.  0.
         14    1    1    2    0    0  0.23208440322E-01  0.23826904839E-02  0.56711371179E-02  0.24009804505E-01  0.00000000000E+00 0.  1.
     999901    1    3    3    0    0 -0.82003272372E-01  0.43482207215E-01 -0.10827661186E+00  0.89148138719E+00  0.88000000000E+00 0. -1.
        -11    1    4    4    0    0  0.83999887029E-02 -0.16964819966E-01  0.29585795167E-01  0.35127557891E-01  0.51100000000E-03 0.  1.
         11    1    4    4    0    0  0.50394843347E-01 -0.28900077733E-01  0.73019679572E-01  0.93311250419E-01  0.51100000000E-03 0. -1.
</event>
<event>
 8    1  0.1157726E+005  0.1043930E+01  0.7957747E-01            NaN
         13   -1    0    0    0    0  0.00000000000E+00  0.00000000000E+00  0.74505805969E-08  0.10566000000E+00  0.10566000000E+00 0. -1.
     999900   -1    0    0    0    0 -0.00000000000E+00 -0.00000000000E+00 -0.74505805969E-08  0.93827000000E+00  0.93827000000E+00 0. -1.
     999902    2    1    2    0    0  0.17653555744E-01 -0.33301306205E-02  0.14259759388E-01  0.10209935980E+01  0.10207359348E+01 0.  0.
     999903    2    3    3    0    0 -0.90991606744E-01  0.89719784914E-01 -0.12830190467E-02  0.12930775863E+00  0.19741783136E-01 0.  0.
         14    1    1    2    0    0 -0.17653555744E-01  0.33301306205E-02 -0.14259759388E-01  0.22936402032E-01  0.00000000000E+00 0.  1.
     999901    1    3    3    0    0  0.10864516249E+00 -0.93049915534E-01  0.15542778435E-01  0.89168583934E+00  0.88000000000E+00 0.  1.
        -11    1    4    4    0    0 -0.51656961923E-01  0.38408853916E-01  0.35573953058E-02  0.64471683371E-01  0.51100000000E-03 0.  1.
         11    1    4    4    0    0 -0.39334644821E-01  0.51310930998E-01 -0.48404143525E-02  0.64836075260E-01  0.51100000000E-03 0. -1.
</event>
<event>
 8    1  0.1157726E+005  0.1043930E+01  0.7957747E-01            NaN
         13   -1    0    0    0    0  0.00000000000E+00  0.00000000000E+00  0.74505805969E-08  0.10566000000E+00  0.10566000000E+00 0. -1.
     999900   -1    0    0    0    0 -0.00000000000E+00 -0.00000000000E+00 -0.74505805969E-08  0.93827000000E+00  0.93827000000E+00 0.  1.
     999902    2    1    2    0    0 -0.11878622578E-01  0.19846207062E-01 -0.47243935704E-02  0.10203229353E+01  0.10200498021E+01 0.  0.
     999903    2    3    3    0    0 -0.60659714916E-01 -0.10843289976E+00  0.28736222214E-01  0.12905712926E+00  0.19816088940E-01 0.  0.
         14    1    1    2    0    0  0.11878622578E-01 -0.19846207062E-01  0.47243935704E-02  0.23607064699E-01  0.00000000000E+00 0. -1.
     999901    1    3    3    0    0  0.48781092339E-01  0.12827910682E+00 -0.33460615784E-01  0.89126580605E+00  0.88000000000E+00 0. -1.
        -11    1    4    4    0    0 -0.27564699070E-01 -0.33180968787E-01  0.46381241874E-02  0.43388508173E-01  0.51100000000E-03 0.  1.
         11    1    4    4    0    0 -0.33095015846E-01 -0.75251930971E-01  0.24098098027E-01  0.85668621083E-01  0.51100000000E-03 0. -1.
</event>
<event>
 8    1  0.1157726E+005  0.1043930E+01  0.7957747E-01            NaN
         13   -1    0    0    0    0  0.00000000000E+00  0.00000000000E+00  0.74505805969E-08  0.10566000000E+00  0.10566000000E+00 0.  1.
     999900   -1    0    0    0    0 -0.00000000000E+00 -0.00000000000E+00 -0.74505805969E-08  0.93827000000E+00  0.93827000000E+00 0.  1.
     999902    2    1    2    0    0  0.20783104153E-01  0.11534207554E-01 -0.34549321178E-02  0.10199110092E+01  0.10196281454E+01 0.  0.
     999903    2    3    3    0    0 -0.69544102905E-01 -0.10307310945E+00  0.20553838248E-01  0.12757124069E+00  0.19786688571E-01 0.  0.
         14    1    1    2    0    0 -0.20783104153E-01 -0.11534207554E-01  0.34549321178E-02  0.24018990780E-01  0.00000000000E+00 0. -1.
     999901    1    3    3    0    0  0.90327207059E-01  0.11460731700E+00 -0.24008770365E-01  0.89233976853E+00  0.88000000000E+00 0. -1.
        -11    1    4    4    0    0 -0.44338521979E-01 -0.63515725796E-01  0.22370883568E-01  0.80627969758E-01  0.51100000000E-03 0. -1.
         11    1    4    4    0    0 -0.25205580927E-01 -0.39557383651E-01 -0.18170453204E-02  0.46943270933E-01  0.51100000000E-03 0.  1.
</event>
<event>
 8    1  0.1157726E+005  0.1043930E+01  0.7957747E-01            NaN
         13   -1    0    0    0    0  0.00000000000E+00  0.00000000000E+00  0.74505805969E-08  0.10566000000E+00  0.10566000000E+00 0. -1.
     999900   -1    0    0    0    0 -0.00000000000E+00 -0.00000000000E+00 -0.74505805969E-08  0.93827000000E+00  0.93827000000E+00 0.  1.
     999902    2    1    2    0    0 -0.24604531508E-02  0.41466236293E-03 -0.16594473341E-01  0.10271489893E+01  0.10270119006E+01 0.  0.
     999903    2    3    3    0    0  0.18252911090E-01  0.53221543226E-01  0.12072051750E+00  0.13469561974E+00  0.20093909707E-01 0.  0.
         14    1    1    2    0    0  0.24604531508E-02 -0.41466236293E-03  0.16594473341E-01  0.16781010698E-01  0.00000000000E+00 0. -1.
     999901    1    3    3    0    0 -0.20713364241E-01 -0.52806880863E-01 -0.13731499084E+00  0.89245336956E+00  0.88000000000E+00 0. -1.
        -11    1    4    4    0    0  0.15143054562E-01  0.20158522004E-01  0.38538354098E-01  0.46055878761E-01  0.51100000000E-03 0.  1.
         11    1    4    4    0    0  0.31098565287E-02  0.33063021222E-01  0.82182163398E-01  0.88639740984E-01  0.51100000000E-03 0. -1.
</event>
<event>
 8    1  0.1157726E+005  0.1043930E+01  0.7957747E-01            NaN
         13   -1    0    0    0    0  0.00000000000E+00  0.00000000000E+00  0.74505805969E-08  0.10566000000E+00  0.10566000000E+00 0.  1.
     999900   -1    0    0    0    0 -0.00000000000E+00 -0.00000000000E+00 -0.74505805969E-08  0.93827000000E+00  0.93827000000E+00 0.  1.
     999902    2    1    2    0    0  0.10065084717E-01 -0.17834733994E-01 -0.97556859407E-02  0.10212461495E+01  0.10209941923E+01 0.  0.
     999903    2    3    3    0    0 -0.32392558537E-01 -0.70247619833E-01 -0.10668786665E+00  0.13335786272E+00  0.20445359383E-01 0.  0.
         14    1    1    2    0    0 -0.10065084717E-01  0.17834733994E-01  0.97556859407E-02  0.22683850537E-01  0.00000000000E+00 0.  1.
     999901    1    3    3    0    0  0.42457643254E-01  0.52412885838E-01  0.96932180705E-01  0.88788828674E+00  0.88000000000E+00 0. -1.
        -11    1    4    4    0    0 -0.31320921588E-01 -0.46020682687E-01 -0.77115124917E-01  0.95109973063E-01  0.51100000000E-03 0.  1.
         11    1    4    4    0    0 -0.10716369492E-02 -0.24226937145E-01 -0.29572741728E-01  0.38247889661E-01  0.51100000000E-03 0. -1.
</event>
<event>
 8    1  0.1157726E+005  0.1043930E+01  0.7957747E-01            NaN
         13   -1    0    0    0    0  0.00000000000E+00  0.00000000000E+00  0.74505805969E-08  0.10566000000E+00  0.10566000000E+00 0.  1.
     999900   -1    0    0    0    0 -0.00000000000E+00 -0.00000000000E+00 -0.74505805969E-08  0.93827000000E+00  0.93827000000E+00 0. -1.
     999902    2    1    2    0    0  0.20327269693E-01  0.46740568429E-03  0.11045846386E-01  0.10207907026E+01  0.10205284080E+01 0.  0.
     999903    2    3    3    0    0  0.33578117576E-02  0.12876323709E+00  0.15698265565E-01  0.13131364958E+00  0.20139337092E-01 0.  0.
         14    1    1    2    0    0 -0.20327269693E-01 -0.46740568429E-03 -0.11045846386E-01  0.23139297389E-01  0.00000000000E+00 0. -1.
     999901    1    3    3    0    0  0.16969457936E-01 -0.12829583141E+00 -0.46524191792E-02  0.88947705303E+00  0.88000000000E+00 0.  1.
        -11    1    4    4    0    0 -0.50691773865E-03  0.76675281866E-01 -0.31913616411E-03  0.76679324356E-01  0.51100000000E-03 0.  1.
         11    1    4    4    0    0  0.38647294963E-02  0.52087955227E-01  0.16017401729E-01  0.54634325227E-01  0.51100000000E-03 0. -1.
</event>
<event>
 8    1  0.1157726E+005  0.1043930E+01  0.7957747E-01            NaN
         13   -1    0    0    0    0  0.00000000000E+00  0.00000000000E+00  0.74505805969E-08  0.10566000000E+00  0.10566000000E+00 0. -1.
     999900   -1    0    0    0    0 -0.00000000000E+00 -0.00000000000E+00 -0.74505805969E-08  0.93827000000E+00  0.93827000000E+00 0.  1.
     999902    2    1    2    0    0  0.88452060423E-02 -0.78417006517E-02  0.21675509527E-01  0.10192407786E+01  0.10189417094E+01 0.  0.
     999903    2    3    3    0    0  0.36442411671E-01  0.12035548553E+00  0.21500164624E-01  0.12952388261E+00  0.22376032335E-01 0.  0.
         14    1    1    2    0    0 -0.88452060423E-02  0.78417006517E-02 -0.21675509527E-01  0.24689221379E-01  0.00000000000E+00 0.  1.
     999901    1    3    3    0    0 -0.27597205629E-01 -0.12819718618E+00  0.17534490295E-03  0.88971689601E+00  0.88000000000E+00 0.  1.
        -11    1    4    4    0    0  0.10764504387E-01  0.15671246560E-01 -0.22438809932E-02  0.19150943746E-01  0.51100000000E-03 0.  1.
         11    1    4    4    0    0  0.25677907284E-01  0.10468423897E+00  0.23744045617E-01  0.11037293886E+00  0.51100000000E-03 0. -1.
</event>
<event>
 8    1  0.1157726E+005  0.1043930E+01  0.7957747E-01            NaN
         13   -1    0    0    0    0  0.00000000000E+00  0.00000000000E+00  0.74505805969E-08  0.10566000000E+00  0.10566000000E+00 0.  1.
     999900   -1    0    0    0    0 -0.00000000000E+00 -0.00000000000E+00 -0.74505805969E-08  0.93827000000E+00  0.93827000000E+00 0.  1.
     999902    2    1    2    0    0  0.16490540023E-01 -0.23652327091E-01 -0.51938267941E-02  0.10146324519E+01  0.10142093798E+01 0.  0.
     999903    2    3    3    0    0  0.12547213566E+00 -0.11868089781E-01  0.55170234020E-02  0.12776685965E+00  0.20244122453E-01 0.  0.
         14    1    1    2    0    0 -0.16490540023E-01  0.23652327091E-01  0.51938267941E-02  0.29297548086E-01  0.00000000000E+00 0.  1.
     999901    1    3    3    0    0 -0.10898159564E+00 -0.11784237310E-01 -0.10710850196E-01  0.88686559227E+00  0.88000000000E+00 0. -1.
        -11    1    4    4    0    0  0.64378723528E-01 -0.12637697954E-01 -0.48698741573E-02  0.65789879526E-01  0.51100000000E-03 0. -1.
         11    1    4    4    0    0  0.61093412134E-01  0.76960817291E-03  0.10386897559E-01  0.61976980121E-01  0.51100000000E-03 0.  1.
</event>
<event>
 8    1  0.1157726E+005  0.1043930E+01  0.7957747E-01            NaN
         13   -1    0    0    0    0  0.00000000000E+00  0.00000000000E+00  0.74505805969E-08  0.10566000000E+00  0.10566000000E+00 0. -1.
     999900   -1    0    0    0    0 -0.00000000000E+00 -0.00000000000E+00 -0.74505805969E-08  0.93827000000E+00  0.93827000000E+00 0. -1.
     999902    2    1    2    0    0  0.18239497244E-01 -0.13824764562E-01 -0.19697925108E-02  0.10209586383E+01  0.10207001801E+01 0.  0.
     999903    2    3    3    0    0 -0.12446365162E-01  0.11979085385E+00 -0.42320701735E-01  0.12943020271E+00  0.21362932978E-01 0.  0.
         14    1    1    2    0    0 -0.18239497244E-01  0.13824764562E-01  0.19697925108E-02  0.22971361680E-01  0.00000000000E+00 0.  1.
     999901    1    3    3    0    0  0.30685862406E-01 -0.13361561841E+00  0.40350909224E-01  0.89152843561E+00  0.88000000000E+00 0. -1.
        -11    1    4    4    0    0 -0.71500762605E-02  0.92087225487E-01 -0.41361743318E-01  0.10120393085E+00  0.51100000000E-03 0.  1.
         11    1    4    4    0    0 -0.52962889017E-02  0.27703628361E-01 -0.95895841672E-03  0.28226271854E-01  0.51100000000E-03 0. -1.
</event>
<event>
 8    1  0.1157726E+005  0.1043930E+01  0.7957747E-01            NaN
         13   -1    0    0    0    0  0.00000000000E+00  0.00000000000E+00  0.74505805969E-08  0.10566000000E+00  0.10566000000E+00 0.  1.
     999900   -1    0    0    0    0 -0.00000000000E+00 -0.00000000000E+00 -0.74505805969E-08  0.93827000000E+00  0.93827000000E+00 0.  1.
     999902    2    1    2    0    0 -0.18970901124E-01  0.13025473140E-01 -0.98766934667E-02  0.10188878932E+01  0.10185801057E+01 0.  0.
     999903    2    3    3    0    0 -0.84715178151E-01 -0.93949953326E-01  0.18726582132E-01  0.12951496848E+00  0.20498464372E-01 0.  0.
         14    1    1    2    0    0  0.18970901124E-01 -0.13025473140E-01  0.98766934667E-02  0.25042106816E-01  0.00000000000E+00 0. -1.
     999901    1    3    3    0    0  0.65744277028E-01  0.10697542647E+00 -0.28603275599E-01  0.88937292471E+00  0.88000000000E+00 0.  1.
        -11    1    4    4    0    0 -0.44417709247E-01 -0.41487228788E-01  0.77029164715E-04  0.60781494731E-01  0.51100000000E-03 0. -1.
         11    1    4    4    0    0 -0.40297468904E-01 -0.52462724538E-01  0.18649552967E-01  0.68733473744E-01  0.51100000000E-03 0.  1.
</event>
<event>
 8    1  0.1157726E+005  0.1043930E+01  0.7957747E-01            NaN
         13   -1    0    0    0    0  0.00000000000E+00  0.00000000000E+00  0.74505805969E-08  0.10566000000E+00  0.10566000000E+00 0. -1.
     999900   -1    0    0    0    0 -0.00000000000E+00 -0.00000000000E+00 -0.74505805969E-08  0.93827000000E+00  0.93827000000E+00 0.  1.
     999902    2    1    2    0    0 -0.10588870410E-01  0.20201854217E-01 -0.55294081143E-02  0.10204605849E+01  0.10201906645E+01 0.  0.
     999903    2    3    3    0    0 -0.79538341827E-01 -0.35410694866E-01  0.94810362578E-01  0.13033988815E+00  0.20474776177E-01 0.  0.
         14    1    1    2    0    0  0.10588870410E-01 -0.20201854217E-01  0.55294081143E-02  0.23469415085E-01  0.00000000000E+00 0. -1.
     999901    1    3    3    0    0  0.68949471417E-01  0.55612549083E-01 -0.10033977069E+00  0.89012069676E+00  0.88000000000E+00 0.  1.
        -11    1    4    4    0    0 -0.49659939399E-01 -0.15260882515E-01  0.44226845980E-01  0.68229606056E-01  0.51100000000E-03 0.  1.
         11    1    4    4    0    0 -0.29878402428E-01 -0.20149812351E-01  0.50583516598E-01  0.62110282095E-01  0.51100000000E-03 0. -1.
</event>
<event>
 8    1  0.1157726E+005  0.1043930E+01  0.7957747E-01            NaN
         13   -1    0    0    0    0  0.00000000000E+00  0.00000000000E+00  0.74505805969E-08  0.10566000000E+00  0.10566000000E+00 0.  1.
     999900   -1    0    0    0    0 -0.00000000000E+00 -0.00000000000E+00 -0.74505805969E-08  0.93827000000E+00  0.93827000000E+00 0. -1.
     999902    2    1    2    0    0  0.16906422887E-01  0.10282231075E-02 -0.16663150841E-01  0.10201698448E+01  0.10198931156E+01 0.  0.
     999903    2    3    3    0    0 -0.71181975943E-01 -0.76815064118E-01 -0.74963887097E-01  0.13044060556E+00  0.20681862465E-01 0.  0.
         14    1    1    2    0    0 -0.16906422887E-01 -0.10282231075E-02  0.16663150841E-01  0.23760155166E-01  0.00000000000E+00 0.  1.
     999901    1    3    3    0    0  0.88088398830E-01  0.77843287225E-01  0.58300736257E-01  0.88972923928E+00  0.88000000000E+00 0.  1.
        -11    1    4    4    0    0 -0.48350404754E-01 -0.48195636625E-01 -0.36815917041E-01  0.77564514426E-01  0.51100000000E-03 0.  1.
         11    1    4    4    0    0 -0.22831571189E-01 -0.28619427493E-01 -0.38147970057E-01  0.52876091132E-01  0.51100000000E-03 0. -1.
</event>
<event>
 8    1  0.1157726E+005  0.1043930E+01  0.7957747E-01            NaN
         13   -1    0    0    0    0  0.00000000000E+00  0.00000000000E+00  0.74505805969E-08  0.10566000000E+00  0.10566000000E+00 0. -1.
     999900   -1    0    0    0    0 -0.00000000000E+00 -0.00000000000E+00 -0.74505805969E-08  0.93827000000E+00  0.93827000000E+00 0.  1.
     999902    2    1    2    0    0 -0.83785149724E-02 -0.21705761586E-01 -0.31815815601E-02  0.10204467707E+01  0.10201765287E+01 0.  0.
     999903    2    3    3    0    0 -0.28532745638E-01 -0.12892349335E+00 -0.48922913798E-02  0.13370849949E+00  0.20460782242E-01 0.  0.
         14    1    1    2    0    0  0.83785149724E-02  0.21705761586E-01  0.31815815601E-02  0.23483229343E-01  0.00000000000E+00 0. -1.
     999901    1    3    3    0    0  0.20154230666E-01  0.10721773177E+00  0.17107098197E-02  0.88673827116E+00  0.88000000000E+00 0. -1.
        -11    1    4    4    0    0 -0.26010940030E-01 -0.90937404050E-01 -0.10722872953E-01  0.95191499526E-01  0.51100000000E-03 0.  1.
         11    1    4    4    0    0 -0.25218056080E-02 -0.37986089302E-01  0.58305815734E-02  0.38516999967E-01  0.51100000000E-03 0. -1.
</event>
<event>
 8    1  0.1157726E+005  0.1043930E+01  0.7957747E-01            NaN
         13   -1    0    0    0    0  0.00000000000E+00  0.00000000000E+00  0.74505805969E-08  0.10566000000E+00  0.10566000000E+00 0.  1.
     999900   -1    0    0    0    0 -0.00000000000E+00 -0.00000000000E+00 -0.74505805969E-08  0.93827000000E+00  0.93827000000E+00 0. -1.
     999902    2    1    2    0    0  0.15187288541E-02  0.22182094642E-01  0.62172815527E-02  0.10208430676E+01  0.10205819723E+01 0.  0.
     999903    2    3    3    0    0 -0.27231169562E-01 -0.12019938019E+00  0.31004123145E-01  0.12859118128E+00  0.19621637500E-01 0.  0.
         14    1    1    2    0    0 -0.15187288541E-02 -0.22182094642E-01 -0.62172815527E-02  0.23086932450E-01  0.00000000000E+00 0.  1.
     999901    1    3    3    0    0  0.28749898416E-01  0.14238147483E+00 -0.24786841592E-01  0.89225188627E+00  0.88000000000E+00 0. -1.
        -11    1    4    4    0    0 -0.21042310471E-01 -0.10527573941E+00  0.20458495654E-01  0.10929122244E+00  0.51100000000E-03 0. -1.
         11    1    4    4    0    0 -0.61888590910E-02 -0.14923640782E-01  0.10545627491E-01  0.19299958840E-01  0.51100000000E-03 0.  1.
</event>
<event>
 8    1  0.1157726E+005  0.1043930E+01  0.7957747E-01            NaN
         13   -1    0    0    0    0  0.00000000000E+00  0.00000000000E+00  0.74505805969E-08  0.10566000000E+00  0.10566000000E+00 0. -1.
     999900   -1    0    0    0    0 -0.00000000000E+00 -0.00000000000E+00 -0.74505805969E-08  0.93827000000E+00  0.93827000000E+00 0. -1.
     999902    2    1    2    0    0 -0.23260632645E-02  0.20417737402E-01  0.11174740818E-01  0.10205383476E+01  0.10202702335E+01 0.  0.
     999903    2    3    3    0    0  0.10074794537E+00 -0.80165639508E-02 -0.78891521882E-01  0.12950260619E+00  0.18238393330E-01 0.  0.
         14    1    1    2    0    0  0.23260632645E-02 -0.20417737402E-01 -0.11174740818E-01  0.23391652428E-01  0.00000000000E+00 0.  1.
     999901    1    3    3    0    0 -0.10307400863E+00  0.28434301353E-01  0.90066262700E-01  0.89103574138E+00  0.88000000000E+00 0.  1.
        -11    1    4    4    0    0  0.68137242759E-02 -0.49623479772E-02 -0.40850725484E-02  0.93808674802E-02  0.51100000000E-03 0.  1.
         11    1    4    4    0    0  0.93934221091E-01 -0.30542159736E-02 -0.74806449334E-01  0.12012173871E+00  0.51100000000E-03 0. -1.
</event>
<event>
 8    1  0.1157726E+005  0.1043930E+01  0.7957747E-01            NaN
         13   -1    0    0    0    0  0.00000000000E+00  0.00000000000E+00  0.74505805969E-08  0.10566000000E+00  0.10566000000E+00 0. -1.
     999900   -1    0    0    0    0 -0.00000000000E+00 -0.00000000000E+00 -0.74505805969E-08  0.93827000000E+00  0.93827000000E+00 0.  1.
     999902    2    1    2    0    0 -0.20926270464E-01 -0.79126250492E-02  0.66187363637E-02  0.10205992027E+01  0.10203324980E+01 0.  0.
     999903    2    3    3    0    0 -0.46946797018E-01  0.73258900838E-01 -0.95346408510E-01  0.13062011578E+00  0.19995217650E-01 0.  0.
         14    1    1    2    0    0  0.20926270464E-01  0.79126250492E-02 -0.66187363637E-02  0.23330797281E-01  0.00000000000E+00 0.  1.
     999901    1    3    3    0    0  0.26020526555E-01 -0.81171525887E-01  0.10196514487E+00  0.88997908694E+00  0.88000000000E+00 0. -1.
        -11    1    4    4    0    0 -0.36161431146E-01  0.40292361575E-01 -0.51640612750E-01  0.74820702415E-01  0.51100000000E-03 0. -1.
         11    1    4    4    0    0 -0.10785365872E-01  0.32966539264E-01 -0.43705795760E-01  0.55799413366E-01  0.51100000000E-03 0.  1.
</event>
<event>
 8    1  0.1157726E+005  0.1043930E+01  0.7957747E-01            NaN
         13   -1    0    0    0    0  0.00000000000E+00  0.00000000000E+00  0.74505805969E-08  0.10566000000E+00  0.10566000000E+00 0. -1.
     999900   -1    0    0    0    0 -0.00000000000E+00 -0.00000000000E+00 -0.74505805969E-08  0.93827000000E+00  0.93827000000E+00 0.  1.
     999902    2    1    2    0    0 -0.12753260692E-02  0.42159829430E-02  0.19607693285E-01  0.10238336669E+01  0.10236364173E+01 0.  0.
     999903    2    3    3    0    0  0.11018841248E+00  0.70787194649E-01  0.21803432688E-01  0.13430530168E+00  0.20253671528E-01 0.  0.
         14    1    1    2    0    0  0.12753260692E-02 -0.42159829430E-02 -0.19607693285E-01  0.20096333116E-01  0.00000000000E+00 0.  1.
     999901    1    3    3    0    0 -0.11146373855E+00 -0.66571211706E-01 -0.21957394036E-02  0.88952836521E+00  0.88000000000E+00 0.  1.
        -11    1    4    4    0    0  0.68106750348E-01  0.35101619767E-01  0.57386808880E-02  0.76836493495E-01  0.51100000000E-03 0. -1.
         11    1    4    4    0    0  0.42081662130E-01  0.35685574882E-01  0.16064751800E-01  0.57468808181E-01  0.51100000000E-03 0.  1.
</event>
<event>
 8    1  0.1157726E+005  0.1043930E+01  0.7957747E-01            NaN
         13   -1    0    0    0    0  0.00000000000E+00  0.00000000000E+00  0.74505805969E-08  0.10566000000E+00  0.10566000000E+00 0.  1.
     999900   -1    0    0    0    0 -0.00000000000E+00 -0.00000000000E+00 -0.74505805969E-08  0.93827000000E+00  0.93827000000E+00 0.  1.
     999902    2    1    2    0    0 -0.37386362001E-03  0.24038257378E-01 -0.24626492603E-02  0.10197630343E+01  0.10194766323E+01 0.  0.
     999903    2    3    3    0    0  0.11557097777E+00 -0.44263966676E-01 -0.30749890100E-01  0.12908432224E+00  0.20031396800E-01 0.  0.
         14    1    1    2    0    0  0.37386362001E-03 -0.24038257378E-01  0.24626492603E-02  0.24166965742E-01  0.00000000000E+00 0.  1.
     999901    1    3    3    0    0 -0.11594484139E+00  0.68302224054E-01  0.28287240840E-01  0.89067871202E+00  0.88000000000E+00 0.  1.
        -11    1    4    4    0    0  0.52428308368E-01 -0.24653214805E-01 -0.23670816733E-01  0.62586557697E-01  0.51100000000E-03 0. -1.
         11    1    4    4    0    0  0.63142669401E-01 -0.19610751871E-01 -0.70790733669E-02  0.66497764539E-01  0.51100000000E-03 0.  1.
</event>
<event>
 8    1  0.1157726E+005  0.1043930E+01  0.7957747E-01            NaN
         13   -1    0    0    0    0  0.00000000000E+00  0.00000000000E+00  0.74505805969E-08  0.10566000000E+00  0.10566000000E+00 0. -1.
     999900   -1    0    0    0    0 -0.00000000000E+00 -0.00000000000E+00 -0.74505805969E-08  0.93827000000E+00  0.93827000000E+00 0. -1.
     999902    2    1    2    0    0 -0.14261483962E-02  0.31172009821E-01  0.32252956951E-03  0.10127237166E+01  0.10122428039E+01 0.  0.
     999903    2    3    3    0    0 -0.30447348666E-01  0.39719211507E-01 -0.11227710422E+00  0.12503347661E+00  0.22859688059E-01 0.  0.
         14    1    1    2    0    0  0.14261483962E-02 -0.31172009821E-01 -0.32252956951E-03  0.31206283355E-01  0.00000000000E+00 0. -1.
     999901    1    3    3    0    0  0.29021200270E-01 -0.85472016868E-02  0.11259963379E+00  0.88769024003E+00  0.88000000000E+00 0.  1.
        -11    1    4    4    0    0 -0.15122616269E-01  0.50417931783E-02 -0.45878080268E-01  0.48571314285E-01  0.51100000000E-03 0. -1.
         11    1    4    4    0    0 -0.15324732397E-01  0.34677418329E-01 -0.66399023951E-01  0.76462162327E-01  0.51100000000E-03 0.  1.
</event>
<event>
 8    1  0.1157726E+005  0.1043930E+01  0.7957747E-01            NaN
         13   -1    0    0    0    0  0.00000000000E+00  0.00000000000E+00  0.74505805969E-08  0.10566000000E+00  0.10566000000E+00 0.  1.
     999900   -1    0    0    0    0 -0.00000000000E+00 -0.00000000000E+00 -0.74505805969E-08  0.93827000000E+00  0.93827000000E+00 0. -1.
     999902    2    1    2    0    0  0.12917001228E-01 -0.75307587027E-02  0.18396659869E-01  0.10202234958E+01  0.10199480296E+01 0.  0.
     999903    2    3    3    0    0  0.68871331673E-01  0.10825096747E+00  0.16042369520E-01  0.13087438667E+00  0.20229067733E-01 0.  0.
         14    1    1    2    0    0 -0.12917001228E-01  0.75307587027E-02 -0.18396659869E-01  0.23706504207E-01  0.00000000000E+00 0. -1.
     999901    1    3    3    0    0 -0.55954330445E-01 -0.11578172618E+00  0.23542903492E-02  0.88934910912E+00  0.88000000000E+00 0. -1.
        -11    1    4    4    0    0  0.60605090904E-01  0.10350496872E+00  0.12120573288E-01  0.12055465570E+00  0.51100000000E-03 0.  1.
         11    1    4    4    0    0  0.82662407694E-02  0.47459987535E-02  0.39217962317E-02  0.10319730971E-01  0.51100000000E-03 0. -1.
</event>
<event>
 8    1  0.1157726E+005  0.1043930E+01  0.7957747E-01            NaN
         13   -1    0    0    0    0  0.00000000000E+00  0.00000000000E+00  0.74505805969E-08  0.10566000000E+00  0.10566000000E+00 0. -1.
     999900   -1    0    0    0    0 -0.00000000000E+00 -0.00000000000E+00 -0.74505805969E-08  0.93827000000E+00  0.93827000000E+00 0.  1.
     999902    2    1    2    0    0  0.47039175917E-02 -0.14006958703E-01 -0.17928224252E-01  0.10206976313E+01  0.10204331980E+01 0.  0.
     999903    2    3    3    0    0  0.59757701755E-01 -0.87120416652E-01 -0.79099727223E-01  0.13383887719E+00  0.22251478237E-01 0.  0.
         14    1    1    2    0    0 -0.47039175917E-02  0.14006958703E-01  0.17928224252E-01  0.23232368748E-01  0.00000000000E+00 0. -1.
     999901    1    3    3    0    0 -0.55053784163E-01  0.73113457948E-01  0.61171502971E-01  0.88685875406E+00  0.88000000000E+00 0. -1.
        -11    1    4    4    0    0  0.16458158126E-02 -0.99947657267E-02 -0.14346000241E-01  0.17569089207E-01  0.51100000000E-03 0.  1.
         11    1    4    4    0    0  0.58111885942E-01 -0.77125650925E-01 -0.64753726982E-01  0.11626978798E+00  0.51100000000E-03 0. -1.
</event>
<event>
 8    1  0.1157726E+005  0.1043930E+01  0.7957747E-01            NaN
         13   -1    0    0    0    0  0.00000000000E+00  0.00000000000E+00  0.74505805969E-08  0.10566000000E+00  0.10566000000E+00 0. -1.
     999900   -1    0    0    0    0 -0.00000000000E+00 -0.00000000000E+00 -0.74505805969E-08  0.93827000000E+00  0.93827000000E+00 0.  1.
     999902    2    1    2    0    0 -0.60486193930E-02  0.21646863715E-01 -0.88591975388E-02  0.10197709875E+01  0.10194847762E+01 0.  0.
     999903    2    3    3    0    0  0.14019212747E-01  0.41749182612E-01 -0.12275077797E+00  0.13197702872E+00  0.20264502003E-01 0.  0.
         14    1    1    2    0    0  0.60486193930E-02 -0.21646863715E-01  0.88591975388E-02  0.24159012527E-01  0.00000000000E+00 0. -1.
     999901    1    3    3    0    0 -0.20067832140E-01 -0.20102318897E-01  0.11389158043E+00  0.88779395876E+00  0.88000000000E+00 0. -1.
        -11    1    4    4    0    0  0.55483656405E-02  0.34785019896E-01 -0.73349840720E-01  0.81371015878E-01  0.51100000000E-03 0.  1.
         11    1    4    4    0    0  0.84708471065E-02  0.69641627159E-02 -0.49400937251E-01  0.50606012838E-01  0.51100000000E-03 0. -1.
</event>
<event>
 8    1  0.1157726E+005  0.1043930E+01  0.7957747E-01            NaN
         13   -1    0    0    0    0  0.00000000000E+00  0.00000000000E+00  0.74505805969E-08  0.10566000000E+00  0.10566000000E+00 0. -1.
     999900   -1    0    0    0    0 -0.00000000000E+00 -0.00000000000E+00 -0.74505805969E-08  0.93827000000E+00  0.93827000000E+00 0.  1.
     999902    2    1    2    0    0 -0.96165398308E-02  0.19962968061E-01  0.71053891180E-02  0.10206601808E+01  0.10203948844E+01 0.  0.
     999903    2    3    3    0    0 -0.90770447505E-01 -0.77568134019E-01 -0.46743702764E-01  0.12993126730E+00  0.21001688489E-01 0.  0.
         14    1    1    2    0    0  0.96165398308E-02 -0.19962968061E-01 -0.71053891180E-02  0.23269819222E-01  0.00000000000E+00 0.  1.
     999901    1    3    3    0    0  0.81153907674E-01  0.97531102080E-01  0.53849091882E-01  0.89072891347E+00  0.88000000000E+00 0.  1.
        -11    1    4    4    0    0 -0.41735565494E-01 -0.29154209323E-01 -0.10174928106E-01  0.51919318479E-01  0.51100000000E-03 0.  1.
         11    1    4    4    0    0 -0.49034882011E-01 -0.48413924696E-01 -0.36568774658E-01  0.78011948824E-01  0.51100000000E-03 0. -1.
</event>
<event>
 8    1  0.1157726E+005  0.1043930E+01  0.7957747E-01            NaN
         13   -1    0    0    0    0  0.00000000000E+00  0.00000000000E+00  0.74505805969E-08  0.10566000000E+00  0.10566000000E+00 0.  1.
     999900   -1    0    0    0    0 -0.00000000000E+00 -0.00000000000E+00 -0.74505805969E-08  0.93827000000E+00  0.93827000000E+00 0.  1.
     999902    2    1    2    0    0 -0.80438519132E-03  0.21475346151E-01 -0.65858679009E-02  0.10214530967E+01  0.10212057665E+01 0.  0.
     999903    2    3    3    0    0  0.23657881511E-01 -0.28814686276E-01  0.12309131506E+00  0.13019350393E+00  0.20221155255E-01 0.  0.
         14    1    1    2    0    0  0.80438519132E-03 -0.21475346151E-01  0.65858679009E-02  0.22476903342E-01  0.00000000000E+00 0.  1.
     999901    1    3    3    0    0 -0.24462266703E-01  0.50290032428E-01 -0.12967718296E+00  0.89125959273E+00  0.88000000000E+00 0.  1.
        -11    1    4    4    0    0  0.22850642433E-01 -0.17752517872E-01  0.10544611772E+00  0.10934554684E+00  0.51100000000E-03 0.  1.
         11    1    4    4    0    0  0.80723907804E-03 -0.11062168404E-01  0.17645197341E-01  0.20847957092E-01  0.51100000000E-03 0. -1.
</event>
<event>
 8    1  0.1157726E+005  0.1043930E+01  0.7957747E-01            NaN
         13   -1    0    0    0    0  0.00000000000E+00  0.00000000000E+00  0.74505805969E-08  0.10566000000E+00  0.10566000000E+00 0. -1.
     999900   -1    0    0    0    0 -0.00000000000E+00 -0.00000000000E+00 -0.74505805969E-08  0.93827000000E+00  0.93827000000E+00 0.  1.
     999902    2    1    2    0    0 -0.80098366057E-02 -0.56968943341E-02  0.21256592928E-01  0.10205108875E+01  0.10202421363E+01 0.  0.
     999903    2    3    3    0    0 -0.94671810862E-01  0.85305878094E-01 -0.20803708659E-01  0.13058905310E+00  0.19515683066E-01 0.  0.
         14    1    1    2    0    0  0.80098366057E-02  0.56968943341E-02 -0.21256592928E-01  0.23419112503E-01  0.00000000000E+00 0.  1.
     999901    1    3    3    0    0  0.86661974257E-01 -0.91002772428E-01  0.42060301587E-01  0.88992183440E+00  0.88000000000E+00 0. -1.
        -11    1    4    4    0    0 -0.23422948776E-01  0.13972627905E-01 -0.10546607163E-01  0.29246553704E-01  0.51100000000E-03 0.  1.
         11    1    4    4    0    0 -0.71248862086E-01  0.71333250189E-01 -0.10257101496E-01  0.10134249939E+00  0.51100000000E-03 0. -1.
</event>
<event>
 8    1  0.1157726E+005  0.1043930E+01  0.7957747E-01            NaN
         13   -1    0    0    0    0  0.00000000000E+00  0.00000000000E+00  0.74505805969E-08  0.10566000000E+00  0.10566000000E+00 0.  1.
     999900   -1    0    0    0    0 -0.00000000000E+00 -0.00000000000E+00 -0.74505805969E-08  0.93827000000E+00  0.93827000000E+00 0. -1.
     999902    2    1    2    0    0  0.16566413607E-01 -0.18498954815E-01 -0.36260976554E-02  0.10188340646E+01  0.10185249360E+01 0.  0.
     999903    2    3    3    0    0  0.11158209582E+00 -0.67982124387E-01 -0.70723982844E-02  0.13233057283E+00  0.19728870879E-01 0.  0.
         14    1    1    2    0    0 -0.16566413607E-01  0.18498954815E-01  0.36260976554E-02  0.25095935393E-01  0.00000000000E+00 0.  1.
     999901    1    3    3    0    0 -0.95015682210E-01  0.49483169572E-01  0.34463006291E-02  0.88650349177E+00  0.88000000000E+00 0.  1.
        -11    1    4    4    0    0  0.28517249356E-01 -0.86664303878E-02  0.18773858830E-02  0.29868482138E-01  0.51100000000E-03 0.  1.
         11    1    4    4    0    0  0.83064846461E-01 -0.59315693999E-01 -0.89497841674E-02  0.10246209070E+00  0.51100000000E-03 0. -1.
</event>
<event>
 8    1  0.1157726E+005  0.1043930E+01  0.7957747E-01            NaN
         13   -1    0    0    0    0  0.00000000000E+00  0.00000000000E+00  0.74505805969E-08  0.10566000000E+00  0.10566000000E+00 0.  1.
     999900   -1    0    0    0    0 -0.00000000000E+00 -0.00000000000E+00 -0.74505805969E-08  0.93827000000E+00  0.93827000000E+00 0. -1.
     999902    2    1    2    0    0 -0.16391170476E-01 -0.18788240383E-01 -0.43727028990E-02  0.10186161900E+01  0.10183016024E+01 0.  0.
     999903    2    3    3    0    0 -0.61044871762E-01  0.77834047789E-01 -0.80606381394E-01  0.12893006931E+00  0.18465066650E-01 0.  0.
         14    1    1    2    0    0  0.16391170476E-01  0.18788240383E-01  0.43727028990E-02  0.25313810004E-01  0.00000000000E+00 0. -1.
     999901    1    3    3    0    0  0.44653701285E-01 -0.96622288172E-01  0.76233678495E-01  0.88968612069E+00  0.88000000000E+00 0.  1.
        -11    1    4    4    0    0 -0.59121055607E-01  0.75291506854E-01 -0.72140225508E-01  0.11986902635E+00  0.51100000000E-03 0. -1.
         11    1    4    4    0    0 -0.19238161554E-02  0.25425409350E-02 -0.84661558863E-02  0.90610429585E-02  0.51100000000E-03 0.  1.
</event>
<event>
 8    1  0.1157726E+005  0.1043930E+01  0.7957747E-01            NaN
         13   -1    0    0    0    0  0.00000000000E+00  0.00000000000E+00  0.74505805969E-08  0.10566000000E+00  0.10566000000E+00 0. -1.
     999900   -1    0    0    0    0 -0.00000000000E+00 -0.00000000000E+00 -0.74505805969E-08  0.93827000000E+00  0.93827000000E+00 0. -1.
     999902    2    1    2    0    0 -0.14870138256E-01  0.14077817352E-01 -0.11409711945E-01  0.10204888507E+01  0.10202195876E+01 0.  0.
     999903    2    3    3    0    0 -0.83264762587E-01  0.19608904341E-01  0.97522424511E-01  0.13112130694E+00  0.19095654847E-01 0.  0.
         14    1    1    2    0    0  0.14870138256E-01 -0.14077817352E-01  0.11409711945E-01  0.23441149286E-01  0.00000000000E+00 0. -1.
     999901    1    3    3    0    0  0.68394624330E-01 -0.55310869891E-02 -0.10893213646E+00  0.88936754377E+00  0.88000000000E+00 0. -1.
        -11    1    4    4    0    0 -0.35771046396E-01 -0.84049753680E-03  0.36122988970E-01  0.50846884364E-01  0.51100000000E-03 0.  1.
         11    1    4    4    0    0 -0.47493716190E-01  0.20449401878E-01  0.61399435541E-01  0.80274422579E-01  0.51100000000E-03 0. -1.
</event>
<event>
 8    1  0.1157726E+005  0.1043930E+01  0.7957747E-01            NaN
         13   -1    0    0    0    0  0.00000000000E+00  0.00000000000E+00  0.74505805969E-08  0.10566000000E+00  0.10566000000E+00 0. -1.
     999900   -1    0    0    0    0 -0.00000000000E+00 -0.00000000000E+00 -0.74505805969E-08  0.93827000000E+00  0.93827000000E+00 0. -1.
     999902    2    1    2    0    0  0.67943004680E-02  0.10340207473E-01  0.20592366598E-01  0.10199065121E+01  0.10196235410E+01 0.  0.
     999903    2    3    3    0    0 -0.12040334736E+00 -0.32291552617E-01 -0.24992297312E-01  0.12857342611E+00  0.19152037746E-01 0.  0.
         14    1    1    2    0    0 -0.67943004680E-02 -0.10340207473E-01 -0.20592366598E-01  0.24023487913E-01  0.00000000000E+00 0.  1.
     999901    1    3    3    0    0  0.12719764783E+00  0.42631760091E-01  0.45584663909E-01  0.89133308598E+00  0.88000000000E+00 0.  1.
        -11    1    4    4    0    0 -0.10822705334E+00 -0.25644377869E-01 -0.16890189620E-01  0.11250008364E+00  0.51100000000E-03 0. -1.
         11    1    4    4    0    0 -0.12176294016E-01 -0.66471747489E-02 -0.81021076916E-02  0.16073342470E-01  0.51100000000E-03 0.  1.
</event>
<event>
 8    1  0.1157726E+005  0.1043930E+01  0.7957747E-01            NaN
         13   -1    0    0    0    0  0.00000000000E+00  0.00000000000E+00  0.74505805969E-08  0.10566000000E+00  0.10566000000E+00 0.  1.
     999900   -1    0    0    0    0 -0.00000000000E+00 -0.00000000000E+00 -0.74505805969E-08  0.93827000000E+00  0.93827000000E+00 0.  1.
     999902    2    1    2    0    0  0.69781827959E-02 -0.23489618196E-01 -0.12079992740E-01  0.10166099813E+01  0.10162428207E+01 0.  0.
     999903    2    3    3    0    0  0.37676052332E-01  0.34363834488E-01 -0.11499297281E+00  0.12819540314E+00  0.24704646378E-01 0.  0.
         14    1    1    2    0    0 -0.69781827959E-02  0.23489618196E-01  0.12079992740E-01  0.27320018718E-01  0.00000000000E+00 0.  1.
     999901    1    3    3    0    0 -0.30697869536E-01 -0.57853452684E-01  0.10291298007E+00  0.88841457814E+00  0.88000000000E+00 0.  1.
        -11    1    4    4    0    0  0.23344591367E-01  0.26670054298E-01 -0.50620937667E-01  0.61798075970E-01  0.51100000000E-03 0.  1.
         11    1    4    4    0    0  0.14331460965E-01  0.76937801902E-02 -0.64372035138E-01  0.66397327174E-01  0.51100000000E-03 0. -1.
</event>
<event>
 8    1  0.1157726E+005  0.1043930E+01  0.7957747E-01            NaN
         13   -1    0    0    0    0  0.00000000000E+00  0.00000000000E+00  0.74505805969E-08  0.10566000000E+00  0.10566000000E+00 0.  1.
     999900   -1    0    0    0    0 -0.00000000000E+00 -0.00000000000E+00 -0.74505805969E-08  0.93827000000E+00  0.93827000000E+00 0.  1.
     999902    2    1    2    0    0  0.14631195276E-01 -0.13707582077E-01  0.68095288013E-02  0.10227559743E+01  0.10225367688E+01 0.  0.
     999903    2    3    3    0    0  0.56135607540E-01  0.11236687598E+00 -0.34738706762E-01  0.13183305896E+00  0.19891114494E-01 0.  0.
         14    1    1    2    0    0 -0.14631195276E-01  0.13707582077E-01 -0.68095288013E-02  0.21174025694E-01  0.00000000000E+00 0. -1.
     999901    1    3    3    0    0 -0.41504412263E-01 -0.12607445806E+00  0.41548235563E-01  0.89092291535E+00  0.88000000000E+00 0.  1.
        -11    1    4    4    0    0  0.28721497407E-01  0.54470518986E-01 -0.27233489987E-01  0.67334136585E-01  0.51100000000E-03 0. -1.
         11    1    4    4    0    0  0.27414110133E-01  0.57896356993E-01 -0.75052167756E-02  0.64498922373E-01  0.51100000000E-03 0.  1.
</event>
<event>
 8    1  0.1157726E+005  0.1043930E+01  0.7957747E-01            NaN
         13   -1    0    0    0    0  0.00000000000E+00  0.00000000000E+00  0.74505805969E-08  0.10566000000E+00  0.10566000000E+00 0.  1.
     999900   -1    0    0    0    0 -0.00000000000E+00 -0.00000000000E+00 -0.74505805969E-08  0.93827000000E+00  0.93827000000E+00 0. -1.
     999902    2    1    2    0    0 -0.31933354329E-02  0.26446635308E-01  0.32917696994E-02  0.10170886577E+01  0.10167344196E+01 0.  0.
     999903    2    3    3    0    0  0.49938437799E-01  0.30922233209E-01  0.11275704294E+00  0.12870492169E+00  0.20019342149E-01 0.  0.
         14    1    1    2    0    0  0.31933354329E-02 -0.26446635308E-01 -0.32917696994E-02  0.26841342330E-01  0.00000000000E+00 0. -1.
     999901    1    3    3    0    0 -0.53131773232E-01 -0.44755979007E-02 -0.10946527324E+00  0.88838373598E+00  0.88000000000E+00 0. -1.
        -11    1    4    4    0    0  0.34673790482E-01  0.30724667684E-01  0.77694803270E-01  0.90460049342E-01  0.51100000000E-03 0. -1.
         11    1    4    4    0    0  0.15264647317E-01  0.19756552469E-03  0.35062239665E-01  0.38244872352E-01  0.51100000000E-03 0.  1.
</event>
<event>
 8    1  0.1157726E+005  0.1043930E+01  0.7957747E-01            NaN
         13   -1    0    0    0    0  0.00000000000E+00  0.00000000000E+00  0.74505805969E-08  0.10566000000E+00  0.10566000000E+00 0.  1.
     999900   -1    0    0    0    0 -0.00000000000E+00 -0.00000000000E+00 -0.74505805969E-08  0.93827000000E+00  0.93827000000E+00 0.  1.
     999902    2    1    2    0    0 -0.57130388970E-02 -0.15277427174E-01 -0.16475098859E-01  0.10207466552E+01  0.10204833495E+01 0.  0.
     999903    2    3    3    0    0 -0.76244650686E-01 -0.66568242784E-02 -0.10742125114E+00  0.13321061328E+00  0.18659641637E-01 0.  0.
         14    1    1    2    0    0  0.57130388970E-02  0.15277427174E-01  0.16475098859E-01  0.23183344817E-01  0.00000000000E+00 0.  1.
     999901    1    3    3    0    0  0.70531611789E-01 -0.86206028955E-02  0.90946152286E-01  0.88753604190E+00  0.88000000000E+00 0.  1.
        -11    1    4    4    0    0 -0.44371281549E-01 -0.59475766919E-02 -0.77401551584E-01  0.89417255624E-01  0.51100000000E-03 0.  1.
         11    1    4    4    0    0 -0.31873369137E-01 -0.70924758652E-03 -0.30019699561E-01  0.43793357659E-01  0.51100000000E-03 0. -1.
</event>
<event>
 8    1  0.1157726E+005  0.1043930E+01  0.7957747E-01            NaN
         13   -1    0    0    0    0  0.00000000000E+00  0.00000000000E+00  0.74505805969E-08  0.10566000000E+00  0.10566000000E+00 0. -1.
     999900   -1    0    0    0    0 -0.00000000000E+00 -0.00000000000E+00 -0.74505805969E-08  0.93827000000E+00  0.93827000000E+00 0.  1.
     999902    2    1    2    0    0 -0.70742948271E-02 -0.20882397324E-01  0.67061585438E-02  0.10208845508E+01  0.10206244037E+01 0.  0.
     999903    2    3    3    0    0  0.23584602473E-01 -0.79706741843E-02 -0.12669493950E+00  0.13020922640E+00  0.16824678987E-01 0.  0.
         14    1    1    2    0    0  0.70742948271E-02  0.20882397324E-01 -0.67061585438E-02  0.23045449176E-01  0.00000000000E+00 0. -1.
     999901    1    3    3    0    0 -0.30658897300E-01 -0.12911723140E-01  0.13340109805E+00  0.89067532442E+00  0.88000000000E+00 0. -1.
        -11    1    4    4    0    0  0.14444118969E-01 -0.28662074918E-02 -0.10591900219E+00  0.10693897262E+00  0.51100000000E-03 0. -1.
         11    1    4    4    0    0  0.91404835037E-02 -0.51044666925E-02 -0.20775937310E-01  0.23270253780E-01  0.51100000000E-03 0.  1.
</event>
<event>
 8    1  0.1157726E+005  0.1043930E+01  0.7957747E-01            NaN
         13   -1    0    0    0    0  0.00000000000E+00  0.00000000000E+00  0.74505805969E-08  0.10566000000E+00  0.10566000000E+00 0.  1.
     999900   -1    0    0    0    0 -0.00000000000E+00 -0.00000000000E+00 -0.74505805969E-08  0.93827000000E+00  0.93827000000E+00 0. -1.
     999902    2    1    2    0    0 -0.12032489670E-01 -0.10506174474E-01 -0.16887012125E-01  0.10206849642E+01  0.10204202392E+01 0.  0.
     999903    2    3    3    0    0 -0.82694170723E-01  0.71341925807E-01  0.68372126612E-01  0.12997664753E+00  0.17064142410E-01 0.  0.
         14    1    1    2    0    0  0.12032489670E-01  0.10506174474E-01  0.16887012125E-01  0.23245035777E-01  0.00000000000E+00 0.  1.
     999901    1    3    3    0    0  0.70661681052E-01 -0.81848100281E-01 -0.85259138737E-01  0.89070831669E+00  0.88000000000E+00 0. -1.
        -11    1    4    4    0    0 -0.61585582439E-01  0.61965474890E-01  0.52143732960E-01  0.10174347178E+00  0.51100000000E-03 0. -1.
         11    1    4    4    0    0 -0.21108588284E-01  0.93764509164E-02  0.16228393652E-01  0.28233175745E-01  0.51100000000E-03 0.  1.
</event>
<event>
 8    1  0.1157726E+005  0.1043930E+01  0.7957747E-01            NaN
         13   -1    0    0    0    0  0.00000000000E+00  0.00000000000E+00  0.74505805969E-08  0.10566000000E+00  0.10566000000E+00 0. -1.
     999900   -1    0    0    0    0 -0.00000000000E+00 -0.00000000000E+00 -0.74505805969E-08  0.93827000000E+00  0.93827000000E+00 0. -1.
     999902    2    1    2    0    0 -0.13607470600E-01 -0.71035190290E-02 -0.17810299742E-01  0.10204176625E+01  0.10201467423E+01 0.  0.
     999903    2    3    3    0    0 -0.32402084947E-01 -0.12345606259E+00  0.20895670401E-01  0.13171675439E+00  0.24927491746E-01 0.  0.
         14    1    1    2    0    0  0.13607470600E-01  0.71035190290E-02  0.17810299742E-01  0.23512337520E-01  0.00000000000E+00 0. -1.
     999901    1    3    3    0    0  0.18794614347E-01  0.11635254356E+00 -0.38705970143E-01  0.88870090809E+00  0.88000000000E+00 0. -1.
        -11    1    4    4    0    0 -0.21028794038E-01 -0.53047752588E-01  0.19742531646E-01  0.60384624783E-01  0.51100000000E-03 0. -1.
         11    1    4    4    0    0 -0.11373290909E-01 -0.70408310005E-01  0.11531387547E-02  0.71332129604E-01  0.51100000000E-03 0.  1.
</event>
<event>
 8    1  0.1157726E+005  0.1043930E+01  0.7957747E-01            NaN
         13   -1    0    0    0    0  0.00000000000E+00  0.00000000000E+00  0.74505805969E-08  0.10566000000E+00  0.10566000000E+00 0.  1.
     999900   -1    0    0    0    0 -0.00000000000E+00 -0.00000000000E+00 -0.74505805969E-08  0.93827000000E+00  0.93827000000E+00 0. -1.
     999902    2    1    2    0    0  0.13000703248E-02  0.13292930730E-01 -0.21686606988E-01  0.10184603884E+01  0.10181418672E+01 0.  0.
     999903    2    3    3    0    0 -0.42199000937E-01 -0.10176339645E+00 -0.64470615573E-01  0.12887587924E+00  0.17776035535E-01 0.  0.
         14    1    1    2    0    0 -0.13000703248E-02 -0.13292930730E-01  0.21686606988E-01  0.25469611558E-01  0.00000000000E+00 0.  1.
     999901    1    3    3    0    0  0.43499071262E-01  0.11505632718E+00  0.42784008584E-01  0.88958450920E+00  0.88000000000E+00 0.  1.
        -11    1    4    4    0    0 -0.70692077517E-02 -0.50787917605E-02 -0.52029130106E-02  0.10153780024E-01  0.51100000000E-03 0. -1.
         11    1    4    4    0    0 -0.35129793186E-01 -0.96684604692E-01 -0.59267702562E-01  0.11872209921E+00  0.51100000000E-03 0.  1.
</event>
<event>
 8    1  0.1157726E+005  0.1043930E+01  0.7957747E-01            NaN
         13   -1    0    0    0    0  0.00000000000E+00  0.00000000000E+00  0.74505805969E-08  0.10566000000E+00  0.10566000000E+00 0. -1.
     999900   -1    0    0    0    0 -0.00000000000E+00 -0.00000000000E+00 -0.74505805969E-08  0.93827000000E+00  0.93827000000E+00 0.  1.
     999902    2    1    2    0    0  0.61514088501E-02 -0.15706816733E-01 -0.17888431628E-01  0.10193426067E+01  0.10190460294E+01 0.  0.
     999903    2    3    3    0    0 -0.34308034482E-03  0.17576907992E-01 -0.12907402156E+00  0.13169840990E+00  0.19372731581E-01 0.  0.
         14    1    1    2    0    0 -0.61514088501E-02  0.15706816733E-01  0.17888431628E-01  0.24587393291E-01  0.00000000000E+00 0. -1.
     999901    1    3    3    0    0  0.64944891949E-02 -0.33283724725E-01  0.11118558993E+00  0.88764419681E+00  0.88000000000E+00 0. -1.
        -11    1    4    4    0    0 -0.58521831945E-02  0.67879916287E-02 -0.96910624327E-01  0.97325511080E-01  0.51100000000E-03 0.  1.
         11    1    4    4    0    0  0.55091028496E-02  0.10788916363E-01 -0.32163397236E-01  0.34372898819E-01  0.51100000000E-03 0. -1.
</event>
<event>
 8    1  0.1157726E+005  0.1043930E+01  0.7957747E-01            NaN
         13   -1    0    0    0    0  0.00000000000E+00  0.00000000000E+00  0.74505805969E-08  0.10566000000E+00  0.10566000000E+00 0.  1.
     999900   -1    0    0    0    0 -0.00000000000E+00 -0.00000000000E+00 -0.74505805969E-08  0.93827000000E+00  0.93827000000E+00 0.  1.
     999902    2    1    2    0    0 -0.23089371963E-01  0.39095000412E-02 -0.52047450393E-02  0.10199405719E+01  0.10196584122E+01 0.  0.
     999903    2    3    3    0    0 -0.70685110902E-01  0.71439089342E-01 -0.83341788023E-01  0.13262383182E+00  0.23308769721E-01 0.  0.
         14    1    1    2    0    0  0.23089371963E-01 -0.39095000412E-02  0.52047450393E-02  0.23989428070E-01  0.00000000000E+00 0.  1.
     999901    1    3    3    0    0  0.47595738939E-01 -0.67529589301E-01  0.78137042984E-01  0.88731674011E+00  0.88000000000E+00 0. -1.
        -11    1    4    4    0    0 -0.24944539176E-01  0.22051009214E-01 -0.42104347761E-01  0.53679737923E-01  0.51100000000E-03 0.  1.
         11    1    4    4    0    0 -0.45740571726E-01  0.49388080129E-01 -0.41237440262E-01  0.78944093895E-01  0.51100000000E-03 0. -1.
</event>
<event>
 8    1  0.1157726E+005  0.1043930E+01  0.7957747E-01            NaN
         13   -1    0    0    0    0  0.00000000000E+00  0.00000000000E+00  0.74505805969E-08  0.10566000000E+00  0.10566000000E+00 0.  1.
     999900   -1    0    0    0    0 -0.00000000000E+00 -0.00000000000E+00 -0.74505805969E-08  0.93827000000E+00  0.93827000000E+00 0.  1.
     999902    2    1    2    0    0  0.89637131585E-02 -0.16455443808E-01 -0.19743699969E-01  0.10167097231E+01  0.10163452748E+01 0.  0.
     999903    2    3    3    0    0 -0.11482839030E+00  0.45149388259E-01 -0.12817984976E-01  0.12588560708E+00  0.21420990888E-01 0.  0.
         14    1    1    2    0    0 -0.89637131585E-02  0.16455443808E-01  0.19743699969E-01  0.27220276872E-01  0.00000000000E+00 0.  1.
     999901    1    3    3    0    0  0.12379210346E+00 -0.61604832068E-01 -0.69257149933E-02  0.89082411605E+00  0.88000000000E+00 0. -1.
        -11    1    4    4    0    0 -0.40108678755E-01  0.24361686931E-01  0.17821867603E-02  0.46964190744E-01  0.51100000000E-03 0.  1.
         11    1    4    4    0    0 -0.74719711546E-01  0.20787701328E-01 -0.14600171736E-01  0.78921416332E-01  0.51100000000E-03 0. -1.
</event>
<event>
 8    1  0.1157726E+005  0.1043930E+01  0.7957747E-01            NaN
         13   -1    0    0    0    0  0.00000000000E+00  0.00000000000E+00  0.74505805969E-08  0.10566000000E+00  0.10566000000E+00 0.  1.
     999900   -1    0    0    0    0 -0.00000000000E+00 -0.00000000000E+00 -0.74505805969E-08  0.93827000000E+00  0.93827000000E+00 0.  1.
     999902    2    1    2    0    0  0.21299775358E-02 -0.17875085971E-01  0.14709807325E-01  0.10206827650E+01  0.10204179893E+01 0.  0.
     999903    2    3    3    0    0  0.29534850549E-01  0.10435918011E+00  0.69169377000E-01  0.13014467622E+00  0.19750649692E-01 0.  0.
         14    1    1    2    0    0 -0.21299775358E-02  0.17875085971E-01 -0.14709807325E-01  0.23247234982E-01  0.00000000000E+00 0.  1.
     999901    1    3    3    0    0 -0.27404873013E-01 -0.12223426608E+00 -0.54459569675E-01  0.89053808880E+00  0.88000000000E+00 0.  1.
        -11    1    4    4    0    0  0.17886857455E-01  0.52957272078E-01  0.24409012033E-01  0.60995682839E-01  0.51100000000E-03 0.  1.
         11    1    4    4    0    0  0.11647993094E-01  0.51401908035E-01  0.44760364967E-01  0.69148993382E-01  0.51100000000E-03 0. -1.
</event>
<event>
 8    1  0.1157726E+005  0.1043930E+01  0.7957747E-01            NaN
         13   -1    0    0    0    0  0.00000000000E+00  0.00000000000E+00  0.74505805969E-08  0.10566000000E+00  0.10566000000E+00 0.  1.
     999900   -1    0    0    0    0 -0.00000000000E+00 -0.00000000000E+00 -0.74505805969E-08  0.93827000000E+00  0.93827000000E+00 0.  1.
     999902    2    1    2    0    0  0.30151184417E-02  0.98101514696E-02  0.22335630838E-01  0.10193493081E+01  0.10190528943E+01 0.  0.
     999903    2    3    3    0    0  0.77774608452E-01 -0.10037095072E+00 -0.87082366679E-02  0.12879185437E+00  0.19705098227E-01 0.  0.
         14    1    1    2    0    0 -0.30151184417E-02 -0.98101514696E-02 -0.22335630838E-01  0.24580691935E-01  0.00000000000E+00 0. -1.
     999901    1    3    3    0    0 -0.74759490011E-01  0.11018110219E+00  0.31043867506E-01  0.89055745370E+00  0.88000000000E+00 0.  1.
        -11    1    4    4    0    0  0.17402413544E-01 -0.37383910747E-01 -0.20919090453E-02  0.41292105594E-01  0.51100000000E-03 0. -1.
         11    1    4    4    0    0  0.60372194908E-01 -0.62987039977E-01 -0.66163276225E-02  0.87499748773E-01  0.51100000000E-03 0.  1.
</event>
<event>
 8    1  0.1157726E+005  0.1043930E+01  0.7957747E-01            NaN
         13   -1    0    0    0    0  0.00000000000E+00  0.00000000000E+00  0.74505805969E-08  0.10566000000E+00  0.10566000000E+00 0. -1.
     999900   -1    0    0    0    0 -0.00000000000E+00 -0.00000000000E+00 -0.74505805969E-08  0.93827000000E+00  0.93827000000E+00 0. -1.
     999902    2    1    2    0    0 -0.18812213794E-01 -0.12388177528E-01  0.70361860769E-02  0.10203318169E+01  0.10200588916E+01 0.  0.
     999903    2    3    3    0    0 -0.12390018876E-01  0.31817820994E-01  0.12512523067E+00  0.13132088484E+00  0.20566116423E-01 0.  0.
         14    1    1    2    0    0  0.18812213794E-01  0.12388177528E-01 -0.70361860769E-02  0.23598183083E-01  0.00000000000E+00 0.  1.
     999901    1    3    3    0    0 -0.64221949179E-02 -0.44205998522E-01 -0.11808904460E+00  0.88901093207E+00  0.88000000000E+00 0. -1.
        -11    1    4    4    0    0  0.72303294747E-03  0.34442602754E-02  0.47562073921E-01  0.47694839366E-01  0.51100000000E-03 0. -1.
         11    1    4    4    0    0 -0.13113051823E-01  0.28373560718E-01  0.77563156752E-01  0.83626045478E-01  0.51100000000E-03 0.  1.
</event>
<event>
 8    1  0.1157726E+005  0.1043930E+01  0.7957747E-01            NaN
         13   -1    0    0    0    0  0.00000000000E+00  0.00000000000E+00  0.74505805969E-08  0.10566000000E+00  0.10566000000E+00 0. -1.
     999900   -1    0    0    0    0 -0.00000000000E+00 -0.00000000000E+00 -0.74505805969E-08  0.93827000000E+00  0.93827000000E+00 0.  1.
     999902    2    1    2    0    0  0.11668586223E-01 -0.92975284505E-02 -0.17886866630E-01  0.10206375133E+01  0.10203716938E+01 0.  0.
     999903    2    3    3    0    0  0.77923695991E-01  0.45983640210E-01  0.91932879604E-01  0.12962341472E+00  0.12805378802E-01 0.  0.
         14    1    1    2    0    0 -0.11668586223E-01  0.92975284505E-02  0.17886866630E-01  0.23292486719E-01  0.00000000000E+00 0. -1.
     999901    1    3    3    0    0 -0.66255109768E-01 -0.55281168660E-01 -0.10981974623E+00  0.89101409857E+00  0.88000000000E+00 0.  1.
        -11    1    4    4    0    0  0.39905846916E-01  0.16150951825E-01  0.43281522187E-01  0.61048187089E-01  0.51100000000E-03 0. -1.
         11    1    4    4    0    0  0.38017849075E-01  0.29832688385E-01  0.48651357417E-01  0.68575227627E-01  0.51100000000E-03 0.  1.
</event>
<event>
 8    1  0.1157726E+005  0.1043930E+01  0.7957747E-01            NaN
         13   -1    0    0    0    0  0.00000000000E+00  0.00000000000E+00  0.74505805969E-08  0.10566000000E+00  0.10566000000E+00 0.  1.
     999900   -1    0    0    0    0 -0.00000000000E+00 -0.00000000000E+00 -0.74505805969E-08  0.93827000000E+00  0.93827000000E+00 0.  1.
     999902    2    1    2    0    0  0.51619927101E-02 -0.73878790703E-02  0.22162770162E-01  0.10200047977E+01  0.10197241646E+01 0.  0.
     999903    2    3    3    0    0 -0.10467962069E+00 -0.38863087103E-01  0.66539740722E-01  0.13150877388E+00  0.19971429191E-01 0.  0.
         14    1    1    2    0    0 -0.51619927101E-02  0.73878790703E-02 -0.22162770162E-01  0.23925202343E-01  0.00000000000E+00 0. -1.
     999901    1    3    3    0    0  0.10984161340E+00  0.31475208033E-01 -0.44376970560E-01  0.88849602378E+00  0.88000000000E+00 0. -1.
        -11    1    4    4    0    0 -0.57054139184E-01 -0.31236192598E-01  0.41545099397E-01  0.77182452222E-01  0.51100000000E-03 0.  1.
         11    1    4    4    0    0 -0.47625481508E-01 -0.76268945054E-02  0.24994641325E-01  0.54326321656E-01  0.51100000000E-03 0. -1.
</event>
<event>
 8    1  0.1157726E+005  0.1043930E+01  0.7957747E-01            NaN
         13   -1    0    0    0    0  0.00000000000E+00  0.00000000000E+00  0.74505805969E-08  0.10566000000E+00  0.10566000000E+00 0.  1.
     999900   -1    0    0    0    0 -0.00000000000E+00 -0.00000000000E+00 -0.74505805969E-08  0.93827000000E+00  0.93827000000E+00 0.  1.
     999902    2    1    2    0    0 -0.16117365366E-01  0.30709197665E-01 -0.12237544657E-01  0.10071525370E+01  0.10064808249E+01 0.  0.
     999903    2    3    3    0    0  0.80975116838E-02  0.31650915577E-01 -0.11463389558E+00  0.12088380809E+00  0.20115041439E-01 0.  0.
         14    1    1    2    0    0  0.16117365366E-01 -0.30709197665E-01  0.12237544657E-01  0.36777463029E-01  0.00000000000E+00 0. -1.
     999901    1    3    3    0    0 -0.24214877049E-01 -0.94171791183E-03  0.10239635092E+00  0.88626872888E+00  0.88000000000E+00 0. -1.
        -11    1    4    4    0    0  0.85030880497E-02  0.28486348841E-01 -0.68972043624E-01  0.75107779220E-01  0.51100000000E-03 0. -1.
         11    1    4    4    0    0 -0.40557636596E-03  0.31645667362E-02 -0.45661851952E-01  0.45776028875E-01  0.51100000000E-03 0.  1.
</event>
<event>
 8    1  0.1157726E+005  0.1043930E+01  0.7957747E-01            NaN
         13   -1    0    0    0    0  0.00000000000E+00  0.00000000000E+00  0.74505805969E-08  0.10566000000E+00  0.10566000000E+00 0. -1.
     999900   -1    0    0    0    0 -0.00000000000E+00 -0.00000000000E+00 -0.74505805969E-08  0.93827000000E+00  0.93827000000E+00 0.  1.
     999902    2    1    2    0    0 -0.19401053169E-01 -0.16079163810E-01  0.18933682803E-02  0.10186609435E+01  0.10183474813E+01 0.  0.
     999903    2    3    3    0    0 -0.38728762371E-01 -0.82622940874E-01 -0.91516497309E-01  0.13100840022E+00  0.21481719077E-01 0.  0.
         14    1    1    2    0    0  0.19401053169E-01  0.16079163810E-01 -0.18933682803E-02  0.25269056499E-01  0.00000000000E+00 0. -1.
     999901    1    3    3    0    0  0.19327709202E-01  0.66543777064E-01  0.93409865589E-01  0.88765254328E+00  0.88000000000E+00 0. -1.
        -11    1    4    4    0    0 -0.89637055867E-02 -0.30487257941E-01 -0.44845462048E-01  0.54965420966E-01  0.51100000000E-03 0. -1.
         11    1    4    4    0    0 -0.29765056784E-01 -0.52135682932E-01 -0.46671035260E-01  0.76042979252E-01  0.51100000000E-03 0.  1.
</event>
<event>
 8    1  0.1157726E+005  0.1043930E+01  0.7957747E-01            NaN
         13   -1    0    0    0    0  0.00000000000E+00  0.00000000000E+00  0.74505805969E-08  0.10566000000E+00  0.10566000000E+00 0.  1.
     999900   -1    0    0    0    0 -0.00000000000E+00 -0.00000000000E+00 -0.74505805969E-08  0.93827000000E+00  0.93827000000E+00 0.  1.
     999902    2    1    2    0    0  0.46131439041E-02  0.90264801706E-02 -0.21652014989E-01  0.10200225076E+01  0.10197422948E+01 0.  0.
     999903    2    3    3    0    0 -0.46133334854E-01  0.11720533414E+00 -0.33434738618E-01  0.13186897235E+00  0.20153639532E-01 0.  0.
         14    1    1    2    0    0 -0.46131439041E-02 -0.90264801706E-02  0.21652014989E-01  0.23907492424E-01  0.00000000000E+00 0.  1.
     999901    1    3    3    0    0  0.50746478758E-01 -0.10817885397E+00  0.11782723629E-01  0.88815353522E+00  0.88000000000E+00 0. -1.
        -11    1    4    4    0    0 -0.28841819374E-01  0.52188268476E-01 -0.22360630422E-01  0.63684572898E-01  0.51100000000E-03 0.  1.
         11    1    4    4    0    0 -0.17291515480E-01  0.65017065668E-01 -0.11074108196E-01  0.68184399455E-01  0.51100000000E-03 0. -1.
</event>
<event>
 8    1  0.1157726E+005  0.1043930E+01  0.7957747E-01            NaN
         13   -1    0    0    0    0  0.00000000000E+00  0.00000000000E+00  0.74505805969E-08  0.10566000000E+00  0.10566000000E+00 0.  1.
     999900   -1    0    0    0    0 -0.00000000000E+00 -0.00000000000E+00 -0.74505805969E-08  0.93827000000E+00  0.93827000000E+00 0.  1.
     999902    2    1    2    0    0 -0.15176573834E-01  0.84462515722E-02  0.18226777639E-01  0.10187529672E+01  0.10184418123E+01 0.  0.
     999903    2    3    3    0    0 -0.45522878065E-01  0.92164185596E-01 -0.75747751765E-01  0.12928076253E+00  0.20229288870E-01 0.  0.
         14    1    1    2    0    0  0.15176573834E-01 -0.84462515722E-02 -0.18226777639E-01  0.25177032829E-01  0.00000000000E+00 0. -1.
     999901    1    3    3    0    0  0.30346304231E-01 -0.83717934024E-01  0.93974529405E-01  0.88947220464E+00  0.88000000000E+00 0.  1.
        -11    1    4    4    0    0 -0.40418182000E-01  0.61443150259E-01 -0.55383337119E-01  0.92067721279E-01  0.51100000000E-03 0.  1.
         11    1    4    4    0    0 -0.51046960646E-02  0.30721035336E-01 -0.20364414646E-01  0.37213041248E-01  0.51100000000E-03 0. -1.
</event>
<event>
 8    1  0.1157726E+005  0.1043930E+01  0.7957747E-01            NaN
         13   -1    0    0    0    0  0.00000000000E+00  0.00000000000E+00  0.74505805969E-08  0.10566000000E+00  0.10566000000E+00 0. -1.
     999900   -1    0    0    0    0 -0.00000000000E+00 -0.00000000000E+00 -0.74505805969E-08  0.93827000000E+00  0.93827000000E+00 0. -1.
     999902    2    1    2    0    0  0.22617091571E-01  0.98784810104E-04  0.28477698995E-02  0.10211341148E+01  0.10208796344E+01 0.  0.
     999903    2    3    3    0    0 -0.40754979269E-01 -0.92267535537E-01 -0.79797164559E-01  0.13019206184E+00  0.20201956501E-01 0.  0.
         14    1    1    2    0    0 -0.22617091571E-01 -0.98784810104E-04 -0.28477698995E-02  0.22795885220E-01  0.00000000000E+00 0.  1.
     999901    1    3    3    0    0  0.63372070840E-01  0.92366320347E-01  0.82644934459E-01  0.89094205294E+00  0.88000000000E+00 0.  1.
        -11    1    4    4    0    0 -0.22518588039E-01 -0.59634810985E-01 -0.38433176623E-01  0.74436333029E-01  0.51100000000E-03 0. -1.
         11    1    4    4    0    0 -0.18236391230E-01 -0.32632724552E-01 -0.41363987936E-01  0.55755728816E-01  0.51100000000E-03 0.  1.
</event>
<event>
 8    1  0.1157726E+005  0.1043930E+01  0.7957747E-01            NaN
         13   -1    0    0    0    0  0.00000000000E+00  0.00000000000E+00  0.74505805969E-08  0.10566000000E+00  0.10566000000E+00 0. -1.
     999900   -1    0    0    0    0 -0.00000000000E+00 -0.00000000000E+00 -0.74505805969E-08  0.93827000000E+00  0.93827000000E+00 0. -1.
     999902    2    1    2    0    0  0.15287334520E-02  0.44212556563E-02 -0.23774159247E-01  0.10196999530E+01  0.10194120360E+01 0.  0.
     999903    2    3    3    0    0  0.52901754992E-01 -0.68138307939E-01 -0.98192879831E-01  0.13209518538E+00  0.19127771971E-01 0.  0.
         14    1    1    2    0    0 -0.15287334520E-02 -0.44212556563E-02  0.23774159247E-01  0.24230046955E-01  0.00000000000E+00 0. -1.
     999901    1    3    3    0    0 -0.51373021540E-01  0.72559563595E-01  0.74418720584E-01  0.88760476767E+00  0.88000000000E+00 0.  1.
        -11    1    4    4    0    0  0.36981536970E-01 -0.33199876051E-01 -0.60384415430E-01  0.78207445901E-01  0.51100000000E-03 0. -1.
         11    1    4    4    0    0  0.15920218022E-01 -0.34938431888E-01 -0.37808464401E-01  0.53887739477E-01  0.51100000000E-03 0.  1.
</event>
<event>
 8    1  0.1157726E+005  0.1043930E+01  0.7957747E-01            NaN
         13   -1    0    0    0    0  0.00000000000E+00  0.00000000000E+00  0.74505805969E-08  0.10566000000E+00  0.10566000000E+00 0.  1.
     999900   -1    0    0    0    0 -0.00000000000E+00 -0.00000000000E+00 -0.74505805969E-08  0.93827000000E+00  0.93827000000E+00 0. -1.
     999902    2    1    2    0    0 -0.19974351162E-01  0.12830206201E-01  0.37538467804E-02  0.10198950201E+01  0.10196117750E+01 0.  0.
     999903    2    3    3    0    0  0.11413826932E+00  0.51912885620E-01 -0.19943132728E-01  0.12856163818E+00  0.20195891944E-01 0.  0.
         14    1    1    2    0    0  0.19974351162E-01 -0.12830206201E-01 -0.37538467804E-02  0.24034979949E-01  0.00000000000E+00 0.  1.
     999901    1    3    3    0    0 -0.13411262048E+00 -0.39082679419E-01  0.23696979509E-01  0.89133338187E+00  0.88000000000E+00 0. -1.
        -11    1    4    4    0    0  0.80217154833E-01  0.32725604437E-01 -0.22473227154E-01  0.89504548348E-01  0.51100000000E-03 0.  1.
         11    1    4    4    0    0  0.33921114486E-01  0.19187281183E-01  0.25300944256E-02  0.39057089830E-01  0.51100000000E-03 0. -1.
</event>
<event>
 8    1  0.1157726E+005  0.1043930E+01  0.7957747E-01            NaN
         13   -1    0    0    0    0  0.00000000000E+00  0.00000000000E+00  0.74505805969E-08  0.10566000000E+00  0.10566000000E+00 0.  1.
     999900   -1    0    0    0    0 -0.00000000000E+00 -0.00000000000E+00 -0.74505805969E-08  0.93827000000E+00  0.93827000000E+00 0.  1.
     999902    2    1    2    0    0  0.90756647769E-02  0.68527545388E-02 -0.22001116125E-01  0.10191635500E+01  0.10188625837E+01 0.  0.
     999903    2    3    3    0    0 -0.78429319303E-01  0.59871972554E-02  0.97196113040E-01  0.12682625340E+00  0.21232275045E-01 0.  0.
         14    1    1    2    0    0 -0.90756647769E-02 -0.68527545388E-02  0.22001116125E-01  0.24766450021E-01  0.00000000000E+00 0.  1.
     999901    1    3    3    0    0  0.87504984080E-01  0.86555728338E-03 -0.11919722916E+00  0.89233729658E+00  0.88000000000E+00 0.  1.
        -11    1    4    4    0    0 -0.16818526296E-01 -0.56014870685E-02  0.30568503714E-01  0.35340260673E-01  0.51100000000E-03 0. -1.
         11    1    4    4    0    0 -0.61610793007E-01  0.11588684324E-01  0.66627609326E-01  0.91485992725E-01  0.51100000000E-03 0.  1.
</event>
<event>
 8    1  0.1157726E+005  0.1043930E+01  0.7957747E-01            NaN
         13   -1    0    0    0    0  0.00000000000E+00  0.00000000000E+00  0.74505805969E-08  0.10566000000E+00  0.10566000000E+00 0. -1.
     999900   -1    0    0    0    0 -0.00000000000E+00 -0.00000000000E+00 -0.74505805969E-08  0.93827000000E+00  0.93827000000E+00 0. -1.
     999902    2    1    2    0    0  0.19781958697E-01  0.12169027795E-01 -0.42701949596E-02  0.10203154771E+01  0.10200421693E+01 0.  0.
     999903    2    3    3    0    0  0.14146416469E-01 -0.61604534407E-01 -0.11258521294E+00  0.13059280067E+00  0.19591060609E-01 0.  0.
         14    1    1    2    0    0 -0.19781958697E-01 -0.12169027795E-01  0.42701949596E-02  0.23614522912E-01  0.00000000000E+00 0.  1.
     999901    1    3    3    0    0  0.56355422286E-02  0.73773562201E-01  0.10831501798E+00  0.88972267642E+00  0.88000000000E+00 0.  1.
        -11    1    4    4    0    0  0.15305223855E-02 -0.45784402175E-01 -0.74372673589E-01  0.87350499021E-01  0.51100000000E-03 0. -1.
         11    1    4    4    0    0  0.12615894083E-01 -0.15820132231E-01 -0.38212539348E-01  0.43242301648E-01  0.51100000000E-03 0.  1.
</event>
<event>
 8    1  0.1157726E+005  0.1043930E+01  0.7957747E-01            NaN
         13   -1    0    0    0    0  0.00000000000E+00  0.00000000000E+00  0.74505805969E-08  0.10566000000E+00  0.10566000000E+00 0. -1.
     999900   -1    0    0    0    0 -0.00000000000E+00 -0.00000000000E+00 -0.74505805969E-08  0.93827000000E+00  0.93827000000E+00 0. -1.
     999902    2    1    2    0    0 -0.80945902085E-02 -0.13052428784E-01  0.17300769677E-01  0.10207955037E+01  0.10205333191E+01 0.  0.
     999903    2    3    3    0    0 -0.60399554204E-01 -0.11403357925E+00 -0.23128834415E-01  0.13255704760E+00  0.19612866722E-01 0.  0.
         14    1    1    2    0    0  0.80945902085E-02  0.13052428784E-01 -0.17300769677E-01  0.23134496304E-01  0.00000000000E+00 0.  1.
     999901    1    3    3    0    0  0.52304963996E-01  0.10098115047E+00  0.40429604092E-01  0.88823845610E+00  0.88000000000E+00 0.  1.
        -11    1    4    4    0    0 -0.52137231484E-01 -0.84276655640E-01 -0.12471290360E-01  0.99883130693E-01  0.51100000000E-03 0.  1.
         11    1    4    4    0    0 -0.82623227199E-02 -0.29756923611E-01 -0.10657544055E-01  0.32673916903E-01  0.51100000000E-03 0. -1.
</event>
<event>
 8    1  0.1157726E+005  0.1043930E+01  0.7957747E-01            NaN
         13   -1    0    0    0    0  0.00000000000E+00  0.00000000000E+00  0.74505805969E-08  0.10566000000E+00  0.10566000000E+00 0. -1.
     999900   -1    0    0    0    0 -0.00000000000E+00 -0.00000000000E+00 -0.74505805969E-08  0.93827000000E+00  0.93827000000E+00 0. -1.
     999902    2    1    2    0    0 -0.77510053170E-02 -0.19092977347E-01 -0.11499919489E-01  0.10203319489E+01  0.10200590267E+01 0.  0.
     999903    2    3    3    0    0  0.11297576615E+00  0.56679896388E-01  0.13684105667E-01  0.12850757333E+00  0.18729849484E-01 0.  0.
         14    1    1    2    0    0  0.77510053170E-02  0.19092977347E-01  0.11499919489E-01  0.23598051099E-01  0.00000000000E+00 0. -1.
     999901    1    3    3    0    0 -0.12072677147E+00 -0.75772873736E-01 -0.25184025157E-01  0.89182437557E+00  0.88000000000E+00 0. -1.
        -11    1    4    4    0    0  0.46565780653E-01  0.24354840862E-01 -0.35160415479E-02  0.52670237045E-01  0.51100000000E-03 0.  1.
         11    1    4    4    0    0  0.66409985502E-01  0.32325055526E-01  0.17200147215E-01  0.75837336282E-01  0.51100000000E-03 0. -1.
</event>
<event>
 8    1  0.1269317E+005  0.1043930E+01  0.7957747E-01            NaN
         13   -1    0    0    0    0  0.00000000000E+00  0.00000000000E+00  0.74505805969E-08  0.10566000000E+00  0.10566000000E+00 0.  1.
     999900   -1    0    0    0    0 -0.00000000000E+00 -0.00000000000E+00 -0.74505805969E-08  0.93827000000E+00  0.93827000000E+00 0.  1.
     999902    2    1    2    0    0  0.18820629459E-01  0.15869311583E-01  0.20349069948E-02  0.10192279355E+01  0.10189285512E+01 0.  0.
     999903    2    3    3    0    0  0.87728192070E-01 -0.63766898773E-01  0.69608500030E-01  0.13037678450E+00  0.19756254632E-01 0.  0.
         14    1    1    2    0    0 -0.18820629459E-01 -0.15869311583E-01 -0.20349069948E-02  0.24702064485E-01  0.00000000000E+00 0.  1.
     999901    1    3    3    0    0 -0.68907562611E-01  0.79636210356E-01 -0.67573593035E-01  0.88885115101E+00  0.88000000000E+00 0. -1.
        -11    1    4    4    0    0  0.65979280023E-01 -0.37118462523E-01  0.50801043718E-01  0.91170460217E-01  0.51100000000E-03 0.  1.
         11    1    4    4    0    0  0.21748912047E-01 -0.26648436251E-01  0.18807456312E-01  0.39206324283E-01  0.51100000000E-03 0. -1.
</event>
<event>
 8    1  0.1157726E+005  0.1043930E+01  0.7957747E-01            NaN
         13   -1    0    0    0    0  0.00000000000E+00  0.00000000000E+00  0.74505805969E-08  0.10566000000E+00  0.10566000000E+00 0. -1.
     999900   -1    0    0    0    0 -0.00000000000E+00 -0.00000000000E+00 -0.74505805969E-08  0.93827000000E+00  0.93827000000E+00 0.  1.
     999902    2    1    2    0    0  0.10831933338E-01 -0.19256352843E-01  0.86293281058E-02  0.10202107418E+01  0.10199349756E+01 0.  0.
     999903    2    3    3    0    0  0.92344671608E-01  0.11621882769E-01 -0.88811949172E-01  0.13055204634E+00  0.22218639816E-01 0.  0.
         14    1    1    2    0    0 -0.10831933338E-01  0.19256352843E-01 -0.86293281058E-02  0.23719258171E-01  0.00000000000E+00 0.  1.
     999901    1    3    3    0    0 -0.81512738270E-01 -0.30878235612E-01  0.97441277278E-01  0.88965869549E+00  0.88000000000E+00 0. -1.
        -11    1    4    4    0    0  0.22081426516E-01 -0.57877248091E-02 -0.27021999997E-01  0.35377065456E-01  0.51100000000E-03 0.  1.
         11    1    4    4    0    0  0.70263245092E-01  0.17409607578E-01 -0.61789949175E-01  0.95174980887E-01  0.51100000000E-03 0. -1.
</event>
<event>
 8    1  0.1157726E+005  0.1043930E+01  0.7957747E-01            NaN
         13   -1    0    0    0    0  0.00000000000E+00  0.00000000000E+00  0.74505805969E-08  0.10566000000E+00  0.10566000000E+00 0.  1.
     999900   -1    0    0    0    0 -0.00000000000E+00 -0.00000000000E+00 -0.74505805969E-08  0.93827000000E+00  0.93827000000E+00 0. -1.
     999902    2    1    2    0    0 -0.15616411372E-01  0.24454428116E-02  0.20337779013E-01  0.10181719382E+01  0.10178460679E+01 0.  0.
     999903    2    3    3    0    0 -0.78536915809E-03 -0.42547650583E-01  0.12221169636E+00  0.13102897713E+00  0.20542023890E-01 0.  0.
         14    1    1    2    0    0  0.15616411372E-01 -0.24454428116E-02 -0.20337779013E-01  0.25758061842E-01  0.00000000000E+00 0. -1.
     999901    1    3    3    0    0 -0.14831042213E-01  0.44993093395E-01 -0.10187391735E+00  0.88714296103E+00  0.88000000000E+00 0. -1.
        -11    1    4    4    0    0  0.59514621758E-02 -0.28042249990E-01  0.56023187721E-01  0.62933666427E-01  0.51100000000E-03 0.  1.
         11    1    4    4    0    0 -0.67368313338E-02 -0.14505400593E-01  0.66188508640E-01  0.68095310703E-01  0.51100000000E-03 0. -1.
</event>
<event>
 8    1  0.1157726E+005  0.1043930E+01  0.7957747E-01            NaN
         13   -1    0    0    0    0  0.00000000000E+00  0.00000000000E+00  0.74505805969E-08  0.10566000000E+00  0.10566000000E+00 0. -1.
     999900   -1    0    0    0    0 -0.00000000000E+00 -0.00000000000E+00 -0.74505805969E-08  0.93827000000E+00  0.93827000000E+00 0.  1.
     999902    2    1    2    0    0  0.24051667200E-01 -0.10642543470E-01  0.10193686924E-02  0.10176091805E+01  0.10172687249E+01 0.  0.
     999903    2    3    3    0    0  0.35190202084E-03 -0.16276489714E-01  0.12405837535E+00  0.12871547629E+00  0.30201744829E-01 0.  0.
         14    1    1    2    0    0 -0.24051667200E-01  0.10642543470E-01 -0.10193686924E-02  0.26320819500E-01  0.00000000000E+00 0.  1.
     999901    1    3    3    0    0  0.23699765179E-01  0.56339462438E-02 -0.12303900666E+00  0.88889370421E+00  0.88000000000E+00 0.  1.
        -11    1    4    4    0    0 -0.12388652854E-01 -0.11839232433E-01  0.39130932551E-01  0.42721623885E-01  0.51100000000E-03 0. -1.
         11    1    4    4    0    0  0.12740554874E-01 -0.44372572809E-02  0.84927442798E-01  0.85993852408E-01  0.51100000000E-03 0.  1.
</event>
<event>
 8    1  0.1157726E+005  0.1043930E+01  0.7957747E-01            NaN
         13   -1    0    0    0    0  0.00000000000E+00  0.00000000000E+00  0.74505805969E-08  0.10566000000E+00  0.10566000000E+00 0.  1.
     999900   -1    0    0    0    0 -0.00000000000E+00 -0.00000000000E+00 -0.74505805969E-08  0.93827000000E+00  0.93827000000E+00 0.  1.
     999902    2    1    2    0    0 -0.19490652071E-01  0.10379415806E-01 -0.95252932460E-02  0.10198811122E+01  0.10195975354E+01 0.  0.
     999903    2    3    3    0    0 -0.90320515059E-01 -0.83405186500E-01 -0.42702134678E-01  0.13144815252E+00  0.18464125214E-01 0.  0.
         14    1    1    2    0    0  0.19490652071E-01 -0.10379415806E-01  0.95252932460E-02  0.24048887751E-01  0.00000000000E+00 0.  1.
     999901    1    3    3    0    0  0.70829862989E-01  0.93784602307E-01  0.33176841432E-01  0.88843295973E+00  0.88000000000E+00 0. -1.
        -11    1    4    4    0    0 -0.77556118584E-01 -0.65764570725E-01 -0.29097097748E-01  0.10576782361E+00  0.51100000000E-03 0. -1.
         11    1    4    4    0    0 -0.12764396475E-01 -0.17640615776E-01 -0.13605036929E-01  0.25680328915E-01  0.51100000000E-03 0.  1.
</event>
<event>
 8    1  0.1157726E+005  0.1043930E+01  0.7957747E-01            NaN
         13   -1    0    0    0    0  0.00000000000E+00  0.00000000000E+00  0.74505805969E-08  0.10566000000E+00  0.10566000000E+00 0.  1.
     999900   -1    0    0    0    0 -0.00000000000E+00 -0.00000000000E+00 -0.74505805969E-08  0.93827000000E+00  0.93827000000E+00 0.  1.
     999902    2    1    2    0    0 -0.52584188364E-02  0.68860559646E-02  0.20992506540E-01  0.10212197806E+01  0.10209672307E+01 0.  0.
     999903    2    3    3    0    0  0.39854234323E-01 -0.11099519225E-01  0.12557622959E+00  0.13369716818E+00  0.19849030692E-01 0.  0.
         14    1    1    2    0    0  0.52584188364E-02 -0.68860559646E-02 -0.20992506540E-01  0.22710219423E-01  0.00000000000E+00 0. -1.
     999901    1    3    3    0    0 -0.45112653160E-01  0.17985575190E-01 -0.10458372305E+00  0.88752261240E+00  0.88000000000E+00 0.  1.
        -11    1    4    4    0    0  0.90604604228E-02 -0.11988316689E-01  0.38612037714E-01  0.41436243284E-01  0.51100000000E-03 0.  1.
         11    1    4    4    0    0  0.30793773900E-01  0.88879746365E-03  0.86964191881E-01  0.92260924895E-01  0.51100000000E-03 0. -1.
</event>
<event>
 8    1  0.1157726E+005  0.1043930E+01  0.7957747E-01            NaN
         13   -1    0    0    0    0  0.00000000000E+00  0.00000000000E+00  0.74505805969E-08  0.10566000000E+00  0.10566000000E+00 0. -1.
     999900   -1    0    0    0    0 -0.00000000000E+00 -0.00000000000E+00 -0.74505805969E-08  0.93827000000E+00  0.93827000000E+00 0. -1.
     999902    2    1    2    0    0 -0.24278661243E-01 -0.61816841944E-02 -0.11370093427E-01  0.10164173550E+01  0.10160449271E+01 0.  0.
     999903    2    3    3    0    0  0.14082944293E-01  0.41794984879E-01 -0.11846567300E+00  0.12779885601E+00  0.18795793088E-01 0.  0.
         14    1    1    2    0    0  0.24278661243E-01  0.61816841944E-02  0.11370093427E-01  0.27512645016E-01  0.00000000000E+00 0.  1.
     999901    1    3    3    0    0 -0.38361605536E-01 -0.47976669073E-01  0.10709557957E+00  0.88861849897E+00  0.88000000000E+00 0.  1.
        -11    1    4    4    0    0  0.56124240929E-02  0.23891856353E-01 -0.40529158023E-01  0.47383476817E-01  0.51100000000E-03 0. -1.
         11    1    4    4    0    0  0.84705202001E-02  0.17903128526E-01 -0.77936514975E-01  0.80415379194E-01  0.51100000000E-03 0.  1.
</event>
<event>
 8    1  0.1157726E+005  0.1043930E+01  0.7957747E-01            NaN
         13   -1    0    0    0    0  0.00000000000E+00  0.00000000000E+00  0.74505805969E-08  0.10566000000E+00  0.10566000000E+00 0. -1.
     999900   -1    0    0    0    0 -0.00000000000E+00 -0.00000000000E+00 -0.74505805969E-08  0.93827000000E+00  0.93827000000E+00 0. -1.
     999902    2    1    2    0    0  0.25197593897E-02 -0.28287592624E-02 -0.22356357676E-01  0.10212549522E+01  0.10210031927E+01 0.  0.
     999903    2    3    3    0    0 -0.25028917674E-01  0.12573586959E+00  0.15587012749E-01  0.13067789611E+00  0.19944972896E-01 0.  0.
         14    1    1    2    0    0 -0.25197593897E-02  0.28287592624E-02  0.22356357676E-01  0.22675047847E-01  0.00000000000E+00 0. -1.
     999901    1    3    3    0    0  0.27548677064E-01 -0.12856462885E+00 -0.37943370425E-01  0.89057705605E+00  0.88000000000E+00 0. -1.
        -11    1    4    4    0    0 -0.13049894405E-01  0.95387941631E-01  0.18047241786E-01  0.97954699783E-01  0.51100000000E-03 0.  1.
         11    1    4    4    0    0 -0.11979023270E-01  0.30347927954E-01 -0.24602290376E-02  0.32723196322E-01  0.51100000000E-03 0. -1.
</event>
<event>
 8    1  0.1157726E+005  0.1043930E+01  0.7957747E-01            NaN
         13   -1    0    0    0    0  0.00000000000E+00  0.00000000000E+00  0.74505805969E-08  0.10566000000E+00  0.10566000000E+00 0. -1.
     999900   -1    0    0    0    0 -0.00000000000E+00 -0.00000000000E+00 -0.74505805969E-08  0.93827000000E+00  0.93827000000E+00 0. -1.
     999902    2    1    2    0    0 -0.17399353475E-01  0.17906837994E-01 -0.47448183786E-02  0.10185153261E+01  0.10181981948E+01 0.  0.
     999903    2    3    3    0    0  0.48232446761E-03 -0.12203843403E+00 -0.28135459035E-01  0.12697084844E+00  0.20889717111E-01 0.  0.
         14    1    1    2    0    0  0.17399353475E-01 -0.17906837994E-01  0.47448183786E-02  0.25414673905E-01  0.00000000000E+00 0. -1.
     999901    1    3    3    0    0 -0.17881677942E-01  0.13994527202E+00  0.23390640656E-01  0.89154447766E+00  0.88000000000E+00 0.  1.
        -11    1    4    4    0    0  0.59551774958E-02 -0.10403949291E+00 -0.28872836826E-01  0.10813686721E+00  0.51100000000E-03 0. -1.
         11    1    4    4    0    0 -0.54728530282E-02 -0.17998941124E-01  0.73737779125E-03  0.18833981227E-01  0.51100000000E-03 0.  1.
</event>
<event>
 8    1  0.1157726E+005  0.1043930E+01  0.7957747E-01            NaN
         13   -1    0    0    0    0  0.00000000000E+00  0.00000000000E+00  0.74505805969E-08  0.10566000000E+00  0.10566000000E+00 0.  1.
     999900   -1    0    0    0    0 -0.00000000000E+00 -0.00000000000E+00 -0.74505805969E-08  0.93827000000E+00  0.93827000000E+00 0.  1.
     999902    2    1    2    0    0 -0.10098483665E-01 -0.55373389353E-02  0.18971807228E-01  0.10217360602E+01  0.10214949857E+01 0.  0.
     999903    2    3    3    0    0  0.83035042341E-02 -0.72998749775E-01 -0.10557083484E+00  0.13022019112E+00  0.20355130953E-01 0.  0.
         14    1    1    2    0    0  0.10098483665E-01  0.55373389353E-02 -0.18971807228E-01  0.22193939811E-01  0.00000000000E+00 0. -1.
     999901    1    3    3    0    0 -0.18401987899E-01  0.67461410839E-01  0.12454264206E+00  0.89151586907E+00  0.88000000000E+00 0. -1.
        -11    1    4    4    0    0 -0.52932535994E-02 -0.35851159531E-01 -0.57421568900E-01  0.67903032843E-01  0.51100000000E-03 0. -1.
         11    1    4    4    0    0  0.13596757833E-01 -0.37147590244E-01 -0.48149265935E-01  0.62317158276E-01  0.51100000000E-03 0.  1.
</event>
<event>
 8    1  0.1157726E+005  0.1043930E+01  0.7957747E-01            NaN
         13   -1    0    0    0    0  0.00000000000E+00  0.00000000000E+00  0.74505805969E-08  0.10566000000E+00  0.10566000000E+00 0.  1.
     999900   -1    0    0    0    0 -0.00000000000E+00 -0.00000000000E+00 -0.74505805969E-08  0.93827000000E+00  0.93827000000E+00 0. -1.
     999902    2    1    2    0    0 -0.21029384084E-01 -0.14167714104E-02  0.10127108410E-01  0.10205462330E+01  0.10202783018E+01 0.  0.
     999903    2    3    3    0    0  0.47099002009E-01  0.11045865256E+00 -0.41550886170E-01  0.12935141554E+00  0.24205012781E-01 0.  0.
         14    1    1    2    0    0  0.21029384084E-01  0.14167714104E-02 -0.10127108410E-01  0.23383767039E-01  0.00000000000E+00 0.  1.
     999901    1    3    3    0    0 -0.68128386094E-01 -0.11187542397E+00  0.51677994580E-01  0.89119481742E+00  0.88000000000E+00 0. -1.
        -11    1    4    4    0    0  0.51208046831E-02  0.35266665616E-01 -0.18726062636E-01  0.40260239531E-01  0.51100000000E-03 0. -1.
         11    1    4    4    0    0  0.41978197326E-01  0.75191986946E-01 -0.22824823534E-01  0.89091176005E-01  0.51100000000E-03 0.  1.
</event>
<event>
 8    1  0.1157726E+005  0.1043930E+01  0.7957747E-01            NaN
         13   -1    0    0    0    0  0.00000000000E+00  0.00000000000E+00  0.74505805969E-08  0.10566000000E+00  0.10566000000E+00 0.  1.
     999900   -1    0    0    0    0 -0.00000000000E+00 -0.00000000000E+00 -0.74505805969E-08  0.93827000000E+00  0.93827000000E+00 0.  1.
     999902    2    1    2    0    0  0.86178824207E-02 -0.22537147825E-02  0.22242799995E-01  0.10199698397E+01  0.10196883763E+01 0.  0.
     999903    2    3    3    0    0  0.26408042600E-01 -0.85557232660E-01  0.95983338188E-01  0.13278686377E+00  0.20053059763E-01 0.  0.
         14    1    1    2    0    0 -0.86178824207E-02  0.22537147825E-02 -0.22242799995E-01  0.23960160253E-01  0.00000000000E+00 0. -1.
     999901    1    3    3    0    0 -0.17790160179E-01  0.83303517877E-01 -0.73740538194E-01  0.88718297598E+00  0.88000000000E+00 0.  1.
        -11    1    4    4    0    0  0.21094492746E-01 -0.35319444934E-01  0.46097226762E-01  0.61787185167E-01  0.51100000000E-03 0. -1.
         11    1    4    4    0    0  0.53135498546E-02 -0.50237787726E-01  0.49886111426E-01  0.70999678604E-01  0.51100000000E-03 0.  1.
</event>
<event>
 8    1  0.1157726E+005  0.1043930E+01  0.7957747E-01            NaN
         13   -1    0    0    0    0  0.00000000000E+00  0.00000000000E+00  0.74505805969E-08  0.10566000000E+00  0.10566000000E+00 0.  1.
     999900   -1    0    0    0    0 -0.00000000000E+00 -0.00000000000E+00 -0.74505805969E-08  0.93827000000E+00  0.93827000000E+00 0.  1.
     999902    2    1    2    0    0  0.14601598760E-01 -0.15938220526E-01 -0.74697473257E-02  0.10210601359E+01  0.10208039824E+01 0.  0.
     999903    2    3    3    0    0 -0.49666338913E-04 -0.11011756634E+00 -0.72532649785E-01  0.13352557879E+00  0.21028885457E-01 0.  0.
         14    1    1    2    0    0 -0.14601598760E-01  0.15938220526E-01  0.74697473257E-02  0.22869864122E-01  0.00000000000E+00 0.  1.
     999901    1    3    3    0    0  0.14651265099E-01  0.94179345813E-01  0.65062902459E-01  0.88753455709E+00  0.88000000000E+00 0. -1.
        -11    1    4    4    0    0  0.10172626614E-01 -0.41755238829E-01 -0.27282969159E-01  0.50907797331E-01  0.51100000000E-03 0. -1.
         11    1    4    4    0    0 -0.10222292953E-01 -0.68362327509E-01 -0.45249680625E-01  0.82617781460E-01  0.51100000000E-03 0.  1.
</event>
<event>
 7    1  0.1157726E+005  0.1043930E+01  0.7957747E-01            NaN
         13   -1    0    0    0    0  0.00000000000E+00  0.00000000000E+00  0.74505805969E-08  0.10566000000E+00  0.10566000000E+00 0.  1.
     999900   -1    0    0    0    0 -0.00000000000E+00 -0.00000000000E+00 -0.74505805969E-08  0.93827000000E+00  0.93827000000E+00 0. -1.
     999902    2    1    2    0    0  0.57083221122E-02  0.45582153187E-02  0.22383095899E-01  0.10203850377E+01  0.10201133564E+01 0.  0.
         14    1    1    2    0    0 -0.57083221122E-02 -0.45582153187E-02 -0.22383095899E-01  0.23544962311E-01  0.00000000000E+00 0. -1.
     999901    1    3    3    0    0  0.11465959267E+00  0.63351771991E-01  0.35114941133E-01  0.89038942508E+00  0.88000000000E+00 0. -1.
        -11    1    3    3    0    0 -0.66725631729E-01 -0.37458099907E-01  0.10582506798E-01  0.77250694168E-01  0.51100000000E-03 0. -1.
         11    1    3    3    0    0 -0.42225638825E-01 -0.21335456766E-01 -0.23314352032E-01  0.52744918440E-01  0.51100000000E-03 0.  1.
</event>
<event>
 8    1  0.1157726E+005  0.1043930E+01  0.7957747E-01            NaN
         13   -1    0    0    0    0  0.00000000000E+00  0.00000000000E+00  0.74505805969E-08  0.10566000000E+00  0.10566000000E+00 0. -1.
     999900   -1    0    0    0    0 -0.00000000000E+00 -0.00000000000E+00 -0.74505805969E-08  0.93827000000E+00  0.93827000000E+00 0. -1.
     999902    2    1    2    0    0  0.12111419683E-01  0.40105998625E-02  0.20054072891E-01  0.10201615916E+01  0.10198846679E+01 0.  0.
     999903    2    3    3    0    0 -0.79577994990E-01 -0.98400750798E-01  0.19505823105E-01  0.12949030876E+00  0.19284654113E-01 0.  0.
         14    1    1    2    0    0 -0.12111419683E-01 -0.40105998625E-02 -0.20054072891E-01  0.23768408392E-01  0.00000000000E+00 0.  1.
     999901    1    3    3    0    0  0.91689414673E-01  0.10241135066E+00  0.54824978526E-03  0.89067128285E+00  0.88000000000E+00 0.  1.
        -11    1    4    4    0    0 -0.47543840120E-01 -0.50378333364E-01  0.18716356208E-01  0.71756228417E-01  0.51100000000E-03 0.  1.
         11    1    4    4    0    0 -0.32034154870E-01 -0.48022417434E-01  0.78946689738E-03  0.57734080346E-01  0.51100000000E-03 0. -1.
</event>
<event>
 8    1  0.1157726E+005  0.1043930E+01  0.7957747E-01            NaN
         13   -1    0    0    0    0  0.00000000000E+00  0.00000000000E+00  0.74505805969E-08  0.10566000000E+00  0.10566000000E+00 0. -1.
     999900   -1    0    0    0    0 -0.00000000000E+00 -0.00000000000E+00 -0.74505805969E-08  0.93827000000E+00  0.93827000000E+00 0.  1.
     999902    2    1    2    0    0  0.21949907676E-01  0.59102854795E-02 -0.12267984221E-02  0.10211652255E+01  0.10209114471E+01 0.  0.
     999903    2    3    3    0    0  0.26344282606E-01  0.21376992710E-01  0.12589608545E+00  0.13188531620E+00  0.19822090080E-01 0.  0.
         14    1    1    2    0    0 -0.21949907676E-01 -0.59102854795E-02  0.12267984221E-02  0.22764774451E-01  0.00000000000E+00 0. -1.
     999901    1    3    3    0    0 -0.43943749304E-02 -0.15466707231E-01 -0.12712288387E+00  0.88927990935E+00  0.88000000000E+00 0.  1.
        -11    1    4    4    0    0  0.16378320540E-01  0.21283776812E-02  0.39642902381E-01  0.42948809127E-01  0.51100000000E-03 0.  1.
         11    1    4    4    0    0  0.99659620669E-02  0.19248615029E-01  0.86253183068E-01  0.88936507075E-01  0.51100000000E-03 0. -1.
</event>
<event>
 8    1  0.1157726E+005  0.1043930E+01  0.7957747E-01            NaN
         13   -1    0    0    0    0  0.00000000000E+00  0.00000000000E+00  0.74505805969E-08  0.10566000000E+00  0.10566000000E+00 0. -1.
     999900   -1    0    0    0    0 -0.00000000000E+00 -0.00000000000E+00 -0.74505805969E-08  0.93827000000E+00  0.93827000000E+00 0. -1.
     999902    2    1    2    0    0 -0.15585195315E-01  0.12804695162E-01  0.12025558701E-01  0.10204465464E+01  0.10201762992E+01 0.  0.
     999903    2    3    3    0    0  0.41419690860E-03  0.95597897441E-01  0.90215448198E-01  0.13296451631E+00  0.20040108552E-01 0.  0.
         14    1    1    2    0    0  0.15585195315E-01 -0.12804695162E-01 -0.12025558701E-01  0.23483453607E-01  0.00000000000E+00 0. -1.
     999901    1    3    3    0    0 -0.15999392224E-01 -0.82793202279E-01 -0.78189889496E-01  0.88748203008E+00  0.88000000000E+00 0.  1.
        -11    1    4    4    0    0  0.87885905210E-03  0.66667331622E-01  0.74702215703E-01  0.10012985394E+00  0.51100000000E-03 0. -1.
         11    1    4    4    0    0 -0.46466214351E-03  0.28930565819E-01  0.15513232495E-01  0.32834662371E-01  0.51100000000E-03 0.  1.
</event>
<event>
 8    1  0.1157726E+005  0.1043930E+01  0.7957747E-01            NaN
         13   -1    0    0    0    0  0.00000000000E+00  0.00000000000E+00  0.74505805969E-08  0.10566000000E+00  0.10566000000E+00 0. -1.
     999900   -1    0    0    0    0 -0.00000000000E+00 -0.00000000000E+00 -0.74505805969E-08  0.93827000000E+00  0.93827000000E+00 0. -1.
     999902    2    1    2    0    0 -0.37901126582E-02 -0.21109665187E-01 -0.28681633703E-02  0.10222918559E+01  0.10220628305E+01 0.  0.
     999903    2    3    3    0    0 -0.64269660799E-01 -0.10134361200E+00 -0.58341584080E-01  0.13483900513E+00  0.19408757771E-01 0.  0.
         14    1    1    2    0    0  0.37901126582E-02  0.21109665187E-01  0.28681633703E-02  0.21638144084E-01  0.00000000000E+00 0. -1.
     999901    1    3    3    0    0  0.60479548141E-01  0.80233946815E-01  0.55473420710E-01  0.88745285079E+00  0.88000000000E+00 0. -1.
        -11    1    4    4    0    0 -0.24332112769E-01 -0.22661756523E-01 -0.13936026521E-01  0.36056634295E-01  0.51100000000E-03 0.  1.
         11    1    4    4    0    0 -0.39937548030E-01 -0.78681855479E-01 -0.44405557559E-01  0.98782370834E-01  0.51100000000E-03 0. -1.
</event>
<event>
 8    1  0.1157726E+005  0.1043930E+01  0.7957747E-01            NaN
         13   -1    0    0    0    0  0.00000000000E+00  0.00000000000E+00  0.74505805969E-08  0.10566000000E+00  0.10566000000E+00 0. -1.
     999900   -1    0    0    0    0 -0.00000000000E+00 -0.00000000000E+00 -0.74505805969E-08  0.93827000000E+00  0.93827000000E+00 0.  1.
     999902    2    1    2    0    0 -0.15675968420E-01 -0.10492168639E-02 -0.17931313809E-01  0.10200895122E+01  0.10198108864E+01 0.  0.
     999903    2    3    3    0    0 -0.22979337706E-01 -0.12704068407E+00 -0.72186997397E-02  0.13102148947E+00  0.21145583612E-01 0.  0.
         14    1    1    2    0    0  0.15675968420E-01  0.10492168639E-02  0.17931313809E-01  0.23840487765E-01  0.00000000000E+00 0. -1.
     999901    1    3    3    0    0  0.73033692854E-02  0.12599146720E+00 -0.10712614069E-01  0.88906802277E+00  0.88000000000E+00 0. -1.
        -11    1    4    4    0    0 -0.16957521516E-01 -0.52848734630E-01  0.44143732918E-02  0.55680284666E-01  0.51100000000E-03 0. -1.
         11    1    4    4    0    0 -0.60218161900E-02 -0.74191949438E-01 -0.11633073032E-01  0.75341204800E-01  0.51100000000E-03 0.  1.
</event>
<event>
 8    1  0.1157726E+005  0.1043930E+01  0.7957747E-01            NaN
         13   -1    0    0    0    0  0.00000000000E+00  0.00000000000E+00  0.74505805969E-08  0.10566000000E+00  0.10566000000E+00 0.  1.
     999900   -1    0    0    0    0 -0.00000000000E+00 -0.00000000000E+00 -0.74505805969E-08  0.93827000000E+00  0.93827000000E+00 0.  1.
     999902    2    1    2    0    0  0.14491553764E-01  0.62992235010E-02 -0.24968817550E-01  0.10143812742E+01  0.10139508086E+01 0.  0.
     999903    2    3    3    0    0  0.33845739557E-01 -0.10481570226E+00  0.52885085074E-01  0.12377342480E+00  0.19777839573E-01 0.  0.
         14    1    1    2    0    0 -0.14491553764E-01 -0.62992235010E-02  0.24968817550E-01  0.29548725811E-01  0.00000000000E+00 0.  1.
     999901    1    3    3    0    0 -0.19354185792E-01  0.11111492576E+00 -0.77853902624E-01  0.89060784939E+00  0.88000000000E+00 0.  1.
        -11    1    4    4    0    0  0.34089168350E-01 -0.78752100073E-01  0.39530891296E-01  0.94482364240E-01  0.51100000000E-03 0.  1.
         11    1    4    4    0    0 -0.24342879379E-03 -0.26063602185E-01  0.13354193778E-01  0.29291060563E-01  0.51100000000E-03 0. -1.
</event>
<event>
 8    1  0.1157726E+005  0.1043930E+01  0.7957747E-01            NaN
         13   -1    0    0    0    0  0.00000000000E+00  0.00000000000E+00  0.74505805969E-08  0.10566000000E+00  0.10566000000E+00 0.  1.
     999900   -1    0    0    0    0 -0.00000000000E+00 -0.00000000000E+00 -0.74505805969E-08  0.93827000000E+00  0.93827000000E+00 0. -1.
     999902    2    1    2    0    0 -0.16968246756E-01 -0.16016886458E-03  0.16166187123E-01  0.10204930066E+01  0.10202238401E+01 0.  0.
     999903    2    3    3    0    0 -0.90248341599E-01 -0.91143040445E-01 -0.22711142129E-01  0.13192151151E+00  0.20872763072E-01 0.  0.
         14    1    1    2    0    0  0.16968246756E-01  0.16016886458E-03 -0.16166187123E-01  0.23436993368E-01  0.00000000000E+00 0. -1.
     999901    1    3    3    0    0  0.73280094844E-01  0.90982871580E-01  0.38877329251E-01  0.88857149513E+00  0.88000000000E+00 0.  1.
        -11    1    4    4    0    0 -0.14564232014E-01 -0.27165654641E-01 -0.63963815147E-02  0.31484352680E-01  0.51100000000E-03 0. -1.
         11    1    4    4    0    0 -0.75684109586E-01 -0.63977385804E-01 -0.16314760614E-01  0.10043715883E+00  0.51100000000E-03 0.  1.
</event>
<event>
 8    1  0.1157726E+005  0.1043930E+01  0.7957747E-01            NaN
         13   -1    0    0    0    0  0.00000000000E+00  0.00000000000E+00  0.74505805969E-08  0.10566000000E+00  0.10566000000E+00 0. -1.
     999900   -1    0    0    0    0 -0.00000000000E+00 -0.00000000000E+00 -0.74505805969E-08  0.93827000000E+00  0.93827000000E+00 0. -1.
     999902    2    1    2    0    0 -0.11549485596E-01 -0.38639858397E-03  0.20522847945E-01  0.10203773524E+01  0.10201054916E+01 0.  0.
     999903    2    3    3    0    0 -0.82823090837E-01 -0.94574483162E-01 -0.31193403389E-01  0.13098098815E+00  0.19467757981E-01 0.  0.
         14    1    1    2    0    0  0.11549485596E-01  0.38639858397E-03 -0.20522847945E-01  0.23552647605E-01  0.00000000000E+00 0.  1.
     999901    1    3    3    0    0  0.71273605240E-01  0.94188084578E-01  0.51716251334E-01  0.88939636425E+00  0.88000000000E+00 0.  1.
        -11    1    4    4    0    0 -0.57587891808E-01 -0.64615615377E-01 -0.30591699127E-01  0.91802266911E-01  0.51100000000E-03 0.  1.
         11    1    4    4    0    0 -0.25235199029E-01 -0.29958867784E-01 -0.60170426174E-03  0.39178721239E-01  0.51100000000E-03 0. -1.
</event>
<event>
 8    1  0.1157726E+005  0.1043930E+01  0.7957747E-01            NaN
         13   -1    0    0    0    0  0.00000000000E+00  0.00000000000E+00  0.74505805969E-08  0.10566000000E+00  0.10566000000E+00 0.  1.
     999900   -1    0    0    0    0 -0.00000000000E+00 -0.00000000000E+00 -0.74505805969E-08  0.93827000000E+00  0.93827000000E+00 0. -1.
     999902    2    1    2    0    0  0.16292663168E-01  0.16922349975E-01 -0.13018961015E-01  0.10170727822E+01  0.10167181193E+01 0.  0.
     999903    2    3    3    0    0  0.10533166984E+00 -0.65310067664E-01  0.30286709322E-01  0.12771037222E+00  0.56998948332E-02 0.  0.
         14    1    1    2    0    0 -0.16292663168E-01 -0.16922349975E-01  0.13018961015E-01  0.26857217795E-01  0.00000000000E+00 0.  1.
     999901    1    3    3    0    0 -0.89039006668E-01  0.82232417639E-01 -0.43305670337E-01  0.88936240999E+00  0.88000000000E+00 0. -1.
        -11    1    4    4    0    0  0.85553140765E-01 -0.54681990869E-01  0.23121685389E-01  0.10413612954E+00  0.51100000000E-03 0.  1.
         11    1    4    4    0    0  0.19778529071E-01 -0.10628076795E-01  0.71650239330E-02  0.23574242672E-01  0.51100000000E-03 0. -1.
</event>
<event>
 8    1  0.1157726E+005  0.1043930E+01  0.7957747E-01            NaN
         13   -1    0    0    0    0  0.00000000000E+00  0.00000000000E+00  0.74505805969E-08  0.10566000000E+00  0.10566000000E+00 0.  1.
     999900   -1    0    0    0    0 -0.00000000000E+00 -0.00000000000E+00 -0.74505805969E-08  0.93827000000E+00  0.93827000000E+00 0. -1.
     999902    2    1    2    0    0 -0.22306363754E-01  0.86624390208E-02  0.45637259797E-03  0.10199963419E+01  0.10197155081E+01 0.  0.
     999903    2    3    3    0    0 -0.33713666910E-01  0.28155043524E-01  0.12211326418E+00  0.13133977863E+00  0.20227959540E-01 0.  0.
         14    1    1    2    0    0  0.22306363754E-01 -0.86624390208E-02 -0.45637259797E-03  0.23933658092E-01  0.00000000000E+00 0.  1.
     999901    1    3    3    0    0  0.11407303156E-01 -0.19492604503E-01 -0.12165689159E+00  0.88865656328E+00  0.88000000000E+00 0. -1.
        -11    1    4    4    0    0 -0.18240884576E-01  0.47767848178E-02  0.34118783930E-01  0.38985895926E-01  0.51100000000E-03 0.  1.
         11    1    4    4    0    0 -0.15472782334E-01  0.23378258706E-01  0.87994480255E-01  0.92353882699E-01  0.51100000000E-03 0. -1.
</event>
<event>
 8    1  0.1157726E+005  0.1043930E+01  0.7957747E-01            NaN
         13   -1    0    0    0    0  0.00000000000E+00  0.00000000000E+00  0.74505805969E-08  0.10566000000E+00  0.10566000000E+00 0. -1.
     999900   -1    0    0    0    0 -0.00000000000E+00 -0.00000000000E+00 -0.74505805969E-08  0.93827000000E+00  0.93827000000E+00 0.  1.
     999902    2    1    2    0    0  0.38952270766E-02  0.20532656559E-01 -0.11382472137E-01  0.10201324486E+01  0.10198548374E+01 0.  0.
     999903    2    3    3    0    0 -0.12096921355E+00 -0.40626997985E-01 -0.29713454145E-02  0.12917656929E+00  0.19840704835E-01 0.  0.
         14    1    1    2    0    0 -0.38952270766E-02 -0.20532656559E-01  0.11382472137E-01  0.23797551372E-01  0.00000000000E+00 0. -1.
     999901    1    3    3    0    0  0.12486444062E+00  0.61159654544E-01 -0.84111267226E-02  0.89095587934E+00  0.88000000000E+00 0. -1.
        -11    1    4    4    0    0 -0.84434893208E-01 -0.18654845640E-01 -0.33874531212E-02  0.86538953175E-01  0.51100000000E-03 0.  1.
         11    1    4    4    0    0 -0.36534320338E-01 -0.21972152346E-01  0.41610770678E-03  0.42637616114E-01  0.51100000000E-03 0. -1.
</event>
<event>
 8    1  0.1157726E+005  0.1043930E+01  0.7957747E-01            NaN
         13   -1    0    0    0    0  0.00000000000E+00  0.00000000000E+00  0.74505805969E-08  0.10566000000E+00  0.10566000000E+00 0. -1.
     999900   -1    0    0    0    0 -0.00000000000E+00 -0.00000000000E+00 -0.74505805969E-08  0.93827000000E+00  0.93827000000E+00 0.  1.
     999902    2    1    2    0    0  0.17893904121E-01  0.10359150516E-01  0.99177066649E-02  0.10209982598E+01  0.10207407025E+01 0.  0.
     999903    2    3    3    0    0  0.33690218271E-01 -0.28327980144E-01  0.12356084102E+00  0.13270721535E+00  0.20159819097E-01 0.  0.
         14    1    1    2    0    0 -0.17893904121E-01 -0.10359150516E-01 -0.99177066649E-02  0.22931740222E-01  0.00000000000E+00 0. -1.
     999901    1    3    3    0    0 -0.15796314150E-01  0.38687130660E-01 -0.11364313436E+00  0.88829104443E+00  0.88000000000E+00 0.  1.
        -11    1    4    4    0    0  0.62000527820E-02  0.11333662133E-02  0.72872586508E-02  0.96483383604E-02  0.51100000000E-03 0. -1.
         11    1    4    4    0    0  0.27490165489E-01 -0.29461346357E-01  0.11627358237E+00  0.12305887699E+00  0.51100000000E-03 0.  1.
</event>
<event>
 8    1  0.1157726E+005  0.1043930E+01  0.7957747E-01            NaN
         13   -1    0    0    0    0  0.00000000000E+00  0.00000000000E+00  0.74505805969E-08  0.10566000000E+00  0.10566000000E+00 0.  1.
     999900   -1    0    0    0    0 -0.00000000000E+00 -0.00000000000E+00 -0.74505805969E-08  0.93827000000E+00  0.93827000000E+00 0.  1.
     999902    2    1    2    0    0 -0.37966033125E-02  0.24161553459E-01  0.57128166552E-02  0.10188136480E+01  0.10185040099E+01 0.  0.
     999903    2    3    3    0    0  0.42208661762E-01  0.20719137650E-02  0.12111873721E+00  0.12981254393E+00  0.19891809951E-01 0.  0.
         14    1    1    2    0    0  0.37966033125E-02 -0.24161553459E-01 -0.57128166552E-02  0.25116351973E-01  0.00000000000E+00 0.  1.
     999901    1    3    3    0    0 -0.46005265075E-01  0.22089639694E-01 -0.11540592055E+00  0.88900110410E+00  0.88000000000E+00 0.  1.
        -11    1    4    4    0    0  0.19898033964E-01 -0.76960684687E-02  0.70097410274E-01  0.73273933111E-01  0.51100000000E-03 0. -1.
         11    1    4    4    0    0  0.22310627798E-01  0.97679822336E-02  0.51021326934E-01  0.56538610814E-01  0.51100000000E-03 0.  1.
</event>
<event>
 8    1  0.1157726E+005  0.1043930E+01  0.7957747E-01            NaN
         13   -1    0    0    0    0  0.00000000000E+00  0.00000000000E+00  0.74505805969E-08  0.10566000000E+00  0.10566000000E+00 0.  1.
     999900   -1    0    0    0    0 -0.00000000000E+00 -0.00000000000E+00 -0.74505805969E-08  0.93827000000E+00  0.93827000000E+00 0. -1.
     999902    2    1    2    0    0 -0.15731053515E-01  0.85757152861E-02  0.14569636774E-01  0.10208370735E+01  0.10205758411E+01 0.  0.
     999903    2    3    3    0    0  0.93763656058E-01  0.44563723779E-01  0.77682193549E-01  0.13108012750E+00  0.19233511287E-01 0.  0.
         14    1    1    2    0    0  0.15731053515E-01 -0.85757152861E-02 -0.14569636774E-01  0.23092926473E-01  0.00000000000E+00 0. -1.
     999901    1    3    3    0    0 -0.10949470957E+00 -0.35988008493E-01 -0.63112556775E-01  0.88975694603E+00  0.88000000000E+00 0. -1.
        -11    1    4    4    0    0  0.20368373821E-01  0.13841963091E-02  0.14603767151E-01  0.25106130477E-01  0.51100000000E-03 0. -1.
         11    1    4    4    0    0  0.73395282237E-01  0.43179527470E-01  0.63078426399E-01  0.10597399702E+00  0.51100000000E-03 0.  1.
</event>
<event>
 8    1  0.1157726E+005  0.1043930E+01  0.7957747E-01            NaN
         13   -1    0    0    0    0  0.00000000000E+00  0.00000000000E+00  0.74505805969E-08  0.10566000000E+00  0.10566000000E+00 0.  1.
     999900   -1    0    0    0    0 -0.00000000000E+00 -0.00000000000E+00 -0.74505805969E-08  0.93827000000E+00  0.93827000000E+00 0. -1.
     999902    2    1    2    0    0  0.12538338420E-01 -0.18486984256E-01  0.77314454517E-02  0.10202920270E+01  0.10200181698E+01 0.  0.
     999903    2    3    3    0    0  0.48062779998E-01  0.10149781722E+00 -0.59288281514E-01  0.12891669512E+00  0.22194058574E-01 0.  0.
         14    1    1    2    0    0 -0.12538338420E-01  0.18486984256E-01 -0.77314454517E-02  0.23637972967E-01  0.00000000000E+00 0.  1.
     999901    1    3    3    0    0 -0.35524441578E-01 -0.11998480147E+00  0.67019726966E-01  0.89137533191E+00  0.88000000000E+00 0.  1.
        -11    1    4    4    0    0  0.31286638679E-01  0.47281747148E-01 -0.21036533410E-01  0.60474905805E-01  0.51100000000E-03 0. -1.
         11    1    4    4    0    0  0.16776141319E-01  0.54216070067E-01 -0.38251748104E-01  0.68441789319E-01  0.51100000000E-03 0.  1.
</event>
<event>
 8    1  0.1157726E+005  0.1043930E+01  0.7957747E-01            NaN
         13   -1    0    0    0    0  0.00000000000E+00  0.00000000000E+00  0.74505805969E-08  0.10566000000E+00  0.10566000000E+00 0. -1.
     999900   -1    0    0    0    0 -0.00000000000E+00 -0.00000000000E+00 -0.74505805969E-08  0.93827000000E+00  0.93827000000E+00 0. -1.
     999902    2    1    2    0    0  0.18975207988E-01  0.65166709832E-02 -0.16588829848E-01  0.10178970441E+01  0.10175640901E+01 0.  0.
     999903    2    3    3    0    0 -0.36886004968E-01  0.31577549660E-01 -0.11879199745E+00  0.12986888561E+00  0.19916570605E-01 0.  0.
         14    1    1    2    0    0 -0.18975207988E-01 -0.65166709832E-02  0.16588829848E-01  0.26032955933E-01  0.00000000000E+00 0. -1.
     999901    1    3    3    0    0  0.55861212956E-01 -0.25060878676E-01  0.10220316760E+00  0.88802815846E+00  0.88000000000E+00 0.  1.
        -11    1    4    4    0    0 -0.25656900506E-01  0.26054011454E-01 -0.10525390164E+00  0.11142590807E+00  0.51100000000E-03 0.  1.
         11    1    4    4    0    0 -0.11229104462E-01  0.55235382059E-02 -0.13538095807E-01  0.18442977537E-01  0.51100000000E-03 0. -1.
</event>
<event>
 8    1  0.1157726E+005  0.1043930E+01  0.7957747E-01            NaN
         13   -1    0    0    0    0  0.00000000000E+00  0.00000000000E+00  0.74505805969E-08  0.10566000000E+00  0.10566000000E+00 0. -1.
     999900   -1    0    0    0    0 -0.00000000000E+00 -0.00000000000E+00 -0.74505805969E-08  0.93827000000E+00  0.93827000000E+00 0.  1.
     999902    2    1    2    0    0  0.23315211250E-01  0.97651866444E-04  0.45421721915E-03  0.10206101603E+01  0.10203437089E+01 0.  0.
     999903    2    3    3    0    0  0.91461532343E-01 -0.88675569637E-01 -0.32015798540E-01  0.13292839981E+00  0.20405380948E-01 0.  0.
         14    1    1    2    0    0 -0.23315211250E-01 -0.97651866444E-04 -0.45421721915E-03  0.23319839725E-01  0.00000000000E+00 0. -1.
     999901    1    3    3    0    0 -0.68146321094E-01  0.88773221503E-01  0.32470015759E-01  0.88768176046E+00  0.88000000000E+00 0. -1.
        -11    1    4    4    0    0  0.39071072206E-01 -0.27009365776E-01 -0.57147505451E-02  0.47843223321E-01  0.51100000000E-03 0. -1.
         11    1    4    4    0    0  0.52390460137E-01 -0.61666203861E-01 -0.26301047995E-01  0.85085176492E-01  0.51100000000E-03 0.  1.
</event>
<event>
 8    1  0.1157726E+005  0.1043930E+01  0.7957747E-01            NaN
         13   -1    0    0    0    0  0.00000000000E+00  0.00000000000E+00  0.74505805969E-08  0.10566000000E+00  0.10566000000E+00 0.  1.
     999900   -1    0    0    0    0 -0.00000000000E+00 -0.00000000000E+00 -0.74505805969E-08  0.93827000000E+00  0.93827000000E+00 0. -1.
     999902    2    1    2    0    0 -0.14396172649E-01  0.76183754210E-02 -0.17438981950E-01  0.10200677385E+01  0.10197885975E+01 0.  0.
     999903    2    3    3    0    0  0.67465279319E-01 -0.10656658932E+00  0.13632336119E-01  0.12838117348E+00  0.19694751610E-01 0.  0.
         14    1    1    2    0    0  0.14396172649E-01 -0.76183754210E-02  0.17438981950E-01  0.23862261470E-01  0.00000000000E+00 0.  1.
     999901    1    3    3    0    0 -0.81861451968E-01  0.11418496475E+00 -0.31071318069E-01  0.89168656505E+00  0.88000000000E+00 0. -1.
        -11    1    4    4    0    0  0.25441223328E-01 -0.55720552609E-01  0.11842418238E-01  0.62390222137E-01  0.51100000000E-03 0.  1.
         11    1    4    4    0    0  0.42024055991E-01 -0.50846036715E-01  0.17899178805E-02  0.65990951339E-01  0.51100000000E-03 0. -1.
</event>
<event>
 8    1  0.1157726E+005  0.1043930E+01  0.7957747E-01            NaN
         13   -1    0    0    0    0  0.00000000000E+00  0.00000000000E+00  0.74505805969E-08  0.10566000000E+00  0.10566000000E+00 0.  1.
     999900   -1    0    0    0    0 -0.00000000000E+00 -0.00000000000E+00 -0.74505805969E-08  0.93827000000E+00  0.93827000000E+00 0.  1.
     999902    2    1    2    0    0  0.89406160692E-02 -0.12562191275E-01 -0.19271948062E-01  0.10192490104E+01  0.10189501430E+01 0.  0.
     999903    2    3    3    0    0  0.63734811528E-01  0.64520305902E-01  0.87616513694E-01  0.12775068820E+00  0.20459442579E-01 0.  0.
         14    1    1    2    0    0 -0.89406160692E-02  0.12562191275E-01  0.19271948062E-01  0.24680989596E-01  0.00000000000E+00 0.  1.
     999901    1    3    3    0    0 -0.54794195459E-01 -0.77082497177E-01 -0.10688846176E+00  0.89149832220E+00  0.88000000000E+00 0.  1.
        -11    1    4    4    0    0  0.31025680560E-01  0.44881145291E-01  0.56143775452E-01  0.78289812235E-01  0.51100000000E-03 0.  1.
         11    1    4    4    0    0  0.32709130969E-01  0.19639160612E-01  0.31472738241E-01  0.49460875969E-01  0.51100000000E-03 0. -1.
</event>
<event>
 8    1  0.1157726E+005  0.1043930E+01  0.7957747E-01            NaN
         13   -1    0    0    0    0  0.00000000000E+00  0.00000000000E+00  0.74505805969E-08  0.10566000000E+00  0.10566000000E+00 0. -1.
     999900   -1    0    0    0    0 -0.00000000000E+00 -0.00000000000E+00 -0.74505805969E-08  0.93827000000E+00  0.93827000000E+00 0.  1.
     999902    2    1    2    0    0 -0.95130385890E-02  0.19429835683E-01 -0.83017836020E-02  0.10207581199E+01  0.10204950775E+01 0.  0.
     999903    2    3    3    0    0  0.35826261646E-01  0.12523481989E+00  0.17780384642E-01  0.13287827083E+00  0.19318686392E-01 0.  0.
         14    1    1    2    0    0  0.95130385890E-02 -0.19429835683E-01  0.83017836020E-02  0.23171880132E-01  0.00000000000E+00 0.  1.
     999901    1    3    3    0    0 -0.45339300235E-01 -0.10580498421E+00 -0.26082168244E-01  0.88787984904E+00  0.88000000000E+00 0.  1.
        -11    1    4    4    0    0  0.43403498990E-02  0.25865029860E-01 -0.35723040517E-02  0.26473777293E-01  0.51100000000E-03 0.  1.
         11    1    4    4    0    0  0.31485911747E-01  0.99369790031E-01  0.21352688694E-01  0.10640449354E+00  0.51100000000E-03 0. -1.
</event>
<event>
 8    1  0.1157726E+005  0.1043930E+01  0.7957747E-01            NaN
         13   -1    0    0    0    0  0.00000000000E+00  0.00000000000E+00  0.74505805969E-08  0.10566000000E+00  0.10566000000E+00 0.  1.
     999900   -1    0    0    0    0 -0.00000000000E+00 -0.00000000000E+00 -0.74505805969E-08  0.93827000000E+00  0.93827000000E+00 0. -1.
     999902    2    1    2    0    0 -0.12462105941E-01 -0.11111995518E-01  0.10255812982E-01  0.10243350458E+01  0.10241476084E+01 0.  0.
     999903    2    3    3    0    0 -0.21327740698E-01 -0.12403751864E-01 -0.12944797124E+00  0.13326971970E+00  0.19882538775E-01 0.  0.
         14    1    1    2    0    0  0.12462105941E-01  0.11111995518E-01 -0.10255812982E-01  0.19594954167E-01  0.00000000000E+00 0. -1.
     999901    1    3    3    0    0  0.88656347572E-02  0.12917563460E-02  0.13970378422E+00  0.89106532613E+00  0.88000000000E+00 0.  1.
        -11    1    4    4    0    0 -0.53766547286E-02  0.51183940274E-02 -0.42643966562E-01  0.43288282232E-01  0.51100000000E-03 0.  1.
         11    1    4    4    0    0 -0.15951085969E-01 -0.17522145892E-01 -0.86804004673E-01  0.89981437466E-01  0.51100000000E-03 0. -1.
</event>
<event>
 8    1  0.1157726E+005  0.1043930E+01  0.7957747E-01            NaN
         13   -1    0    0    0    0  0.00000000000E+00  0.00000000000E+00  0.74505805969E-08  0.10566000000E+00  0.10566000000E+00 0.  1.
     999900   -1    0    0    0    0 -0.00000000000E+00 -0.00000000000E+00 -0.74505805969E-08  0.93827000000E+00  0.93827000000E+00 0.  1.
     999902    2    1    2    0    0  0.23838652752E-01  0.24530984449E-02 -0.92439740875E-03  0.10199476405E+01  0.10196656490E+01 0.  0.
     999903    2    3    3    0    0  0.38006037187E-01 -0.64504983234E-01  0.10547745009E+00  0.13090014309E+00  0.20099832336E-01 0.  0.
         14    1    1    2    0    0 -0.23838652752E-01 -0.24530984449E-02  0.92439740875E-03  0.23982359508E-01  0.00000000000E+00 0. -1.
     999901    1    3    3    0    0 -0.14167384435E-01  0.66958081679E-01 -0.10640184749E+00  0.88904749740E+00  0.88000000000E+00 0.  1.
        -11    1    4    4    0    0  0.34959154524E-01 -0.41575106665E-01  0.71564503334E-01  0.89846375762E-01  0.51100000000E-03 0. -1.
         11    1    4    4    0    0  0.30468826626E-02 -0.22929876570E-01  0.33912946752E-01  0.41053767329E-01  0.51100000000E-03 0.  1.
</event>
<event>
 8    1  0.1157726E+005  0.1043930E+01  0.7957747E-01            NaN
         13   -1    0    0    0    0  0.00000000000E+00  0.00000000000E+00  0.74505805969E-08  0.10566000000E+00  0.10566000000E+00 0. -1.
     999900   -1    0    0    0    0 -0.00000000000E+00 -0.00000000000E+00 -0.74505805969E-08  0.93827000000E+00  0.93827000000E+00 0. -1.
     999902    2    1    2    0    0 -0.11710724990E-01 -0.20081696538E-01  0.30727483209E-02  0.10204809617E+01  0.10202115152E+01 0.  0.
     999903    2    3    3    0    0  0.35286791143E-01  0.69348593836E-01 -0.10053382428E+00  0.12866210943E+00  0.19811700631E-01 0.  0.
         14    1    1    2    0    0  0.11710724990E-01  0.20081696538E-01 -0.30727483209E-02  0.23449038314E-01  0.00000000000E+00 0.  1.
     999901    1    3    3    0    0 -0.46997516132E-01 -0.89430290374E-01  0.10360657260E+00  0.89181885226E+00  0.88000000000E+00 0.  1.
        -11    1    4    4    0    0  0.50693915404E-06  0.17759399995E-01 -0.23492183804E-01  0.29454033838E-01  0.51100000000E-03 0. -1.
         11    1    4    4    0    0  0.35286284203E-01  0.51589193841E-01 -0.77041640474E-01  0.99208075588E-01  0.51100000000E-03 0.  1.
</event>
<event>
 8    1  0.1157726E+005  0.1043930E+01  0.7957747E-01            NaN
         13   -1    0    0    0    0  0.00000000000E+00  0.00000000000E+00  0.74505805969E-08  0.10566000000E+00  0.10566000000E+00 0. -1.
     999900   -1    0    0    0    0 -0.00000000000E+00 -0.00000000000E+00 -0.74505805969E-08  0.93827000000E+00  0.93827000000E+00 0. -1.
     999902    2    1    2    0    0  0.21731005062E-01  0.75269451696E-02 -0.35540314953E-02  0.10206593613E+01  0.10203940461E+01 0.  0.
     999903    2    3    3    0    0 -0.29066785005E-01  0.12010143718E+00 -0.39610085372E-01  0.13130371213E+00  0.20061723591E-01 0.  0.
         14    1    1    2    0    0 -0.21731005062E-01 -0.75269451696E-02  0.35540314953E-02  0.23270638678E-01  0.00000000000E+00 0. -1.
     999901    1    3    3    0    0  0.50797790067E-01 -0.11257449201E+00  0.36056053877E-01  0.88935564919E+00  0.88000000000E+00 0.  1.
        -11    1    4    4    0    0  0.12097885000E-02  0.31777436527E-01 -0.10842918791E-01  0.33602069421E-01  0.51100000000E-03 0. -1.
         11    1    4    4    0    0 -0.30276573505E-01  0.88324000651E-01 -0.28767166581E-01  0.97701642710E-01  0.51100000000E-03 0.  1.
</event>
<event>
 8    1  0.1157726E+005  0.1043930E+01  0.7957747E-01            NaN
         13   -1    0    0    0    0  0.00000000000E+00  0.00000000000E+00  0.74505805969E-08  0.10566000000E+00  0.10566000000E+00 0. -1.
     999900   -1    0    0    0    0 -0.00000000000E+00 -0.00000000000E+00 -0.74505805969E-08  0.93827000000E+00  0.93827000000E+00 0.  1.
     999902    2    1    2    0    0  0.62458207037E-02 -0.10896726371E-01 -0.20008956217E-01  0.10203057063E+01  0.10200321697E+01 0.  0.
     999903    2    3    3    0    0 -0.78174064236E-01 -0.99510197848E-01 -0.30726686809E-01  0.13177099456E+00  0.20149489561E-01 0.  0.
         14    1    1    2    0    0 -0.62458207037E-02  0.10896726371E-01  0.20008956217E-01  0.23624293656E-01  0.00000000000E+00 0. -1.
     999901    1    3    3    0    0  0.84419884940E-01  0.88613471477E-01  0.10717730592E-01  0.88853471179E+00  0.88000000000E+00 0. -1.
        -11    1    4    4    0    0 -0.17737837505E-01 -0.20927729107E-01 -0.15377170959E-01  0.31453445481E-01  0.51100000000E-03 0.  1.
         11    1    4    4    0    0 -0.60436226731E-01 -0.78582468740E-01 -0.15349515849E-01  0.10031754908E+00  0.51100000000E-03 0. -1.
</event>
<event>
 8    1  0.1157726E+005  0.1043930E+01  0.7957747E-01            NaN
         13   -1    0    0    0    0  0.00000000000E+00  0.00000000000E+00  0.74505805969E-08  0.10566000000E+00  0.10566000000E+00 0. -1.
     999900   -1    0    0    0    0 -0.00000000000E+00 -0.00000000000E+00 -0.74505805969E-08  0.93827000000E+00  0.93827000000E+00 0.  1.
     999902    2    1    2    0    0 -0.20295726631E-01 -0.94607253837E-02 -0.49921614985E-02  0.10209878222E+01  0.10207300278E+01 0.  0.
     999903    2    3    3    0    0 -0.47277063647E-01 -0.14520362617E-01 -0.12164251092E+00  0.13286570422E+00  0.20259151483E-01 0.  0.
         14    1    1    2    0    0  0.20295726631E-01  0.94607253837E-02  0.49921614985E-02  0.22942177767E-01  0.00000000000E+00 0.  1.
     999901    1    3    3    0    0  0.26981337016E-01  0.50596372331E-02  0.11665034942E+00  0.88812211801E+00  0.88000000000E+00 0. -1.
        -11    1    4    4    0    0 -0.47622112597E-01 -0.15815793501E-01 -0.10733648684E+00  0.11848792116E+00  0.51100000000E-03 0. -1.
         11    1    4    4    0    0  0.34504895025E-03  0.12954308842E-02 -0.14306024077E-01  0.14377783064E-01  0.51100000000E-03 0.  1.
</event>
<event>
 8    1  0.1157726E+005  0.1043930E+01  0.7957747E-01            NaN
         13   -1    0    0    0    0  0.00000000000E+00  0.00000000000E+00  0.74505805969E-08  0.10566000000E+00  0.10566000000E+00 0.  1.
     999900   -1    0    0    0    0 -0.00000000000E+00 -0.00000000000E+00 -0.74505805969E-08  0.93827000000E+00  0.93827000000E+00 0. -1.
     999902    2    1    2    0    0 -0.90052277401E-03 -0.19133254146E-01 -0.14213159464E-01  0.10200782441E+01  0.10197993518E+01 0.  0.
     999903    2    3    3    0    0 -0.74652937080E-01  0.47459162152E-01 -0.94263131528E-01  0.13087524901E+00  0.20429384512E-01 0.  0.
         14    1    1    2    0    0  0.90052277401E-03  0.19133254146E-01  0.14213159464E-01  0.23851755856E-01  0.00000000000E+00 0. -1.
     999901    1    3    3    0    0  0.73752414306E-01 -0.66592416298E-01  0.80049972064E-01  0.88920299513E+00  0.88000000000E+00 0.  1.
        -11    1    4    4    0    0 -0.17050199255E-01  0.18004556420E-01 -0.36585232328E-01  0.44199702397E-01  0.51100000000E-03 0. -1.
         11    1    4    4    0    0 -0.57602737825E-01  0.29454605732E-01 -0.57677899200E-01  0.86675546614E-01  0.51100000000E-03 0.  1.
</event>
<event>
 8    1  0.1157726E+005  0.1043930E+01  0.7957747E-01            NaN
         13   -1    0    0    0    0  0.00000000000E+00  0.00000000000E+00  0.74505805969E-08  0.10566000000E+00  0.10566000000E+00 0.  1.
     999900   -1    0    0    0    0 -0.00000000000E+00 -0.00000000000E+00 -0.74505805969E-08  0.93827000000E+00  0.93827000000E+00 0. -1.
     999902    2    1    2    0    0  0.19272572492E-01  0.12925262853E-01 -0.25725692632E-02  0.10205823538E+01  0.10203152593E+01 0.  0.
     999903    2    3    3    0    0 -0.36663877094E-01 -0.12126225223E+00  0.89425254294E-02  0.12858023889E+00  0.20103118513E-01 0.  0.
         14    1    1    2    0    0 -0.19272572492E-01 -0.12925262853E-01  0.25725692632E-02  0.23347646196E-01  0.00000000000E+00 0.  1.
     999901    1    3    3    0    0  0.55936449587E-01  0.13418751508E+00 -0.11515094693E-01  0.89200211491E+00  0.88000000000E+00 0. -1.
        -11    1    4    4    0    0 -0.51307947870E-03 -0.28157909968E-01  0.51244060707E-02  0.28629561696E-01  0.51100000000E-03 0. -1.
         11    1    4    4    0    0 -0.36150797616E-01 -0.93104342261E-01  0.38181193587E-02  0.99950677199E-01  0.51100000000E-03 0.  1.
</event>
<event>
 8    1  0.1157726E+005  0.1043930E+01  0.7957747E-01            NaN
         13   -1    0    0    0    0  0.00000000000E+00  0.00000000000E+00  0.74505805969E-08  0.10566000000E+00  0.10566000000E+00 0. -1.
     999900   -1    0    0    0    0 -0.00000000000E+00 -0.00000000000E+00 -0.74505805969E-08  0.93827000000E+00  0.93827000000E+00 0.  1.
     999902    2    1    2    0    0 -0.22681031644E-01  0.11067617830E-01  0.42441951916E-02  0.10183383108E+01  0.10180166898E+01 0.  0.
     999903    2    3    3    0    0 -0.56928159078E-02  0.10081468372E+00 -0.77661795501E-01  0.12982735052E+00  0.25055495521E-01 0.  0.
         14    1    1    2    0    0  0.22681031644E-01 -0.11067617830E-01 -0.42441951916E-02  0.25591689153E-01  0.00000000000E+00 0.  1.
     999901    1    3    3    0    0 -0.16988215736E-01 -0.89747065891E-01  0.81905990692E-01  0.88851096033E+00  0.88000000000E+00 0.  1.
        -11    1    4    4    0    0  0.45365935982E-02  0.38239094508E-02 -0.80027752351E-02  0.99753946000E-02  0.51100000000E-03 0.  1.
         11    1    4    4    0    0 -0.10229409506E-01  0.96990774271E-01 -0.69659020265E-01  0.11985195592E+00  0.51100000000E-03 0. -1.
</event>
<event>
 8    1  0.1157726E+005  0.1043930E+01  0.7957747E-01            NaN
         13   -1    0    0    0    0  0.00000000000E+00  0.00000000000E+00  0.74505805969E-08  0.10566000000E+00  0.10566000000E+00 0. -1.
     999900   -1    0    0    0    0 -0.00000000000E+00 -0.00000000000E+00 -0.74505805969E-08  0.93827000000E+00  0.93827000000E+00 0. -1.
     999902    2    1    2    0    0 -0.21163757253E-01 -0.38351155952E-02 -0.92505595730E-02  0.10205166366E+01  0.10202480189E+01 0.  0.
     999903    2    3    3    0    0 -0.28290932692E-01  0.73426069980E-01  0.10202416176E+00  0.13012225712E+00  0.18196362018E-01 0.  0.
         14    1    1    2    0    0  0.21163757253E-01  0.38351155952E-02  0.92505595730E-02  0.23413363387E-01  0.00000000000E+00 0. -1.
     999901    1    3    3    0    0  0.71271754391E-02 -0.77261185576E-01 -0.11127472133E+00  0.89039437949E+00  0.88000000000E+00 0. -1.
        -11    1    4    4    0    0 -0.21468705167E-01  0.35367400560E-01  0.61364842901E-01  0.74011238263E-01  0.51100000000E-03 0.  1.
         11    1    4    4    0    0 -0.68222275245E-02  0.38058669421E-01  0.40659318854E-01  0.56111018857E-01  0.51100000000E-03 0. -1.
</event>
<event>
 8    1  0.1157726E+005  0.1043930E+01  0.7957747E-01            NaN
         13   -1    0    0    0    0  0.00000000000E+00  0.00000000000E+00  0.74505805969E-08  0.10566000000E+00  0.10566000000E+00 0.  1.
     999900   -1    0    0    0    0 -0.00000000000E+00 -0.00000000000E+00 -0.74505805969E-08  0.93827000000E+00  0.93827000000E+00 0. -1.
     999902    2    1    2    0    0 -0.19188908423E-01  0.11062277055E-01 -0.79887799027E-02  0.10203841132E+01  0.10201124103E+01 0.  0.
     999903    2    3    3    0    0 -0.46360404833E-01  0.83664108573E-01 -0.92195912504E-01  0.13297205710E+00  0.57018845737E-02 0.  0.
         14    1    1    2    0    0  0.19188908423E-01 -0.11062277055E-01  0.79887799027E-02  0.23545886784E-01  0.00000000000E+00 0.  1.
     999901    1    3    3    0    0  0.27171496410E-01 -0.72601831518E-01  0.84207132601E-01  0.88741205611E+00  0.88000000000E+00 0.  1.
        -11    1    4    4    0    0 -0.94665350376E-02  0.15182700658E-01 -0.14605967495E-01  0.23102491042E-01  0.51100000000E-03 0. -1.
         11    1    4    4    0    0 -0.36893869796E-01  0.68481407915E-01 -0.77589945009E-01  0.10986956606E+00  0.51100000000E-03 0.  1.
</event>
<event>
 8    1  0.1157726E+005  0.1043930E+01  0.7957747E-01            NaN
         13   -1    0    0    0    0  0.00000000000E+00  0.00000000000E+00  0.74505805969E-08  0.10566000000E+00  0.10566000000E+00 0. -1.
     999900   -1    0    0    0    0 -0.00000000000E+00 -0.00000000000E+00 -0.74505805969E-08  0.93827000000E+00  0.93827000000E+00 0. -1.
     999902    2    1    2    0    0  0.45229124433E-03 -0.24569533737E-01 -0.82166472459E-02  0.10180190014E+01  0.10176891998E+01 0.  0.
     999903    2    3    3    0    0  0.33123902844E-01  0.11637611313E+00 -0.28588915580E-01  0.12597183961E+00  0.20272780604E-01 0.  0.
         14    1    1    2    0    0 -0.45229124433E-03  0.24569533737E-01  0.82166472459E-02  0.25910998579E-01  0.00000000000E+00 0.  1.
     999901    1    3    3    0    0 -0.32671611600E-01 -0.14094564687E+00  0.20372268334E-01  0.89204716181E+00  0.88000000000E+00 0.  1.
        -11    1    4    4    0    0  0.10075596998E-01  0.42480141957E-01 -0.20206190179E-01  0.48110615857E-01  0.51100000000E-03 0. -1.
         11    1    4    4    0    0  0.23048305846E-01  0.73895971175E-01 -0.83827254006E-02  0.77861223754E-01  0.51100000000E-03 0.  1.
</event>
<event>
 8    1  0.1157726E+005  0.1043930E+01  0.7957747E-01            NaN
         13   -1    0    0    0    0  0.00000000000E+00  0.00000000000E+00  0.74505805969E-08  0.10566000000E+00  0.10566000000E+00 0.  1.
     999900   -1    0    0    0    0 -0.00000000000E+00 -0.00000000000E+00 -0.74505805969E-08  0.93827000000E+00  0.93827000000E+00 0. -1.
     999902    2    1    2    0    0  0.83824185083E-02 -0.68451232620E-02 -0.20422606951E-01  0.10208171567E+01  0.10205554683E+01 0.  0.
     999903    2    3    3    0    0  0.14331384664E-01 -0.12117046020E+00 -0.49140623867E-01  0.13293743656E+00  0.19232579525E-01 0.  0.
         14    1    1    2    0    0 -0.83824185083E-02  0.68451232620E-02  0.20422606951E-01  0.23112843339E-01  0.00000000000E+00 0.  1.
     999901    1    3    3    0    0 -0.59489661558E-02  0.11432533694E+00  0.28718016916E-01  0.88787972010E+00  0.88000000000E+00 0.  1.
        -11    1    4    4    0    0  0.81438628907E-02 -0.58067814095E-01 -0.13396473818E-01  0.60149149356E-01  0.51100000000E-03 0.  1.
         11    1    4    4    0    0  0.61875217734E-02 -0.63102646104E-01 -0.35744150048E-01  0.72788287208E-01  0.51100000000E-03 0. -1.
</event>
<event>
 8    1  0.1157726E+005  0.1043930E+01  0.7957747E-01            NaN
         13   -1    0    0    0    0  0.00000000000E+00  0.00000000000E+00  0.74505805969E-08  0.10566000000E+00  0.10566000000E+00 0. -1.
     999900   -1    0    0    0    0 -0.00000000000E+00 -0.00000000000E+00 -0.74505805969E-08  0.93827000000E+00  0.93827000000E+00 0.  1.
     999902    2    1    2    0    0  0.84353637649E-02 -0.13703684474E-01 -0.20645603752E-01  0.10177539177E+01  0.10174172447E+01 0.  0.
     999903    2    3    3    0    0  0.11080953676E+00 -0.64904396771E-01 -0.58631102116E-02  0.13021771768E+00  0.20759185441E-01 0.  0.
         14    1    1    2    0    0 -0.84353637649E-02  0.13703684474E-01  0.20645603752E-01  0.26176082294E-01  0.00000000000E+00 0. -1.
     999901    1    3    3    0    0 -0.10237417299E+00  0.51200712297E-01 -0.14782493540E-01  0.88753620002E+00  0.88000000000E+00 0.  1.
        -11    1    4    4    0    0  0.21234798277E-01 -0.15125073078E-01 -0.92915149693E-02  0.27681724384E-01  0.51100000000E-03 0.  1.
         11    1    4    4    0    0  0.89574738482E-01 -0.49779323694E-01  0.34284047576E-02  0.10253599330E+00  0.51100000000E-03 0. -1.
</event>
<event>
 8    1  0.1157726E+005  0.1043930E+01  0.7957747E-01            NaN
         13   -1    0    0    0    0  0.00000000000E+00  0.00000000000E+00  0.74505805969E-08  0.10566000000E+00  0.10566000000E+00 0. -1.
     999900   -1    0    0    0    0 -0.00000000000E+00 -0.00000000000E+00 -0.74505805969E-08  0.93827000000E+00  0.93827000000E+00 0. -1.
     999902    2    1    2    0    0  0.24182963072E-01  0.24155653752E-02 -0.37193278895E-02  0.10193437425E+01  0.10190471929E+01 0.  0.
     999903    2    3    3    0    0 -0.31876933403E-01 -0.11220788743E+00 -0.51063153881E-01  0.12888167940E+00  0.19907102102E-01 0.  0.
         14    1    1    2    0    0 -0.24182963072E-01 -0.24155653752E-02  0.37193278895E-02  0.24586257522E-01  0.00000000000E+00 0.  1.
     999901    1    3    3    0    0  0.56059896474E-01  0.11462345281E+00  0.47343825992E-01  0.89046206308E+00  0.88000000000E+00 0.  1.
        -11    1    4    4    0    0 -0.86429388695E-02 -0.60341639481E-01 -0.32563525716E-01  0.69111924989E-01  0.51100000000E-03 0. -1.
         11    1    4    4    0    0 -0.23233994533E-01 -0.51866247953E-01 -0.18499628165E-01  0.59769754408E-01  0.51100000000E-03 0.  1.
</event>
<event>
 8    1  0.1157726E+005  0.1043930E+01  0.7957747E-01            NaN
         13   -1    0    0    0    0  0.00000000000E+00  0.00000000000E+00  0.74505805969E-08  0.10566000000E+00  0.10566000000E+00 0. -1.
     999900   -1    0    0    0    0 -0.00000000000E+00 -0.00000000000E+00 -0.74505805969E-08  0.93827000000E+00  0.93827000000E+00 0.  1.
     999902    2    1    2    0    0 -0.17168277888E-03  0.18246069762E-01  0.15650711445E-01  0.10198905885E+01  0.10196072377E+01 0.  0.
     999903    2    3    3    0    0  0.11195910657E+00  0.58681174459E-01 -0.26702350285E-01  0.13084498030E+00  0.20714043057E-01 0.  0.
         14    1    1    2    0    0  0.17168277888E-03 -0.18246069762E-01 -0.15650711445E-01  0.24039411504E-01  0.00000000000E+00 0.  1.
     999901    1    3    3    0    0 -0.11213078935E+00 -0.40435104697E-01  0.42353061731E-01  0.88904560819E+00  0.88000000000E+00 0.  1.
        -11    1    4    4    0    0  0.71989389170E-01  0.43471650803E-01 -0.90767398407E-02  0.84586670958E-01  0.51100000000E-03 0. -1.
         11    1    4    4    0    0  0.39969717399E-01  0.15209523656E-01 -0.17625610445E-01  0.46258309344E-01  0.51100000000E-03 0.  1.
</event>
<event>
 8    1  0.1157726E+005  0.1043930E+01  0.7957747E-01            NaN
         13   -1    0    0    0    0  0.00000000000E+00  0.00000000000E+00  0.74505805969E-08  0.10566000000E+00  0.10566000000E+00 0.  1.
     999900   -1    0    0    0    0 -0.00000000000E+00 -0.00000000000E+00 -0.74505805969E-08  0.93827000000E+00  0.93827000000E+00 0.  1.
     999902    2    1    2    0    0 -0.23822836793E-01  0.48444238532E-02 -0.24392789401E-02  0.10194975200E+01  0.10192047131E+01 0.  0.
     999903    2    3    3    0    0  0.11432614708E+00  0.51878412846E-01  0.87437772372E-02  0.12740873600E+00  0.19866925847E-01 0.  0.
         14    1    1    2    0    0  0.23822836793E-01 -0.48444238532E-02  0.24392789401E-02  0.24432479962E-01  0.00000000000E+00 0.  1.
     999901    1    3    3    0    0 -0.13814898387E+00 -0.47033988993E-01 -0.11183056177E-01  0.89208878404E+00  0.88000000000E+00 0. -1.
        -11    1    4    4    0    0  0.51171817433E-01  0.26502382008E-01  0.13463428946E-01  0.59181552798E-01  0.51100000000E-03 0. -1.
         11    1    4    4    0    0  0.63154329646E-01  0.25376030838E-01 -0.47196517089E-02  0.68227183200E-01  0.51100000000E-03 0.  1.
</event>
<event>
 8    1  0.1157726E+005  0.1043930E+01  0.7957747E-01            NaN
         13   -1    0    0    0    0  0.00000000000E+00  0.00000000000E+00  0.74505805969E-08  0.10566000000E+00  0.10566000000E+00 0.  1.
     999900   -1    0    0    0    0 -0.00000000000E+00 -0.00000000000E+00 -0.74505805969E-08  0.93827000000E+00  0.93827000000E+00 0.  1.
     999902    2    1    2    0    0  0.49378425632E-02 -0.23290391981E-01 -0.25993065402E-02  0.10199804480E+01  0.10196992366E+01 0.  0.
     999903    2    3    3    0    0  0.17621002364E-01  0.11330809957E-01 -0.12692807062E+00  0.13047657966E+00  0.21783382454E-01 0.  0.
         14    1    1    2    0    0 -0.49378425632E-02  0.23290391981E-01  0.25993065402E-02  0.23949552027E-01  0.00000000000E+00 0.  1.
     999901    1    3    3    0    0 -0.12683159800E-01 -0.34621201938E-01  0.12432876408E+00  0.88950386831E+00  0.88000000000E+00 0. -1.
        -11    1    4    4    0    0  0.15162278942E-01 -0.18437054147E-02 -0.46749875591E-01  0.49184407500E-01  0.51100000000E-03 0. -1.
         11    1    4    4    0    0  0.24587234211E-02  0.13174515371E-01 -0.80178195025E-01  0.81292172160E-01  0.51100000000E-03 0.  1.
</event>
<event>
 8    1  0.1157726E+005  0.1043930E+01  0.7957747E-01            NaN
         13   -1    0    0    0    0  0.00000000000E+00  0.00000000000E+00  0.74505805969E-08  0.10566000000E+00  0.10566000000E+00 0.  1.
     999900   -1    0    0    0    0 -0.00000000000E+00 -0.00000000000E+00 -0.74505805969E-08  0.93827000000E+00  0.93827000000E+00 0.  1.
     999902    2    1    2    0    0  0.17612014677E-01  0.10636061681E-01 -0.16366173495E-01  0.10176400684E+01  0.10173004218E+01 0.  0.
     999903    2    3    3    0    0  0.40494161818E-01 -0.34134202418E-01 -0.11746896618E+00  0.13042546983E+00  0.20172363499E-01 0.  0.
         14    1    1    2    0    0 -0.17612014677E-01 -0.10636061681E-01  0.16366173495E-01  0.26289931608E-01  0.00000000000E+00 0.  1.
     999901    1    3    3    0    0 -0.22882147141E-01  0.44770264099E-01  0.10110279269E+00  0.88721459856E+00  0.88000000000E+00 0. -1.
        -11    1    4    4    0    0 -0.16595459105E-02 -0.53439798358E-02 -0.11168373254E-01  0.12502235610E-01  0.51100000000E-03 0.  1.
         11    1    4    4    0    0  0.42153707729E-01 -0.28790222582E-01 -0.10630059293E+00  0.11792323422E+00  0.51100000000E-03 0. -1.
</event>
<event>
 8    1  0.1157726E+005  0.1043930E+01  0.7957747E-01            NaN
         13   -1    0    0    0    0  0.00000000000E+00  0.00000000000E+00  0.74505805969E-08  0.10566000000E+00  0.10566000000E+00 0. -1.
     999900   -1    0    0    0    0 -0.00000000000E+00 -0.00000000000E+00 -0.74505805969E-08  0.93827000000E+00  0.93827000000E+00 0.  1.
     999902    2    1    2    0    0 -0.17403841414E-01 -0.13609361311E-01 -0.11175579532E-01  0.10191711230E+01  0.10188703431E+01 0.  0.
     999903    2    3    3    0    0  0.18844950450E-01 -0.12756014777E+00 -0.14616441415E-01  0.13107732382E+00  0.18463504632E-01 0.  0.
         14    1    1    2    0    0  0.17403841414E-01  0.13609361311E-01  0.11175579532E-01  0.24758876976E-01  0.00000000000E+00 0. -1.
     999901    1    3    3    0    0 -0.36248791864E-01  0.11395078646E+00  0.34408618835E-02  0.88809379920E+00  0.88000000000E+00 0. -1.
        -11    1    4    4    0    0  0.53358861331E-02 -0.89001789358E-01 -0.13685028349E-01  0.90207157763E-01  0.51100000000E-03 0. -1.
         11    1    4    4    0    0  0.13509064317E-01 -0.38558358417E-01 -0.93141306582E-03  0.40870166061E-01  0.51100000000E-03 0.  1.
</event>
<event>
 8    1  0.1157726E+005  0.1043930E+01  0.7957747E-01            NaN
         13   -1    0    0    0    0  0.00000000000E+00  0.00000000000E+00  0.74505805969E-08  0.10566000000E+00  0.10566000000E+00 0. -1.
     999900   -1    0    0    0    0 -0.00000000000E+00 -0.00000000000E+00 -0.74505805969E-08  0.93827000000E+00  0.93827000000E+00 0.  1.
     999902    2    1    2    0    0  0.17433711517E-01  0.70237226208E-02 -0.14577484012E-01  0.10201440794E+01  0.10198667427E+01 0.  0.
     999903    2    3    3    0    0 -0.11894243789E-01  0.50865681141E-01 -0.11990801908E+00  0.13229456071E+00  0.19877806771E-01 0.  0.
         14    1    1    2    0    0 -0.17433711517E-01 -0.70237226208E-02  0.14577484012E-01  0.23785920559E-01  0.00000000000E+00 0. -1.
     999901    1    3    3    0    0  0.29327955306E-01 -0.43841958521E-01  0.10533053507E+00  0.88784951873E+00  0.88000000000E+00 0. -1.
        -11    1    4    4    0    0  0.12454220615E-03 -0.23701941969E-03 -0.14736381038E-01  0.14747668835E-01  0.51100000000E-03 0. -1.
         11    1    4    4    0    0 -0.12018785995E-01  0.51102700561E-01 -0.10517163804E+00  0.11754689188E+00  0.51100000000E-03 0.  1.
</event>
<event>
 8    1  0.1157726E+005  0.1043930E+01  0.7957747E-01            NaN
         13   -1    0    0    0    0  0.00000000000E+00  0.00000000000E+00  0.74505805969E-08  0.10566000000E+00  0.10566000000E+00 0. -1.
     999900   -1    0    0    0    0 -0.00000000000E+00 -0.00000000000E+00 -0.74505805969E-08  0.93827000000E+00  0.93827000000E+00 0.  1.
     999902    2    1    2    0    0 -0.62131289761E-02  0.22716440952E-01  0.44903195064E-02  0.10199549582E+01  0.10196731408E+01 0.  0.
     999903    2    3    3    0    0  0.11642360364E+00  0.49009406646E-01  0.27264835579E-01  0.13077006918E+00  0.20026540140E-01 0.  0.
         14    1    1    2    0    0  0.62131289761E-02 -0.22716440952E-01 -0.44903195064E-02  0.23975041824E-01  0.00000000000E+00 0. -1.
     999901    1    3    3    0    0 -0.12263673262E+00 -0.26292965693E-01 -0.22774516073E-01  0.88918488899E+00  0.88000000000E+00 0. -1.
        -11    1    4    4    0    0  0.48326155759E-01  0.29024874251E-01  0.18102194861E-01  0.59209891365E-01  0.51100000000E-03 0. -1.
         11    1    4    4    0    0  0.68097447883E-01  0.19984532395E-01  0.91626407187E-02  0.71560177817E-01  0.51100000000E-03 0.  1.
</event>
<event>
 8    1  0.1157726E+005  0.1043930E+01  0.7957747E-01            NaN
         13   -1    0    0    0    0  0.00000000000E+00  0.00000000000E+00  0.74505805969E-08  0.10566000000E+00  0.10566000000E+00 0. -1.
     999900   -1    0    0    0    0 -0.00000000000E+00 -0.00000000000E+00 -0.74505805969E-08  0.93827000000E+00  0.93827000000E+00 0.  1.
     999902    2    1    2    0    0  0.45592040532E-02 -0.24210601133E-01 -0.28929222859E-02  0.10191245863E+01  0.10188226607E+01 0.  0.
     999903    2    3    3    0    0 -0.54173517079E-01 -0.96931183109E-01 -0.68051572813E-01  0.13177828113E+00  0.20101607026E-01 0.  0.
         14    1    1    2    0    0 -0.45592040532E-02  0.24210601133E-01  0.28929222859E-02  0.24805413687E-01  0.00000000000E+00 0. -1.
     999901    1    3    3    0    0  0.58732721132E-01  0.72720581975E-01  0.65158650527E-01  0.88734630518E+00  0.88000000000E+00 0. -1.
        -11    1    4    4    0    0 -0.50566380026E-01 -0.94200512460E-01 -0.60191090797E-01  0.12269443292E+00  0.51100000000E-03 0.  1.
         11    1    4    4    0    0 -0.36071370537E-02 -0.27306706485E-02 -0.78604820161E-02  0.90838482176E-02  0.51100000000E-03 0. -1.
</event>
<event>
 8    1  0.1157726E+005  0.1043930E+01  0.7957747E-01            NaN
         13   -1    0    0    0    0  0.00000000000E+00  0.00000000000E+00  0.74505805969E-08  0.10566000000E+00  0.10566000000E+00 0.  1.
     999900   -1    0    0    0    0 -0.00000000000E+00 -0.00000000000E+00 -0.74505805969E-08  0.93827000000E+00  0.93827000000E+00 0. -1.
     999902    2    1    2    0    0 -0.18119221663E-02 -0.21256293944E-01 -0.10408203473E-01  0.10201930290E+01  0.10199168459E+01 0.  0.
     999903    2    3    3    0    0 -0.50967913059E-01 -0.23850827742E-01 -0.11826956727E+00  0.13224195101E+00  0.18266168741E-01 0.  0.
         14    1    1    2    0    0  0.18119221663E-02  0.21256293944E-01  0.10408203473E-01  0.23736971030E-01  0.00000000000E+00 0. -1.
     999901    1    3    3    0    0  0.49155990893E-01  0.25945337981E-02  0.10786136379E+00  0.88795107796E+00  0.88000000000E+00 0.  1.
        -11    1    4    4    0    0 -0.39912559846E-01 -0.22779116281E-01 -0.78665510557E-01  0.91106664104E-01  0.51100000000E-03 0.  1.
         11    1    4    4    0    0 -0.11055353212E-01 -0.10717114607E-02 -0.39604056710E-01  0.41135286908E-01  0.51100000000E-03 0. -1.
</event>
<event>
 8    1  0.1157726E+005  0.1043930E+01  0.7957747E-01            NaN
         13   -1    0    0    0    0  0.00000000000E+00  0.00000000000E+00  0.74505805969E-08  0.10566000000E+00  0.10566000000E+00 0. -1.
     999900   -1    0    0    0    0 -0.00000000000E+00 -0.00000000000E+00 -0.74505805969E-08  0.93827000000E+00  0.93827000000E+00 0.  1.
     999902    2    1    2    0    0 -0.33942870496E-03 -0.34596295432E-02  0.24432543737E-01  0.10192513971E+01  0.10189525882E+01 0.  0.
     999903    2    3    3    0    0  0.12445820353E-01  0.41988144112E-01 -0.11715921601E+00  0.12668364663E+00  0.20113720107E-01 0.  0.
         14    1    1    2    0    0  0.33942870496E-03  0.34596295432E-02 -0.24432543737E-01  0.24678602916E-01  0.00000000000E+00 0.  1.
     999901    1    3    3    0    0 -0.12785249058E-01 -0.45447773655E-01  0.14159175975E+00  0.89256775046E+00  0.88000000000E+00 0. -1.
        -11    1    4    4    0    0  0.36939219938E-03  0.12869496234E-01 -0.15021065490E-01  0.19790247936E-01  0.51100000000E-03 0. -1.
         11    1    4    4    0    0  0.12076428153E-01  0.29118647878E-01 -0.10213815052E+00  0.10689339869E+00  0.51100000000E-03 0.  1.
</event>
<event>
 8    1  0.1157726E+005  0.1043930E+01  0.7957747E-01            NaN
         13   -1    0    0    0    0  0.00000000000E+00  0.00000000000E+00  0.74505805969E-08  0.10566000000E+00  0.10566000000E+00 0.  1.
     999900   -1    0    0    0    0 -0.00000000000E+00 -0.00000000000E+00 -0.74505805969E-08  0.93827000000E+00  0.93827000000E+00 0. -1.
     999902    2    1    2    0    0 -0.13774716361E-01  0.84827396997E-02  0.16800859431E-01  0.10206068664E+01  0.10203403389E+01 0.  0.
     999903    2    3    3    0    0  0.10805221564E+00 -0.52373477792E-01  0.44565406778E-01  0.12969937924E+00  0.20435043781E-01 0.  0.
         14    1    1    2    0    0  0.13774716361E-01 -0.84827396997E-02 -0.16800859431E-01  0.23323133607E-01  0.00000000000E+00 0. -1.
     999901    1    3    3    0    0 -0.12182693200E+00  0.60856217492E-01 -0.27764547348E-01  0.89090748715E+00  0.88000000000E+00 0.  1.
        -11    1    4    4    0    0  0.14797188369E-01 -0.11687866775E-01  0.13906478157E-01  0.23435320973E-01  0.51100000000E-03 0. -1.
         11    1    4    4    0    0  0.93255027270E-01 -0.40685611017E-01  0.30658928622E-01  0.10626405827E+00  0.51100000000E-03 0.  1.
</event>
<event>
 8    1  0.1157726E+005  0.1043930E+01  0.7957747E-01            NaN
         13   -1    0    0    0    0  0.00000000000E+00  0.00000000000E+00  0.74505805969E-08  0.10566000000E+00  0.10566000000E+00 0.  1.
     999900   -1    0    0    0    0 -0.00000000000E+00 -0.00000000000E+00 -0.74505805969E-08  0.93827000000E+00  0.93827000000E+00 0. -1.
     999902    2    1    2    0    0 -0.16879628939E-01 -0.14489791294E-01  0.33558554204E-02  0.10214324959E+01  0.10211847071E+01 0.  0.
     999903    2    3    3    0    0 -0.10929874010E+00  0.58174185854E-01  0.43565151561E-01  0.13270411604E+00  0.19545063218E-01 0.  0.
         14    1    1    2    0    0  0.16879628939E-01  0.14489791294E-01 -0.33558554204E-02  0.22497504094E-01  0.00000000000E+00 0. -1.
     999901    1    3    3    0    0  0.92419111161E-01 -0.72663977148E-01 -0.40209296140E-01  0.88872837987E+00  0.88000000000E+00 0. -1.
        -11    1    4    4    0    0 -0.78171349681E-01  0.48538203613E-01  0.25690800402E-01  0.95535310054E-01  0.51100000000E-03 0.  1.
         11    1    4    4    0    0 -0.31127390419E-01  0.96359822414E-02  0.17874351158E-01  0.37168805986E-01  0.51100000000E-03 0. -1.
</event>
<event>
 8    1  0.1157726E+005  0.1043930E+01  0.7957747E-01            NaN
         13   -1    0    0    0    0  0.00000000000E+00  0.00000000000E+00  0.74505805969E-08  0.10566000000E+00  0.10566000000E+00 0.  1.
     999900   -1    0    0    0    0 -0.00000000000E+00 -0.00000000000E+00 -0.74505805969E-08  0.93827000000E+00  0.93827000000E+00 0.  1.
     999902    2    1    2    0    0  0.20585953161E-01 -0.58843534596E-02 -0.10843336996E-01  0.10199303117E+01  0.10196479077E+01 0.  0.
     999903    2    3    3    0    0 -0.11602168280E+00 -0.50975820869E-01 -0.83272054663E-02  0.12824582847E+00  0.17834936961E-01 0.  0.
         14    1    1    2    0    0 -0.20585953161E-01  0.58843534596E-02  0.10843336996E-01  0.23999688339E-01  0.00000000000E+00 0.  1.
     999901    1    3    3    0    0  0.13660763596E+00  0.45091467409E-01 -0.25161315299E-02  0.89168448319E+00  0.88000000000E+00 0.  1.
        -11    1    4    4    0    0 -0.79936959524E-01 -0.28805871928E-01  0.54644846963E-03  0.84972086489E-01  0.51100000000E-03 0.  1.
         11    1    4    4    0    0 -0.36084723280E-01 -0.22169948941E-01 -0.88736539359E-02  0.43273741985E-01  0.51100000000E-03 0. -1.
</event>
<event>
 8    1  0.1157726E+005  0.1043930E+01  0.7957747E-01            NaN
         13   -1    0    0    0    0  0.00000000000E+00  0.00000000000E+00  0.74505805969E-08  0.10566000000E+00  0.10566000000E+00 0. -1.
     999900   -1    0    0    0    0 -0.00000000000E+00 -0.00000000000E+00 -0.74505805969E-08  0.93827000000E+00  0.93827000000E+00 0. -1.
     999902    2    1    2    0    0  0.18866544681E-01  0.13645569180E-01  0.41723716963E-02  0.10202750480E+01  0.10200007926E+01 0.  0.
     999903    2    3    3    0    0 -0.11200437785E-01 -0.90275713935E-01  0.89868871538E-01  0.12951832110E+00  0.20577344221E-01 0.  0.
         14    1    1    2    0    0 -0.18866544681E-01 -0.13645569180E-01 -0.41723716963E-02  0.23654951955E-01  0.00000000000E+00 0. -1.
     999901    1    3    3    0    0  0.30066982465E-01  0.10392128311E+00 -0.85696499841E-01  0.89075672695E+00  0.88000000000E+00 0. -1.
        -11    1    4    4    0    0 -0.20045498550E-02 -0.65973762645E-01  0.73576951192E-01  0.98845255048E-01  0.51100000000E-03 0.  1.
         11    1    4    4    0    0 -0.91958879297E-02 -0.24301951289E-01  0.16291920345E-01  0.30673066049E-01  0.51100000000E-03 0. -1.
</event>
<event>
 8    1  0.1157726E+005  0.1043930E+01  0.7957747E-01            NaN
         13   -1    0    0    0    0  0.00000000000E+00  0.00000000000E+00  0.74505805969E-08  0.10566000000E+00  0.10566000000E+00 0. -1.
     999900   -1    0    0    0    0 -0.00000000000E+00 -0.00000000000E+00 -0.74505805969E-08  0.93827000000E+00  0.93827000000E+00 0.  1.
     999902    2    1    2    0    0  0.11770363907E-01  0.12253905003E-01 -0.18361570447E-01  0.10189130673E+01  0.10186059060E+01 0.  0.
     999903    2    3    3    0    0 -0.24249742213E-01 -0.74995804583E-01 -0.10146757568E+00  0.12997180488E+00  0.19610722707E-01 0.  0.
         14    1    1    2    0    0 -0.11770363907E-01 -0.12253905003E-01  0.18361570447E-01  0.25016932738E-01  0.00000000000E+00 0. -1.
     999901    1    3    3    0    0  0.36020106120E-01  0.87249709586E-01  0.83106005236E-01  0.88894126239E+00  0.88000000000E+00 0. -1.
        -11    1    4    4    0    0 -0.10183875110E-01 -0.45178739877E-01 -0.44962188547E-01  0.64549898288E-01  0.51100000000E-03 0. -1.
         11    1    4    4    0    0 -0.14065867104E-01 -0.29817064706E-01 -0.56505387136E-01  0.65421906587E-01  0.51100000000E-03 0.  1.
</event>
<event>
 8    1  0.1157726E+005  0.1043930E+01  0.7957747E-01            NaN
         13   -1    0    0    0    0  0.00000000000E+00  0.00000000000E+00  0.74505805969E-08  0.10566000000E+00  0.10566000000E+00 0. -1.
     999900   -1    0    0    0    0 -0.00000000000E+00 -0.00000000000E+00 -0.74505805969E-08  0.93827000000E+00  0.93827000000E+00 0. -1.
     999902    2    1    2    0    0  0.79299798978E-02 -0.18601384519E-01 -0.14574196248E-01  0.10190040440E+01  0.10186991403E+01 0.  0.
     999903    2    3    3    0    0  0.11541673701E+00  0.41314898570E-01  0.34889798722E-01  0.12906581538E+00  0.20316067977E-01 0.  0.
         14    1    1    2    0    0 -0.79299798978E-02  0.18601384519E-01  0.14574196248E-01  0.24925956019E-01  0.00000000000E+00 0. -1.
     999901    1    3    3    0    0 -0.10748675711E+00 -0.59916283089E-01 -0.49463994970E-01  0.88993822860E+00  0.88000000000E+00 0. -1.
        -11    1    4    4    0    0  0.37007529952E-01  0.75726064054E-02  0.18810374856E-01  0.42201812332E-01  0.51100000000E-03 0.  1.
         11    1    4    4    0    0  0.78409207058E-01  0.33742292165E-01  0.16079423867E-01  0.86864003044E-01  0.51100000000E-03 0. -1.
</event>
<event>
 8    1  0.1157726E+005  0.1043930E+01  0.7957747E-01            NaN
         13   -1    0    0    0    0  0.00000000000E+00  0.00000000000E+00  0.74505805969E-08  0.10566000000E+00  0.10566000000E+00 0. -1.
     999900   -1    0    0    0    0 -0.00000000000E+00 -0.00000000000E+00 -0.74505805969E-08  0.93827000000E+00  0.93827000000E+00 0.  1.
     999902    2    1    2    0    0 -0.89437444347E-03  0.20917779802E-01 -0.10635841087E-01  0.10204465051E+01  0.10201762569E+01 0.  0.
     999903    2    3    3    0    0 -0.86768993027E-03 -0.51732944237E-01 -0.11864581899E+00  0.13087116610E+00  0.19323078095E-01 0.  0.
         14    1    1    2    0    0  0.89437444347E-03 -0.20917779802E-01  0.10635841087E-01  0.23483494908E-01  0.00000000000E+00 0.  1.
     999901    1    3    3    0    0 -0.26684513196E-04  0.72650724039E-01  0.10800997790E+00  0.88957533899E+00  0.88000000000E+00 0. -1.
        -11    1    4    4    0    0  0.74422365112E-02 -0.40861337208E-01 -0.89507339355E-01  0.98675532337E-01  0.51100000000E-03 0. -1.
         11    1    4    4    0    0 -0.83099264415E-02 -0.10871607030E-01 -0.29138479637E-01  0.32195633763E-01  0.51100000000E-03 0.  1.
</event>
<event>
 8    1  0.1157726E+005  0.1043930E+01  0.7957747E-01            NaN
         13   -1    0    0    0    0  0.00000000000E+00  0.00000000000E+00  0.74505805969E-08  0.10566000000E+00  0.10566000000E+00 0. -1.
     999900   -1    0    0    0    0 -0.00000000000E+00 -0.00000000000E+00 -0.74505805969E-08  0.93827000000E+00  0.93827000000E+00 0.  1.
     999902    2    1    2    0    0  0.22478315010E-01  0.87971494553E-02 -0.41559283281E-02  0.10194364044E+01  0.10191421130E+01 0.  0.
     999903    2    3    3    0    0 -0.88520984964E-01 -0.87624004993E-01  0.14344587192E-01  0.12704626961E+00  0.20519659140E-01 0.  0.
         14    1    1    2    0    0 -0.22478315010E-01 -0.87971494553E-02  0.41559283281E-02  0.24493595582E-01  0.00000000000E+00 0. -1.
     999901    1    3    3    0    0  0.11099929997E+00  0.96421154449E-01 -0.18500515521E-01  0.89239013480E+00  0.88000000000E+00 0. -1.
        -11    1    4    4    0    0 -0.52379490013E-01 -0.63145906829E-01  0.37747426118E-02  0.82131153201E-01  0.51100000000E-03 0.  1.
         11    1    4    4    0    0 -0.36141494951E-01 -0.24478098164E-01  0.10569844581E-01  0.44915116414E-01  0.51100000000E-03 0. -1.
</event>
<event>
 8    1  0.1157726E+005  0.1043930E+01  0.7957747E-01            NaN
         13   -1    0    0    0    0  0.00000000000E+00  0.00000000000E+00  0.74505805969E-08  0.10566000000E+00  0.10566000000E+00 0.  1.
     999900   -1    0    0    0    0 -0.00000000000E+00 -0.00000000000E+00 -0.74505805969E-08  0.93827000000E+00  0.93827000000E+00 0.  1.
     999902    2    1    2    0    0 -0.24179258429E-02  0.12400836524E-01  0.21704885953E-01  0.10188156777E+01  0.10185060903E+01 0.  0.
     999903    2    3    3    0    0 -0.12451089534E+00  0.82080921760E-02 -0.26740132938E-01  0.12905661356E+00  0.19241594497E-01 0.  0.
         14    1    1    2    0    0  0.24179258429E-02 -0.12400836524E-01 -0.21704885953E-01  0.25114322330E-01  0.00000000000E+00 0. -1.
     999901    1    3    3    0    0  0.12209296950E+00  0.41927443475E-02  0.48445018891E-01  0.88975906411E+00  0.88000000000E+00 0. -1.
        -11    1    4    4    0    0 -0.70188355323E-01  0.91826591465E-02 -0.23652372915E-01  0.74635261891E-01  0.51100000000E-03 0. -1.
         11    1    4    4    0    0 -0.54322540018E-01 -0.97456697058E-03 -0.30877600226E-02  0.54421351672E-01  0.51100000000E-03 0.  1.
</event>
<event>
 8    1  0.1157726E+005  0.1043930E+01  0.7957747E-01            NaN
         13   -1    0    0    0    0  0.00000000000E+00  0.00000000000E+00  0.74505805969E-08  0.10566000000E+00  0.10566000000E+00 0.  1.
     999900   -1    0    0    0    0 -0.00000000000E+00 -0.00000000000E+00 -0.74505805969E-08  0.93827000000E+00  0.93827000000E+00 0.  1.
     999902    2    1    2    0    0 -0.15666359108E-01  0.16175328200E-01  0.68167514278E-02  0.10204024810E+01  0.10201312068E+01 0.  0.
     999903    2    3    3    0    0 -0.22261764500E-01 -0.11955251699E+00  0.39560788694E-01  0.12937065256E+00  0.19578540912E-01 0.  0.
         14    1    1    2    0    0  0.15666359108E-01 -0.16175328200E-01 -0.68167514278E-02  0.23527518996E-01  0.00000000000E+00 0.  1.
     999901    1    3    3    0    0  0.65954053924E-02  0.13572784519E+00 -0.32744037266E-01  0.89103182845E+00  0.88000000000E+00 0.  1.
        -11    1    4    4    0    0 -0.16962753820E-01 -0.90508500234E-01  0.20859473302E-01  0.94418760737E-01  0.51100000000E-03 0. -1.
         11    1    4    4    0    0 -0.52990106804E-02 -0.29044016752E-01  0.18701315392E-01  0.34951891819E-01  0.51100000000E-03 0.  1.
</event>
<event>
 8    1  0.1157726E+005  0.1043930E+01  0.7957747E-01            NaN
         13   -1    0    0    0    0  0.00000000000E+00  0.00000000000E+00  0.74505805969E-08  0.10566000000E+00  0.10566000000E+00 0. -1.
     999900   -1    0    0    0    0 -0.00000000000E+00 -0.00000000000E+00 -0.74505805969E-08  0.93827000000E+00  0.93827000000E+00 0.  1.
     999902    2    1    2    0    0 -0.72416489550E-02 -0.85755899084E-02  0.21559337499E-01  0.10196238844E+01  0.10193341348E+01 0.  0.
     999903    2    3    3    0    0  0.31012516022E-01 -0.61128973341E-01  0.11141031690E+00  0.13266366109E+00  0.22110195162E-01 0.  0.
         14    1    1    2    0    0  0.72416489550E-02  0.85755899084E-02 -0.21559337499E-01  0.24306115594E-01  0.00000000000E+00 0.  1.
     999901    1    3    3    0    0 -0.38254164977E-01  0.52553383433E-01 -0.89850979399E-01  0.88696022332E+00  0.88000000000E+00 0.  1.
        -11    1    4    4    0    0  0.87829881791E-02 -0.41312709983E-01  0.65507320429E-01  0.77944538220E-01  0.51100000000E-03 0. -1.
         11    1    4    4    0    0  0.22229527843E-01 -0.19816263358E-01  0.45902996469E-01  0.54719122868E-01  0.51100000000E-03 0.  1.
</event>
<event>
 8    1  0.1157726E+005  0.1043930E+01  0.7957747E-01            NaN
         13   -1    0    0    0    0  0.00000000000E+00  0.00000000000E+00  0.74505805969E-08  0.10566000000E+00  0.10566000000E+00 0. -1.
     999900   -1    0    0    0    0 -0.00000000000E+00 -0.00000000000E+00 -0.74505805969E-08  0.93827000000E+00  0.93827000000E+00 0.  1.
     999902    2    1    2    0    0 -0.17896893660E-01 -0.86549979129E-02 -0.12298987503E-01  0.10205532405E+01  0.10202854717E+01 0.  0.
     999903    2    3    3    0    0 -0.51898731708E-01  0.89597066959E-01 -0.79006490750E-01  0.13192537449E+00  0.21003954233E-01 0.  0.
         14    1    1    2    0    0  0.17896893660E-01  0.86549979129E-02  0.12298987503E-01  0.23376759509E-01  0.00000000000E+00 0. -1.
     999901    1    3    3    0    0  0.34001838048E-01 -0.98252064872E-01  0.66707503247E-01  0.88862786600E+00  0.88000000000E+00 0. -1.
        -11    1    4    4    0    0 -0.38107799903E-01  0.80632340858E-01 -0.66044581630E-01  0.11097714490E+00  0.51100000000E-03 0. -1.
         11    1    4    4    0    0 -0.13790931805E-01  0.89647261008E-02 -0.12961909120E-01  0.20948229595E-01  0.51100000000E-03 0.  1.
</event>
<event>
 8    1  0.1157726E+005  0.1043930E+01  0.7957747E-01            NaN
         13   -1    0    0    0    0  0.00000000000E+00  0.00000000000E+00  0.74505805969E-08  0.10566000000E+00  0.10566000000E+00 0.  1.
     999900   -1    0    0    0    0 -0.00000000000E+00 -0.00000000000E+00 -0.74505805969E-08  0.93827000000E+00  0.93827000000E+00 0.  1.
     999902    2    1    2    0    0 -0.10528284249E-01  0.31592537617E-02 -0.21642815408E-01  0.10196557933E+01  0.10193668131E+01 0.  0.
     999903    2    3    3    0    0 -0.10687529495E+00  0.72014289188E-01  0.10733480033E-01  0.13113343177E+00  0.21734369482E-01 0.  0.
         14    1    1    2    0    0  0.10528284249E-01 -0.31592537617E-02  0.21642815408E-01  0.24274206730E-01  0.00000000000E+00 0.  1.
     999901    1    3    3    0    0  0.96347010702E-01 -0.68855035426E-01 -0.32376295442E-01  0.88852236150E+00  0.88000000000E+00 0. -1.
        -11    1    4    4    0    0 -0.36734281263E-01  0.36407247801E-01 -0.14191205835E-03  0.51722107192E-01  0.51100000000E-03 0.  1.
         11    1    4    4    0    0 -0.70141013688E-01  0.35607041387E-01  0.10875392092E-01  0.79411324581E-01  0.51100000000E-03 0. -1.
</event>
<event>
 8    1  0.1157726E+005  0.1043930E+01  0.7957747E-01            NaN
         13   -1    0    0    0    0  0.00000000000E+00  0.00000000000E+00  0.74505805969E-08  0.10566000000E+00  0.10566000000E+00 0. -1.
     999900   -1    0    0    0    0 -0.00000000000E+00 -0.00000000000E+00 -0.74505805969E-08  0.93827000000E+00  0.93827000000E+00 0.  1.
     999902    2    1    2    0    0  0.20409103140E-01 -0.88167362343E-02  0.73303805728E-02  0.10205205829E+01  0.10202520568E+01 0.  0.
     999903    2    3    3    0    0  0.46204234555E-01 -0.97160303790E-01  0.75839318603E-01  0.13307286653E+00  0.19540461523E-01 0.  0.
         14    1    1    2    0    0 -0.20409103140E-01  0.88167362343E-02 -0.73303805728E-02  0.23409417083E-01  0.00000000000E+00 0.  1.
     999901    1    3    3    0    0 -0.25795131414E-01  0.88343567556E-01 -0.68508938030E-01  0.88744771639E+00  0.88000000000E+00 0.  1.
        -11    1    4    4    0    0  0.33038690003E-01 -0.50746999892E-01  0.35583099840E-01  0.70236964273E-01  0.51100000000E-03 0.  1.
         11    1    4    4    0    0  0.13165544552E-01 -0.46413303898E-01  0.40256218763E-01  0.62835902255E-01  0.51100000000E-03 0. -1.
</event>
<event>
 8    1  0.1157726E+005  0.1043930E+01  0.7957747E-01            NaN
         13   -1    0    0    0    0  0.00000000000E+00  0.00000000000E+00  0.74505805969E-08  0.10566000000E+00  0.10566000000E+00 0. -1.
     999900   -1    0    0    0    0 -0.00000000000E+00 -0.00000000000E+00 -0.74505805969E-08  0.93827000000E+00  0.93827000000E+00 0.  1.
     999902    2    1    2    0    0  0.93936477144E-02 -0.18942142601E-01  0.10546336855E-01  0.10203022493E+01  0.10200286316E+01 0.  0.
     999903    2    3    3    0    0  0.61810482393E-01  0.31080062112E-03  0.11401969763E+00  0.13248192016E+00  0.27024718167E-01 0.  0.
         14    1    1    2    0    0 -0.93936477144E-02  0.18942142601E-01 -0.10546336855E-01  0.23627750734E-01  0.00000000000E+00 0.  1.
     999901    1    3    3    0    0 -0.52416834679E-01 -0.19252943223E-01 -0.10347336077E+00  0.88782032910E+00  0.88000000000E+00 0.  1.
        -11    1    4    4    0    0  0.28332359942E-01  0.42916589644E-02  0.27903593961E-01  0.40000157918E-01  0.51100000000E-03 0. -1.
         11    1    4    4    0    0  0.33478122452E-01 -0.39808583432E-02  0.86116103666E-01  0.92481762244E-01  0.51100000000E-03 0.  1.
</event>
<event>
 8    1  0.1157726E+005  0.1043930E+01  0.7957747E-01            NaN
         13   -1    0    0    0    0  0.00000000000E+00  0.00000000000E+00  0.74505805969E-08  0.10566000000E+00  0.10566000000E+00 0.  1.
     999900   -1    0    0    0    0 -0.00000000000E+00 -0.00000000000E+00 -0.74505805969E-08  0.93827000000E+00  0.93827000000E+00 0. -1.
     999902    2    1    2    0    0  0.14491214481E-01 -0.91538986640E-02  0.15789559897E-01  0.10206255077E+01  0.10203594110E+01 0.  0.
     999903    2    3    3    0    0  0.87191899784E-01  0.95674518827E-01 -0.69602517156E-02  0.13113579971E+00  0.19801816102E-01 0.  0.
         14    1    1    2    0    0 -0.14491214481E-01  0.91538986640E-02 -0.15789559897E-01  0.23304492263E-01  0.00000000000E+00 0. -1.
     999901    1    3    3    0    0 -0.72700685303E-01 -0.10482841749E+00  0.22749811613E-01  0.88948970803E+00  0.88000000000E+00 0.  1.
        -11    1    4    4    0    0  0.59362609856E-01  0.69689649801E-01  0.36092363001E-02  0.91617981019E-01  0.51100000000E-03 0. -1.
         11    1    4    4    0    0  0.27829289928E-01  0.25984869026E-01 -0.10569488016E-01  0.39517818691E-01  0.51100000000E-03 0.  1.
</event>
<event>
 8    1  0.1157726E+005  0.1043930E+01  0.7957747E-01            NaN
         13   -1    0    0    0    0  0.00000000000E+00  0.00000000000E+00  0.74505805969E-08  0.10566000000E+00  0.10566000000E+00 0. -1.
     999900   -1    0    0    0    0 -0.00000000000E+00 -0.00000000000E+00 -0.74505805969E-08  0.93827000000E+00  0.93827000000E+00 0.  1.
     999902    2    1    2    0    0  0.59044138141E-02  0.20270027030E-01 -0.70259349130E-02  0.10216791605E+01  0.10214368346E+01 0.  0.
     999903    2    3    3    0    0  0.10873819721E+00 -0.64521665314E-01 -0.29783401675E-01  0.13135207429E+00  0.19474998787E-01 0.  0.
         14    1    1    2    0    0 -0.59044138141E-02 -0.20270027030E-01  0.70259349130E-02  0.22250839528E-01  0.00000000000E+00 0.  1.
     999901    1    3    3    0    0 -0.10283378339E+00  0.84791692344E-01  0.22757466762E-01  0.89032708618E+00  0.88000000000E+00 0. -1.
        -11    1    4    4    0    0  0.50224550822E-02 -0.61220403768E-02 -0.60556834891E-02  0.99818263333E-02  0.51100000000E-03 0.  1.
         11    1    4    4    0    0  0.10371574213E+00 -0.58399624937E-01 -0.23727718186E-01  0.12137024796E+00  0.51100000000E-03 0. -1.
</event>
<event>
 8    1  0.1157726E+005  0.1043930E+01  0.7957747E-01            NaN
         13   -1    0    0    0    0  0.00000000000E+00  0.00000000000E+00  0.74505805969E-08  0.10566000000E+00  0.10566000000E+00 0.  1.
     999900   -1    0    0    0    0 -0.00000000000E+00 -0.00000000000E+00 -0.74505805969E-08  0.93827000000E+00  0.93827000000E+00 0. -1.
     999902    2    1    2    0    0  0.14083278157E-01  0.75076251065E-02  0.16569793040E-01  0.10209243224E+01  0.10206650827E+01 0.  0.
     999903    2    3    3    0    0  0.72372796168E-01 -0.44831061267E-01 -0.96553209751E-01  0.13023143499E+00  0.19749902961E-01 0.  0.
         14    1    1    2    0    0 -0.14083278157E-01 -0.75076251065E-02 -0.16569793040E-01  0.23005677555E-01  0.00000000000E+00 0. -1.
     999901    1    3    3    0    0 -0.58289518010E-01  0.52338686374E-01  0.11312300279E+00  0.89069288745E+00  0.88000000000E+00 0.  1.
        -11    1    4    4    0    0  0.26862305130E-01 -0.63457378822E-02 -0.34568389274E-01  0.44238970198E-01  0.51100000000E-03 0.  1.
         11    1    4    4    0    0  0.45510491038E-01 -0.38485323385E-01 -0.61984820477E-01  0.85992464792E-01  0.51100000000E-03 0. -1.
</event>
<event>
 8    1  0.1157726E+005  0.1043930E+01  0.7957747E-01            NaN
         13   -1    0    0    0    0  0.00000000000E+00  0.00000000000E+00  0.74505805969E-08  0.10566000000E+00  0.10566000000E+00 0.  1.
     999900   -1    0    0    0    0 -0.00000000000E+00 -0.00000000000E+00 -0.74505805969E-08  0.93827000000E+00  0.93827000000E+00 0.  1.
     999902    2    1    2    0    0 -0.80572540540E-02 -0.47032538265E-02  0.99803623986E-02  0.10302680978E+01  0.10301775117E+01 0.  0.
     999903    2    3    3    0    0 -0.12780111732E-01  0.60948191041E-01 -0.12155346229E+00  0.13806096674E+00  0.20188439595E-01 0.  0.
         14    1    1    2    0    0  0.80572540540E-02  0.47032538265E-02 -0.99803623986E-02  0.13661902249E-01  0.00000000000E+00 0. -1.
     999901    1    3    3    0    0  0.47228576785E-02 -0.65651444867E-01  0.13153382469E+00  0.89220713102E+00  0.88000000000E+00 0. -1.
        -11    1    4    4    0    0 -0.15112616973E-01  0.30894998848E-01 -0.76170981928E-01  0.83577339958E-01  0.51100000000E-03 0. -1.
         11    1    4    4    0    0  0.23325052400E-02  0.30053192193E-01 -0.45382480366E-01  0.54483626778E-01  0.51100000000E-03 0.  1.
</event>
<event>
 8    1  0.1157726E+005  0.1043930E+01  0.7957747E-01            NaN
         13   -1    0    0    0    0  0.00000000000E+00  0.00000000000E+00  0.74505805969E-08  0.10566000000E+00  0.10566000000E+00 0.  1.
     999900   -1    0    0    0    0 -0.00000000000E+00 -0.00000000000E+00 -0.74505805969E-08  0.93827000000E+00  0.93827000000E+00 0. -1.
     999902    2    1    2    0    0  0.18808290796E-01  0.11232609059E-01 -0.10082306681E-01  0.10198141086E+01  0.10195289304E+01 0.  0.
     999903    2    3    3    0    0 -0.44083718613E-01  0.26420977621E-01  0.11612799699E+00  0.12845832548E+00  0.19349092844E-01 0.  0.
         14    1    1    2    0    0 -0.18808290796E-01 -0.11232609059E-01  0.10082306681E-01  0.24115891378E-01  0.00000000000E+00 0. -1.
     999901    1    3    3    0    0  0.62892009409E-01 -0.15188368563E-01 -0.12621030368E+00  0.89135578314E+00  0.88000000000E+00 0. -1.
        -11    1    4    4    0    0 -0.31034239651E-01  0.86858371292E-02  0.58962584161E-01  0.67196839578E-01  0.51100000000E-03 0.  1.
         11    1    4    4    0    0 -0.13049478962E-01  0.17735140492E-01  0.57165412833E-01  0.61261485902E-01  0.51100000000E-03 0. -1.
</event>
<event>
 8    1  0.1157726E+005  0.1043930E+01  0.7957747E-01            NaN
         13   -1    0    0    0    0  0.00000000000E+00  0.00000000000E+00  0.74505805969E-08  0.10566000000E+00  0.10566000000E+00 0.  1.
     999900   -1    0    0    0    0 -0.00000000000E+00 -0.00000000000E+00 -0.74505805969E-08  0.93827000000E+00  0.93827000000E+00 0. -1.
     999902    2    1    2    0    0  0.10513052419E-01  0.18775358463E-01 -0.10389369857E-01  0.10200348674E+01  0.10197549477E+01 0.  0.
     999903    2    3    3    0    0  0.94229120388E-03  0.29462402310E-01 -0.12750586335E+00  0.13215982808E+00  0.18426988530E-01 0.  0.
         14    1    1    2    0    0 -0.10513052419E-01 -0.18775358463E-01  0.10389369857E-01  0.23895132613E-01  0.00000000000E+00 0. -1.
     999901    1    3    3    0    0  0.95707612148E-02 -0.10687043848E-01  0.11711649350E+00  0.88787503931E+00  0.88000000000E+00 0.  1.
        -11    1    4    4    0    0  0.86866544226E-02  0.23225789437E-01 -0.91914842816E-01  0.95202388158E-01  0.51100000000E-03 0. -1.
         11    1    4    4    0    0 -0.77443632187E-02  0.62366128735E-02 -0.35591020536E-01  0.36957439922E-01  0.51100000000E-03 0.  1.
</event>
<event>
 8    1  0.1157726E+005  0.1043930E+01  0.7957747E-01            NaN
         13   -1    0    0    0    0  0.00000000000E+00  0.00000000000E+00  0.74505805969E-08  0.10566000000E+00  0.10566000000E+00 0.  1.
     999900   -1    0    0    0    0 -0.00000000000E+00 -0.00000000000E+00 -0.74505805969E-08  0.93827000000E+00  0.93827000000E+00 0. -1.
     999902    2    1    2    0    0  0.12338342656E-01  0.19326390414E-01 -0.55708995373E-02  0.10203338353E+01  0.10200609573E+01 0.  0.
     999903    2    3    3    0    0 -0.10095707715E+00 -0.10732848730E-01 -0.78087854442E-01  0.12960485367E+00  0.19803525289E-01 0.  0.
         14    1    1    2    0    0 -0.12338342656E-01 -0.19326390414E-01  0.55708995373E-02  0.23596164679E-01  0.00000000000E+00 0. -1.
     999901    1    3    3    0    0  0.11329541981E+00  0.30059239144E-01  0.72516954904E-01  0.89072898165E+00  0.88000000000E+00 0. -1.
        -11    1    4    4    0    0 -0.54594168223E-01 -0.27675437295E-02 -0.30110127274E-01  0.62410442938E-01  0.51100000000E-03 0.  1.
         11    1    4    4    0    0 -0.46362908930E-01 -0.79653050001E-02 -0.47977727167E-01  0.67194410730E-01  0.51100000000E-03 0. -1.
</event>
<event>
 8    1  0.1157726E+005  0.1043930E+01  0.7957747E-01            NaN
         13   -1    0    0    0    0  0.00000000000E+00  0.00000000000E+00  0.74505805969E-08  0.10566000000E+00  0.10566000000E+00 0. -1.
     999900   -1    0    0    0    0 -0.00000000000E+00 -0.00000000000E+00 -0.74505805969E-08  0.93827000000E+00  0.93827000000E+00 0. -1.
     999902    2    1    2    0    0 -0.50594935505E-02  0.14519750879E-01  0.17023081289E-01  0.10209907991E+01  0.10207330723E+01 0.  0.
     999903    2    3    3    0    0  0.12255572228E+00  0.33806088156E-01 -0.22383066207E-01  0.13070407532E+00  0.20488948024E-01 0.  0.
         14    1    1    2    0    0  0.50594935505E-02 -0.14519750879E-01 -0.17023081289E-01  0.22939200883E-01  0.00000000000E+00 0.  1.
     999901    1    3    3    0    0 -0.12761521583E+00 -0.19286337277E-01  0.39406147496E-01  0.89028672380E+00  0.88000000000E+00 0.  1.
        -11    1    4    4    0    0  0.41097293858E-01  0.18137903116E-01 -0.15259513349E-01  0.47445600012E-01  0.51100000000E-03 0.  1.
         11    1    4    4    0    0  0.81458428422E-01  0.15668185041E-01 -0.71235528588E-02  0.83258475303E-01  0.51100000000E-03 0. -1.
</event>
<event>
 8    1  0.1157726E+005  0.1043930E+01  0.7957747E-01            NaN
         13   -1    0    0    0    0  0.00000000000E+00  0.00000000000E+00  0.74505805969E-08  0.10566000000E+00  0.10566000000E+00 0. -1.
     999900   -1    0    0    0    0 -0.00000000000E+00 -0.00000000000E+00 -0.74505805969E-08  0.93827000000E+00  0.93827000000E+00 0. -1.
     999902    2    1    2    0    0  0.89639802055E-02  0.20338693009E-01 -0.81702848113E-02  0.10202494399E+01  0.10199745833E+01 0.  0.
     999903    2    3    3    0    0 -0.10925825830E+00 -0.42825827956E-01 -0.49464728047E-01  0.12914255210E+00  0.21438770840E-01 0.  0.
         14    1    1    2    0    0 -0.89639802055E-02 -0.20338693009E-01  0.81702848113E-02  0.23680560136E-01  0.00000000000E+00 0.  1.
     999901    1    3    3    0    0  0.11822223850E+00  0.63164520965E-01  0.41294443236E-01  0.89110688777E+00  0.88000000000E+00 0. -1.
        -11    1    4    4    0    0 -0.41587612121E-01 -0.61416668832E-02 -0.13307980653E-01  0.44097766657E-01  0.51100000000E-03 0. -1.
         11    1    4    4    0    0 -0.67670646175E-01 -0.36684161072E-01 -0.36156747394E-01  0.85044785440E-01  0.51100000000E-03 0.  1.
</event>
<event>
 8    1  0.1157726E+005  0.1043930E+01  0.7957747E-01            NaN
         13   -1    0    0    0    0  0.00000000000E+00  0.00000000000E+00  0.74505805969E-08  0.10566000000E+00  0.10566000000E+00 0. -1.
     999900   -1    0    0    0    0 -0.00000000000E+00 -0.00000000000E+00 -0.74505805969E-08  0.93827000000E+00  0.93827000000E+00 0. -1.
     999902    2    1    2    0    0  0.73532465557E-02 -0.19409621800E-02  0.19737080418E-01  0.10227784064E+01  0.10225596700E+01 0.  0.
     999903    2    3    3    0    0  0.44360916164E-01  0.41396155429E-01 -0.11258875881E+00  0.13106219530E+00  0.28627571672E-01 0.  0.
         14    1    1    2    0    0 -0.73532465557E-02  0.19409621800E-02 -0.19737080418E-01  0.21151593617E-01  0.00000000000E+00 0.  1.
     999901    1    3    3    0    0 -0.37007669608E-01 -0.43337117609E-01  0.13232583923E+00  0.89171621108E+00  0.88000000000E+00 0.  1.
        -11    1    4    4    0    0  0.12515394886E-01  0.31037475637E-01 -0.60330031267E-01  0.68992273457E-01  0.51100000000E-03 0.  1.
         11    1    4    4    0    0  0.31845521277E-01  0.10358679792E-01 -0.52258727546E-01  0.62069921848E-01  0.51100000000E-03 0. -1.
</event>
<event>
 8    1  0.1157726E+005  0.1043930E+01  0.7957747E-01            NaN
         13   -1    0    0    0    0  0.00000000000E+00  0.00000000000E+00  0.74505805969E-08  0.10566000000E+00  0.10566000000E+00 0. -1.
     999900   -1    0    0    0    0 -0.00000000000E+00 -0.00000000000E+00 -0.74505805969E-08  0.93827000000E+00  0.93827000000E+00 0.  1.
     999902    2    1    2    0    0 -0.99442812122E-02 -0.53948412495E-03  0.24217686296E-01  0.10177445823E+01  0.10174076659E+01 0.  0.
     999903    2    3    3    0    0 -0.80727583660E-01  0.10515773850E-01 -0.95169463142E-01  0.12679801480E+00  0.19823863909E-01 0.  0.
         14    1    1    2    0    0  0.99442812122E-02  0.53948412495E-03 -0.24217686296E-01  0.26185417726E-01  0.00000000000E+00 0.  1.
     999901    1    3    3    0    0  0.70783302448E-01 -0.11055257975E-01  0.11938714944E+00  0.89094656747E+00  0.88000000000E+00 0. -1.
        -11    1    4    4    0    0 -0.58332377196E-01  0.34469319771E-02 -0.79071092758E-01  0.98321139133E-01  0.51100000000E-03 0. -1.
         11    1    4    4    0    0 -0.22395206464E-01  0.70688418731E-02 -0.16098370384E-01  0.28476875671E-01  0.51100000000E-03 0.  1.
</event>
<event>
 8    1  0.1157726E+005  0.1043930E+01  0.7957747E-01            NaN
         13   -1    0    0    0    0  0.00000000000E+00  0.00000000000E+00  0.74505805969E-08  0.10566000000E+00  0.10566000000E+00 0.  1.
     999900   -1    0    0    0    0 -0.00000000000E+00 -0.00000000000E+00 -0.74505805969E-08  0.93827000000E+00  0.93827000000E+00 0. -1.
     999902    2    1    2    0    0  0.14756348940E-01 -0.15429491341E-01  0.15818814219E-01  0.10173583248E+01  0.10170112621E+01 0.  0.
     999903    2    3    3    0    0 -0.11463966917E+00  0.24567159982E-01  0.43358538272E-01  0.12657131438E+00  0.19862922389E-01 0.  0.
         14    1    1    2    0    0 -0.14756348940E-01  0.15429491341E-01 -0.15818814219E-01  0.26571675152E-01  0.00000000000E+00 0.  1.
     999901    1    3    3    0    0  0.12939601811E+00 -0.39996651323E-01 -0.27539724053E-01  0.89078701047E+00  0.88000000000E+00 0.  1.
        -11    1    4    4    0    0 -0.77869593007E-01  0.23335266312E-01  0.36642357826E-01  0.89169118404E-01  0.51100000000E-03 0. -1.
         11    1    4    4    0    0 -0.36770076162E-01  0.12318936706E-02  0.67161804459E-02  0.37402195975E-01  0.51100000000E-03 0.  1.
</event>
<event>
 8    1  0.1157726E+005  0.1043930E+01  0.7957747E-01            NaN
         13   -1    0    0    0    0  0.00000000000E+00  0.00000000000E+00  0.74505805969E-08  0.10566000000E+00  0.10566000000E+00 0.  1.
     999900   -1    0    0    0    0 -0.00000000000E+00 -0.00000000000E+00 -0.74505805969E-08  0.93827000000E+00  0.93827000000E+00 0.  1.
     999902    2    1    2    0    0  0.23850735422E-01 -0.53389668656E-02 -0.80582969597E-02  0.10181948432E+01  0.10178695596E+01 0.  0.
     999903    2    3    3    0    0 -0.65551257254E-01 -0.52600192574E-01 -0.94791963940E-01  0.12816727689E+00  0.19431594136E-01 0.  0.
         14    1    1    2    0    0 -0.23850735422E-01  0.53389668656E-02  0.80582969597E-02  0.25735156834E-01  0.00000000000E+00 0. -1.
     999901    1    3    3    0    0  0.89401992676E-01  0.47261225708E-01  0.86733666980E-01  0.89002756628E+00  0.88000000000E+00 0.  1.
        -11    1    4    4    0    0 -0.47134720095E-01 -0.47114201299E-01 -0.68221678521E-01  0.95372366772E-01  0.51100000000E-03 0.  1.
         11    1    4    4    0    0 -0.18416537159E-01 -0.54859912743E-02 -0.26570285419E-01  0.32794910114E-01  0.51100000000E-03 0. -1.
</event>
<event>
 8    1  0.1157726E+005  0.1043930E+01  0.7957747E-01            NaN
         13   -1    0    0    0    0  0.00000000000E+00  0.00000000000E+00  0.74505805969E-08  0.10566000000E+00  0.10566000000E+00 0. -1.
     999900   -1    0    0    0    0 -0.00000000000E+00 -0.00000000000E+00 -0.74505805969E-08  0.93827000000E+00  0.93827000000E+00 0. -1.
     999902    2    1    2    0    0  0.18004674369E-01 -0.14558474068E-01 -0.55456391171E-02  0.10201209349E+01  0.10198430518E+01 0.  0.
     999903    2    3    3    0    0  0.11921873090E+00  0.50477300588E-01  0.14231845466E-01  0.13171501075E+00  0.19627403273E-01 0.  0.
         14    1    1    2    0    0 -0.18004674369E-01  0.14558474068E-01  0.55456391171E-02  0.23809065071E-01  0.00000000000E+00 0.  1.
     999901    1    3    3    0    0 -0.10121405653E+00 -0.65035774656E-01 -0.19777484583E-01  0.88840592418E+00  0.88000000000E+00 0. -1.
        -11    1    4    4    0    0  0.11108193301E+00  0.44673798019E-01  0.81552484035E-02  0.12000713840E+00  0.51100000000E-03 0.  1.
         11    1    4    4    0    0  0.81367978909E-02  0.58035025688E-02  0.60765970624E-02  0.11707872345E-01  0.51100000000E-03 0. -1.
</event>
<event>
 8    1  0.1157726E+005  0.1043930E+01  0.7957747E-01            NaN
         13   -1    0    0    0    0  0.00000000000E+00  0.00000000000E+00  0.74505805969E-08  0.10566000000E+00  0.10566000000E+00 0.  1.
     999900   -1    0    0    0    0 -0.00000000000E+00 -0.00000000000E+00 -0.74505805969E-08  0.93827000000E+00  0.93827000000E+00 0.  1.
     999902    2    1    2    0    0  0.58938332529E-02 -0.21392761150E-01  0.11594568214E-01  0.10188935963E+01  0.10185859507E+01 0.  0.
     999903    2    3    3    0    0  0.20986063409E-01  0.54134083851E-01 -0.11163722752E+00  0.12697535158E+00  0.16998689575E-01 0.  0.
         14    1    1    2    0    0 -0.58938332529E-02  0.21392761150E-01 -0.11594568214E-01  0.25036403737E-01  0.00000000000E+00 0. -1.
     999901    1    3    3    0    0 -0.15092230156E-01 -0.75526845000E-01  0.12323179574E+00  0.89191824469E+00  0.88000000000E+00 0. -1.
        -11    1    4    4    0    0  0.28523595615E-02  0.28828059339E-01 -0.46670988693E-01  0.54933007080E-01  0.51100000000E-03 0.  1.
         11    1    4    4    0    0  0.18133703848E-01  0.25306024512E-01 -0.64966238828E-01  0.72042344495E-01  0.51100000000E-03 0. -1.
</event>
<event>
 8    1  0.1157726E+005  0.1043930E+01  0.7957747E-01            NaN
         13   -1    0    0    0    0  0.00000000000E+00  0.00000000000E+00  0.74505805969E-08  0.10566000000E+00  0.10566000000E+00 0.  1.
     999900   -1    0    0    0    0 -0.00000000000E+00 -0.00000000000E+00 -0.74505805969E-08  0.93827000000E+00  0.93827000000E+00 0.  1.
     999902    2    1    2    0    0 -0.25214022272E-01  0.13396690171E-02  0.18219019537E-02  0.10186147682E+01  0.10183001449E+01 0.  0.
     999903    2    3    3    0    0 -0.59186294406E-01 -0.46372858865E-01 -0.10460388002E+00  0.13026965081E+00  0.19358479387E-01 0.  0.
         14    1    1    2    0    0  0.25214022272E-01 -0.13396690171E-02 -0.18219019537E-02  0.25315231757E-01  0.00000000000E+00 0. -1.
     999901    1    3    3    0    0  0.33972272134E-01  0.47712527882E-01  0.10642578197E+00  0.88834511743E+00  0.88000000000E+00 0. -1.
        -11    1    4    4    0    0 -0.56850574185E-01 -0.36728249813E-01 -0.90196519394E-01  0.11276801564E+00  0.51100000000E-03 0.  1.
         11    1    4    4    0    0 -0.23357202209E-02 -0.96446090513E-02 -0.14407360621E-01  0.17501635174E-01  0.51100000000E-03 0. -1.
</event>
<event>
 8    1  0.1157726E+005  0.1043930E+01  0.7957747E-01            NaN
         13   -1    0    0    0    0  0.00000000000E+00  0.00000000000E+00  0.74505805969E-08  0.10566000000E+00  0.10566000000E+00 0. -1.
     999900   -1    0    0    0    0 -0.00000000000E+00 -0.00000000000E+00 -0.74505805969E-08  0.93827000000E+00  0.93827000000E+00 0.  1.
     999902    2    1    2    0    0 -0.76078170411E-02  0.29817871730E-02  0.22743201105E-01  0.10197634295E+01  0.10194770370E+01 0.  0.
     999903    2    3    3    0    0  0.33423722769E-01  0.10638985331E+00  0.67230424635E-01  0.13164410839E+00  0.19346708939E-01 0.  0.
         14    1    1    2    0    0  0.76078170411E-02 -0.29817871730E-02 -0.22743201105E-01  0.24166570534E-01  0.00000000000E+00 0.  1.
     999901    1    3    3    0    0 -0.41031539810E-01 -0.10340806614E+00 -0.44487223530E-01  0.88811932107E+00  0.88000000000E+00 0.  1.
        -11    1    4    4    0    0  0.11433000654E-01  0.13388648916E-01  0.10191147958E-01  0.20349202477E-01  0.51100000000E-03 0.  1.
         11    1    4    4    0    0  0.21990722115E-01  0.93001204397E-01  0.57039276677E-01  0.11129490592E+00  0.51100000000E-03 0. -1.
</event>
<event>
 8    1  0.1157726E+005  0.1043930E+01  0.7957747E-01            NaN
         13   -1    0    0    0    0  0.00000000000E+00  0.00000000000E+00  0.74505805969E-08  0.10566000000E+00  0.10566000000E+00 0.  1.
     999900   -1    0    0    0    0 -0.00000000000E+00 -0.00000000000E+00 -0.74505805969E-08  0.93827000000E+00  0.93827000000E+00 0. -1.
     999902    2    1    2    0    0  0.16878674803E-01  0.16277464088E-01  0.98776930008E-02  0.10184856623E+01  0.10181677809E+01 0.  0.
     999903    2    3    3    0    0 -0.86351181031E-01  0.33109465932E-02  0.92569250256E-01  0.12850677081E+00  0.21850291051E-01 0.  0.
         14    1    1    2    0    0 -0.16878674803E-01 -0.16277464088E-01 -0.98776930008E-02  0.25444337666E-01  0.00000000000E+00 0. -1.
     999901    1    3    3    0    0  0.10322985583E+00  0.12966517495E-01 -0.82691557255E-01  0.88997889152E+00  0.88000000000E+00 0. -1.
        -11    1    4    4    0    0 -0.36173583163E-01  0.10633718616E-01  0.31551063549E-01  0.49166399325E-01  0.51100000000E-03 0. -1.
         11    1    4    4    0    0 -0.50177597868E-01 -0.73227720232E-02  0.61018186708E-01  0.79340371489E-01  0.51100000000E-03 0.  1.
</event>
<event>
 8    1  0.1157726E+005  0.1043930E+01  0.7957747E-01            NaN
         13   -1    0    0    0    0  0.00000000000E+00  0.00000000000E+00  0.74505805969E-08  0.10566000000E+00  0.10566000000E+00 0. -1.
     999900   -1    0    0    0    0 -0.00000000000E+00 -0.00000000000E+00 -0.74505805969E-08  0.93827000000E+00  0.93827000000E+00 0.  1.
     999902    2    1    2    0    0  0.15265384824E-01 -0.17673947481E-01  0.53037652867E-02  0.10199815069E+01  0.10197003208E+01 0.  0.
     999903    2    3    3    0    0 -0.50873228429E-01  0.11441705917E+00  0.13756225748E-01  0.12762855307E+00  0.20505243551E-01 0.  0.
         14    1    1    2    0    0 -0.15265384824E-01  0.17673947481E-01 -0.53037652867E-02  0.23948493055E-01  0.00000000000E+00 0.  1.
     999901    1    3    3    0    0  0.66138613253E-01 -0.13209100665E+00 -0.84524604615E-02  0.89235295387E+00  0.88000000000E+00 0. -1.
        -11    1    4    4    0    0 -0.32632904743E-02  0.25133504721E-01 -0.10180731883E-02  0.25370055544E-01  0.51100000000E-03 0. -1.
         11    1    4    4    0    0 -0.47609937955E-01  0.89283554445E-01  0.14774298937E-01  0.10225849753E+00  0.51100000000E-03 0.  1.
</event>
<event>
 8    1  0.1157726E+005  0.1043930E+01  0.7957747E-01            NaN
         13   -1    0    0    0    0  0.00000000000E+00  0.00000000000E+00  0.74505805969E-08  0.10566000000E+00  0.10566000000E+00 0.  1.
     999900   -1    0    0    0    0 -0.00000000000E+00 -0.00000000000E+00 -0.74505805969E-08  0.93827000000E+00  0.93827000000E+00 0. -1.
     999902    2    1    2    0    0 -0.29351381215E-02 -0.15021393879E-01 -0.14600145236E-01  0.10227776585E+01  0.10225589065E+01 0.  0.
     999903    2    3    3    0    0 -0.11864448196E+00  0.23140914085E-01 -0.53560319138E-01  0.13352915041E+00  0.18689869419E-01 0.  0.
         14    1    1    2    0    0  0.29351381215E-02  0.15021393879E-01  0.14600145236E-01  0.21152341496E-01  0.00000000000E+00 0.  1.
     999901    1    3    3    0    0  0.11570934384E+00 -0.38162307964E-01  0.38960173902E-01  0.88924850810E+00  0.88000000000E+00 0. -1.
        -11    1    4    4    0    0 -0.58924943867E-01  0.19785138759E-01 -0.32269977236E-01  0.70037227795E-01  0.51100000000E-03 0.  1.
         11    1    4    4    0    0 -0.59719538091E-01  0.33557753268E-02 -0.21290341902E-01  0.63491922613E-01  0.51100000000E-03 0. -1.
</event>
<event>
 8    1  0.1157726E+005  0.1043930E+01  0.7957747E-01            NaN
         13   -1    0    0    0    0  0.00000000000E+00  0.00000000000E+00  0.74505805969E-08  0.10566000000E+00  0.10566000000E+00 0.  1.
     999900   -1    0    0    0    0 -0.00000000000E+00 -0.00000000000E+00 -0.74505805969E-08  0.93827000000E+00  0.93827000000E+00 0. -1.
     999902    2    1    2    0    0 -0.18212455807E-01  0.11643435090E-01  0.87622422213E-02  0.10206053346E+01  0.10203387717E+01 0.  0.
     999903    2    3    3    0    0  0.53962895001E-01  0.88587364122E-01  0.78414843285E-01  0.13157151392E+00  0.20061418416E-01 0.  0.
         14    1    1    2    0    0  0.18212455807E-01 -0.11643435090E-01 -0.87622422213E-02  0.23324665399E-01  0.00000000000E+00 0.  1.
     999901    1    3    3    0    0 -0.72175350808E-01 -0.76943929032E-01 -0.69652601063E-01  0.88903382068E+00  0.88000000000E+00 0. -1.
        -11    1    4    4    0    0  0.39816930315E-01  0.65897538175E-01  0.68482040791E-01  0.10304331375E+00  0.51100000000E-03 0. -1.
         11    1    4    4    0    0  0.14145964685E-01  0.22689825948E-01  0.99328024936E-02  0.28528200167E-01  0.51100000000E-03 0.  1.
</event>
<event>
 8    1  0.1157726E+005  0.1043930E+01  0.7957747E-01            NaN
         13   -1    0    0    0    0  0.00000000000E+00  0.00000000000E+00  0.74505805969E-08  0.10566000000E+00  0.10566000000E+00 0. -1.
     999900   -1    0    0    0    0 -0.00000000000E+00 -0.00000000000E+00 -0.74505805969E-08  0.93827000000E+00  0.93827000000E+00 0.  1.
     999902    2    1    2    0    0 -0.70929924233E-02 -0.17684125293E-01 -0.14496939176E-01  0.10199884028E+01  0.10197073805E+01 0.  0.
     999903    2    3    3    0    0  0.11940879325E+00  0.43393979472E-01 -0.81292150319E-02  0.12882411688E+00  0.19699532833E-01 0.  0.
         14    1    1    2    0    0  0.70929924233E-02  0.17684125293E-01  0.14496939176E-01  0.23941597156E-01  0.00000000000E+00 0. -1.
     999901    1    3    3    0    0 -0.12650178567E+00 -0.61078104765E-01 -0.63677241446E-02  0.89116428596E+00  0.88000000000E+00 0. -1.
        -11    1    4    4    0    0  0.66203621070E-01  0.14338868221E-01 -0.79015602376E-02  0.68199841348E-01  0.51100000000E-03 0.  1.
         11    1    4    4    0    0  0.53205172181E-01  0.29055111251E-01 -0.22765479429E-03  0.60624275536E-01  0.51100000000E-03 0. -1.
</event>
<event>
 8    1  0.1157726E+005  0.1043930E+01  0.7957747E-01            NaN
         13   -1    0    0    0    0  0.00000000000E+00  0.00000000000E+00  0.74505805969E-08  0.10566000000E+00  0.10566000000E+00 0. -1.
     999900   -1    0    0    0    0 -0.00000000000E+00 -0.00000000000E+00 -0.74505805969E-08  0.93827000000E+00  0.93827000000E+00 0.  1.
     999902    2    1    2    0    0  0.16291544511E-01 -0.69685062566E-02 -0.15184322487E-01  0.10205946587E+01  0.10203278489E+01 0.  0.
     999903    2    3    3    0    0 -0.29272525416E-01  0.46381974682E-01  0.11421854981E+00  0.12836853178E+00  0.20601808409E-01 0.  0.
         14    1    1    2    0    0 -0.16291544511E-01  0.69685062566E-02  0.15184322487E-01  0.23335341253E-01  0.00000000000E+00 0. -1.
     999901    1    3    3    0    0  0.45564069927E-01 -0.53350480938E-01 -0.12940287230E+00  0.89222612697E+00  0.88000000000E+00 0.  1.
        -11    1    4    4    0    0 -0.19940223076E-01  0.32327330836E-01  0.55370294252E-01  0.67147594312E-01  0.51100000000E-03 0. -1.
         11    1    4    4    0    0 -0.93323023403E-02  0.14054643845E-01  0.58848255562E-01  0.61220937467E-01  0.51100000000E-03 0.  1.
</event>
<event>
 8    1  0.1157726E+005  0.1043930E+01  0.7957747E-01            NaN
         13   -1    0    0    0    0  0.00000000000E+00  0.00000000000E+00  0.74505805969E-08  0.10566000000E+00  0.10566000000E+00 0. -1.
     999900   -1    0    0    0    0 -0.00000000000E+00 -0.00000000000E+00 -0.74505805969E-08  0.93827000000E+00  0.93827000000E+00 0.  1.
     999902    2    1    2    0    0  0.70770261305E-02 -0.97052821227E-02  0.20004651628E-01  0.10205962715E+01  0.10203294990E+01 0.  0.
     999903    2    3    3    0    0  0.29854764316E-01 -0.20207092345E-01  0.12712571149E+00  0.13374564435E+00  0.20671655145E-01 0.  0.
         14    1    1    2    0    0 -0.70770261305E-02  0.97052821227E-02 -0.20004651628E-01  0.23333728521E-01  0.00000000000E+00 0.  1.
     999901    1    3    3    0    0 -0.22777738186E-01  0.10501810222E-01 -0.10712105986E+00  0.88685062713E+00  0.88000000000E+00 0.  1.
        -11    1    4    4    0    0 -0.93322746101E-03 -0.85131351256E-02  0.28694867984E-01  0.29949974170E-01  0.51100000000E-03 0.  1.
         11    1    4    4    0    0  0.30787991777E-01 -0.11693957219E-01  0.98430843508E-01  0.10379567018E+00  0.51100000000E-03 0. -1.
</event>
<event>
 8    1  0.1157726E+005  0.1043930E+01  0.7957747E-01            NaN
         13   -1    0    0    0    0  0.00000000000E+00  0.00000000000E+00  0.74505805969E-08  0.10566000000E+00  0.10566000000E+00 0. -1.
     999900   -1    0    0    0    0 -0.00000000000E+00 -0.00000000000E+00 -0.74505805969E-08  0.93827000000E+00  0.93827000000E+00 0. -1.
     999902    2    1    2    0    0  0.56460332235E-02 -0.21793766769E-01  0.84133370449E-02  0.10198960615E+01  0.10196128412E+01 0.  0.
     999903    2    3    3    0    0 -0.91873162291E-01 -0.59736341476E-01  0.69986476929E-01  0.13156004170E+00  0.20020718665E-01 0.  0.
         14    1    1    2    0    0 -0.56460332235E-02  0.21793766769E-01 -0.84133370449E-02  0.24033938532E-01  0.00000000000E+00 0.  1.
     999901    1    3    3    0    0  0.97519195514E-01  0.37942574707E-01 -0.61573139884E-01  0.88833601977E+00  0.88000000000E+00 0. -1.
        -11    1    4    4    0    0 -0.24017487366E-01 -0.70152115918E-02  0.11033644715E-01  0.27350600172E-01  0.51100000000E-03 0.  1.
         11    1    4    4    0    0 -0.67855674925E-01 -0.52721129884E-01  0.58952832213E-01  0.10420944152E+00  0.51100000000E-03 0. -1.
</event>
<event>
 8    1  0.1157726E+005  0.1043930E+01  0.7957747E-01            NaN
         13   -1    0    0    0    0  0.00000000000E+00  0.00000000000E+00  0.74505805969E-08  0.10566000000E+00  0.10566000000E+00 0.  1.
     999900   -1    0    0    0    0 -0.00000000000E+00 -0.00000000000E+00 -0.74505805969E-08  0.93827000000E+00  0.93827000000E+00 0. -1.
     999902    2    1    2    0    0  0.27864165687E-02  0.19819421376E-01 -0.12911816558E-01  0.10201121792E+01  0.10198340892E+01 0.  0.
     999903    2    3    3    0    0  0.53790755135E-01  0.12484024803E-01  0.11522857660E+00  0.12933992382E+00  0.20047314408E-01 0.  0.
         14    1    1    2    0    0 -0.27864165687E-02 -0.19819421376E-01  0.12911816558E-01  0.23817820803E-01  0.00000000000E+00 0.  1.
     999901    1    3    3    0    0 -0.51004338567E-01  0.73353965731E-02 -0.12814039316E+00  0.89077225538E+00  0.88000000000E+00 0. -1.
        -11    1    4    4    0    0  0.19561871005E-02 -0.35133629073E-02  0.46357880434E-02  0.61580872577E-02  0.51100000000E-03 0. -1.
         11    1    4    4    0    0  0.51834568035E-01  0.15997387710E-01  0.11059278855E+00  0.12318183656E+00  0.51100000000E-03 0.  1.
</event>
<event>
 8    1  0.1157726E+005  0.1043930E+01  0.7957747E-01            NaN
         13   -1    0    0    0    0  0.00000000000E+00  0.00000000000E+00  0.74505805969E-08  0.10566000000E+00  0.10566000000E+00 0.  1.
     999900   -1    0    0    0    0 -0.00000000000E+00 -0.00000000000E+00 -0.74505805969E-08  0.93827000000E+00  0.93827000000E+00 0. -1.
     999902    2    1    2    0    0  0.44737022807E-02 -0.23274834162E-01  0.39197591188E-02  0.10199071686E+01  0.10196242132E+01 0.  0.
     999903    2    3    3    0    0 -0.75978085224E-01  0.94986639740E-01 -0.33144428355E-01  0.12758882836E+00  0.19627145171E-01 0.  0.
         14    1    1    2    0    0 -0.44737022807E-02  0.23274834162E-01 -0.39197591188E-02  0.24022831409E-01  0.00000000000E+00 0.  1.
     999901    1    3    3    0    0  0.80451787504E-01 -0.11826147390E+00  0.37064187474E-01  0.89231834023E+00  0.88000000000E+00 0.  1.
        -11    1    4    4    0    0 -0.49808930971E-01  0.56428892691E-01 -0.29502404756E-01  0.80844310512E-01  0.51100000000E-03 0. -1.
         11    1    4    4    0    0 -0.26169154253E-01  0.38557747049E-01 -0.36420235994E-02  0.46744517846E-01  0.51100000000E-03 0.  1.
</event>
<event>
 8    1  0.1157726E+005  0.1043930E+01  0.7957747E-01            NaN
         13   -1    0    0    0    0  0.00000000000E+00  0.00000000000E+00  0.74505805969E-08  0.10566000000E+00  0.10566000000E+00 0.  1.
     999900   -1    0    0    0    0 -0.00000000000E+00 -0.00000000000E+00 -0.74505805969E-08  0.93827000000E+00  0.93827000000E+00 0. -1.
     999902    2    1    2    0    0  0.41023348153E-02 -0.14409144258E-02 -0.23550675262E-01  0.10199813113E+01  0.10197001205E+01 0.  0.
     999903    2    3    3    0    0 -0.77361230929E-01  0.13104148870E-02  0.99509466154E-01  0.12768781655E+00  0.20385470407E-01 0.  0.
         14    1    1    2    0    0 -0.41023348153E-02  0.14409144258E-02  0.23550675262E-01  0.23948688704E-01  0.00000000000E+00 0.  1.
     999901    1    3    3    0    0  0.81463565744E-01 -0.27513293128E-02 -0.12306014142E+00  0.89229349474E+00  0.88000000000E+00 0. -1.
        -11    1    4    4    0    0 -0.42827378337E-01 -0.76502388544E-02  0.45480144410E-01  0.62939773961E-01  0.51100000000E-03 0. -1.
         11    1    4    4    0    0 -0.34533852593E-01  0.89606537414E-02  0.54029321743E-01  0.64748042591E-01  0.51100000000E-03 0.  1.
</event>
<event>
 8    1  0.1157726E+005  0.1043930E+01  0.7957747E-01            NaN
         13   -1    0    0    0    0  0.00000000000E+00  0.00000000000E+00  0.74505805969E-08  0.10566000000E+00  0.10566000000E+00 0. -1.
     999900   -1    0    0    0    0 -0.00000000000E+00 -0.00000000000E+00 -0.74505805969E-08  0.93827000000E+00  0.93827000000E+00 0.  1.
     999902    2    1    2    0    0  0.66467821611E-03 -0.17331815036E-01  0.15593712712E-01  0.10206062463E+01  0.10203397045E+01 0.  0.
     999903    2    3    3    0    0  0.19178432020E-01  0.11669989381E+00  0.49260450751E-01  0.12962885755E+00  0.19757814408E-01 0.  0.
         14    1    1    2    0    0 -0.66467821611E-03  0.17331815036E-01 -0.15593712712E-01  0.23323753680E-01  0.00000000000E+00 0.  1.
     999901    1    3    3    0    0 -0.18513753804E-01 -0.13403170885E+00 -0.33666738040E-01  0.89097738877E+00  0.88000000000E+00 0.  1.
        -11    1    4    4    0    0  0.65158274023E-02  0.58203937985E-01  0.14212918749E-01  0.60269582577E-01  0.51100000000E-03 0. -1.
         11    1    4    4    0    0  0.12662604618E-01  0.58495955827E-01  0.35047532002E-01  0.69359274969E-01  0.51100000000E-03 0.  1.
</event>
<event>
 8    1  0.1157726E+005  0.1043930E+01  0.7957747E-01            NaN
         13   -1    0    0    0    0  0.00000000000E+00  0.00000000000E+00  0.74505805969E-08  0.10566000000E+00  0.10566000000E+00 0.  1.
     999900   -1    0    0    0    0 -0.00000000000E+00 -0.00000000000E+00 -0.74505805969E-08  0.93827000000E+00  0.93827000000E+00 0.  1.
     999902    2    1    2    0    0 -0.16131676094E-01  0.18071355036E-01 -0.62312118961E-03  0.10196979319E+01  0.10194099662E+01 0.  0.
     999903    2    3    3    0    0 -0.10799833280E+00 -0.21869230484E-01 -0.68694278123E-01  0.13140270200E+00  0.20146044687E-01 0.  0.
         14    1    1    2    0    0  0.16131676094E-01 -0.18071355036E-01  0.62312118961E-03  0.24232068142E-01  0.00000000000E+00 0. -1.
     999901    1    3    3    0    0  0.91866656704E-01  0.39940585519E-01  0.68071156933E-01  0.88829522986E+00  0.88000000000E+00 0. -1.
        -11    1    4    4    0    0 -0.39884697077E-01 -0.14996146394E-01 -0.34759726937E-01  0.54992483171E-01  0.51100000000E-03 0. -1.
         11    1    4    4    0    0 -0.68113635720E-01 -0.68730840892E-02 -0.33934551186E-01  0.76410218827E-01  0.51100000000E-03 0.  1.
</event>
<event>
 8    1  0.1157726E+005  0.1043930E+01  0.7957747E-01            NaN
         13   -1    0    0    0    0  0.00000000000E+00  0.00000000000E+00  0.74505805969E-08  0.10566000000E+00  0.10566000000E+00 0.  1.
     999900   -1    0    0    0    0 -0.00000000000E+00 -0.00000000000E+00 -0.74505805969E-08  0.93827000000E+00  0.93827000000E+00 0.  1.
     999902    2    1    2    0    0 -0.15995831599E-02 -0.23511206384E-01  0.34238766480E-02  0.10201170115E+01  0.10198390357E+01 0.  0.
     999903    2    3    3    0    0 -0.55477073852E-01  0.56109721127E-01  0.10108957165E+00  0.12950999146E+00  0.18103310824E-01 0.  0.
         14    1    1    2    0    0  0.15995831599E-02  0.23511206384E-01 -0.34238766480E-02  0.23812988540E-01  0.00000000000E+00 0. -1.
     999901    1    3    3    0    0  0.53877490692E-01 -0.79620927511E-01 -0.97665695000E-01  0.89060702000E+00  0.88000000000E+00 0.  1.
        -11    1    4    4    0    0 -0.26581210269E-01  0.37603162639E-01  0.50131004721E-01  0.68073029426E-01  0.51100000000E-03 0.  1.
         11    1    4    4    0    0 -0.28895863583E-01  0.18506558488E-01  0.50958566927E-01  0.61436962030E-01  0.51100000000E-03 0. -1.
</event>
<event>
 8    1  0.1157726E+005  0.1043930E+01  0.7957747E-01            NaN
         13   -1    0    0    0    0  0.00000000000E+00  0.00000000000E+00  0.74505805969E-08  0.10566000000E+00  0.10566000000E+00 0.  1.
     999900   -1    0    0    0    0 -0.00000000000E+00 -0.00000000000E+00 -0.74505805969E-08  0.93827000000E+00  0.93827000000E+00 0. -1.
     999902    2    1    2    0    0 -0.10483618015E-01  0.13403848554E-01  0.16057818964E-01  0.10205329285E+01  0.10202646888E+01 0.  0.
     999903    2    3    3    0    0 -0.25826543894E-01  0.10075170761E+00  0.82012089988E-01  0.13361973115E+00  0.17616262133E-01 0.  0.
         14    1    1    2    0    0  0.10483618015E-01 -0.13403848554E-01 -0.16057818964E-01  0.23397071455E-01  0.00000000000E+00 0. -1.
     999901    1    3    3    0    0  0.15342925878E-01 -0.87347859055E-01 -0.65954271023E-01  0.88691319740E+00  0.88000000000E+00 0.  1.
        -11    1    4    4    0    0 -0.14958937568E-01  0.82043788365E-01  0.59905216814E-01  0.10268324666E+00  0.51100000000E-03 0. -1.
         11    1    4    4    0    0 -0.10867606326E-01  0.18707919245E-01  0.22106873174E-01  0.30936484484E-01  0.51100000000E-03 0.  1.
</event>
<event>
 8    1  0.1157726E+005  0.1043930E+01  0.7957747E-01            NaN
         13   -1    0    0    0    0  0.00000000000E+00  0.00000000000E+00  0.74505805969E-08  0.10566000000E+00  0.10566000000E+00 0. -1.
     999900   -1    0    0    0    0 -0.00000000000E+00 -0.00000000000E+00 -0.74505805969E-08  0.93827000000E+00  0.93827000000E+00 0.  1.
     999902    2    1    2    0    0 -0.71591806486E-02  0.58413216771E-02 -0.22633411783E-01  0.10194831958E+01  0.10191900413E+01 0.  0.
     999903    2    3    3    0    0  0.84046457141E-01  0.91669238848E-01  0.29525424454E-01  0.12908696719E+00  0.18017716291E-01 0.  0.
         14    1    1    2    0    0  0.71591806486E-02 -0.58413216771E-02  0.22633411783E-01  0.24446804197E-01  0.00000000000E+00 0. -1.
     999901    1    3    3    0    0 -0.91205637789E-01 -0.85827917170E-01 -0.52158836238E-01  0.89039622861E+00  0.88000000000E+00 0.  1.
        -11    1    4    4    0    0  0.25907866220E-01  0.16938692498E-01  0.62075085077E-02  0.31574216040E-01  0.51100000000E-03 0.  1.
         11    1    4    4    0    0  0.58138590920E-01  0.74730546349E-01  0.23317915946E-01  0.97512751150E-01  0.51100000000E-03 0. -1.
</event>
<event>
 8    1  0.1157726E+005  0.1043930E+01  0.7957747E-01            NaN
         13   -1    0    0    0    0  0.00000000000E+00  0.00000000000E+00  0.74505805969E-08  0.10566000000E+00  0.10566000000E+00 0. -1.
     999900   -1    0    0    0    0 -0.00000000000E+00 -0.00000000000E+00 -0.74505805969E-08  0.93827000000E+00  0.93827000000E+00 0. -1.
     999902    2    1    2    0    0 -0.11496118429E-01 -0.14908096755E-01  0.14833419038E-01  0.10199624718E+01  0.10196808331E+01 0.  0.
     999903    2    3    3    0    0  0.87626179547E-01  0.23363593744E-01 -0.87805784190E-01  0.12764820076E+00  0.18973733594E-01 0.  0.
         14    1    1    2    0    0  0.11496118429E-01  0.14908096755E-01 -0.14833419038E-01  0.23967528203E-01  0.00000000000E+00 0.  1.
     999901    1    3    3    0    0 -0.99122297976E-01 -0.38271690499E-01  0.10263920323E+00  0.89231427103E+00  0.88000000000E+00 0.  1.
        -11    1    4    4    0    0  0.21687275601E-01 -0.24179261565E-02 -0.21872300927E-01  0.30900533308E-01  0.51100000000E-03 0. -1.
         11    1    4    4    0    0  0.65938903946E-01  0.25781519901E-01 -0.65933483263E-01  0.96747667456E-01  0.51100000000E-03 0.  1.
</event>
<event>
 8    1  0.1157726E+005  0.1043930E+01  0.7957747E-01            NaN
         13   -1    0    0    0    0  0.00000000000E+00  0.00000000000E+00  0.74505805969E-08  0.10566000000E+00  0.10566000000E+00 0.  1.
     999900   -1    0    0    0    0 -0.00000000000E+00 -0.00000000000E+00 -0.74505805969E-08  0.93827000000E+00  0.93827000000E+00 0.  1.
     999902    2    1    2    0    0  0.72457024093E-03  0.13910522787E-01 -0.21486449311E-01  0.10183234549E+01  0.10180014557E+01 0.  0.
     999903    2    3    3    0    0 -0.89505634703E-01  0.82161570911E-01 -0.42490615205E-01  0.13083211952E+00  0.23448000738E-01 0.  0.
         14    1    1    2    0    0 -0.72457024093E-03 -0.13910522787E-01  0.21486449311E-01  0.25606545067E-01  0.00000000000E+00 0.  1.
     999901    1    3    3    0    0  0.90230204944E-01 -0.68251048124E-01  0.21004165894E-01  0.88749133542E+00  0.88000000000E+00 0. -1.
        -11    1    4    4    0    0 -0.57382950039E-01  0.43804714849E-01 -0.35035881028E-01  0.80246059583E-01  0.51100000000E-03 0.  1.
         11    1    4    4    0    0 -0.32122684663E-01  0.38356856062E-01 -0.74547341774E-02  0.50586059933E-01  0.51100000000E-03 0. -1.
</event>
<event>
 8    1  0.1157726E+005  0.1043930E+01  0.7957747E-01            NaN
         13   -1    0    0    0    0  0.00000000000E+00  0.00000000000E+00  0.74505805969E-08  0.10566000000E+00  0.10566000000E+00 0. -1.
     999900   -1    0    0    0    0 -0.00000000000E+00 -0.00000000000E+00 -0.74505805969E-08  0.93827000000E+00  0.93827000000E+00 0.  1.
     999902    2    1    2    0    0 -0.15611977033E-01 -0.10103969805E-02 -0.20476630329E-01  0.10181608883E+01  0.10178347348E+01 0.  0.
     999903    2    3    3    0    0 -0.29715718992E-01 -0.10485532714E+00  0.63908376629E-01  0.12793422363E+00  0.20130111504E-01 0.  0.
         14    1    1    2    0    0  0.15611977033E-01  0.10103969805E-02  0.20476630329E-01  0.25769111715E-01  0.00000000000E+00 0. -1.
     999901    1    3    3    0    0  0.14103741959E-01  0.10384493016E+00 -0.84385006958E-01  0.89022666465E+00  0.88000000000E+00 0.  1.
        -11    1    4    4    0    0 -0.18582265285E-01 -0.38400838743E-01  0.32271587079E-01  0.53494312342E-01  0.51100000000E-03 0. -1.
         11    1    4    4    0    0 -0.11133453707E-01 -0.66454488394E-01  0.31636789550E-01  0.74439911292E-01  0.51100000000E-03 0.  1.
</event>
<event>
 8    1  0.1157726E+005  0.1043930E+01  0.7957747E-01            NaN
         13   -1    0    0    0    0  0.00000000000E+00  0.00000000000E+00  0.74505805969E-08  0.10566000000E+00  0.10566000000E+00 0. -1.
     999900   -1    0    0    0    0 -0.00000000000E+00 -0.00000000000E+00 -0.74505805969E-08  0.93827000000E+00  0.93827000000E+00 0. -1.
     999902    2    1    2    0    0 -0.66893500483E-02 -0.22713188610E-01 -0.88578100601E-02  0.10186496294E+01  0.10183358828E+01 0.  0.
     999903    2    3    3    0    0 -0.60366635710E-01  0.45183316905E-03 -0.11471811674E+00  0.13037924610E+00  0.13934369195E-01 0.  0.
         14    1    1    2    0    0  0.66893500483E-02  0.22713188610E-01  0.88578100601E-02  0.25280370646E-01  0.00000000000E+00 0. -1.
     999901    1    3    3    0    0  0.53677285662E-01 -0.23165021779E-01  0.10586030668E+00  0.88827038325E+00  0.88000000000E+00 0.  1.
        -11    1    4    4    0    0 -0.49664553517E-01 -0.39654270096E-02 -0.85683548113E-01  0.99117223658E-01  0.51100000000E-03 0.  1.
         11    1    4    4    0    0 -0.10702082193E-01  0.44172601786E-02 -0.29034568632E-01  0.31262022445E-01  0.51100000000E-03 0. -1.
</event>
<event>
 8    1  0.1157726E+005  0.1043930E+01  0.7957747E-01            NaN
         13   -1    0    0    0    0  0.00000000000E+00  0.00000000000E+00  0.74505805969E-08  0.10566000000E+00  0.10566000000E+00 0. -1.
     999900   -1    0    0    0    0 -0.00000000000E+00 -0.00000000000E+00 -0.74505805969E-08  0.93827000000E+00  0.93827000000E+00 0. -1.
     999902    2    1    2    0    0 -0.95816224494E-02  0.18286393103E-01  0.10229456267E-01  0.10208900035E+01  0.10206299809E+01 0.  0.
     999903    2    3    3    0    0  0.11720649385E+00  0.53493704490E-01 -0.10434100174E-01  0.13086654105E+00  0.20450977961E-01 0.  0.
         14    1    1    2    0    0  0.95816224494E-02 -0.18286393103E-01 -0.10229456267E-01  0.23039996463E-01  0.00000000000E+00 0.  1.
     999901    1    3    3    0    0 -0.12678811630E+00 -0.35207311387E-01  0.20663556441E-01  0.89002346249E+00  0.88000000000E+00 0.  1.
        -11    1    4    4    0    0  0.85629854182E-01  0.28777698632E-01 -0.64939862707E-02  0.90570750491E-01  0.51100000000E-03 0.  1.
         11    1    4    4    0    0  0.31576639669E-01  0.24716005859E-01 -0.39401139034E-02  0.40295790561E-01  0.51100000000E-03 0. -1.
</event>
<event>
 8    1  0.1157726E+005  0.1043930E+01  0.7957747E-01            NaN
         13   -1    0    0    0    0  0.00000000000E+00  0.00000000000E+00  0.74505805969E-08  0.10566000000E+00  0.10566000000E+00 0.  1.
     999900   -1    0    0    0    0 -0.00000000000E+00 -0.00000000000E+00 -0.74505805969E-08  0.93827000000E+00  0.93827000000E+00 0. -1.
     999902    2    1    2    0    0 -0.10802185498E-01 -0.58874435795E-02  0.20138190364E-01  0.10203313578E+01  0.10200584217E+01 0.  0.
     999903    2    3    3    0    0 -0.26964071605E-01  0.49328528273E-01  0.11879472487E+00  0.13295143807E+00  0.20088139970E-01 0.  0.
         14    1    1    2    0    0  0.10802185498E-01  0.58874435795E-02 -0.20138190364E-01  0.23598642219E-01  0.00000000000E+00 0. -1.
     999901    1    3    3    0    0  0.16161886107E-01 -0.55215971853E-01 -0.98656534509E-01  0.88737991971E+00  0.88000000000E+00 0. -1.
        -11    1    4    4    0    0 -0.22197147363E-01  0.21784752794E-01  0.72152482333E-01  0.78571818314E-01  0.51100000000E-03 0.  1.
         11    1    4    4    0    0 -0.47669242424E-02  0.27543775479E-01  0.46642242540E-01  0.54379619754E-01  0.51100000000E-03 0. -1.
</event>
<event>
 8    1  0.1157726E+005  0.1043930E+01  0.7957747E-01            NaN
         13   -1    0    0    0    0  0.00000000000E+00  0.00000000000E+00  0.74505805969E-08  0.10566000000E+00  0.10566000000E+00 0. -1.
     999900   -1    0    0    0    0 -0.00000000000E+00 -0.00000000000E+00 -0.74505805969E-08  0.93827000000E+00  0.93827000000E+00 0.  1.
     999902    2    1    2    0    0  0.17707614155E-02 -0.20192391436E-01 -0.12344532432E-01  0.10201969903E+01  0.10199209005E+01 0.  0.
     999903    2    3    3    0    0  0.28063703625E-01  0.47968774784E-01 -0.11689244463E+00  0.13100211328E+00  0.20227092169E-01 0.  0.
         14    1    1    2    0    0 -0.17707614155E-02  0.20192391436E-01  0.12344532432E-01  0.23733009688E-01  0.00000000000E+00 0. -1.
     999901    1    3    3    0    0 -0.26292942210E-01 -0.68161166220E-01  0.10454791220E+00  0.88919487703E+00  0.88000000000E+00 0. -1.
        -11    1    4    4    0    0  0.69552231224E-02  0.20445560190E-02 -0.26045637462E-01  0.27040556389E-01  0.51100000000E-03 0.  1.
         11    1    4    4    0    0  0.21108480503E-01  0.45924218765E-01 -0.90846807167E-01  0.10396155689E+00  0.51100000000E-03 0. -1.
</event>
<event>
 8    1  0.1157726E+005  0.1043930E+01  0.7957747E-01            NaN
         13   -1    0    0    0    0  0.00000000000E+00  0.00000000000E+00  0.74505805969E-08  0.10566000000E+00  0.10566000000E+00 0.  1.
     999900   -1    0    0    0    0 -0.00000000000E+00 -0.00000000000E+00 -0.74505805969E-08  0.93827000000E+00  0.93827000000E+00 0. -1.
     999902    2    1    2    0    0  0.12511668514E-01  0.19869280556E-01 -0.76307336744E-03  0.10204371832E+01  0.10201667180E+01 0.  0.
     999903    2    3    3    0    0  0.56910830067E-01 -0.50498116080E-01  0.10403320872E+00  0.13032195654E+00  0.19287341261E-01 0.  0.
         14    1    1    2    0    0 -0.12511668514E-01 -0.19869280556E-01  0.76307336744E-03  0.23492816770E-01  0.00000000000E+00 0.  1.
     999901    1    3    3    0    0 -0.44399161553E-01  0.70367396636E-01 -0.10479628208E+00  0.89011522670E+00  0.88000000000E+00 0. -1.
        -11    1    4    4    0    0  0.85596386145E-02 -0.13538951670E-01  0.33669763042E-01  0.37289203395E-01  0.51100000000E-03 0.  1.
         11    1    4    4    0    0  0.48351191453E-01 -0.36959164409E-01  0.70363445674E-01  0.93032753140E-01  0.51100000000E-03 0. -1.
</event>
<event>
 8    1  0.1157726E+005  0.1043930E+01  0.7957747E-01            NaN
         13   -1    0    0    0    0  0.00000000000E+00  0.00000000000E+00  0.74505805969E-08  0.10566000000E+00  0.10566000000E+00 0. -1.
     999900   -1    0    0    0    0 -0.00000000000E+00 -0.00000000000E+00 -0.74505805969E-08  0.93827000000E+00  0.93827000000E+00 0. -1.
     999902    2    1    2    0    0 -0.17042242824E-01  0.11736009118E-01 -0.11218793317E-01  0.10203920886E+01  0.10201205719E+01 0.  0.
     999903    2    3    3    0    0 -0.44763497751E-01  0.96542210853E-01  0.76006050872E-01  0.13159023593E+00  0.14659509413E-01 0.  0.
         14    1    1    2    0    0  0.17042242824E-01 -0.11736009118E-01  0.11218793317E-01  0.23537911419E-01  0.00000000000E+00 0. -1.
     999901    1    3    3    0    0  0.27721254926E-01 -0.84806201735E-01 -0.87224844189E-01  0.88880185265E+00  0.88000000000E+00 0. -1.
        -11    1    4    4    0    0 -0.16995572156E-01  0.50438315517E-01  0.32335996468E-01  0.62279618927E-01  0.51100000000E-03 0.  1.
         11    1    4    4    0    0 -0.27767925595E-01  0.46103895336E-01  0.43670054404E-01  0.69310617005E-01  0.51100000000E-03 0. -1.
</event>
<event>
 8    1  0.1157726E+005  0.1043930E+01  0.7957747E-01            NaN
         13   -1    0    0    0    0  0.00000000000E+00  0.00000000000E+00  0.74505805969E-08  0.10566000000E+00  0.10566000000E+00 0.  1.
     999900   -1    0    0    0    0 -0.00000000000E+00 -0.00000000000E+00 -0.74505805969E-08  0.93827000000E+00  0.93827000000E+00 0.  1.
     999902    2    1    2    0    0 -0.17598199425E-01 -0.14136029732E-01 -0.68852384428E-02  0.10203306257E+01  0.10200576725E+01 0.  0.
     999903    2    3    3    0    0  0.52954061049E-01  0.73017013737E-01  0.87078671134E-01  0.12825299972E+00  0.27028135242E-01 0.  0.
         14    1    1    2    0    0  0.17598199425E-01  0.14136029732E-01  0.68852384428E-02  0.23599374314E-01  0.00000000000E+00 0. -1.
     999901    1    3    3    0    0 -0.70552260474E-01 -0.87153043468E-01 -0.93963909577E-01  0.89207762596E+00  0.88000000000E+00 0.  1.
        -11    1    4    4    0    0  0.34608841180E-01  0.52986349233E-01  0.76031097439E-01  0.98925800434E-01  0.51100000000E-03 0. -1.
         11    1    4    4    0    0  0.18345219869E-01  0.20030664504E-01  0.11047573695E-01  0.29327199288E-01  0.51100000000E-03 0.  1.
</event>
<event>
 8    1  0.1157726E+005  0.1043930E+01  0.7957747E-01            NaN
         13   -1    0    0    0    0  0.00000000000E+00  0.00000000000E+00  0.74505805969E-08  0.10566000000E+00  0.10566000000E+00 0.  1.
     999900   -1    0    0    0    0 -0.00000000000E+00 -0.00000000000E+00 -0.74505805969E-08  0.93827000000E+00  0.93827000000E+00 0. -1.
     999902    2    1    2    0    0  0.11964972427E-01  0.21384326437E-01  0.23585766222E-02  0.10193126714E+01  0.10190153626E+01 0.  0.
     999903    2    3    3    0    0  0.59191179286E-01 -0.26174076820E-01  0.11104530970E+00  0.13009676835E+00  0.20135300497E-01 0.  0.
         14    1    1    2    0    0 -0.11964972427E-01 -0.21384326437E-01 -0.23585766222E-02  0.24617328572E-01  0.00000000000E+00 0. -1.
     999901    1    3    3    0    0 -0.47226206859E-01  0.47558403257E-01 -0.10868673308E+00  0.88921590308E+00  0.88000000000E+00 0. -1.
        -11    1    4    4    0    0  0.44025054429E-01 -0.24841297378E-01  0.70235547655E-01  0.86536632406E-01  0.51100000000E-03 0. -1.
         11    1    4    4    0    0  0.15166124857E-01 -0.13327794423E-02  0.40809762048E-01  0.43560135946E-01  0.51100000000E-03 0.  1.
</event>
<event>
 8    1  0.1157726E+005  0.1043930E+01  0.7957747E-01            NaN
         13   -1    0    0    0    0  0.00000000000E+00  0.00000000000E+00  0.74505805969E-08  0.10566000000E+00  0.10566000000E+00 0. -1.
     999900   -1    0    0    0    0 -0.00000000000E+00 -0.00000000000E+00 -0.74505805969E-08  0.93827000000E+00  0.93827000000E+00 0.  1.
     999902    2    1    2    0    0 -0.16913749491E-01  0.14937542649E-01 -0.45645205710E-02  0.10209074035E+01  0.10206477779E+01 0.  0.
     999903    2    3    3    0    0 -0.29430824132E-02 -0.62180394318E-01  0.11164622581E+00  0.12981409001E+00  0.22622003805E-01 0.  0.
         14    1    1    2    0    0  0.16913749491E-01 -0.14937542649E-01  0.45645205710E-02  0.23022596515E-01  0.00000000000E+00 0. -1.
     999901    1    3    3    0    0 -0.13970667078E-01  0.77117936967E-01 -0.11621074638E+00  0.89109331347E+00  0.88000000000E+00 0. -1.
        -11    1    4    4    0    0 -0.12500772701E-01 -0.32766180283E-01  0.64662942651E-01  0.73562552714E-01  0.51100000000E-03 0.  1.
         11    1    4    4    0    0  0.95576902876E-02 -0.29414214035E-01  0.46983283161E-01  0.56251537298E-01  0.51100000000E-03 0. -1.
</event>
<event>
 8    1  0.1157726E+005  0.1043930E+01  0.7957747E-01            NaN
         13   -1    0    0    0    0  0.00000000000E+00  0.00000000000E+00  0.74505805969E-08  0.10566000000E+00  0.10566000000E+00 0. -1.
     999900   -1    0    0    0    0 -0.00000000000E+00 -0.00000000000E+00 -0.74505805969E-08  0.93827000000E+00  0.93827000000E+00 0. -1.
     999902    2    1    2    0    0 -0.71351104395E-02 -0.23171332536E-01  0.28899696262E-02  0.10195133586E+01  0.10192209358E+01 0.  0.
     999903    2    3    3    0    0 -0.16432772333E-01  0.31658473219E-01  0.12299594458E+00  0.12961549967E+00  0.19997010781E-01 0.  0.
         14    1    1    2    0    0  0.71351104395E-02  0.23171332536E-01 -0.28899696262E-02  0.24416641393E-01  0.00000000000E+00 0. -1.
     999901    1    3    3    0    0  0.92976618932E-02 -0.54829805755E-01 -0.12010597495E+00  0.88989785893E+00  0.88000000000E+00 0. -1.
        -11    1    4    4    0    0  0.45619092363E-02  0.35477614010E-02  0.17072436538E-01  0.18031273865E-01  0.51100000000E-03 0.  1.
         11    1    4    4    0    0 -0.20994681569E-01  0.28110711818E-01  0.10592350804E+00  0.11158422581E+00  0.51100000000E-03 0. -1.
</event>
<event>
 8    1  0.1157726E+005  0.1043930E+01  0.7957747E-01            NaN
         13   -1    0    0    0    0  0.00000000000E+00  0.00000000000E+00  0.74505805969E-08  0.10566000000E+00  0.10566000000E+00 0.  1.
     999900   -1    0    0    0    0 -0.00000000000E+00 -0.00000000000E+00 -0.74505805969E-08  0.93827000000E+00  0.93827000000E+00 0. -1.
     999902    2    1    2    0    0 -0.93446538867E-02  0.20621159246E-01  0.27399038089E-02  0.10211251357E+01  0.10208704525E+01 0.  0.
     999903    2    3    3    0    0  0.10483873538E+00  0.76538724192E-01 -0.10767217785E-01  0.13188553758E+00  0.20700852784E-01 0.  0.
         14    1    1    2    0    0  0.93446538867E-02 -0.20621159246E-01 -0.27399038089E-02  0.22804864345E-01  0.00000000000E+00 0. -1.
     999901    1    3    3    0    0 -0.11418338927E+00 -0.55917564946E-01  0.13507121594E-01  0.88923959808E+00  0.88000000000E+00 0.  1.
        -11    1    4    4    0    0  0.31143272516E-01  0.16808269739E-01  0.49217321848E-02  0.35733820441E-01  0.51100000000E-03 0.  1.
         11    1    4    4    0    0  0.73695462866E-01  0.59730454453E-01 -0.15688949970E-01  0.96151717137E-01  0.51100000000E-03 0. -1.
</event>
<event>
 8    1  0.1157726E+005  0.1043930E+01  0.7957747E-01            NaN
         13   -1    0    0    0    0  0.00000000000E+00  0.00000000000E+00  0.74505805969E-08  0.10566000000E+00  0.10566000000E+00 0. -1.
     999900   -1    0    0    0    0 -0.00000000000E+00 -0.00000000000E+00 -0.74505805969E-08  0.93827000000E+00  0.93827000000E+00 0. -1.
     999902    2    1    2    0    0  0.18571034172E-01  0.10689227335E-01 -0.90096620273E-02  0.10206852823E+01  0.10204205646E+01 0.  0.
     999903    2    3    3    0    0 -0.11896290598E+00  0.19816313455E-01  0.40035265297E-01  0.12860664603E+00  0.19798678127E-01 0.  0.
         14    1    1    2    0    0 -0.18571034172E-01 -0.10689227335E-01  0.90096620273E-02  0.23244717703E-01  0.00000000000E+00 0. -1.
     999901    1    3    3    0    0  0.13753394016E+00 -0.91270861193E-02 -0.49044927324E-01  0.89207863627E+00  0.88000000000E+00 0.  1.
        -11    1    4    4    0    0 -0.50212965300E-01  0.71397815264E-02  0.67205975373E-02  0.51163912250E-01  0.51100000000E-03 0. -1.
         11    1    4    4    0    0 -0.68749940683E-01  0.12676531928E-01  0.33314667759E-01  0.77442733775E-01  0.51100000000E-03 0.  1.
</event>
<event>
 8    1  0.1157726E+005  0.1043930E+01  0.7957747E-01            NaN
         13   -1    0    0    0    0  0.00000000000E+00  0.00000000000E+00  0.74505805969E-08  0.10566000000E+00  0.10566000000E+00 0. -1.
     999900   -1    0    0    0    0 -0.00000000000E+00 -0.00000000000E+00 -0.74505805969E-08  0.93827000000E+00  0.93827000000E+00 0. -1.
     999902    2    1    2    0    0  0.23174680293E-01  0.82917196525E-02  0.18559537060E-02  0.10192467469E+01  0.10189478240E+01 0.  0.
     999903    2    3    3    0    0  0.76799201523E-01  0.90225882977E-01  0.55007708620E-01  0.13222143412E+00  0.20440947103E-01 0.  0.
         14    1    1    2    0    0 -0.23174680293E-01 -0.82917196525E-02 -0.18559537060E-02  0.24683253141E-01  0.00000000000E+00 0. -1.
     999901    1    3    3    0    0 -0.53624521230E-01 -0.81934163325E-01 -0.53151754914E-01  0.88702531274E+00  0.88000000000E+00 0. -1.
        -11    1    4    4    0    0  0.44525542490E-01  0.66239440692E-01  0.32891475276E-01  0.86326691724E-01  0.51100000000E-03 0.  1.
         11    1    4    4    0    0  0.32273659033E-01  0.23986442286E-01  0.22116233344E-01  0.45894742392E-01  0.51100000000E-03 0. -1.
</event>
<event>
 8    1  0.1157726E+005  0.1043930E+01  0.7957747E-01            NaN
         13   -1    0    0    0    0  0.00000000000E+00  0.00000000000E+00  0.74505805969E-08  0.10566000000E+00  0.10566000000E+00 0. -1.
     999900   -1    0    0    0    0 -0.00000000000E+00 -0.00000000000E+00 -0.74505805969E-08  0.93827000000E+00  0.93827000000E+00 0.  1.
     999902    2    1    2    0    0 -0.73733202203E-02  0.74390466915E-02  0.20860447012E-01  0.10205876883E+01  0.10203207172E+01 0.  0.
     999903    2    3    3    0    0 -0.60508703350E-01 -0.95105259730E-01  0.65599001011E-01  0.13191438389E+00  0.19795507951E-01 0.  0.
         14    1    1    2    0    0  0.73733202203E-02 -0.74390466915E-02 -0.20860447012E-01  0.23342311717E-01  0.00000000000E+00 0.  1.
     999901    1    3    3    0    0  0.53135383129E-01  0.10254430642E+00 -0.44738553999E-01  0.88867330439E+00  0.88000000000E+00 0.  1.
        -11    1    4    4    0    0 -0.28100813733E-01 -0.60263449661E-01  0.43396268116E-01  0.79402999344E-01  0.51100000000E-03 0.  1.
         11    1    4    4    0    0 -0.32407889616E-01 -0.34841810069E-01  0.22202732895E-01  0.52511384549E-01  0.51100000000E-03 0. -1.
</event>
<event>
 8    1  0.1157726E+005  0.1043930E+01  0.7957747E-01            NaN
         13   -1    0    0    0    0  0.00000000000E+00  0.00000000000E+00  0.74505805969E-08  0.10566000000E+00  0.10566000000E+00 0. -1.
     999900   -1    0    0    0    0 -0.00000000000E+00 -0.00000000000E+00 -0.74505805969E-08  0.93827000000E+00  0.93827000000E+00 0.  1.
     999902    2    1    2    0    0  0.20405963531E-01 -0.16190104926E-02 -0.12878688050E-01  0.10197456011E+01  0.10194587809E+01 0.  0.
     999903    2    3    3    0    0  0.52743978817E-01  0.10401101146E+00  0.54486356393E-01  0.13028424841E+00  0.20124724713E-01 0.  0.
         14    1    1    2    0    0 -0.20405963531E-01  0.16190104926E-02  0.12878688050E-01  0.24184398866E-01  0.00000000000E+00 0. -1.
     999901    1    3    3    0    0 -0.32338015286E-01 -0.10563002196E+00 -0.67365044443E-01  0.88946135272E+00  0.88000000000E+00 0.  1.
        -11    1    4    4    0    0  0.18005244596E-01  0.21630949760E-01  0.19658706943E-01  0.34333841908E-01  0.51100000000E-03 0.  1.
         11    1    4    4    0    0  0.34738734221E-01  0.82380061702E-01  0.34827649449E-01  0.95950406505E-01  0.51100000000E-03 0. -1.
</event>
<event>
 8    1  0.1157726E+005  0.1043930E+01  0.7957747E-01            NaN
         13   -1    0    0    0    0  0.00000000000E+00  0.00000000000E+00  0.74505805969E-08  0.10566000000E+00  0.10566000000E+00 0. -1.
     999900   -1    0    0    0    0 -0.00000000000E+00 -0.00000000000E+00 -0.74505805969E-08  0.93827000000E+00  0.93827000000E+00 0. -1.
     999902    2    1    2    0    0  0.22732554750E-01 -0.43017195668E-02 -0.57824952372E-02  0.10200823358E+01  0.10198035403E+01 0.  0.
     999903    2    3    3    0    0  0.73067545905E-01 -0.10894102018E+00 -0.98080095280E-02  0.13244547349E+00  0.15446496463E-01 0.  0.
         14    1    1    2    0    0 -0.22732554750E-01  0.43017195668E-02  0.57824952372E-02  0.23847664201E-01  0.00000000000E+00 0. -1.
     999901    1    3    3    0    0 -0.50334991155E-01  0.10463930062E+00  0.40255142908E-02  0.88763686231E+00  0.88000000000E+00 0. -1.
        -11    1    4    4    0    0  0.35833808853E-01 -0.66384493649E-01 -0.80728832329E-02  0.75870912863E-01  0.51100000000E-03 0. -1.
         11    1    4    4    0    0  0.37233737052E-01 -0.42556526536E-01 -0.17351262951E-02  0.56574560625E-01  0.51100000000E-03 0.  1.
</event>
<event>
 8    1  0.1157726E+005  0.1043930E+01  0.7957747E-01            NaN
         13   -1    0    0    0    0  0.00000000000E+00  0.00000000000E+00  0.74505805969E-08  0.10566000000E+00  0.10566000000E+00 0. -1.
     999900   -1    0    0    0    0 -0.00000000000E+00 -0.00000000000E+00 -0.74505805969E-08  0.93827000000E+00  0.93827000000E+00 0. -1.
     999902    2    1    2    0    0 -0.16837010385E-01 -0.16160894402E-01 -0.78037779880E-02  0.10193219042E+01  0.10190248211E+01 0.  0.
     999903    2    3    3    0    0  0.12325272947E+00  0.20016845580E-01 -0.10439569282E-01  0.12750302605E+00  0.23582358135E-01 0.  0.
         14    1    1    2    0    0  0.16837010385E-01  0.16160894402E-01  0.78037779880E-02  0.24608095771E-01  0.00000000000E+00 0.  1.
     999901    1    3    3    0    0 -0.14008973986E+00 -0.36177739982E-01  0.26357912944E-02  0.89181887818E+00  0.88000000000E+00 0.  1.
        -11    1    4    4    0    0  0.10605383696E+00  0.12951294691E-01 -0.16124898812E-01  0.10805288451E+00  0.51100000000E-03 0.  1.
         11    1    4    4    0    0  0.17198892514E-01  0.70655508881E-02  0.56853295296E-02  0.19450141540E-01  0.51100000000E-03 0. -1.
</event>
<event>
 8    1  0.1157726E+005  0.1043930E+01  0.7957747E-01            NaN
         13   -1    0    0    0    0  0.00000000000E+00  0.00000000000E+00  0.74505805969E-08  0.10566000000E+00  0.10566000000E+00 0. -1.
     999900   -1    0    0    0    0 -0.00000000000E+00 -0.00000000000E+00 -0.74505805969E-08  0.93827000000E+00  0.93827000000E+00 0. -1.
     999902    2    1    2    0    0  0.22269434564E-01  0.60616417077E-04 -0.89068425024E-02  0.10199453542E+01  0.10196633083E+01 0.  0.
     999903    2    3    3    0    0  0.33234940033E-01  0.10630937450E+00  0.64846355253E-01  0.13042381143E+00  0.19976897933E-01 0.  0.
         14    1    1    2    0    0 -0.22269434564E-01 -0.60616417077E-04  0.89068425024E-02  0.23984645787E-01  0.00000000000E+00 0. -1.
     999901    1    3    3    0    0 -0.10965505469E-01 -0.10624875809E+00 -0.73753197756E-01  0.88952154279E+00  0.88000000000E+00 0.  1.
        -11    1    4    4    0    0  0.14358743397E-01  0.60604792120E-01  0.25806909691E-01  0.67419374431E-01  0.51100000000E-03 0.  1.
         11    1    4    4    0    0  0.18876196636E-01  0.45704582382E-01  0.39039445562E-01  0.63004436994E-01  0.51100000000E-03 0. -1.
</event>
<event>
 8    1  0.1157726E+005  0.1043930E+01  0.7957747E-01            NaN
         13   -1    0    0    0    0  0.00000000000E+00  0.00000000000E+00  0.74505805969E-08  0.10566000000E+00  0.10566000000E+00 0. -1.
     999900   -1    0    0    0    0 -0.00000000000E+00 -0.00000000000E+00 -0.74505805969E-08  0.93827000000E+00  0.93827000000E+00 0.  1.
     999902    2    1    2    0    0 -0.12398810969E-01 -0.19709265297E-01 -0.54776830558E-02  0.10200094928E+01  0.10197289712E+01 0.  0.
     999903    2    3    3    0    0 -0.63591254119E-02 -0.29349816101E-01 -0.12662669698E+00  0.13163654096E+00  0.19799200640E-01 0.  0.
         14    1    1    2    0    0  0.12398810969E-01  0.19709265297E-01  0.54776830558E-02  0.23920507178E-01  0.00000000000E+00 0.  1.
     999901    1    3    3    0    0 -0.60396855568E-02  0.96405508037E-02  0.12114901393E+00  0.88837295186E+00  0.88000000000E+00 0. -1.
        -11    1    4    4    0    0 -0.34557046663E-02 -0.31230408758E-01 -0.10109832672E+00  0.10586979320E+00  0.51100000000E-03 0. -1.
         11    1    4    4    0    0 -0.29034207455E-02  0.18805926573E-02 -0.25528370269E-01  0.25766747765E-01  0.51100000000E-03 0.  1.
</event>
<event>
 8    1  0.1157726E+005  0.1043930E+01  0.7957747E-01            NaN
         13   -1    0    0    0    0  0.00000000000E+00  0.00000000000E+00  0.74505805969E-08  0.10566000000E+00  0.10566000000E+00 0.  1.
     999900   -1    0    0    0    0 -0.00000000000E+00 -0.00000000000E+00 -0.74505805969E-08  0.93827000000E+00  0.93827000000E+00 0. -1.
     999902    2    1    2    0    0 -0.93526248976E-02 -0.21917396167E-01  0.39344202642E-03  0.10200972779E+01  0.10198188357E+01 0.  0.
     999903    2    3    3    0    0  0.11402772447E+00 -0.13283079174E-03  0.58002835223E-01  0.12935819145E+00  0.19153934566E-01 0.  0.
         14    1    1    2    0    0  0.93526248976E-02  0.21917396167E-01 -0.39344202642E-03  0.23832722124E-01  0.00000000000E+00 0.  1.
     999901    1    3    3    0    0 -0.12338034937E+00 -0.21784565375E-01 -0.57609393196E-01  0.89073908642E+00  0.88000000000E+00 0.  1.
        -11    1    4    4    0    0  0.24359412475E-01  0.78169487070E-02  0.11954042634E-01  0.28242625931E-01  0.51100000000E-03 0. -1.
         11    1    4    4    0    0  0.89668311998E-01 -0.79497794987E-02  0.46048792589E-01  0.10111556552E+00  0.51100000000E-03 0.  1.
</event>
<event>
 8    1  0.1157726E+005  0.1043930E+01  0.7957747E-01            NaN
         13   -1    0    0    0    0  0.00000000000E+00  0.00000000000E+00  0.74505805969E-08  0.10566000000E+00  0.10566000000E+00 0. -1.
     999900   -1    0    0    0    0 -0.00000000000E+00 -0.00000000000E+00 -0.74505805969E-08  0.93827000000E+00  0.93827000000E+00 0.  1.
     999902    2    1    2    0    0  0.14990731274E-01 -0.82165238404E-02 -0.15769056485E-01  0.10206728198E+01  0.10204078149E+01 0.  0.
     999903    2    3    3    0    0 -0.81275181049E-01 -0.98879241743E-01  0.13451897470E-01  0.13031293839E+00  0.20438905623E-01 0.  0.
         14    1    1    2    0    0 -0.14990731274E-01  0.82165238404E-02  0.15769056485E-01  0.23257180194E-01  0.00000000000E+00 0.  1.
     999901    1    3    3    0    0  0.96265912323E-01  0.90662717902E-01 -0.29220953955E-01  0.89035988142E+00  0.88000000000E+00 0.  1.
        -11    1    4    4    0    0 -0.31559584059E-01 -0.44630341828E-01 -0.35834401087E-02  0.54781173059E-01  0.51100000000E-03 0.  1.
         11    1    4    4    0    0 -0.49715596990E-01 -0.54248899914E-01  0.17035337579E-01  0.75531765327E-01  0.51100000000E-03 0. -1.
</event>
<event>
 8    1  0.1358124E+005  0.1043930E+01  0.7957747E-01            NaN
         13   -1    0    0    0    0  0.00000000000E+00  0.00000000000E+00  0.74505805969E-08  0.10566000000E+00  0.10566000000E+00 0.  1.
     999900   -1    0    0    0    0 -0.00000000000E+00 -0.00000000000E+00 -0.74505805969E-08  0.93827000000E+00  0.93827000000E+00 0. -1.
     999902    2    1    2    0    0  0.32097633053E-02  0.31434217755E-02 -0.22559844351E-01  0.10209271685E+01  0.10206679936E+01 0.  0.
     999903    2    3    3    0    0 -0.41258617696E-01  0.50952649478E-01 -0.11484193564E+00  0.13369600157E+00  0.19685137276E-01 0.  0.
         14    1    1    2    0    0 -0.32097633053E-02 -0.31434217755E-02  0.22559844351E-01  0.23002831523E-01  0.00000000000E+00 0.  1.
     999901    1    3    3    0    0  0.44468381001E-01 -0.47809227702E-01  0.92282091294E-01  0.88723116691E+00  0.88000000000E+00 0. -1.
        -11    1    4    4    0    0 -0.26986873046E-01  0.17745543501E-01 -0.54892479668E-01  0.63691766156E-01  0.51100000000E-03 0.  1.
         11    1    4    4    0    0 -0.14271744650E-01  0.33207105976E-01 -0.59949455977E-01  0.70004235412E-01  0.51100000000E-03 0. -1.
</event>
<event>
 8    1  0.1157726E+005  0.1043930E+01  0.7957747E-01            NaN
         13   -1    0    0    0    0  0.00000000000E+00  0.00000000000E+00  0.74505805969E-08  0.10566000000E+00  0.10566000000E+00 0. -1.
     999900   -1    0    0    0    0 -0.00000000000E+00 -0.00000000000E+00 -0.74505805969E-08  0.93827000000E+00  0.93827000000E+00 0. -1.
     999902    2    1    2    0    0 -0.77162237671E-02 -0.21476696585E-01  0.91691875920E-02  0.10193360453E+01  0.10190393077E+01 0.  0.
     999903    2    3    3    0    0 -0.37687547631E-01  0.79349458793E-01 -0.90295257534E-01  0.12750793986E+00  0.19706682522E-01 0.  0.
         14    1    1    2    0    0  0.77162237671E-02  0.21476696585E-01 -0.91691875920E-02  0.24593954674E-01  0.00000000000E+00 0.  1.
     999901    1    3    3    0    0  0.29971323864E-01 -0.10082615538E+00  0.99464445126E-01  0.89182810547E+00  0.88000000000E+00 0. -1.
        -11    1    4    4    0    0 -0.12409859697E-01  0.13411445096E-01 -0.27421253145E-01  0.32955389883E-01  0.51100000000E-03 0.  1.
         11    1    4    4    0    0 -0.25277687934E-01  0.65938013696E-01 -0.62874004389E-01  0.94552549973E-01  0.51100000000E-03 0. -1.
</event>
<event>
 8    1  0.1157726E+005  0.1043930E+01  0.7957747E-01            NaN
         13   -1    0    0    0    0  0.00000000000E+00  0.00000000000E+00  0.74505805969E-08  0.10566000000E+00  0.10566000000E+00 0.  1.
     999900   -1    0    0    0    0 -0.00000000000E+00 -0.00000000000E+00 -0.74505805969E-08  0.93827000000E+00  0.93827000000E+00 0.  1.
     999902    2    1    2    0    0  0.13768660941E-01  0.17047225075E-01  0.72872219960E-02  0.10208369813E+01  0.10205757468E+01 0.  0.
     999903    2    3    3    0    0  0.22383426093E-02  0.75477184849E-01 -0.10581501536E+00  0.13160184677E+00  0.20503974892E-01 0.  0.
         14    1    1    2    0    0 -0.13768660941E-01 -0.17047225075E-01 -0.72872219960E-02  0.23093018670E-01  0.00000000000E+00 0. -1.
     999901    1    3    3    0    0  0.11530318332E-01 -0.58429959774E-01  0.11310223736E+00  0.88923513456E+00  0.88000000000E+00 0. -1.
        -11    1    4    4    0    0  0.94712416543E-02  0.20743392456E-01 -0.35584687012E-01  0.42267290188E-01  0.51100000000E-03 0.  1.
         11    1    4    4    0    0 -0.72328990451E-02  0.54733792393E-01 -0.70230328352E-01  0.89334556582E-01  0.51100000000E-03 0. -1.
</event>
<event>
 7    1  0.1157726E+005  0.1043930E+01  0.7957747E-01            NaN
         13   -1    0    0    0    0  0.00000000000E+00  0.00000000000E+00  0.74505805969E-08  0.10566000000E+00  0.10566000000E+00 0.  1.
     999900   -1    0    0    0    0 -0.00000000000E+00 -0.00000000000E+00 -0.74505805969E-08  0.93827000000E+00  0.93827000000E+00 0.  1.
     999903    2    1    2    0    0  0.22722265198E-01  0.59561667389E-01 -0.36056918012E-02  0.66924495255E-01  0.20049775406E-01 0.  0.
         14    1    1    2    0    0  0.31680225387E-01  0.15918606776E-02  0.83774483444E-01  0.89578651348E-01  0.00000000000E+00 0.  1.
     999901    1    1    2    0    0 -0.54402490585E-01 -0.61153528067E-01 -0.80168791643E-01  0.88742685340E+00  0.88000000000E+00 0.  1.
        -11    1    3    3    0    0  0.13696735374E-01  0.20721174495E-01 -0.95280406357E-02  0.26608500741E-01  0.51100000000E-03 0.  1.
         11    1    3    3    0    0  0.90255298236E-02  0.38840492895E-01  0.59223488345E-02  0.40315994513E-01  0.51100000000E-03 0. -1.
</event>
<event>
 8    1  0.1157726E+005  0.1043930E+01  0.7957747E-01            NaN
         13   -1    0    0    0    0  0.00000000000E+00  0.00000000000E+00  0.74505805969E-08  0.10566000000E+00  0.10566000000E+00 0.  1.
     999900   -1    0    0    0    0 -0.00000000000E+00 -0.00000000000E+00 -0.74505805969E-08  0.93827000000E+00  0.93827000000E+00 0. -1.
     999902    2    1    2    0    0 -0.31484585598E-02 -0.44581819012E-02  0.20173393321E-01  0.10230313403E+01  0.10228178574E+01 0.  0.
     999903    2    3    3    0    0 -0.81414326229E-01 -0.75492650954E-01  0.74730563514E-01  0.13502912940E+00  0.17910214942E-01 0.  0.
         14    1    1    2    0    0  0.31484585598E-02  0.44581819012E-02 -0.20173393321E-01  0.20898659652E-01  0.00000000000E+00 0. -1.
     999901    1    3    3    0    0  0.78265867669E-01  0.71034469052E-01 -0.54557170193E-01  0.88800221095E+00  0.88000000000E+00 0. -1.
        -11    1    4    4    0    0 -0.91509631497E-02 -0.91059491210E-02  0.16378261738E-01  0.20860657097E-01  0.51100000000E-03 0.  1.
         11    1    4    4    0    0 -0.72263363079E-01 -0.66386701833E-01  0.58352301776E-01  0.11416847230E+00  0.51100000000E-03 0. -1.
</event>
<event>
 8    1  0.1157726E+005  0.1043930E+01  0.7957747E-01            NaN
         13   -1    0    0    0    0  0.00000000000E+00  0.00000000000E+00  0.74505805969E-08  0.10566000000E+00  0.10566000000E+00 0. -1.
     999900   -1    0    0    0    0 -0.00000000000E+00 -0.00000000000E+00 -0.74505805969E-08  0.93827000000E+00  0.93827000000E+00 0.  1.
     999902    2    1    2    0    0 -0.15246933349E-01 -0.26705540376E-02 -0.18797543071E-01  0.10195794669E+01  0.10192886446E+01 0.  0.
     999903    2    3    3    0    0 -0.44583942907E-01 -0.10925526885E+00  0.50674552603E-01  0.12994620898E+00  0.19840998211E-01 0.  0.
         14    1    1    2    0    0  0.15246933349E-01  0.26705540376E-02  0.18797543071E-01  0.24350533073E-01  0.00000000000E+00 0. -1.
     999901    1    3    3    0    0  0.29337009559E-01  0.10658471482E+00 -0.69472095674E-01  0.88963325794E+00  0.88000000000E+00 0. -1.
        -11    1    4    4    0    0 -0.36268746454E-01 -0.64754860593E-01  0.34748060076E-01  0.81953052047E-01  0.51100000000E-03 0.  1.
         11    1    4    4    0    0 -0.83151964534E-02 -0.44500408262E-01  0.15926492527E-01  0.47993156937E-01  0.51100000000E-03 0. -1.
</event>
<event>
 8    1  0.1157726E+005  0.1043930E+01  0.7957747E-01            NaN
         13   -1    0    0    0    0  0.00000000000E+00  0.00000000000E+00  0.74505805969E-08  0.10566000000E+00  0.10566000000E+00 0.  1.
     999900   -1    0    0    0    0 -0.00000000000E+00 -0.00000000000E+00 -0.74505805969E-08  0.93827000000E+00  0.93827000000E+00 0.  1.
     999902    2    1    2    0    0  0.95743365747E-02  0.29954934132E-01 -0.60011425584E-02  0.10119146957E+01  0.10114081133E+01 0.  0.
     999903    2    3    3    0    0 -0.10572036798E+00 -0.53822555100E-01 -0.42108353832E-02  0.12044694986E+00  0.20397866395E-01 0.  0.
         14    1    1    2    0    0 -0.95743365747E-02 -0.29954934132E-01  0.60011425584E-02  0.32015304336E-01  0.00000000000E+00 0. -1.
     999901    1    3    3    0    0  0.11529470456E+00  0.83777489232E-01 -0.17903071752E-02  0.89146774580E+00  0.88000000000E+00 0. -1.
        -11    1    4    4    0    0 -0.68265693056E-01 -0.44977329564E-01 -0.55000672832E-02  0.81937029994E-01  0.51100000000E-03 0. -1.
         11    1    4    4    0    0 -0.37454674925E-01 -0.88452255357E-02  0.12892319000E-02  0.38509919870E-01  0.51100000000E-03 0.  1.
</event>
<event>
 8    1  0.1157726E+005  0.1043930E+01  0.7957747E-01            NaN
         13   -1    0    0    0    0  0.00000000000E+00  0.00000000000E+00  0.74505805969E-08  0.10566000000E+00  0.10566000000E+00 0.  1.
     999900   -1    0    0    0    0 -0.00000000000E+00 -0.00000000000E+00 -0.74505805969E-08  0.93827000000E+00  0.93827000000E+00 0.  1.
     999902    2    1    2    0    0  0.69494048101E-02 -0.20510753085E-01  0.10154017507E-01  0.10200116119E+01  0.10197311406E+01 0.  0.
     999903    2    3    3    0    0 -0.33181741774E-01  0.11958091017E+00 -0.20444810722E-01  0.12750252433E+00  0.20935170438E-01 0.  0.
         14    1    1    2    0    0 -0.69494048101E-02  0.20510753085E-01 -0.10154017507E-01  0.23918388132E-01  0.00000000000E+00 0. -1.
     999901    1    3    3    0    0  0.40131146584E-01 -0.14009166326E+00  0.30598828229E-01  0.89250908753E+00  0.88000000000E+00 0.  1.
        -11    1    4    4    0    0 -0.60308009049E-03  0.37596546834E-01 -0.49218316056E-02  0.37925579584E-01  0.51100000000E-03 0.  1.
         11    1    4    4    0    0 -0.32578661683E-01  0.81984363339E-01 -0.15522979117E-01  0.89576944750E-01  0.51100000000E-03 0. -1.
</event>
<event>
 8    1  0.1157726E+005  0.1043930E+01  0.7957747E-01            NaN
         13   -1    0    0    0    0  0.00000000000E+00  0.00000000000E+00  0.74505805969E-08  0.10566000000E+00  0.10566000000E+00 0. -1.
     999900   -1    0    0    0    0 -0.00000000000E+00 -0.00000000000E+00 -0.74505805969E-08  0.93827000000E+00  0.93827000000E+00 0.  1.
     999902    2    1    2    0    0 -0.14108115998E-01  0.12201934645E-01  0.13371983351E-01  0.10209792683E+01  0.10207212794E+01 0.  0.
     999903    2    3    3    0    0 -0.83760441166E-01 -0.33786175685E-01  0.95786639594E-01  0.13319633975E+00  0.20220470463E-01 0.  0.
         14    1    1    2    0    0  0.14108115998E-01 -0.12201934645E-01 -0.13371983351E-01  0.22950731684E-01  0.00000000000E+00 0. -1.
     999901    1    3    3    0    0  0.69652325168E-01  0.45988110330E-01 -0.82414656243E-01  0.88778292857E+00  0.88000000000E+00 0.  1.
        -11    1    4    4    0    0 -0.64753406246E-01 -0.17413012383E-01  0.63959757118E-01  0.92667838393E-01  0.51100000000E-03 0.  1.
         11    1    4    4    0    0 -0.19007034920E-01 -0.16373163302E-01  0.31826882476E-01  0.40528501355E-01  0.51100000000E-03 0. -1.
</event>
<event>
 8    1  0.1157726E+005  0.1043930E+01  0.7957747E-01            NaN
         13   -1    0    0    0    0  0.00000000000E+00  0.00000000000E+00  0.74505805969E-08  0.10566000000E+00  0.10566000000E+00 0.  1.
     999900   -1    0    0    0    0 -0.00000000000E+00 -0.00000000000E+00 -0.74505805969E-08  0.93827000000E+00  0.93827000000E+00 0.  1.
     999902    2    1    2    0    0 -0.19306077460E-01 -0.11555021530E-01 -0.71072288128E-02  0.10203343256E+01  0.10200614590E+01 0.  0.
     999903    2    3    3    0    0 -0.12818124863E+00 -0.72300242966E-02 -0.29606352278E-01  0.13332884700E+00  0.20428891157E-01 0.  0.
         14    1    1    2    0    0  0.19306077460E-01  0.11555021530E-01  0.71072288128E-02  0.23595674410E-01  0.00000000000E+00 0. -1.
     999901    1    3    3    0    0  0.10887517117E+00 -0.43249972336E-02  0.22499123465E-01  0.88700547859E+00  0.88000000000E+00 0.  1.
        -11    1    4    4    0    0 -0.62706368766E-01 -0.13589139599E-01 -0.12746895952E-01  0.65417871230E-01  0.51100000000E-03 0.  1.
         11    1    4    4    0    0 -0.65474879867E-01  0.63591153020E-02 -0.16859456325E-01  0.67910975767E-01  0.51100000000E-03 0. -1.
</event>
<event>
 8    1  0.1157726E+005  0.1043930E+01  0.7957747E-01            NaN
         13   -1    0    0    0    0  0.00000000000E+00  0.00000000000E+00  0.74505805969E-08  0.10566000000E+00  0.10566000000E+00 0. -1.
     999900   -1    0    0    0    0 -0.00000000000E+00 -0.00000000000E+00 -0.74505805969E-08  0.93827000000E+00  0.93827000000E+00 0.  1.
     999902    2    1    2    0    0  0.74669705906E-02 -0.11513080147E-01  0.18714947333E-01  0.10207231924E+01  0.10204593474E+01 0.  0.
     999903    2    3    3    0    0  0.36221741607E-01  0.69884491139E-01 -0.99702946853E-01  0.12860481511E+00  0.20066494274E-01 0.  0.
         14    1    1    2    0    0 -0.74669705906E-02  0.11513080147E-01 -0.18714947333E-01  0.23206807578E-01  0.00000000000E+00 0. -1.
     999901    1    3    3    0    0 -0.28754771017E-01 -0.81397571286E-01  0.11841789419E+00  0.89211837731E+00  0.88000000000E+00 0. -1.
        -11    1    4    4    0    0  0.21724589485E-01  0.55688330488E-01 -0.83184988987E-01  0.10243608473E+00  0.51100000000E-03 0. -1.
         11    1    4    4    0    0  0.14497152122E-01  0.14196160652E-01 -0.16517957866E-01  0.26168730385E-01  0.51100000000E-03 0.  1.
</event>
<event>
 8    1  0.1157726E+005  0.1043930E+01  0.7957747E-01            NaN
         13   -1    0    0    0    0  0.00000000000E+00  0.00000000000E+00  0.74505805969E-08  0.10566000000E+00  0.10566000000E+00 0.  1.
     999900   -1    0    0    0    0 -0.00000000000E+00 -0.00000000000E+00 -0.74505805969E-08  0.93827000000E+00  0.93827000000E+00 0.  1.
     999902    2    1    2    0    0 -0.30112118673E-03  0.20633240842E-01  0.11779596246E-01  0.10201691038E+01  0.10198923571E+01 0.  0.
     999903    2    3    3    0    0  0.12345651873E+00  0.14263844237E-01 -0.33538817457E-01  0.13033188199E+00  0.20410240551E-01 0.  0.
         14    1    1    2    0    0  0.30112118673E-03 -0.20633240842E-01 -0.11779596246E-01  0.23760896223E-01  0.00000000000E+00 0. -1.
     999901    1    3    3    0    0 -0.12375763991E+00  0.63693966054E-02  0.45318413704E-01  0.88983722178E+00  0.88000000000E+00 0.  1.
        -11    1    4    4    0    0  0.47916441276E-01  0.26478647078E-02 -0.31932620142E-02  0.48098384332E-01  0.51100000000E-03 0.  1.
         11    1    4    4    0    0  0.75540077449E-01  0.11615979529E-01 -0.30345555443E-01  0.82233497661E-01  0.51100000000E-03 0. -1.
</event>
<event>
 8    1  0.1157726E+005  0.1043930E+01  0.7957747E-01            NaN
         13   -1    0    0    0    0  0.00000000000E+00  0.00000000000E+00  0.74505805969E-08  0.10566000000E+00  0.10566000000E+00 0. -1.
     999900   -1    0    0    0    0 -0.00000000000E+00 -0.00000000000E+00 -0.74505805969E-08  0.93827000000E+00  0.93827000000E+00 0.  1.
     999902    2    1    2    0    0 -0.20166434351E-02 -0.50489497997E-02 -0.23043093918E-01  0.10202542123E+01  0.10199794679E+01 0.  0.
     999903    2    3    3    0    0  0.76135454166E-01  0.44570724163E-01  0.90573823608E-01  0.12813389176E+00  0.20773056165E-01 0.  0.
         14    1    1    2    0    0  0.20166434351E-02  0.50489497997E-02  0.23043093918E-01  0.23675787678E-01  0.00000000000E+00 0. -1.
     999901    1    3    3    0    0 -0.78152097601E-01 -0.49619673962E-01 -0.11361691753E+00  0.89212032056E+00  0.88000000000E+00 0.  1.
        -11    1    4    4    0    0  0.71287808736E-01  0.37768637603E-01  0.73578858725E-01  0.10919034405E+00  0.51100000000E-03 0.  1.
         11    1    4    4    0    0  0.48476454299E-02  0.68020865600E-02  0.16994964883E-01  0.18943547718E-01  0.51100000000E-03 0. -1.
</event>
<event>
 8    1  0.1157726E+005  0.1043930E+01  0.7957747E-01            NaN
         13   -1    0    0    0    0  0.00000000000E+00  0.00000000000E+00  0.74505805969E-08  0.10566000000E+00  0.10566000000E+00 0. -1.
     999900   -1    0    0    0    0 -0.00000000000E+00 -0.00000000000E+00 -0.74505805969E-08  0.93827000000E+00  0.93827000000E+00 0.  1.
     999902    2    1    2    0    0  0.84915762846E-02 -0.21444639769E-01 -0.43103461366E-02  0.10204660164E+01  0.10201962224E+01 0.  0.
     999903    2    3    3    0    0 -0.80860392524E-01 -0.97265627486E-01  0.32516612634E-01  0.13193418163E+00  0.18716111117E-01 0.  0.
         14    1    1    2    0    0 -0.84915762846E-02  0.21444639769E-01  0.43103461366E-02  0.23463983601E-01  0.00000000000E+00 0. -1.
     999901    1    3    3    0    0  0.89351968808E-01  0.75820987717E-01 -0.36826958771E-01  0.88853183477E+00  0.88000000000E+00 0. -1.
        -11    1    4    4    0    0 -0.25151678340E-01 -0.41792128596E-01  0.70109068550E-02  0.49280857052E-01  0.51100000000E-03 0.  1.
         11    1    4    4    0    0 -0.55708714184E-01 -0.55473498890E-01  0.25505705779E-01  0.82653324576E-01  0.51100000000E-03 0. -1.
</event>
<event>
 8    1  0.1157726E+005  0.1043930E+01  0.7957747E-01            NaN
         13   -1    0    0    0    0  0.00000000000E+00  0.00000000000E+00  0.74505805969E-08  0.10566000000E+00  0.10566000000E+00 0. -1.
     999900   -1    0    0    0    0 -0.00000000000E+00 -0.00000000000E+00 -0.74505805969E-08  0.93827000000E+00  0.93827000000E+00 0. -1.
     999902    2    1    2    0    0  0.12254662332E-01  0.17421694285E-01  0.97904967188E-02  0.10204876024E+01  0.10202183103E+01 0.  0.
     999903    2    3    3    0    0 -0.10648019364E+00 -0.91998287048E-02  0.71297551996E-01  0.12998786101E+00  0.19769537309E-01 0.  0.
         14    1    1    2    0    0 -0.12254662332E-01 -0.17421694285E-01 -0.97904967188E-02  0.23442397630E-01  0.00000000000E+00 0.  1.
     999901    1    3    3    0    0  0.11873485597E+00  0.26621522990E-01 -0.61507055277E-01  0.89049974136E+00  0.88000000000E+00 0. -1.
        -11    1    4    4    0    0 -0.57732552689E-01 -0.64491901172E-02  0.50271678668E-01  0.76825402636E-01  0.51100000000E-03 0. -1.
         11    1    4    4    0    0 -0.48747640947E-01 -0.27506385877E-02  0.21025873328E-01  0.53162458377E-01  0.51100000000E-03 0.  1.
</event>
<event>
 8    1  0.1157726E+005  0.1043930E+01  0.7957747E-01            NaN
         13   -1    0    0    0    0  0.00000000000E+00  0.00000000000E+00  0.74505805969E-08  0.10566000000E+00  0.10566000000E+00 0.  1.
     999900   -1    0    0    0    0 -0.00000000000E+00 -0.00000000000E+00 -0.74505805969E-08  0.93827000000E+00  0.93827000000E+00 0. -1.
     999902    2    1    2    0    0  0.20777788021E-01  0.54955799111E-03  0.11580408687E-01  0.10201366321E+01  0.10198591196E+01 0.  0.
     999903    2    3    3    0    0 -0.12395819568E+00  0.24660220489E-01 -0.22226911025E-02  0.12788086466E+00  0.19360124986E-01 0.  0.
         14    1    1    2    0    0 -0.20777788021E-01 -0.54955799111E-03 -0.11580408687E-01  0.23793367865E-01  0.00000000000E+00 0. -1.
     999901    1    3    3    0    0  0.14473598370E+00 -0.24110662498E-01  0.13803099789E-01  0.89225576747E+00  0.88000000000E+00 0.  1.
        -11    1    4    4    0    0 -0.22060296115E-01 -0.11481692165E-02 -0.52860465740E-02  0.22719559120E-01  0.51100000000E-03 0. -1.
         11    1    4    4    0    0 -0.10189789957E+00  0.25808389706E-01  0.30633554715E-02  0.10516130554E+00  0.51100000000E-03 0.  1.
</event>
<event>
 8    1  0.1157726E+005  0.1043930E+01  0.7957747E-01            NaN
         13   -1    0    0    0    0  0.00000000000E+00  0.00000000000E+00  0.74505805969E-08  0.10566000000E+00  0.10566000000E+00 0. -1.
     999900   -1    0    0    0    0 -0.00000000000E+00 -0.00000000000E+00 -0.74505805969E-08  0.93827000000E+00  0.93827000000E+00 0.  1.
     999902    2    1    2    0    0 -0.18067833077E-01  0.11660628043E-01 -0.44616803999E-02  0.10219681369E+01  0.10217321319E+01 0.  0.
     999903    2    3    3    0    0  0.16893318447E-01  0.74393306629E-01  0.10606736772E+00  0.13215110990E+00  0.19846437307E-01 0.  0.
         14    1    1    2    0    0  0.18067833077E-01 -0.11660628043E-01  0.44616803999E-02  0.21961863091E-01  0.00000000000E+00 0.  1.
     999901    1    3    3    0    0 -0.34961151524E-01 -0.62732678586E-01 -0.11052904812E+00  0.88981702701E+00  0.88000000000E+00 0. -1.
        -11    1    4    4    0    0  0.12411626315E-01  0.72598408404E-01  0.10202947232E+00  0.12583660721E+00  0.51100000000E-03 0.  1.
         11    1    4    4    0    0  0.44816921323E-02  0.17948982249E-02  0.40378953972E-02  0.63145026918E-02  0.51100000000E-03 0. -1.
</event>
<event>
 8    1  0.1157726E+005  0.1043930E+01  0.7957747E-01            NaN
         13   -1    0    0    0    0  0.00000000000E+00  0.00000000000E+00  0.74505805969E-08  0.10566000000E+00  0.10566000000E+00 0. -1.
     999900   -1    0    0    0    0 -0.00000000000E+00 -0.00000000000E+00 -0.74505805969E-08  0.93827000000E+00  0.93827000000E+00 0.  1.
     999902    2    1    2    0    0  0.20254388371E-01  0.10550148254E-01 -0.98767846774E-02  0.10190483451E+01  0.10187445376E+01 0.  0.
     999903    2    3    3    0    0 -0.55442584142E-01 -0.10288897944E+00  0.45143130982E-01  0.12684564475E+00  0.19796289849E-01 0.  0.
         14    1    1    2    0    0 -0.20254388371E-01 -0.10550148254E-01  0.98767846774E-02  0.24881654929E-01  0.00000000000E+00 0. -1.
     999901    1    3    3    0    0  0.75696972513E-01  0.11343912769E+00 -0.55019915659E-01  0.89220270032E+00  0.88000000000E+00 0. -1.
        -11    1    4    4    0    0 -0.37290974398E-01 -0.48521040096E-01  0.22069172563E-01  0.65055496325E-01  0.51100000000E-03 0.  1.
         11    1    4    4    0    0 -0.18151609745E-01 -0.54367939340E-01  0.23073958418E-01  0.61790148426E-01  0.51100000000E-03 0. -1.
</event>
<event>
 8    1  0.1157726E+005  0.1043930E+01  0.7957747E-01            NaN
         13   -1    0    0    0    0  0.00000000000E+00  0.00000000000E+00  0.74505805969E-08  0.10566000000E+00  0.10566000000E+00 0.  1.
     999900   -1    0    0    0    0 -0.00000000000E+00 -0.00000000000E+00 -0.74505805969E-08  0.93827000000E+00  0.93827000000E+00 0. -1.
     999902    2    1    2    0    0  0.56018055603E-02  0.70239371172E-02  0.22189862284E-01  0.10199903695E+01  0.10197093939E+01 0.  0.
     999903    2    3    3    0    0 -0.10197806692E+00  0.34104460144E-01 -0.67423879576E-01  0.12850991187E+00  0.20153847715E-01 0.  0.
         14    1    1    2    0    0 -0.56018055603E-02 -0.70239371172E-02 -0.22189862284E-01  0.23939630455E-01  0.00000000000E+00 0. -1.
     999901    1    3    3    0    0  0.10757987248E+00 -0.27080523027E-01  0.89613741860E-01  0.89148045768E+00  0.88000000000E+00 0.  1.
        -11    1    4    4    0    0 -0.74676260345E-01  0.33856707911E-01 -0.52926764086E-01  0.97592643202E-01  0.51100000000E-03 0.  1.
         11    1    4    4    0    0 -0.27301806571E-01  0.24775223282E-03 -0.14497115490E-01  0.30917268665E-01  0.51100000000E-03 0. -1.
</event>
<event>
 8    1  0.1157726E+005  0.1043930E+01  0.7957747E-01            NaN
         13   -1    0    0    0    0  0.00000000000E+00  0.00000000000E+00  0.74505805969E-08  0.10566000000E+00  0.10566000000E+00 0. -1.
     999900   -1    0    0    0    0 -0.00000000000E+00 -0.00000000000E+00 -0.74505805969E-08  0.93827000000E+00  0.93827000000E+00 0. -1.
     999902    2    1    2    0    0  0.69173106852E-02  0.19573231575E-01 -0.28086522374E-02  0.10229812743E+01  0.10227667566E+01 0.  0.
     999903    2    3    3    0    0 -0.10986771676E-01 -0.69620305703E-01 -0.10962472131E+00  0.13186640186E+00  0.20086619926E-01 0.  0.
         14    1    1    2    0    0 -0.69173106852E-02 -0.19573231575E-01  0.28086522374E-02  0.20948725708E-01  0.00000000000E+00 0. -1.
     999901    1    3    3    0    0  0.17904082361E-01  0.89193537278E-01  0.10681606907E+00  0.89111487243E+00  0.88000000000E+00 0.  1.
        -11    1    4    4    0    0 -0.96062090092E-02 -0.28049325772E-01 -0.30893215309E-01  0.42821674429E-01  0.51100000000E-03 0.  1.
         11    1    4    4    0    0 -0.13805626670E-02 -0.41570979931E-01 -0.78731505997E-01  0.89044727431E-01  0.51100000000E-03 0. -1.
</event>
<event>
 8    1  0.1157726E+005  0.1043930E+01  0.7957747E-01            NaN
         13   -1    0    0    0    0  0.00000000000E+00  0.00000000000E+00  0.74505805969E-08  0.10566000000E+00  0.10566000000E+00 0.  1.
     999900   -1    0    0    0    0 -0.00000000000E+00 -0.00000000000E+00 -0.74505805969E-08  0.93827000000E+00  0.93827000000E+00 0.  1.
     999902    2    1    2    0    0 -0.15007246694E-01  0.18789284227E-01  0.10084281833E-02  0.10198619385E+01  0.10195779039E+01 0.  0.
     999903    2    3    3    0    0 -0.90787363924E-01  0.82657528169E-01  0.47446232294E-01  0.13308223173E+00  0.19624551789E-01 0.  0.
         14    1    1    2    0    0  0.15007246694E-01 -0.18789284227E-01 -0.10084281833E-02  0.24068061461E-01  0.00000000000E+00 0. -1.
     999901    1    3    3    0    0  0.75780117231E-01 -0.63868243942E-01 -0.46437804110E-01  0.88677970681E+00  0.88000000000E+00 0. -1.
        -11    1    4    4    0    0 -0.48784023616E-01  0.31300114956E-01  0.20804555573E-01  0.61584647519E-01  0.51100000000E-03 0.  1.
         11    1    4    4    0    0 -0.42003340308E-01  0.51357413213E-01  0.26641676720E-01  0.71497584214E-01  0.51100000000E-03 0. -1.
</event>
<event>
 8    1  0.1157726E+005  0.1043930E+01  0.7957747E-01            NaN
         13   -1    0    0    0    0  0.00000000000E+00  0.00000000000E+00  0.74505805969E-08  0.10566000000E+00  0.10566000000E+00 0. -1.
     999900   -1    0    0    0    0 -0.00000000000E+00 -0.00000000000E+00 -0.74505805969E-08  0.93827000000E+00  0.93827000000E+00 0.  1.
     999902    2    1    2    0    0 -0.12560477560E-01 -0.19403150791E-01  0.49191150413E-02  0.10202985474E+01  0.10200248430E+01 0.  0.
     999903    2    3    3    0    0  0.91647087927E-01  0.51938209172E-01 -0.69658013513E-01  0.12816035498E+00  0.21819061510E-01 0.  0.
         14    1    1    2    0    0  0.12560477560E-01  0.19403150791E-01 -0.49191150413E-02  0.23631452556E-01  0.00000000000E+00 0.  1.
     999901    1    3    3    0    0 -0.10420756549E+00 -0.71341359962E-01  0.74577128554E-01  0.89213819246E+00  0.88000000000E+00 0. -1.
        -11    1    4    4    0    0  0.51535277160E-01  0.32853495814E-01 -0.27877473912E-01  0.67176272983E-01  0.51100000000E-03 0. -1.
         11    1    4    4    0    0  0.40111810766E-01  0.19084713357E-01 -0.41780539601E-01  0.60984081999E-01  0.51100000000E-03 0.  1.
</event>
<event>
 8    1  0.1157726E+005  0.1043930E+01  0.7957747E-01            NaN
         13   -1    0    0    0    0  0.00000000000E+00  0.00000000000E+00  0.74505805969E-08  0.10566000000E+00  0.10566000000E+00 0.  1.
     999900   -1    0    0    0    0 -0.00000000000E+00 -0.00000000000E+00 -0.74505805969E-08  0.93827000000E+00  0.93827000000E+00 0. -1.
     999902    2    1    2    0    0  0.84295156824E-02  0.22436939441E-01  0.43332491601E-02  0.10195732754E+01  0.10192823033E+01 0.  0.
     999903    2    3    3    0    0 -0.82737299829E-01 -0.73579728245E-01  0.60731738360E-01  0.12788309470E+00  0.20157000648E-01 0.  0.
         14    1    1    2    0    0 -0.84295156824E-02 -0.22436939441E-01 -0.43332491601E-02  0.24356724624E-01  0.00000000000E+00 0.  1.
     999901    1    3    3    0    0  0.91166815511E-01  0.96016667686E-01 -0.56398489200E-01  0.89169018067E+00  0.88000000000E+00 0.  1.
        -11    1    4    4    0    0 -0.20975566382E-01 -0.29559778761E-01  0.25056221927E-01  0.44066203418E-01  0.51100000000E-03 0.  1.
         11    1    4    4    0    0 -0.61761733447E-01 -0.44019949484E-01  0.35675516433E-01  0.83816891285E-01  0.51100000000E-03 0. -1.
</event>
<event>
 8    1  0.1157726E+005  0.1043930E+01  0.7957747E-01            NaN
         13   -1    0    0    0    0  0.00000000000E+00  0.00000000000E+00  0.74505805969E-08  0.10566000000E+00  0.10566000000E+00 0.  1.
     999900   -1    0    0    0    0 -0.00000000000E+00 -0.00000000000E+00 -0.74505805969E-08  0.93827000000E+00  0.93827000000E+00 0.  1.
     999902    2    1    2    0    0  0.60190819270E-02 -0.21171408715E-01  0.84934384223E-02  0.10203377048E+01  0.10200649173E+01 0.  0.
     999903    2    3    3    0    0 -0.76130410904E-01 -0.70891971455E-01 -0.76676663948E-01  0.13102638710E+00  0.21612316914E-01 0.  0.
         14    1    1    2    0    0 -0.60190819270E-02  0.21171408715E-01 -0.84934384223E-02  0.23592295150E-01  0.00000000000E+00 0. -1.
     999901    1    3    3    0    0  0.82149492831E-01  0.49720562740E-01  0.85170102370E-01  0.88931131774E+00  0.88000000000E+00 0. -1.
        -11    1    4    4    0    0 -0.49204089732E-01 -0.52710931601E-01 -0.63067099050E-01  0.95797728889E-01  0.51100000000E-03 0.  1.
         11    1    4    4    0    0 -0.26926321171E-01 -0.18181039854E-01 -0.13609564898E-01  0.35228658216E-01  0.51100000000E-03 0. -1.
</event>
<event>
 7    1  0.1157726E+005  0.1043930E+01  0.7957747E-01            NaN
         13   -1    0    0    0    0  0.00000000000E+00  0.00000000000E+00  0.74505805969E-08  0.10566000000E+00  0.10566000000E+00 0.  1.
     999900   -1    0    0    0    0 -0.00000000000E+00 -0.00000000000E+00 -0.74505805969E-08  0.93827000000E+00  0.93827000000E+00 0. -1.
     999903    2    1    2    0    0  0.60779500847E-01  0.12918733890E-01  0.91146952231E-01  0.11096711456E+00  0.12037117748E-01 0.  0.
         14    1    1    2    0    0 -0.25836290278E-02  0.27183880254E-01  0.31458340396E-01  0.41656520079E-01  0.00000000000E+00 0.  1.
     999901    1    1    2    0    0 -0.58195871819E-01 -0.40102614144E-01 -0.12260529263E+00  0.89130636536E+00  0.88000000000E+00 0.  1.
        -11    1    3    3    0    0  0.24978607227E-01  0.37474343262E-02  0.47270898315E-01  0.53598255863E-01  0.51100000000E-03 0. -1.
         11    1    3    3    0    0  0.35800893620E-01  0.91712995634E-02  0.43876053916E-01  0.57368858695E-01  0.51100000000E-03 0.  1.
</event>
<event>
 8    1  0.1157726E+005  0.1043930E+01  0.7957747E-01            NaN
         13   -1    0    0    0    0  0.00000000000E+00  0.00000000000E+00  0.74505805969E-08  0.10566000000E+00  0.10566000000E+00 0. -1.
     999900   -1    0    0    0    0 -0.00000000000E+00 -0.00000000000E+00 -0.74505805969E-08  0.93827000000E+00  0.93827000000E+00 0.  1.
     999902    2    1    2    0    0  0.32207499299E-01 -0.18678964731E-03 -0.71766481416E-02  0.10109320882E+01  0.10103934010E+01 0.  0.
     999903    2    3    3    0    0 -0.10195089144E+00 -0.57044633714E-01 -0.11230069703E-01  0.11894121472E+00  0.19308640365E-01 0.  0.
         14    1    1    2    0    0 -0.32207499299E-01  0.18678964731E-03  0.71766481416E-02  0.32997911752E-01  0.00000000000E+00 0.  1.
     999901    1    3    3    0    0  0.13415839073E+00  0.56857844067E-01  0.40534215616E-02  0.89199087353E+00  0.88000000000E+00 0. -1.
        -11    1    4    4    0    0 -0.71256374142E-01 -0.49441236077E-01 -0.98029965156E-02  0.87282681802E-01  0.51100000000E-03 0. -1.
         11    1    4    4    0    0 -0.30694517293E-01 -0.76033976368E-02 -0.14270731877E-02  0.31658532915E-01  0.51100000000E-03 0.  1.
</event>
<event>
 8    1  0.1157726E+005  0.1043930E+01  0.7957747E-01            NaN
         13   -1    0    0    0    0  0.00000000000E+00  0.00000000000E+00  0.74505805969E-08  0.10566000000E+00  0.10566000000E+00 0. -1.
     999900   -1    0    0    0    0 -0.00000000000E+00 -0.00000000000E+00 -0.74505805969E-08  0.93827000000E+00  0.93827000000E+00 0. -1.
     999902    2    1    2    0    0 -0.19349976464E-01 -0.41389155787E-02 -0.53183542811E-02  0.10234400731E+01  0.10232349418E+01 0.  0.
     999903    2    3    3    0    0 -0.10250673975E+00 -0.67166510155E-01  0.53849594157E-01  0.13530248745E+00  0.19698033844E-01 0.  0.
         14    1    1    2    0    0  0.19349976464E-01  0.41389155787E-02  0.53183542811E-02  0.20489926881E-01  0.00000000000E+00 0. -1.
     999901    1    3    3    0    0  0.83156763290E-01  0.63027594576E-01 -0.59167948438E-01  0.88813758567E+00  0.88000000000E+00 0. -1.
        -11    1    4    4    0    0 -0.82729380772E-01 -0.45291495707E-01  0.36854205092E-01  0.10126185649E+00  0.51100000000E-03 0. -1.
         11    1    4    4    0    0 -0.19777358982E-01 -0.21875014448E-01  0.16995389065E-01  0.34040630956E-01  0.51100000000E-03 0.  1.
</event>
<event>
 8    1  0.1157726E+005  0.1043930E+01  0.7957747E-01            NaN
         13   -1    0    0    0    0  0.00000000000E+00  0.00000000000E+00  0.74505805969E-08  0.10566000000E+00  0.10566000000E+00 0.  1.
     999900   -1    0    0    0    0 -0.00000000000E+00 -0.00000000000E+00 -0.74505805969E-08  0.93827000000E+00  0.93827000000E+00 0. -1.
     999902    2    1    2    0    0 -0.21933399402E-01  0.70814709480E-02  0.50141226850E-02  0.10203426588E+01  0.10200699871E+01 0.  0.
     999903    2    3    3    0    0  0.16116000427E-01  0.25151875050E-01  0.12605533905E+00  0.13105908623E+00  0.19854301616E-01 0.  0.
         14    1    1    2    0    0  0.21933399402E-01 -0.70814709480E-02 -0.50141226850E-02  0.23587341232E-01  0.00000000000E+00 0. -1.
     999901    1    3    3    0    0 -0.38049399829E-01 -0.18070404102E-01 -0.12104121636E+00  0.88928357254E+00  0.88000000000E+00 0. -1.
        -11    1    4    4    0    0  0.80999163414E-02  0.12901684563E-01  0.27680544969E-01  0.31599617087E-01  0.51100000000E-03 0.  1.
         11    1    4    4    0    0  0.80160840859E-02  0.12250190487E-01  0.98374794077E-01  0.99459469140E-01  0.51100000000E-03 0. -1.
</event>
<event>
 8    1  0.1157726E+005  0.1043930E+01  0.7957747E-01            NaN
         13   -1    0    0    0    0  0.00000000000E+00  0.00000000000E+00  0.74505805969E-08  0.10566000000E+00  0.10566000000E+00 0. -1.
     999900   -1    0    0    0    0 -0.00000000000E+00 -0.00000000000E+00 -0.74505805969E-08  0.93827000000E+00  0.93827000000E+00 0.  1.
     999902    2    1    2    0    0 -0.81385711676E-02 -0.12485448341E-01 -0.18074787753E-01  0.10205030772E+01  0.10202341446E+01 0.  0.
     999903    2    3    3    0    0  0.10179081942E+00  0.72352660595E-01  0.22020325251E-01  0.12871297085E+00  0.22042135265E-01 0.  0.
         14    1    1    2    0    0  0.81385711676E-02  0.12485448341E-01  0.18074787753E-01  0.23426922830E-01  0.00000000000E+00 0.  1.
     999901    1    3    3    0    0 -0.10992939059E+00 -0.84838108936E-01 -0.40095113005E-01  0.89179010632E+00  0.88000000000E+00 0. -1.
        -11    1    4    4    0    0  0.38634936518E-01  0.36907098048E-01  0.17180700154E-01  0.56126907850E-01  0.51100000000E-03 0.  1.
         11    1    4    4    0    0  0.63155882905E-01  0.35445562547E-01  0.48396250973E-02  0.72586063000E-01  0.51100000000E-03 0. -1.
</event>
<event>
 8    1  0.1157726E+005  0.1043930E+01  0.7957747E-01            NaN
         13   -1    0    0    0    0  0.00000000000E+00  0.00000000000E+00  0.74505805969E-08  0.10566000000E+00  0.10566000000E+00 0.  1.
     999900   -1    0    0    0    0 -0.00000000000E+00 -0.00000000000E+00 -0.74505805969E-08  0.93827000000E+00  0.93827000000E+00 0.  1.
     999902    2    1    2    0    0 -0.19651656481E-01  0.59180224453E-05 -0.82383148832E-02  0.10226213757E+01  0.10223993450E+01 0.  0.
     999903    2    3    3    0    0  0.12527448885E+00  0.11752557774E-02 -0.30723381759E-01  0.13048319516E+00  0.19668737821E-01 0.  0.
         14    1    1    2    0    0  0.19651656481E-01 -0.59180224453E-05  0.82383148832E-02  0.21308624301E-01  0.00000000000E+00 0.  1.
     999901    1    3    3    0    0 -0.14492614533E+00 -0.11693377549E-02  0.22485066876E-01  0.89213818054E+00  0.88000000000E+00 0.  1.
        -11    1    4    4    0    0  0.95723855734E-02  0.14538877162E-02  0.26710809083E-02  0.10056845891E-01  0.51100000000E-03 0.  1.
         11    1    4    4    0    0  0.11570210328E+00 -0.27863193887E-03 -0.33394462667E-01  0.12042634926E+00  0.51100000000E-03 0. -1.
</event>
<event>
 8    1  0.1157726E+005  0.1043930E+01  0.7957747E-01            NaN
         13   -1    0    0    0    0  0.00000000000E+00  0.00000000000E+00  0.74505805969E-08  0.10566000000E+00  0.10566000000E+00 0. -1.
     999900   -1    0    0    0    0 -0.00000000000E+00 -0.00000000000E+00 -0.74505805969E-08  0.93827000000E+00  0.93827000000E+00 0.  1.
     999902    2    1    2    0    0  0.11689369456E-01 -0.21596990370E-01 -0.21745492707E-02  0.10192763995E+01  0.10189782032E+01 0.  0.
     999903    2    3    3    0    0 -0.23346357353E-01  0.55806297181E-01  0.11088222898E+00  0.12798486127E+00  0.20636395131E-01 0.  0.
         14    1    1    2    0    0 -0.11689369456E-01  0.21596990370E-01  0.21745492707E-02  0.24653600464E-01  0.00000000000E+00 0.  1.
     999901    1    3    3    0    0  0.35035726809E-01 -0.77403287551E-01 -0.11305677825E+00  0.89129153827E+00  0.88000000000E+00 0.  1.
        -11    1    4    4    0    0 -0.19298486302E-01  0.20862816845E-01  0.43342475960E-01  0.51831650983E-01  0.51100000000E-03 0. -1.
         11    1    4    4    0    0 -0.40478710506E-02  0.34943480336E-01  0.67539753019E-01  0.76153210286E-01  0.51100000000E-03 0.  1.
</event>
<event>
 8    1  0.1157726E+005  0.1043930E+01  0.7957747E-01            NaN
         13   -1    0    0    0    0  0.00000000000E+00  0.00000000000E+00  0.74505805969E-08  0.10566000000E+00  0.10566000000E+00 0.  1.
     999900   -1    0    0    0    0 -0.00000000000E+00 -0.00000000000E+00 -0.74505805969E-08  0.93827000000E+00  0.93827000000E+00 0. -1.
     999902    2    1    2    0    0  0.26201901819E-01 -0.20390544746E-01 -0.12633847832E-01  0.10084063729E+01  0.10077804745E+01 0.  0.
     999903    2    3    3    0    0 -0.13792782882E-01  0.10647217652E+00  0.40147736555E-01  0.11684615588E+00  0.22685196971E-01 0.  0.
         14    1    1    2    0    0 -0.26201901819E-01  0.20390544746E-01  0.12633847832E-01  0.35523627137E-01  0.00000000000E+00 0. -1.
     999901    1    3    3    0    0  0.39994684701E-01 -0.12686272127E+00 -0.52781584388E-01  0.89156021698E+00  0.88000000000E+00 0. -1.
        -11    1    4    4    0    0 -0.14956879132E-01  0.44586316587E-01  0.10386281739E-01  0.48164134266E-01  0.51100000000E-03 0.  1.
         11    1    4    4    0    0  0.11640962498E-02  0.61885859932E-01  0.29761454817E-01  0.68682021617E-01  0.51100000000E-03 0. -1.
</event>
<event>
 8    1  0.1157726E+005  0.1043930E+01  0.7957747E-01            NaN
         13   -1    0    0    0    0  0.00000000000E+00  0.00000000000E+00  0.74505805969E-08  0.10566000000E+00  0.10566000000E+00 0.  1.
     999900   -1    0    0    0    0 -0.00000000000E+00 -0.00000000000E+00 -0.74505805969E-08  0.93827000000E+00  0.93827000000E+00 0. -1.
     999902    2    1    2    0    0  0.16571875591E-01 -0.61334790952E-02 -0.12224042542E-01  0.10224434032E+01  0.10222176084E+01 0.  0.
     999903    2    3    3    0    0  0.86668929702E-01  0.41690511290E-01  0.89155328242E-01  0.13256784567E+00  0.19389663337E-01 0.  0.
         14    1    1    2    0    0 -0.16571875591E-01  0.61334790952E-02  0.12224042542E-01  0.21486596810E-01  0.00000000000E+00 0.  1.
     999901    1    3    3    0    0 -0.70097054111E-01 -0.47823990385E-01 -0.10137937078E+00  0.88987555752E+00  0.88000000000E+00 0. -1.
        -11    1    4    4    0    0  0.10351153128E-01  0.37170604766E-03  0.15974184170E-01  0.19045215078E-01  0.51100000000E-03 0. -1.
         11    1    4    4    0    0  0.76317776574E-01  0.41318805242E-01  0.73181144072E-01  0.11352263059E+00  0.51100000000E-03 0.  1.
</event>
<event>
 8    1  0.1157726E+005  0.1043930E+01  0.7957747E-01            NaN
         13   -1    0    0    0    0  0.00000000000E+00  0.00000000000E+00  0.74505805969E-08  0.10566000000E+00  0.10566000000E+00 0.  1.
     999900   -1    0    0    0    0 -0.00000000000E+00 -0.00000000000E+00 -0.74505805969E-08  0.93827000000E+00  0.93827000000E+00 0.  1.
     999902    2    1    2    0    0  0.20231663973E-02 -0.16668924170E-01  0.17415058167E-01  0.10197384625E+01  0.10194514709E+01 0.  0.
     999903    2    3    3    0    0 -0.70598127013E-02 -0.90760296084E-01  0.95074621262E-01  0.13317033786E+00  0.20196112926E-01 0.  0.
         14    1    1    2    0    0 -0.20231663973E-02  0.16668924170E-01 -0.17415058167E-01  0.24191537491E-01  0.00000000000E+00 0. -1.
     999901    1    3    3    0    0  0.90829790986E-02  0.74091371914E-01 -0.77659563095E-01  0.88656812465E+00  0.88000000000E+00 0.  1.
        -11    1    4    4    0    0 -0.89649421800E-03 -0.44849167447E-01  0.60727233559E-01  0.75500394299E-01  0.51100000000E-03 0. -1.
         11    1    4    4    0    0 -0.61633184833E-02 -0.45911128637E-01  0.34347387703E-01  0.57669943562E-01  0.51100000000E-03 0.  1.
</event>
<event>
 8    1  0.1157726E+005  0.1043930E+01  0.7957747E-01            NaN
         13   -1    0    0    0    0  0.00000000000E+00  0.00000000000E+00  0.74505805969E-08  0.10566000000E+00  0.10566000000E+00 0. -1.
     999900   -1    0    0    0    0 -0.00000000000E+00 -0.00000000000E+00 -0.74505805969E-08  0.93827000000E+00  0.93827000000E+00 0.  1.
     999902    2    1    2    0    0 -0.14623845718E-01 -0.11645402793E-01 -0.86145347235E-02  0.10233464513E+01  0.10231394220E+01 0.  0.
     999903    2    3    3    0    0  0.72986836581E-01 -0.94418676810E-01  0.54063574330E-01  0.13292206262E+00  0.22437464607E-01 0.  0.
         14    1    1    2    0    0  0.14623845718E-01  0.11645402793E-01  0.86145347235E-02  0.20583548730E-01  0.00000000000E+00 0.  1.
     999901    1    3    3    0    0 -0.87610682299E-01  0.82773274016E-01 -0.62678109053E-01  0.89042438865E+00  0.88000000000E+00 0.  1.
        -11    1    4    4    0    0  0.53704474623E-01 -0.61643582414E-01  0.46798554791E-01  0.94204393204E-01  0.51100000000E-03 0.  1.
         11    1    4    4    0    0  0.19282361958E-01 -0.32775094396E-01  0.72650195384E-02  0.38717669419E-01  0.51100000000E-03 0. -1.
</event>
<event>
 8    1  0.1157726E+005  0.1043930E+01  0.7957747E-01            NaN
         13   -1    0    0    0    0  0.00000000000E+00  0.00000000000E+00  0.74505805969E-08  0.10566000000E+00  0.10566000000E+00 0.  1.
     999900   -1    0    0    0    0 -0.00000000000E+00 -0.00000000000E+00 -0.74505805969E-08  0.93827000000E+00  0.93827000000E+00 0.  1.
     999902    2    1    2    0    0 -0.14277386108E-01 -0.18114162639E-01  0.39936374817E-02  0.10205223990E+01  0.10202539150E+01 0.  0.
     999903    2    3    3    0    0 -0.43886214344E-01  0.37402896765E-01  0.11603756446E+00  0.13118968956E+00  0.20519302718E-01 0.  0.
         14    1    1    2    0    0  0.14277386108E-01  0.18114162639E-01 -0.39936374817E-02  0.23407600956E-01  0.00000000000E+00 0.  1.
     999901    1    3    3    0    0  0.29608828236E-01 -0.55517059404E-01 -0.11204392698E+00  0.88933270949E+00  0.88000000000E+00 0.  1.
        -11    1    4    4    0    0 -0.81480607465E-02  0.15236893934E-01  0.49931244932E-01  0.52838850972E-01  0.51100000000E-03 0.  1.
         11    1    4    4    0    0 -0.35738153598E-01  0.22166002832E-01  0.66106319528E-01  0.78350838583E-01  0.51100000000E-03 0. -1.
</event>
<event>
 8    1  0.1157726E+005  0.1043930E+01  0.7957747E-01            NaN
         13   -1    0    0    0    0  0.00000000000E+00  0.00000000000E+00  0.74505805969E-08  0.10566000000E+00  0.10566000000E+00 0.  1.
     999900   -1    0    0    0    0 -0.00000000000E+00 -0.00000000000E+00 -0.74505805969E-08  0.93827000000E+00  0.93827000000E+00 0.  1.
     999902    2    1    2    0    0  0.48528972439E-02 -0.19464505876E-01  0.95249503596E-02  0.10217231929E+01  0.10214818357E+01 0.  0.
     999903    2    3    3    0    0  0.30310675628E-01  0.39804144993E-01  0.12058606330E+00  0.13240016823E+00  0.22038576887E-01 0.  0.
         14    1    1    2    0    0 -0.48528972439E-02  0.19464505876E-01 -0.95249503596E-02  0.22206807065E-01  0.00000000000E+00 0. -1.
     999901    1    3    3    0    0 -0.25457778384E-01 -0.59268650869E-01 -0.11106111294E+00  0.88932302470E+00  0.88000000000E+00 0.  1.
        -11    1    4    4    0    0  0.12823935095E-01  0.81541627503E-02  0.17649830445E-01  0.23296379917E-01  0.51100000000E-03 0. -1.
         11    1    4    4    0    0  0.17486740534E-01  0.31649982243E-01  0.10293623285E+00  0.10910378832E+00  0.51100000000E-03 0.  1.
</event>
<event>
 8    1  0.1157726E+005  0.1043930E+01  0.7957747E-01            NaN
         13   -1    0    0    0    0  0.00000000000E+00  0.00000000000E+00  0.74505805969E-08  0.10566000000E+00  0.10566000000E+00 0. -1.
     999900   -1    0    0    0    0 -0.00000000000E+00 -0.00000000000E+00 -0.74505805969E-08  0.93827000000E+00  0.93827000000E+00 0. -1.
     999902    2    1    2    0    0 -0.68042553973E-02  0.92415014137E-02  0.20132263318E-01  0.10207564965E+01  0.10204934168E+01 0.  0.
     999903    2    3    3    0    0 -0.34584742451E-01  0.67825720743E-01 -0.10318256004E+00  0.12979610909E+00  0.20098667423E-01 0.  0.
         14    1    1    2    0    0  0.68042553973E-02 -0.92415014137E-02 -0.20132263318E-01  0.23173503537E-01  0.00000000000E+00 0.  1.
     999901    1    3    3    0    0  0.27780487054E-01 -0.58584219330E-01  0.12331482336E+00  0.89096038738E+00  0.88000000000E+00 0.  1.
        -11    1    4    4    0    0 -0.11202541553E-01  0.41328301383E-01 -0.48648356822E-01  0.64810872351E-01  0.51100000000E-03 0.  1.
         11    1    4    4    0    0 -0.23382200898E-01  0.26497419361E-01 -0.54534203220E-01  0.64985236734E-01  0.51100000000E-03 0. -1.
</event>
<event>
 8    1  0.1157726E+005  0.1043930E+01  0.7957747E-01            NaN
         13   -1    0    0    0    0  0.00000000000E+00  0.00000000000E+00  0.74505805969E-08  0.10566000000E+00  0.10566000000E+00 0. -1.
     999900   -1    0    0    0    0 -0.00000000000E+00 -0.00000000000E+00 -0.74505805969E-08  0.93827000000E+00  0.93827000000E+00 0.  1.
     999902    2    1    2    0    0  0.22113327540E-01  0.17757481471E-03  0.71860690674E-02  0.10206776802E+01  0.10204127873E+01 0.  0.
     999903    2    3    3    0    0  0.76446294903E-01 -0.48057852837E-01  0.96120069232E-01  0.13321614063E+00  0.18811676983E-01 0.  0.
         14    1    1    2    0    0 -0.22113327540E-01 -0.17757481471E-03 -0.71860690674E-02  0.23252319806E-01  0.00000000000E+00 0.  1.
     999901    1    3    3    0    0 -0.54332967363E-01  0.48235427652E-01 -0.88934000165E-01  0.88746153957E+00  0.88000000000E+00 0.  1.
        -11    1    4    4    0    0  0.12653032425E-01 -0.17060202867E-01  0.20131432582E-01  0.29269189436E-01  0.51100000000E-03 0.  1.
         11    1    4    4    0    0  0.63793262478E-01 -0.30997649970E-01  0.75988636650E-01  0.10394695119E+00  0.51100000000E-03 0. -1.
</event>
<event>
 8    1  0.1157726E+005  0.1043930E+01  0.7957747E-01            NaN
         13   -1    0    0    0    0  0.00000000000E+00  0.00000000000E+00  0.74505805969E-08  0.10566000000E+00  0.10566000000E+00 0. -1.
     999900   -1    0    0    0    0 -0.00000000000E+00 -0.00000000000E+00 -0.74505805969E-08  0.93827000000E+00  0.93827000000E+00 0.  1.
     999902    2    1    2    0    0 -0.15326183453E-01 -0.67524001776E-02  0.16709302586E-01  0.10202722824E+01  0.10199979621E+01 0.  0.
     999903    2    3    3    0    0 -0.79422596070E-01 -0.62463521191E-01 -0.79266640874E-01  0.13098972844E+00  0.25796673353E-01 0.  0.
         14    1    1    2    0    0  0.15326183453E-01  0.67524001776E-02 -0.16709302586E-01  0.23657717563E-01  0.00000000000E+00 0.  1.
     999901    1    3    3    0    0  0.64096412617E-01  0.55711121013E-01  0.95975943459E-01  0.88928255399E+00  0.88000000000E+00 0. -1.
        -11    1    4    4    0    0 -0.75758896431E-02  0.77300649151E-03 -0.11151065005E-01  0.13512920286E-01  0.51100000000E-03 0.  1.
         11    1    4    4    0    0 -0.71846706427E-01 -0.63236527682E-01 -0.68115575869E-01  0.11747680816E+00  0.51100000000E-03 0. -1.
</event>
<event>
 8    1  0.1157726E+005  0.1043930E+01  0.7957747E-01            NaN
         13   -1    0    0    0    0  0.00000000000E+00  0.00000000000E+00  0.74505805969E-08  0.10566000000E+00  0.10566000000E+00 0.  1.
     999900   -1    0    0    0    0 -0.00000000000E+00 -0.00000000000E+00 -0.74505805969E-08  0.93827000000E+00  0.93827000000E+00 0.  1.
     999902    2    1    2    0    0  0.21875679454E-02 -0.16831189509E-01 -0.16346085622E-01  0.10203658554E+01  0.10200937261E+01 0.  0.
     999903    2    3    3    0    0  0.66252752060E-01  0.69722124283E-01 -0.86682482045E-01  0.13101607464E+00  0.20018924808E-01 0.  0.
         14    1    1    2    0    0 -0.21875679454E-02  0.16831189509E-01  0.16346085622E-01  0.23564144562E-01  0.00000000000E+00 0.  1.
     999901    1    3    3    0    0 -0.64065184114E-01 -0.86553313792E-01  0.70336396424E-01  0.88934978080E+00  0.88000000000E+00 0. -1.
        -11    1    4    4    0    0  0.92377211899E-02  0.21098249539E-01 -0.16397375156E-01  0.28277317047E-01  0.51100000000E-03 0. -1.
         11    1    4    4    0    0  0.57015030870E-01  0.48623874744E-01 -0.70285106889E-01  0.10273875759E+00  0.51100000000E-03 0.  1.
</event>
<event>
 8    1  0.1157726E+005  0.1043930E+01  0.7957747E-01            NaN
         13   -1    0    0    0    0  0.00000000000E+00  0.00000000000E+00  0.74505805969E-08  0.10566000000E+00  0.10566000000E+00 0.  1.
     999900   -1    0    0    0    0 -0.00000000000E+00 -0.00000000000E+00 -0.74505805969E-08  0.93827000000E+00  0.93827000000E+00 0. -1.
     999902    2    1    2    0    0 -0.92913400581E-02 -0.11574681192E-01  0.19440405382E-01  0.10194712264E+01  0.10191777813E+01 0.  0.
     999903    2    3    3    0    0  0.10205028312E+00  0.40217969490E-01  0.66289606025E-01  0.12971042522E+00  0.19968404716E-01 0.  0.
         14    1    1    2    0    0  0.92913400581E-02  0.11574681192E-01 -0.19440405382E-01  0.24458773604E-01  0.00000000000E+00 0. -1.
     999901    1    3    3    0    0 -0.11134162318E+00 -0.51792650682E-01 -0.46849200642E-01  0.88976080118E+00  0.88000000000E+00 0. -1.
        -11    1    4    4    0    0  0.44729758386E-01  0.24335245692E-01  0.21621866326E-01  0.55323789572E-01  0.51100000000E-03 0. -1.
         11    1    4    4    0    0  0.57320524739E-01  0.15882723798E-01  0.44667739699E-01  0.74386635644E-01  0.51100000000E-03 0.  1.
</event>
<event>
 8    1  0.1157726E+005  0.1043930E+01  0.7957747E-01            NaN
         13   -1    0    0    0    0  0.00000000000E+00  0.00000000000E+00  0.74505805969E-08  0.10566000000E+00  0.10566000000E+00 0. -1.
     999900   -1    0    0    0    0 -0.00000000000E+00 -0.00000000000E+00 -0.74505805969E-08  0.93827000000E+00  0.93827000000E+00 0.  1.
     999902    2    1    2    0    0 -0.29068112364E-02  0.13013041414E-01 -0.19743030492E-01  0.10201061453E+01  0.10198279128E+01 0.  0.
     999903    2    3    3    0    0  0.10224747214E+00 -0.73911825448E-01 -0.21159249654E-01  0.12959204580E+00  0.20709441985E-01 0.  0.
         14    1    1    2    0    0  0.29068112364E-02 -0.13013041414E-01  0.19743030492E-01  0.23823854671E-01  0.00000000000E+00 0. -1.
     999901    1    3    3    0    0 -0.10515428338E+00  0.86924866861E-01  0.14162191626E-02  0.89051409953E+00  0.88000000000E+00 0.  1.
        -11    1    4    4    0    0  0.39073821516E-01 -0.29723306603E-01 -0.18448084063E-01  0.52448368991E-01  0.51100000000E-03 0.  1.
         11    1    4    4    0    0  0.63173650625E-01 -0.44188518844E-01 -0.27111655914E-02  0.77143676804E-01  0.51100000000E-03 0. -1.
</event>
<event>
 8    1  0.1157726E+005  0.1043930E+01  0.7957747E-01            NaN
         13   -1    0    0    0    0  0.00000000000E+00  0.00000000000E+00  0.74505805969E-08  0.10566000000E+00  0.10566000000E+00 0. -1.
     999900   -1    0    0    0    0 -0.00000000000E+00 -0.00000000000E+00 -0.74505805969E-08  0.93827000000E+00  0.93827000000E+00 0.  1.
     999902    2    1    2    0    0  0.81032126924E-02 -0.96180492662E-02  0.19759258286E-01  0.10205078478E+01  0.10202390260E+01 0.  0.
     999903    2    3    3    0    0  0.12057354787E+00  0.42741455207E-01 -0.19397402871E-01  0.13094371959E+00  0.20129233037E-01 0.  0.
         14    1    1    2    0    0 -0.81032126924E-02  0.96180492662E-02 -0.19759258286E-01  0.23422152242E-01  0.00000000000E+00 0.  1.
     999901    1    3    3    0    0 -0.11247033518E+00 -0.52359504473E-01  0.39156661157E-01  0.88956412816E+00  0.88000000000E+00 0. -1.
        -11    1    4    4    0    0  0.75433852889E-02  0.84086330537E-02 -0.57005036913E-03  0.11322272293E-01  0.51100000000E-03 0.  1.
         11    1    4    4    0    0  0.11303016259E+00  0.34332822153E-01 -0.18827352501E-01  0.11962144730E+00  0.51100000000E-03 0. -1.
</event>
<event>
 8    1  0.1157726E+005  0.1043930E+01  0.7957747E-01            NaN
         13   -1    0    0    0    0  0.00000000000E+00  0.00000000000E+00  0.74505805969E-08  0.10566000000E+00  0.10566000000E+00 0. -1.
     999900   -1    0    0    0    0 -0.00000000000E+00 -0.00000000000E+00 -0.74505805969E-08  0.93827000000E+00  0.93827000000E+00 0.  1.
     999902    2    1    2    0    0 -0.34079115191E-02 -0.67704536497E-02 -0.23483239315E-01  0.10192537881E+01  0.10189550379E+01 0.  0.
     999903    2    3    3    0    0  0.10605923283E+00 -0.69135886107E-01 -0.17128906549E-01  0.13025835484E+00  0.25406848494E-01 0.  0.
         14    1    1    2    0    0  0.34079115191E-02  0.67704536497E-02  0.23483239315E-01  0.24676211870E-01  0.00000000000E+00 0. -1.
     999901    1    3    3    0    0 -0.10946714435E+00  0.62365432458E-01 -0.63543327655E-02  0.88899543329E+00  0.88000000000E+00 0. -1.
        -11    1    4    4    0    0  0.48733329113E-01 -0.16938097691E-01 -0.69643280301E-02  0.52063418114E-01  0.51100000000E-03 0.  1.
         11    1    4    4    0    0  0.57325903719E-01 -0.52197788416E-01 -0.10164578519E-01  0.78194936730E-01  0.51100000000E-03 0. -1.
</event>
<event>
 8    1  0.1157726E+005  0.1043930E+01  0.7957747E-01            NaN
         13   -1    0    0    0    0  0.00000000000E+00  0.00000000000E+00  0.74505805969E-08  0.10566000000E+00  0.10566000000E+00 0. -1.
     999900   -1    0    0    0    0 -0.00000000000E+00 -0.00000000000E+00 -0.74505805969E-08  0.93827000000E+00  0.93827000000E+00 0. -1.
     999902    2    1    2    0    0 -0.20581207140E-02 -0.21265160729E-01  0.10740191115E-01  0.10200177724E+01  0.10197374473E+01 0.  0.
     999903    2    3    3    0    0 -0.98744899965E-01  0.49642844970E-01  0.65670833169E-01  0.13018989358E+00  0.20537349785E-01 0.  0.
         14    1    1    2    0    0  0.20581207140E-02  0.21265160729E-01 -0.10740191115E-01  0.23912227560E-01  0.00000000000E+00 0.  1.
     999901    1    3    3    0    0  0.96686779251E-01 -0.70908005699E-01 -0.54930642054E-01  0.88982787886E+00  0.88000000000E+00 0.  1.
        -11    1    4    4    0    0 -0.41694134887E-01  0.21621376144E-01  0.39797105600E-01  0.61562614674E-01  0.51100000000E-03 0. -1.
         11    1    4    4    0    0 -0.57050765078E-01  0.28021468826E-01  0.25873727570E-01  0.68627278910E-01  0.51100000000E-03 0.  1.
</event>
<event>
 8    1  0.1157726E+005  0.1043930E+01  0.7957747E-01            NaN
         13   -1    0    0    0    0  0.00000000000E+00  0.00000000000E+00  0.74505805969E-08  0.10566000000E+00  0.10566000000E+00 0. -1.
     999900   -1    0    0    0    0 -0.00000000000E+00 -0.00000000000E+00 -0.74505805969E-08  0.93827000000E+00  0.93827000000E+00 0. -1.
     999902    2    1    2    0    0  0.18881558594E-01 -0.20496206218E-02  0.13813616018E-01  0.10204453202E+01  0.10201750444E+01 0.  0.
     999903    2    3    3    0    0 -0.10690479656E+00  0.16442178481E-01 -0.64869849765E-01  0.12783384725E+00  0.20842608630E-01 0.  0.
         14    1    1    2    0    0 -0.18881558594E-01  0.20496206218E-02 -0.13813616018E-01  0.23484679839E-01  0.00000000000E+00 0.  1.
     999901    1    3    3    0    0  0.12578635515E+00 -0.18491799103E-01  0.78683465784E-01  0.89261147291E+00  0.88000000000E+00 0.  1.
        -11    1    4    4    0    0 -0.60255008864E-01  0.94087562461E-02 -0.48410418339E-01  0.77865399967E-01  0.51100000000E-03 0.  1.
         11    1    4    4    0    0 -0.46649787696E-01  0.70334222347E-02 -0.16459431427E-01  0.49968447288E-01  0.51100000000E-03 0. -1.
</event>
<event>
 8    1  0.1157726E+005  0.1043930E+01  0.7957747E-01            NaN
         13   -1    0    0    0    0  0.00000000000E+00  0.00000000000E+00  0.74505805969E-08  0.10566000000E+00  0.10566000000E+00 0. -1.
     999900   -1    0    0    0    0 -0.00000000000E+00 -0.00000000000E+00 -0.74505805969E-08  0.93827000000E+00  0.93827000000E+00 0. -1.
     999902    2    1    2    0    0 -0.83642376086E-02  0.20196927441E-01  0.70542732863E-02  0.10209596034E+01  0.10207011672E+01 0.  0.
     999903    2    3    3    0    0  0.76638417321E-01 -0.87573561158E-01 -0.50524807653E-01  0.12846014674E+00  0.20166246273E-01 0.  0.
         14    1    1    2    0    0  0.83642376086E-02 -0.20196927441E-01 -0.70542732863E-02  0.22970396610E-01  0.00000000000E+00 0.  1.
     999901    1    3    3    0    0 -0.85002654930E-01  0.10777048860E+00  0.57579080939E-01  0.89249945665E+00  0.88000000000E+00 0. -1.
        -11    1    4    4    0    0  0.55323227253E-01 -0.48614367150E-01 -0.29789261753E-01  0.79446066006E-01  0.51100000000E-03 0.  1.
         11    1    4    4    0    0  0.21315190068E-01 -0.38959194008E-01 -0.20735545900E-01  0.49014080734E-01  0.51100000000E-03 0. -1.
</event>
<event>
 8    1  0.1157726E+005  0.1043930E+01  0.7957747E-01            NaN
         13   -1    0    0    0    0  0.00000000000E+00  0.00000000000E+00  0.74505805969E-08  0.10566000000E+00  0.10566000000E+00 0.  1.
     999900   -1    0    0    0    0 -0.00000000000E+00 -0.00000000000E+00 -0.74505805969E-08  0.93827000000E+00  0.93827000000E+00 0. -1.
     999902    2    1    2    0    0  0.22223518676E-01 -0.80456553711E-02  0.40299615955E-02  0.10199538047E+01  0.10196719598E+01 0.  0.
     999903    2    3    3    0    0  0.63008682085E-01  0.93927577346E-01  0.63395910371E-01  0.13114207790E+00  0.19665180903E-01 0.  0.
         14    1    1    2    0    0 -0.22223518676E-01  0.80456553711E-02 -0.40299615955E-02  0.23976195344E-01  0.00000000000E+00 0. -1.
     999901    1    3    3    0    0 -0.40785163408E-01 -0.10197323272E+00 -0.59365948775E-01  0.88881172676E+00  0.88000000000E+00 0. -1.
        -11    1    4    4    0    0  0.15635459579E-01  0.28437976169E-01  0.88902519673E-02  0.33652396436E-01  0.51100000000E-03 0. -1.
         11    1    4    4    0    0  0.47373222505E-01  0.65489601177E-01  0.54505658404E-01  0.97489681464E-01  0.51100000000E-03 0.  1.
</event>
<event>
 8    1  0.1157726E+005  0.1043930E+01  0.7957747E-01            NaN
         13   -1    0    0    0    0  0.00000000000E+00  0.00000000000E+00  0.74505805969E-08  0.10566000000E+00  0.10566000000E+00 0. -1.
     999900   -1    0    0    0    0 -0.00000000000E+00 -0.00000000000E+00 -0.74505805969E-08  0.93827000000E+00  0.93827000000E+00 0. -1.
     999902    2    1    2    0    0 -0.22161100928E-01 -0.49373426539E-02 -0.12868444835E-01  0.10178323254E+01  0.10174976924E+01 0.  0.
     999903    2    3    3    0    0 -0.37790616097E-01  0.11515362743E+00  0.39379870163E-01  0.12800312311E+00  0.12063862445E-01 0.  0.
         14    1    1    2    0    0  0.22161100928E-01  0.49373426539E-02  0.12868444835E-01  0.26097674596E-01  0.00000000000E+00 0. -1.
     999901    1    3    3    0    0  0.15629515169E-01 -0.12009097008E+00 -0.52248314997E-01  0.88982920230E+00  0.88000000000E+00 0.  1.
        -11    1    4    4    0    0 -0.32409880129E-01  0.10349443957E+00  0.31520950072E-01  0.11293950047E+00  0.51100000000E-03 0.  1.
         11    1    4    4    0    0 -0.53807359682E-02  0.11659187859E-01  0.78589200910E-02  0.15063622641E-01  0.51100000000E-03 0. -1.
</event>
<event>
 8    1  0.1157726E+005  0.1043930E+01  0.7957747E-01            NaN
         13   -1    0    0    0    0  0.00000000000E+00  0.00000000000E+00  0.74505805969E-08  0.10566000000E+00  0.10566000000E+00 0. -1.
     999900   -1    0    0    0    0 -0.00000000000E+00 -0.00000000000E+00 -0.74505805969E-08  0.93827000000E+00  0.93827000000E+00 0. -1.
     999902    2    1    2    0    0 -0.56807724590E-02 -0.19654270683E-01 -0.11852868137E-01  0.10202857192E+01  0.10200117140E+01 0.  0.
     999903    2    3    3    0    0 -0.75615930581E-01 -0.55382547938E-01 -0.92439398120E-01  0.13312078247E+00  0.19776370413E-01 0.  0.
         14    1    1    2    0    0  0.56807724590E-02  0.19654270683E-01  0.11852868137E-01  0.23644280807E-01  0.00000000000E+00 0. -1.
     999901    1    3    3    0    0  0.69935158122E-01  0.35728277254E-01  0.80586529983E-01  0.88716493672E+00  0.88000000000E+00 0. -1.
        -11    1    4    4    0    0 -0.27135852871E-01 -0.31834272099E-01 -0.38073892696E-01  0.56565517917E-01  0.51100000000E-03 0. -1.
         11    1    4    4    0    0 -0.48480077710E-01 -0.23548275838E-01 -0.54365505424E-01  0.76555264553E-01  0.51100000000E-03 0.  1.
</event>
<event>
 8    1  0.1157726E+005  0.1043930E+01  0.7957747E-01            NaN
         13   -1    0    0    0    0  0.00000000000E+00  0.00000000000E+00  0.74505805969E-08  0.10566000000E+00  0.10566000000E+00 0. -1.
     999900   -1    0    0    0    0 -0.00000000000E+00 -0.00000000000E+00 -0.74505805969E-08  0.93827000000E+00  0.93827000000E+00 0. -1.
     999902    2    1    2    0    0 -0.16363018975E-01  0.51417483811E-02  0.15879781737E-01  0.10205557955E+01  0.10202880860E+01 0.  0.
     999903    2    3    3    0    0 -0.92192869101E-01  0.54395751617E-02 -0.90940506537E-01  0.13085875223E+00  0.18020078134E-01 0.  0.
         14    1    1    2    0    0  0.16363018975E-01 -0.51417483811E-02 -0.15879781737E-01  0.23374204466E-01  0.00000000000E+00 0.  1.
     999901    1    3    3    0    0  0.75829850126E-01 -0.29782678067E-03  0.10682028827E+00  0.88969704330E+00  0.88000000000E+00 0.  1.
        -11    1    4    4    0    0 -0.39240349614E-01  0.84212171872E-02 -0.30260845484E-01  0.50266309067E-01  0.51100000000E-03 0.  1.
         11    1    4    4    0    0 -0.52952519487E-01 -0.29816420255E-02 -0.60679661053E-01  0.80592443167E-01  0.51100000000E-03 0. -1.
</event>
<event>
 8    1  0.1157726E+005  0.1043930E+01  0.7957747E-01            NaN
         13   -1    0    0    0    0  0.00000000000E+00  0.00000000000E+00  0.74505805969E-08  0.10566000000E+00  0.10566000000E+00 0. -1.
     999900   -1    0    0    0    0 -0.00000000000E+00 -0.00000000000E+00 -0.74505805969E-08  0.93827000000E+00  0.93827000000E+00 0.  1.
     999902    2    1    2    0    0  0.22910501398E-01  0.25849801819E-02  0.75712651641E-03  0.10208617006E+01  0.10206010314E+01 0.  0.
     999903    2    3    3    0    0  0.41033842212E-01 -0.64405316829E-01  0.10577288234E+00  0.13190474756E+00  0.19471485496E-01 0.  0.
         14    1    1    2    0    0 -0.22910501398E-01 -0.25849801819E-02 -0.75712651641E-03  0.23068299404E-01  0.00000000000E+00 0. -1.
     999901    1    3    3    0    0 -0.18123340814E-01  0.66990297010E-01 -0.10501575583E+00  0.88895695303E+00  0.88000000000E+00 0.  1.
        -11    1    4    4    0    0  0.22480493434E-01 -0.37095169050E-01  0.75673142509E-01  0.87224479190E-01  0.51100000000E-03 0.  1.
         11    1    4    4    0    0  0.18553348778E-01 -0.27310147779E-01  0.30099739836E-01  0.44680268371E-01  0.51100000000E-03 0. -1.
</event>
<event>
 8    1  0.1157726E+005  0.1043930E+01  0.7957747E-01            NaN
         13   -1    0    0    0    0  0.00000000000E+00  0.00000000000E+00  0.74505805969E-08  0.10566000000E+00  0.10566000000E+00 0.  1.
     999900   -1    0    0    0    0 -0.00000000000E+00 -0.00000000000E+00 -0.74505805969E-08  0.93827000000E+00  0.93827000000E+00 0.  1.
     999902    2    1    2    0    0 -0.15135218744E-01  0.59880983579E-02  0.15594014585E-01  0.10213888053E+01  0.10211400424E+01 0.  0.
     999903    2    3    3    0    0  0.90577207372E-01  0.90994109131E-01  0.17029540132E-01  0.13099383695E+00  0.19627065230E-01 0.  0.
         14    1    1    2    0    0  0.15135218744E-01 -0.59880983579E-02 -0.15594014585E-01  0.22541194717E-01  0.00000000000E+00 0. -1.
     999901    1    3    3    0    0 -0.10571242612E+00 -0.85006010773E-01 -0.14355255468E-02  0.89039496834E+00  0.88000000000E+00 0.  1.
        -11    1    4    4    0    0  0.54283317012E-01  0.67599660426E-01  0.11451266158E-01  0.87451616413E-01  0.51100000000E-03 0. -1.
         11    1    4    4    0    0  0.36293890360E-01  0.23394448705E-01  0.55782739740E-02  0.43542220536E-01  0.51100000000E-03 0.  1.
</event>
<event>
 8    1  0.1157726E+005  0.1043930E+01  0.7957747E-01            NaN
         13   -1    0    0    0    0  0.00000000000E+00  0.00000000000E+00  0.74505805969E-08  0.10566000000E+00  0.10566000000E+00 0. -1.
     999900   -1    0    0    0    0 -0.00000000000E+00 -0.00000000000E+00 -0.74505805969E-08  0.93827000000E+00  0.93827000000E+00 0. -1.
     999902    2    1    2    0    0 -0.27723227378E-02 -0.17835726060E-01 -0.15798195565E-01  0.10199428809E+01  0.10196607762E+01 0.  0.
     999903    2    3    3    0    0  0.10255245792E+00  0.68716797597E-01 -0.33254389089E-01  0.12927494761E+00  0.19161231397E-01 0.  0.
         14    1    1    2    0    0  0.27723227378E-02  0.17835726060E-01  0.15798195565E-01  0.23987119055E-01  0.00000000000E+00 0. -1.
     999901    1    3    3    0    0 -0.10532478066E+00 -0.86552523658E-01  0.17456193524E-01  0.89066793333E+00  0.88000000000E+00 0.  1.
        -11    1    4    4    0    0  0.51470395778E-01  0.33885208162E-01 -0.26486866286E-01  0.67076256458E-01  0.51100000000E-03 0.  1.
         11    1    4    4    0    0  0.51082062145E-01  0.34831589435E-01 -0.67675228031E-02  0.62198691155E-01  0.51100000000E-03 0. -1.
</event>
<event>
 8    1  0.1157726E+005  0.1043930E+01  0.7957747E-01            NaN
         13   -1    0    0    0    0  0.00000000000E+00  0.00000000000E+00  0.74505805969E-08  0.10566000000E+00  0.10566000000E+00 0. -1.
     999900   -1    0    0    0    0 -0.00000000000E+00 -0.00000000000E+00 -0.74505805969E-08  0.93827000000E+00  0.93827000000E+00 0. -1.
     999902    2    1    2    0    0 -0.87512879099E-02 -0.15413817150E-01 -0.14471069102E-01  0.10210480718E+01  0.10207916449E+01 0.  0.
     999903    2    3    3    0    0  0.81271102834E-01 -0.47547797606E-01 -0.90961048391E-01  0.13257334478E+00  0.20880474374E-01 0.  0.
         14    1    1    2    0    0  0.87512879099E-02  0.15413817150E-01  0.14471069102E-01  0.22881928244E-01  0.00000000000E+00 0. -1.
     999901    1    3    3    0    0 -0.90022390744E-01  0.32133980456E-01  0.76489979289E-01  0.88847472697E+00  0.88000000000E+00 0.  1.
        -11    1    4    4    0    0  0.62969257070E-01 -0.33000876200E-01 -0.79094600068E-01  0.10635037399E+00  0.51100000000E-03 0. -1.
         11    1    4    4    0    0  0.18301845764E-01 -0.14546921406E-01 -0.11866448323E-01  0.26222970800E-01  0.51100000000E-03 0.  1.
</event>
<event>
 8    1  0.1157726E+005  0.1043930E+01  0.7957747E-01            NaN
         13   -1    0    0    0    0  0.00000000000E+00  0.00000000000E+00  0.74505805969E-08  0.10566000000E+00  0.10566000000E+00 0.  1.
     999900   -1    0    0    0    0 -0.00000000000E+00 -0.00000000000E+00 -0.74505805969E-08  0.93827000000E+00  0.93827000000E+00 0.  1.
     999902    2    1    2    0    0  0.13517837513E-01  0.84396995076E-02  0.17248071126E-01  0.10204468908E+01  0.10201766517E+01 0.  0.
     999903    2    3    3    0    0 -0.66060604604E-01 -0.66644090957E-01 -0.84184190097E-01  0.12788943741E+00  0.21524218871E-01 0.  0.
         14    1    1    2    0    0 -0.13517837513E-01 -0.84396995076E-02 -0.17248071126E-01  0.23483109172E-01  0.00000000000E+00 0. -1.
     999901    1    3    3    0    0  0.79578442117E-01  0.75083790465E-01  0.10143226122E+00  0.89255745342E+00  0.88000000000E+00 0. -1.
        -11    1    4    4    0    0 -0.46562811518E-01 -0.34167639672E-01 -0.43550922748E-01  0.72335793425E-01  0.51100000000E-03 0.  1.
         11    1    4    4    0    0 -0.19497793086E-01 -0.32476451285E-01 -0.40633267348E-01  0.55553643982E-01  0.51100000000E-03 0. -1.
</event>
<event>
 8    1  0.1157726E+005  0.1043930E+01  0.7957747E-01            NaN
         13   -1    0    0    0    0  0.00000000000E+00  0.00000000000E+00  0.74505805969E-08  0.10566000000E+00  0.10566000000E+00 0.  1.
     999900   -1    0    0    0    0 -0.00000000000E+00 -0.00000000000E+00 -0.74505805969E-08  0.93827000000E+00  0.93827000000E+00 0.  1.
     999902    2    1    2    0    0  0.82152507670E-02 -0.20452083857E-02  0.87081207799E-02  0.10317848532E+01  0.10317133705E+01 0.  0.
     999903    2    3    3    0    0 -0.76014616164E-01 -0.49627887422E-01 -0.10319476475E+00  0.13943904716E+00  0.23514661825E-01 0.  0.
         14    1    1    2    0    0 -0.82152507670E-02  0.20452083857E-02 -0.87081207799E-02  0.12145146768E-01  0.00000000000E+00 0. -1.
     999901    1    3    3    0    0  0.84229866931E-01  0.47582679037E-01  0.11190288553E+00  0.89234580607E+00  0.88000000000E+00 0. -1.
        -11    1    4    4    0    0 -0.66225102632E-01 -0.48058819954E-01 -0.81059713533E-01  0.11517965390E+00  0.51100000000E-03 0. -1.
         11    1    4    4    0    0 -0.97895135323E-02 -0.15690674679E-02 -0.22135051214E-01  0.24259393256E-01  0.51100000000E-03 0.  1.
</event>
<event>
 8    1  0.1157726E+005  0.1043930E+01  0.7957747E-01            NaN
         13   -1    0    0    0    0  0.00000000000E+00  0.00000000000E+00  0.74505805969E-08  0.10566000000E+00  0.10566000000E+00 0. -1.
     999900   -1    0    0    0    0 -0.00000000000E+00 -0.00000000000E+00 -0.74505805969E-08  0.93827000000E+00  0.93827000000E+00 0.  1.
     999902    2    1    2    0    0  0.18171475744E-01 -0.78426691469E-02  0.12457886049E-01  0.10205439162E+01  0.10202759313E+01 0.  0.
     999903    2    3    3    0    0 -0.97454296181E-01  0.20652895321E-01 -0.78036174696E-01  0.12792390111E+00  0.18734940236E-01 0.  0.
         14    1    1    2    0    0 -0.18171475744E-01  0.78426691469E-02 -0.12457886049E-01  0.23386083787E-01  0.00000000000E+00 0. -1.
     999901    1    3    3    0    0  0.11562577193E+00 -0.28495564468E-01  0.90494060744E-01  0.89262001510E+00  0.88000000000E+00 0. -1.
        -11    1    4    4    0    0 -0.78259606559E-01  0.91149963998E-02 -0.57578565227E-01  0.97586891911E-01  0.51100000000E-03 0. -1.
         11    1    4    4    0    0 -0.19194689621E-01  0.11537898921E-01 -0.20457609469E-01  0.30337009202E-01  0.51100000000E-03 0.  1.
</event>
<event>
 8    1  0.1157726E+005  0.1043930E+01  0.7957747E-01            NaN
         13   -1    0    0    0    0  0.00000000000E+00  0.00000000000E+00  0.74505805969E-08  0.10566000000E+00  0.10566000000E+00 0.  1.
     999900   -1    0    0    0    0 -0.00000000000E+00 -0.00000000000E+00 -0.74505805969E-08  0.93827000000E+00  0.93827000000E+00 0. -1.
     999902    2    1    2    0    0  0.18930944425E-01  0.76078666282E-02 -0.12125629825E-01  0.10201962437E+01  0.10199201363E+01 0.  0.
     999903    2    3    3    0    0 -0.28005573832E-02 -0.74717032312E-01 -0.10594360643E+00  0.13112287217E+00  0.19459748781E-01 0.  0.
         14    1    1    2    0    0 -0.18930944425E-01 -0.76078666282E-02  0.12125629825E-01  0.23733756342E-01  0.00000000000E+00 0.  1.
     999901    1    3    3    0    0  0.21731501808E-01  0.82324898940E-01  0.93817976607E-01  0.88907337149E+00  0.88000000000E+00 0.  1.
        -11    1    4    4    0    0  0.61396760239E-02 -0.45116603429E-01 -0.53646217394E-01  0.70366052101E-01  0.51100000000E-03 0.  1.
         11    1    4    4    0    0 -0.89402334071E-02 -0.29600428883E-01 -0.52297389038E-01  0.60756820067E-01  0.51100000000E-03 0. -1.
</event>
<event>
 8    1  0.1157726E+005  0.1043930E+01  0.7957747E-01            NaN
         13   -1    0    0    0    0  0.00000000000E+00  0.00000000000E+00  0.74505805969E-08  0.10566000000E+00  0.10566000000E+00 0. -1.
     999900   -1    0    0    0    0 -0.00000000000E+00 -0.00000000000E+00 -0.74505805969E-08  0.93827000000E+00  0.93827000000E+00 0. -1.
     999902    2    1    2    0    0  0.17001877805E-01 -0.13931830734E-01  0.74877782309E-02  0.10207087472E+01  0.10204445698E+01 0.  0.
     999903    2    3    3    0    0  0.94159574506E-01 -0.40156229695E-01 -0.81398136652E-01  0.13248482552E+00  0.21166579531E-01 0.  0.
         14    1    1    2    0    0 -0.17001877805E-01  0.13931830734E-01 -0.74877782309E-02  0.23221252751E-01  0.00000000000E+00 0.  1.
     999901    1    3    3    0    0 -0.77157696701E-01  0.26224398962E-01  0.88885914883E-01  0.88822392173E+00  0.88000000000E+00 0. -1.
        -11    1    4    4    0    0  0.71844511436E-01 -0.37943389406E-01 -0.56446578554E-01  0.98933371390E-01  0.51100000000E-03 0. -1.
         11    1    4    4    0    0  0.22315063070E-01 -0.22128402896E-02 -0.24951558098E-01  0.33551454134E-01  0.51100000000E-03 0.  1.
</event>
<event>
 8    1  0.1157726E+005  0.1043930E+01  0.7957747E-01            NaN
         13   -1    0    0    0    0  0.00000000000E+00  0.00000000000E+00  0.74505805969E-08  0.10566000000E+00  0.10566000000E+00 0. -1.
     999900   -1    0    0    0    0 -0.00000000000E+00 -0.00000000000E+00 -0.74505805969E-08  0.93827000000E+00  0.93827000000E+00 0.  1.
     999902    2    1    2    0    0  0.12589861636E-01  0.18632835157E-01  0.69442777344E-02  0.10203947041E+01  0.10201232484E+01 0.  0.
     999903    2    3    3    0    0 -0.78760547960E-01 -0.96314573978E-01  0.23165056359E-01  0.12808258497E+00  0.19718206348E-01 0.  0.
         14    1    1    2    0    0 -0.12589861636E-01 -0.18632835157E-01 -0.69442777344E-02  0.23535295946E-01  0.00000000000E+00 0. -1.
     999901    1    3    3    0    0  0.91350409596E-01  0.11494740914E+00 -0.16220778624E-01  0.89231211908E+00  0.88000000000E+00 0.  1.
        -11    1    4    4    0    0 -0.18520790920E-01 -0.12432967822E-01  0.79946464174E-02  0.23701769501E-01  0.51100000000E-03 0.  1.
         11    1    4    4    0    0 -0.60239757040E-01 -0.83881606156E-01  0.15170409941E-01  0.10438081547E+00  0.51100000000E-03 0. -1.
</event>
<event>
 8    1  0.1157726E+005  0.1043930E+01  0.7957747E-01            NaN
         13   -1    0    0    0    0  0.00000000000E+00  0.00000000000E+00  0.74505805969E-08  0.10566000000E+00  0.10566000000E+00 0.  1.
     999900   -1    0    0    0    0 -0.00000000000E+00 -0.00000000000E+00 -0.74505805969E-08  0.93827000000E+00  0.93827000000E+00 0. -1.
     999902    2    1    2    0    0  0.18083230057E-01 -0.95245250069E-02 -0.12170022935E-01  0.10201428345E+01  0.10198654683E+01 0.  0.
     999903    2    3    3    0    0  0.12009914668E+00 -0.38707059927E-01  0.35071867709E-01  0.13251078017E+00  0.20174970484E-01 0.  0.
         14    1    1    2    0    0 -0.18083230057E-01  0.95245250069E-02  0.12170022935E-01  0.23787165534E-01  0.00000000000E+00 0. -1.
     999901    1    3    3    0    0 -0.10201591662E+00  0.29182534920E-01 -0.47241890643E-01  0.88763205430E+00  0.88000000000E+00 0. -1.
        -11    1    4    4    0    0  0.88427155893E-01 -0.19494720814E-01  0.21621602212E-01  0.93097587735E-01  0.51100000000E-03 0. -1.
         11    1    4    4    0    0  0.31671990788E-01 -0.19212339113E-01  0.13450265497E-01  0.39413192431E-01  0.51100000000E-03 0.  1.
</event>
<event>
 8    1  0.1157726E+005  0.1043930E+01  0.7957747E-01            NaN
         13   -1    0    0    0    0  0.00000000000E+00  0.00000000000E+00  0.74505805969E-08  0.10566000000E+00  0.10566000000E+00 0.  1.
     999900   -1    0    0    0    0 -0.00000000000E+00 -0.00000000000E+00 -0.74505805969E-08  0.93827000000E+00  0.93827000000E+00 0.  1.
     999902    2    1    2    0    0 -0.16520080978E-01  0.79944838259E-02 -0.11595612162E-01  0.10222209450E+01  0.10219903998E+01 0.  0.
     999903    2    3    3    0    0  0.66420539687E-01 -0.97186375218E-02 -0.11231893605E+00  0.13242428891E+00  0.20359491408E-01 0.  0.
         14    1    1    2    0    0  0.16520080978E-01 -0.79944838259E-02  0.11595612162E-01  0.21709054991E-01  0.00000000000E+00 0. -1.
     999901    1    3    3    0    0 -0.82940620665E-01  0.17713121348E-01  0.10072332389E+00  0.88979665610E+00  0.88000000000E+00 0.  1.
        -11    1    4    4    0    0  0.23893108053E-01 -0.12610564957E-01 -0.51423734163E-01  0.58091036462E-01  0.51100000000E-03 0. -1.
         11    1    4    4    0    0  0.42527431634E-01  0.28919274357E-02 -0.60895201891E-01  0.74333252452E-01  0.51100000000E-03 0.  1.
</event>
<event>
 8    1  0.1157726E+005  0.1043930E+01  0.7957747E-01            NaN
         13   -1    0    0    0    0  0.00000000000E+00  0.00000000000E+00  0.74505805969E-08  0.10566000000E+00  0.10566000000E+00 0.  1.
     999900   -1    0    0    0    0 -0.00000000000E+00 -0.00000000000E+00 -0.74505805969E-08  0.93827000000E+00  0.93827000000E+00 0. -1.
     999902    2    1    2    0    0  0.21730979180E-01  0.11445613293E-02 -0.10148513346E-01  0.10199187985E+01  0.10196361202E+01 0.  0.
     999903    2    3    3    0    0 -0.30584167525E-01  0.15000324723E-01 -0.12469498105E+00  0.13084638857E+00  0.20286400759E-01 0.  0.
         14    1    1    2    0    0 -0.21730979180E-01 -0.11445613293E-02  0.10148513346E-01  0.24011201550E-01  0.00000000000E+00 0.  1.
     999901    1    3    3    0    0  0.52315146704E-01 -0.13855763393E-01  0.11454646771E+00  0.88907240988E+00  0.88000000000E+00 0.  1.
        -11    1    4    4    0    0 -0.27750466986E-01  0.19711689348E-01 -0.11005090919E+00  0.11519593243E+00  0.51100000000E-03 0.  1.
         11    1    4    4    0    0 -0.28337005382E-02 -0.47113646250E-02 -0.14644071868E-01  0.15650456135E-01  0.51100000000E-03 0. -1.
</event>
<event>
 8    1  0.1157726E+005  0.1043930E+01  0.7957747E-01            NaN
         13   -1    0    0    0    0  0.00000000000E+00  0.00000000000E+00  0.74505805969E-08  0.10566000000E+00  0.10566000000E+00 0.  1.
     999900   -1    0    0    0    0 -0.00000000000E+00 -0.00000000000E+00 -0.74505805969E-08  0.93827000000E+00  0.93827000000E+00 0.  1.
     999902    2    1    2    0    0 -0.19136191001E-01 -0.53509294539E-02 -0.14419985168E-01  0.10193787836E+01  0.10190830890E+01 0.  0.
     999903    2    3    3    0    0 -0.75458993176E-01 -0.39650028987E-01 -0.99931719436E-01  0.13277800372E+00  0.19428465527E-01 0.  0.
         14    1    1    2    0    0  0.19136191001E-01  0.53509294539E-02  0.14419985168E-01  0.24551216350E-01  0.00000000000E+00 0.  1.
     999901    1    3    3    0    0  0.56322802175E-01  0.34299099533E-01  0.85511734268E-01  0.88660077993E+00  0.88000000000E+00 0. -1.
        -11    1    4    4    0    0 -0.14245058672E-01 -0.82004639815E-02 -0.32517454692E-01  0.36439199864E-01  0.51100000000E-03 0. -1.
         11    1    4    4    0    0 -0.61213934504E-01 -0.31449565006E-01 -0.67414264743E-01  0.96338803856E-01  0.51100000000E-03 0.  1.
</event>
<event>
 8    1  0.1157726E+005  0.1043930E+01  0.7957747E-01            NaN
         13   -1    0    0    0    0  0.00000000000E+00  0.00000000000E+00  0.74505805969E-08  0.10566000000E+00  0.10566000000E+00 0. -1.
     999900   -1    0    0    0    0 -0.00000000000E+00 -0.00000000000E+00 -0.74505805969E-08  0.93827000000E+00  0.93827000000E+00 0. -1.
     999902    2    1    2    0    0 -0.10127775697E-01  0.16750885453E-01 -0.13941416795E-01  0.10198982063E+01  0.10196150373E+01 0.  0.
     999903    2    3    3    0    0  0.96231529735E-01 -0.26163204460E-02 -0.85400572890E-01  0.13040745231E+00  0.21106712709E-01 0.  0.
         14    1    1    2    0    0  0.10127775697E-01 -0.16750885453E-01  0.13941416795E-01  0.24031793655E-01  0.00000000000E+00 0. -1.
     999901    1    3    3    0    0 -0.10635930543E+00  0.19367205899E-01  0.71459156095E-01  0.88949075403E+00  0.88000000000E+00 0.  1.
        -11    1    4    4    0    0  0.43758701986E-01  0.88110126645E-02 -0.43004495574E-01  0.61984721539E-01  0.51100000000E-03 0. -1.
         11    1    4    4    0    0  0.52472827749E-01 -0.11427333110E-01 -0.42396077316E-01  0.68422730775E-01  0.51100000000E-03 0.  1.
</event>
<event>
 8    1  0.1157726E+005  0.1043930E+01  0.7957747E-01            NaN
         13   -1    0    0    0    0  0.00000000000E+00  0.00000000000E+00  0.74505805969E-08  0.10566000000E+00  0.10566000000E+00 0.  1.
     999900   -1    0    0    0    0 -0.00000000000E+00 -0.00000000000E+00 -0.74505805969E-08  0.93827000000E+00  0.93827000000E+00 0. -1.
     999902    2    1    2    0    0 -0.11256207401E-01  0.14473313635E-01 -0.13397264126E-01  0.10212217262E+01  0.10209692201E+01 0.  0.
     999903    2    3    3    0    0  0.33100984436E-01  0.43561746755E-01  0.11638584367E+00  0.13012276847E+00  0.19823453677E-01 0.  0.
         14    1    1    2    0    0  0.11256207401E-01 -0.14473313635E-01  0.13397264126E-01  0.22708273794E-01  0.00000000000E+00 0.  1.
     999901    1    3    3    0    0 -0.44357191837E-01 -0.29088433120E-01 -0.12978310780E+00  0.89109895774E+00  0.88000000000E+00 0. -1.
        -11    1    4    4    0    0  0.13113650083E-01  0.30705569428E-01  0.79656527961E-01  0.86372584657E-01  0.51100000000E-03 0.  1.
         11    1    4    4    0    0  0.19987334353E-01  0.12856177327E-01  0.36729315712E-01  0.43750183813E-01  0.51100000000E-03 0. -1.
</event>
<event>
 8    1  0.1157726E+005  0.1043930E+01  0.7957747E-01            NaN
         13   -1    0    0    0    0  0.00000000000E+00  0.00000000000E+00  0.74505805969E-08  0.10566000000E+00  0.10566000000E+00 0. -1.
     999900   -1    0    0    0    0 -0.00000000000E+00 -0.00000000000E+00 -0.74505805969E-08  0.93827000000E+00  0.93827000000E+00 0. -1.
     999902    2    1    2    0    0 -0.72780206264E-02 -0.70045547558E-02  0.20950636723E-01  0.10206713984E+01  0.10204063607E+01 0.  0.
     999903    2    3    3    0    0 -0.32149897121E-01  0.12428834698E+00 -0.72669880910E-02  0.13013635096E+00  0.20036258280E-01 0.  0.
         14    1    1    2    0    0  0.72780206264E-02  0.70045547558E-02 -0.20950636723E-01  0.23258601649E-01  0.00000000000E+00 0.  1.
     999901    1    3    3    0    0  0.24871876495E-01 -0.13129290173E+00  0.28217624814E-01  0.89053504739E+00  0.88000000000E+00 0. -1.
        -11    1    4    4    0    0 -0.17950604710E-01  0.40096558654E-01  0.35214358979E-02  0.44075161453E-01  0.51100000000E-03 0. -1.
         11    1    4    4    0    0 -0.14199292412E-01  0.84191788322E-01 -0.10788423989E-01  0.86061189505E-01  0.51100000000E-03 0.  1.
</event>
<event>
 8    1  0.1157726E+005  0.1043930E+01  0.7957747E-01            NaN
         13   -1    0    0    0    0  0.00000000000E+00  0.00000000000E+00  0.74505805969E-08  0.10566000000E+00  0.10566000000E+00 0. -1.
     999900   -1    0    0    0    0 -0.00000000000E+00 -0.00000000000E+00 -0.74505805969E-08  0.93827000000E+00  0.93827000000E+00 0. -1.
     999902    2    1    2    0    0 -0.13387433897E-03 -0.21364641280E-01  0.11435576659E-01  0.10196970012E+01  0.10194090131E+01 0.  0.
     999903    2    3    3    0    0  0.41583789343E-02  0.11699257849E+00 -0.45204058736E-01  0.12707771389E+00  0.20019563019E-01 0.  0.
         14    1    1    2    0    0  0.13387433897E-03  0.21364641280E-01 -0.11435576659E-01  0.24232998843E-01  0.00000000000E+00 0.  1.
     999901    1    3    3    0    0 -0.42922532733E-02 -0.13835721977E+00  0.56639635396E-01  0.89261928727E+00  0.88000000000E+00 0.  1.
        -11    1    4    4    0    0 -0.60918430267E-02  0.70684578296E-01 -0.22046780465E-01  0.74294964905E-01  0.51100000000E-03 0. -1.
         11    1    4    4    0    0  0.10250221961E-01  0.46308000198E-01 -0.23157278271E-01  0.52782748986E-01  0.51100000000E-03 0.  1.
</event>
<event>
 8    1  0.1157726E+005  0.1043930E+01  0.7957747E-01            NaN
         13   -1    0    0    0    0  0.00000000000E+00  0.00000000000E+00  0.74505805969E-08  0.10566000000E+00  0.10566000000E+00 0. -1.
     999900   -1    0    0    0    0 -0.00000000000E+00 -0.00000000000E+00 -0.74505805969E-08  0.93827000000E+00  0.93827000000E+00 0. -1.
     999902    2    1    2    0    0 -0.11338501410E-01 -0.16106129999E-01  0.13187208555E-01  0.10202261710E+01  0.10199507677E+01 0.  0.
     999903    2    3    3    0    0 -0.60900872389E-01  0.56612017284E-01  0.99802472498E-01  0.13160557624E+00  0.21110599752E-01 0.  0.
         14    1    1    2    0    0  0.11338501410E-01  0.16106129999E-01 -0.13187208555E-01  0.23703828957E-01  0.00000000000E+00 0.  1.
     999901    1    3    3    0    0  0.49562370979E-01 -0.72718147283E-01 -0.86615263943E-01  0.88862059480E+00  0.88000000000E+00 0. -1.
        -11    1    4    4    0    0 -0.90937997764E-02  0.20127548112E-01  0.20942959025E-01  0.30441485527E-01  0.51100000000E-03 0.  1.
         11    1    4    4    0    0 -0.51807072612E-01  0.36484469172E-01  0.78859513473E-01  0.10116409071E+00  0.51100000000E-03 0. -1.
</event>
<event>
 8    1  0.1157726E+005  0.1043930E+01  0.7957747E-01            NaN
         13   -1    0    0    0    0  0.00000000000E+00  0.00000000000E+00  0.74505805969E-08  0.10566000000E+00  0.10566000000E+00 0.  1.
     999900   -1    0    0    0    0 -0.00000000000E+00 -0.00000000000E+00 -0.74505805969E-08  0.93827000000E+00  0.93827000000E+00 0. -1.
     999902    2    1    2    0    0 -0.20746522764E-01 -0.80060288600E-04  0.10596010138E-01  0.10206340766E+01  0.10203681778E+01 0.  0.
     999903    2    3    3    0    0  0.11296152556E+00 -0.52353162321E-01  0.26794626711E-01  0.12885343397E+00  0.19598356167E-01 0.  0.
         14    1    1    2    0    0  0.20746522764E-01  0.80060288600E-04 -0.10596010138E-01  0.23295923405E-01  0.00000000000E+00 0. -1.
     999901    1    3    3    0    0 -0.13370804832E+00  0.52273102032E-01 -0.16198616573E-01  0.89178064262E+00  0.88000000000E+00 0. -1.
        -11    1    4    4    0    0  0.93634386662E-01 -0.40375229977E-01  0.14488125089E-01  0.10299380783E+00  0.51100000000E-03 0. -1.
         11    1    4    4    0    0  0.19327138893E-01 -0.11977932344E-01  0.12306501622E-01  0.25859626142E-01  0.51100000000E-03 0.  1.
</event>
<event>
 8    1  0.1157726E+005  0.1043930E+01  0.7957747E-01            NaN
         13   -1    0    0    0    0  0.00000000000E+00  0.00000000000E+00  0.74505805969E-08  0.10566000000E+00  0.10566000000E+00 0.  1.
     999900   -1    0    0    0    0 -0.00000000000E+00 -0.00000000000E+00 -0.74505805969E-08  0.93827000000E+00  0.93827000000E+00 0. -1.
     999902    2    1    2    0    0 -0.81867008807E-02 -0.57336255208E-02  0.19582384145E-01  0.10219444070E+01  0.10217078861E+01 0.  0.
     999903    2    3    3    0    0 -0.36250996694E-01 -0.68138038364E-01 -0.10353635990E+00  0.13074289182E+00  0.20420551051E-01 0.  0.
         14    1    1    2    0    0  0.81867008807E-02  0.57336255208E-02 -0.19582384145E-01  0.21985593049E-01  0.00000000000E+00 0. -1.
     999901    1    3    3    0    0  0.28064295813E-01  0.62404412843E-01  0.12311874405E+00  0.89120151513E+00  0.88000000000E+00 0.  1.
        -11    1    4    4    0    0 -0.24281068979E-01 -0.30372654435E-01 -0.39428766364E-01  0.55380115440E-01  0.51100000000E-03 0. -1.
         11    1    4    4    0    0 -0.11969927715E-01 -0.37765383929E-01 -0.64107593539E-01  0.75362776376E-01  0.51100000000E-03 0.  1.
</event>
<event>
 8    1  0.1157726E+005  0.1043930E+01  0.7957747E-01            NaN
         13   -1    0    0    0    0  0.00000000000E+00  0.00000000000E+00  0.74505805969E-08  0.10566000000E+00  0.10566000000E+00 0.  1.
     999900   -1    0    0    0    0 -0.00000000000E+00 -0.00000000000E+00 -0.74505805969E-08  0.93827000000E+00  0.93827000000E+00 0. -1.
     999902    2    1    2    0    0  0.50388481210E-02 -0.20844754822E-01 -0.87311017391E-02  0.10207756066E+01  0.10205129657E+01 0.  0.
     999903    2    3    3    0    0 -0.53642878444E-01 -0.10139488357E+00 -0.65073023661E-01  0.13336010056E+00  0.19797403660E-01 0.  0.
         14    1    1    2    0    0 -0.50388481210E-02  0.20844754822E-01  0.87311017391E-02  0.23154393353E-01  0.00000000000E+00 0.  1.
     999901    1    3    3    0    0  0.58681726565E-01  0.80550128748E-01  0.56341921922E-01  0.88741550608E+00  0.88000000000E+00 0.  1.
        -11    1    4    4    0    0 -0.13420136738E-01 -0.10646106234E-01 -0.99695837023E-02  0.19826582363E-01  0.51100000000E-03 0. -1.
         11    1    4    4    0    0 -0.40222741706E-01 -0.90748777336E-01 -0.55103439959E-01  0.11353351820E+00  0.51100000000E-03 0.  1.
</event>
<event>
 8    1  0.1157726E+005  0.1043930E+01  0.7957747E-01            NaN
         13   -1    0    0    0    0  0.00000000000E+00  0.00000000000E+00  0.74505805969E-08  0.10566000000E+00  0.10566000000E+00 0.  1.
     999900   -1    0    0    0    0 -0.00000000000E+00 -0.00000000000E+00 -0.74505805969E-08  0.93827000000E+00  0.93827000000E+00 0. -1.
     999902    2    1    2    0    0 -0.74557378369E-02  0.19768068704E-01  0.11120459147E-01  0.10200547162E+01  0.10197752668E+01 0.  0.
     999903    2    3    3    0    0  0.10198647726E+00 -0.11137491669E-02 -0.76587323318E-01  0.12870388519E+00  0.17221788188E-01 0.  0.
         14    1    1    2    0    0  0.74557378369E-02 -0.19768068704E-01 -0.11120459147E-01  0.23875283844E-01  0.00000000000E+00 0.  1.
     999901    1    3    3    0    0 -0.10944221510E+00  0.20881817871E-01  0.87707782465E-01  0.89135083097E+00  0.88000000000E+00 0.  1.
        -11    1    4    4    0    0  0.48819484716E-02 -0.31734454032E-02 -0.17889724047E-02  0.61127505978E-02  0.51100000000E-03 0.  1.
         11    1    4    4    0    0  0.97104528788E-01  0.20596962363E-02 -0.74798350914E-01  0.12259113459E+00  0.51100000000E-03 0. -1.
</event>
<event>
 8    1  0.1157726E+005  0.1043930E+01  0.7957747E-01            NaN
         13   -1    0    0    0    0  0.00000000000E+00  0.00000000000E+00  0.74505805969E-08  0.10566000000E+00  0.10566000000E+00 0. -1.
     999900   -1    0    0    0    0 -0.00000000000E+00 -0.00000000000E+00 -0.74505805969E-08  0.93827000000E+00  0.93827000000E+00 0.  1.
     999902    2    1    2    0    0  0.22186534636E-01 -0.87528444551E-02  0.19072964595E-02  0.10200031869E+01  0.10197225156E+01 0.  0.
     999903    2    3    3    0    0 -0.32565648516E-01 -0.11529672005E+00 -0.47842590437E-01  0.13049520480E+00  0.19652732567E-01 0.  0.
         14    1    1    2    0    0 -0.22186534636E-01  0.87528444551E-02 -0.19072964595E-02  0.23926813097E-01  0.00000000000E+00 0. -1.
     999901    1    3    3    0    0  0.54752183152E-01  0.10654387559E+00  0.49749886897E-01  0.88950798211E+00  0.88000000000E+00 0.  1.
        -11    1    4    4    0    0 -0.22049053458E-01 -0.97344823538E-01 -0.33761316189E-01  0.10536727680E+00  0.51100000000E-03 0.  1.
         11    1    4    4    0    0 -0.10516595058E-01 -0.17951896512E-01 -0.14081274248E-01  0.25127927997E-01  0.51100000000E-03 0. -1.
</event>
<event>
 8    1  0.1157726E+005  0.1043930E+01  0.7957747E-01            NaN
         13   -1    0    0    0    0  0.00000000000E+00  0.00000000000E+00  0.74505805969E-08  0.10566000000E+00  0.10566000000E+00 0. -1.
     999900   -1    0    0    0    0 -0.00000000000E+00 -0.00000000000E+00 -0.74505805969E-08  0.93827000000E+00  0.93827000000E+00 0.  1.
     999902    2    1    2    0    0 -0.48446103679E-02  0.16989717392E-02 -0.22687822655E-01  0.10206685716E+01  0.10204034687E+01 0.  0.
     999903    2    3    3    0    0 -0.11115613366E+00 -0.30473648064E-01  0.57038709865E-01  0.13011057941E+00  0.19774204817E-01 0.  0.
         14    1    1    2    0    0  0.48446103679E-02 -0.16989717392E-02  0.22687822655E-01  0.23261428404E-01  0.00000000000E+00 0. -1.
     999901    1    3    3    0    0  0.10631152329E+00  0.32172619803E-01 -0.79726532520E-01  0.89055799218E+00  0.88000000000E+00 0.  1.
        -11    1    4    4    0    0 -0.69002184261E-02 -0.31983800863E-02  0.98779973718E-02  0.12477123169E-01  0.51100000000E-03 0.  1.
         11    1    4    4    0    0 -0.10425591523E+00 -0.27275267977E-01  0.47160712493E-01  0.11763345625E+00  0.51100000000E-03 0. -1.
</event>
<event>
 8    1  0.1157726E+005  0.1043930E+01  0.7957747E-01            NaN
         13   -1    0    0    0    0  0.00000000000E+00  0.00000000000E+00  0.74505805969E-08  0.10566000000E+00  0.10566000000E+00 0. -1.
     999900   -1    0    0    0    0 -0.00000000000E+00 -0.00000000000E+00 -0.74505805969E-08  0.93827000000E+00  0.93827000000E+00 0. -1.
     999902    2    1    2    0    0 -0.97568013761E-02 -0.20482334117E-01 -0.68646629227E-02  0.10202267348E+01  0.10199513447E+01 0.  0.
     999903    2    3    3    0    0  0.60494645371E-01  0.92696778419E-01 -0.61995833568E-01  0.12849570850E+00  0.20380600496E-01 0.  0.
         14    1    1    2    0    0  0.97568013761E-02  0.20482334117E-01  0.68646629227E-02  0.23703265198E-01  0.00000000000E+00 0. -1.
     999901    1    3    3    0    0 -0.70251446747E-01 -0.11317911254E+00  0.55131170645E-01  0.89173102630E+00  0.88000000000E+00 0.  1.
        -11    1    4    4    0    0  0.25576091168E-01  0.22836680642E-01 -0.22069949704E-01  0.40779826178E-01  0.51100000000E-03 0. -1.
         11    1    4    4    0    0  0.34918554202E-01  0.69860097777E-01 -0.39925883864E-01  0.87715882327E-01  0.51100000000E-03 0.  1.
</event>
<event>
 8    1  0.1157726E+005  0.1043930E+01  0.7957747E-01            NaN
         13   -1    0    0    0    0  0.00000000000E+00  0.00000000000E+00  0.74505805969E-08  0.10566000000E+00  0.10566000000E+00 0. -1.
     999900   -1    0    0    0    0 -0.00000000000E+00 -0.00000000000E+00 -0.74505805969E-08  0.93827000000E+00  0.93827000000E+00 0.  1.
     999902    2    1    2    0    0  0.20735810295E-01 -0.91806863885E-02  0.56370745452E-02  0.10205625988E+01  0.10202950468E+01 0.  0.
     999903    2    3    3    0    0  0.12897313149E+00  0.57126655475E-03 -0.29540716935E-01  0.13317998946E+00  0.15161155741E-01 0.  0.
         14    1    1    2    0    0 -0.20735810295E-01  0.91806863885E-02 -0.56370745452E-02  0.23367401237E-01  0.00000000000E+00 0. -1.
     999901    1    3    3    0    0 -0.10823732119E+00 -0.97519529432E-02  0.35177791480E-01  0.88738260931E+00  0.88000000000E+00 0.  1.
        -11    1    4    4    0    0  0.11641850027E+00  0.46889947640E-02 -0.28283931063E-01  0.11989785550E+00  0.51100000000E-03 0. -1.
         11    1    4    4    0    0  0.12554631222E-01 -0.41177282093E-02 -0.12567858720E-02  0.13282133957E-01  0.51100000000E-03 0.  1.
</event>
<event>
 8    1  0.1157726E+005  0.1043930E+01  0.7957747E-01            NaN
         13   -1    0    0    0    0  0.00000000000E+00  0.00000000000E+00  0.74505805969E-08  0.10566000000E+00  0.10566000000E+00 0. -1.
     999900   -1    0    0    0    0 -0.00000000000E+00 -0.00000000000E+00 -0.74505805969E-08  0.93827000000E+00  0.93827000000E+00 0. -1.
     999902    2    1    2    0    0  0.18946055817E-01  0.10242884164E-01  0.14723337148E-01  0.10178407999E+01  0.10175063870E+01 0.  0.
     999903    2    3    3    0    0 -0.11814241403E+00  0.22986945580E-02  0.41491636271E-01  0.12678922978E+00  0.19774703959E-01 0.  0.
         14    1    1    2    0    0 -0.18946055817E-01 -0.10242884164E-01 -0.14723337148E-01  0.26089200137E-01  0.00000000000E+00 0.  1.
     999901    1    3    3    0    0  0.13708846985E+00  0.79441896062E-02 -0.26768299123E-01  0.89105157009E+00  0.88000000000E+00 0. -1.
        -11    1    4    4    0    0 -0.40501329978E-01  0.46530691918E-02  0.23484376048E-01  0.47050885457E-01  0.51100000000E-03 0. -1.
         11    1    4    4    0    0 -0.77641084055E-01 -0.23543746338E-02  0.18007260223E-01  0.79738344320E-01  0.51100000000E-03 0.  1.
</event>
<event>
 8    1  0.1157726E+005  0.1043930E+01  0.7957747E-01            NaN
         13   -1    0    0    0    0  0.00000000000E+00  0.00000000000E+00  0.74505805969E-08  0.10566000000E+00  0.10566000000E+00 0. -1.
     999900   -1    0    0    0    0 -0.00000000000E+00 -0.00000000000E+00 -0.74505805969E-08  0.93827000000E+00  0.93827000000E+00 0.  1.
     999902    2    1    2    0    0 -0.16830898773E-01  0.17571274232E-01 -0.55305591912E-02  0.10189777272E+01  0.10186721713E+01 0.  0.
     999903    2    3    3    0    0 -0.12372379018E+00  0.25775505486E-01  0.31923109002E-01  0.13168060850E+00  0.18674710833E-01 0.  0.
         14    1    1    2    0    0  0.16830898773E-01 -0.17571274232E-01  0.55305591912E-02  0.24952272775E-01  0.00000000000E+00 0. -1.
     999901    1    3    3    0    0  0.10689289141E+00 -0.82042312533E-02 -0.37453668193E-01  0.88729711873E+00  0.88000000000E+00 0.  1.
        -11    1    4    4    0    0 -0.12099162646E+00  0.27468791499E-01  0.32752605157E-01  0.12832187048E+00  0.51100000000E-03 0. -1.
         11    1    4    4    0    0 -0.27321637288E-02 -0.16932860131E-02 -0.82949615459E-03  0.33587380121E-02  0.51100000000E-03 0.  1.
</event>
<event>
 8    1  0.1157726E+005  0.1043930E+01  0.7957747E-01            NaN
         13   -1    0    0    0    0  0.00000000000E+00  0.00000000000E+00  0.74505805969E-08  0.10566000000E+00  0.10566000000E+00 0.  1.
     999900   -1    0    0    0    0 -0.00000000000E+00 -0.00000000000E+00 -0.74505805969E-08  0.93827000000E+00  0.93827000000E+00 0.  1.
     999902    2    1    2    0    0  0.23191067229E-02  0.15365127102E-01 -0.17153424737E-01  0.10207846902E+01  0.10205222576E+01 0.  0.
     999903    2    3    3    0    0  0.83270945379E-01  0.10026859919E+00 -0.22791187784E-01  0.13298201833E+00  0.13301752935E-01 0.  0.
         14    1    1    2    0    0 -0.23191067229E-02 -0.15365127102E-01  0.17153424737E-01  0.23145309829E-01  0.00000000000E+00 0.  1.
     999901    1    3    3    0    0 -0.80951838656E-01 -0.84903472087E-01  0.56377630468E-02  0.88780267184E+00  0.88000000000E+00 0.  1.
        -11    1    4    4    0    0  0.37848446877E-01  0.36008099407E-01 -0.68722772606E-02  0.52693239317E-01  0.51100000000E-03 0.  1.
         11    1    4    4    0    0  0.45422498502E-01  0.64260499782E-01 -0.15918910523E-01  0.80288779015E-01  0.51100000000E-03 0. -1.
</event>
<event>
 8    1  0.1157726E+005  0.1043930E+01  0.7957747E-01            NaN
         13   -1    0    0    0    0  0.00000000000E+00  0.00000000000E+00  0.74505805969E-08  0.10566000000E+00  0.10566000000E+00 0. -1.
     999900   -1    0    0    0    0 -0.00000000000E+00 -0.00000000000E+00 -0.74505805969E-08  0.93827000000E+00  0.93827000000E+00 0.  1.
     999902    2    1    2    0    0 -0.18454776796E-01 -0.96223155215E-02  0.12098829387E-01  0.10198561674E+01  0.10195719949E+01 0.  0.
     999903    2    3    3    0    0  0.17057408526E-01  0.59940673904E-01 -0.11000292501E+00  0.12799913671E+00  0.19982390056E-01 0.  0.
         14    1    1    2    0    0  0.18454776796E-01  0.96223155215E-02 -0.12098829387E-01  0.24073832581E-01  0.00000000000E+00 0.  1.
     999901    1    3    3    0    0 -0.35512185322E-01 -0.69562989426E-01  0.12210175440E+00  0.89185703071E+00  0.88000000000E+00 0. -1.
        -11    1    4    4    0    0 -0.28405030516E-02  0.14259721002E-01 -0.35532433291E-01  0.38395612213E-01  0.51100000000E-03 0.  1.
         11    1    4    4    0    0  0.19897911578E-01  0.45680952903E-01 -0.74470491722E-01  0.89603524493E-01  0.51100000000E-03 0. -1.
</event>
<event>
 8    1  0.1157726E+005  0.1043930E+01  0.7957747E-01            NaN
         13   -1    0    0    0    0  0.00000000000E+00  0.00000000000E+00  0.74505805969E-08  0.10566000000E+00  0.10566000000E+00 0. -1.
     999900   -1    0    0    0    0 -0.00000000000E+00 -0.00000000000E+00 -0.74505805969E-08  0.93827000000E+00  0.93827000000E+00 0. -1.
     999902    2    1    2    0    0  0.18824008585E-01  0.76386025742E-02  0.74066431888E-02  0.10223070975E+01  0.10220783980E+01 0.  0.
     999903    2    3    3    0    0  0.81938281913E-01  0.50903970701E-01 -0.90219182831E-01  0.13360798900E+00  0.20161783082E-01 0.  0.
         14    1    1    2    0    0 -0.18824008585E-01 -0.76386025742E-02 -0.74066431888E-02  0.21622902484E-01  0.00000000000E+00 0. -1.
     999901    1    3    3    0    0 -0.63114273328E-01 -0.43265368127E-01  0.97625826020E-01  0.88869910852E+00  0.88000000000E+00 0.  1.
        -11    1    4    4    0    0  0.42210222468E-01  0.35644879031E-01 -0.58961440173E-01  0.80802059567E-01  0.51100000000E-03 0.  1.
         11    1    4    4    0    0  0.39728059446E-01  0.15259091669E-01 -0.31257742658E-01  0.52805929430E-01  0.51100000000E-03 0. -1.
</event>
<event>
 8    1  0.1157726E+005  0.1043930E+01  0.7957747E-01            NaN
         13   -1    0    0    0    0  0.00000000000E+00  0.00000000000E+00  0.74505805969E-08  0.10566000000E+00  0.10566000000E+00 0.  1.
     999900   -1    0    0    0    0 -0.00000000000E+00 -0.00000000000E+00 -0.74505805969E-08  0.93827000000E+00  0.93827000000E+00 0.  1.
     999902    2    1    2    0    0 -0.11303722624E-02  0.21486991755E-01 -0.71176598251E-02  0.10212666014E+01  0.10210151034E+01 0.  0.
     999903    2    3    3    0    0  0.35449233058E-02 -0.83415555111E-01  0.96425542725E-01  0.12899556770E+00  0.19267845784E-01 0.  0.
         14    1    1    2    0    0  0.11303722624E-02 -0.21486991755E-01  0.71176598251E-02  0.22663398631E-01  0.00000000000E+00 0. -1.
     999901    1    3    3    0    0 -0.46752955682E-02  0.10490254687E+00 -0.10354320255E+00  0.89227103367E+00  0.88000000000E+00 0.  1.
        -11    1    4    4    0    0 -0.17593411172E-02 -0.57090498053E-01  0.52918066135E-01  0.77865288117E-01  0.51100000000E-03 0. -1.
         11    1    4    4    0    0  0.53042644230E-02 -0.26325057059E-01  0.43507476590E-01  0.51130279585E-01  0.51100000000E-03 0.  1.
</event>
<event>
 8    1  0.1157726E+005  0.1043930E+01  0.7957747E-01            NaN
         13   -1    0    0    0    0  0.00000000000E+00  0.00000000000E+00  0.74505805969E-08  0.10566000000E+00  0.10566000000E+00 0. -1.
     999900   -1    0    0    0    0 -0.00000000000E+00 -0.00000000000E+00 -0.74505805969E-08  0.93827000000E+00  0.93827000000E+00 0.  1.
     999902    2    1    2    0    0  0.21639514313E-02  0.52834716186E-02 -0.21320141920E-01  0.10218586111E+01  0.10216202204E+01 0.  0.
     999903    2    3    3    0    0 -0.85949100294E-01 -0.91990004555E-01  0.28825352643E-01  0.13071293853E+00  0.20138583971E-01 0.  0.
         14    1    1    2    0    0 -0.21639514313E-02 -0.52834716186E-02  0.21320141920E-01  0.22071388938E-01  0.00000000000E+00 0. -1.
     999901    1    3    3    0    0  0.88113051726E-01  0.97273476173E-01 -0.50145494563E-01  0.89114567253E+00  0.88000000000E+00 0.  1.
        -11    1    4    4    0    0 -0.59011786968E-01 -0.63669020331E-01  0.29291982976E-01  0.91621048557E-01  0.51100000000E-03 0.  1.
         11    1    4    4    0    0 -0.26937313326E-01 -0.28320984224E-01 -0.46663033334E-03  0.39091889971E-01  0.51100000000E-03 0. -1.
</event>
<event>
 8    1  0.1157726E+005  0.1043930E+01  0.7957747E-01            NaN
         13   -1    0    0    0    0  0.00000000000E+00  0.00000000000E+00  0.74505805969E-08  0.10566000000E+00  0.10566000000E+00 0.  1.
     999900   -1    0    0    0    0 -0.00000000000E+00 -0.00000000000E+00 -0.74505805969E-08  0.93827000000E+00  0.93827000000E+00 0.  1.
     999902    2    1    2    0    0  0.24018472836E-02 -0.23376302224E-01 -0.60059981910E-03  0.10204229565E+01  0.10201521597E+01 0.  0.
     999903    2    3    3    0    0 -0.55717635625E-01  0.85714526983E-02 -0.11600808544E+00  0.13041316939E+00  0.19281964135E-01 0.  0.
         14    1    1    2    0    0 -0.24018472836E-02  0.23376302224E-01  0.60059981910E-03  0.23507043544E-01  0.00000000000E+00 0. -1.
     999901    1    3    3    0    0  0.58119482909E-01 -0.31947754922E-01  0.11540748562E+00  0.89000978707E+00  0.88000000000E+00 0. -1.
        -11    1    4    4    0    0 -0.29317436152E-01  0.13440964741E-01 -0.55054971967E-01  0.63808170754E-01  0.51100000000E-03 0. -1.
         11    1    4    4    0    0 -0.26400199473E-01 -0.48695120423E-02 -0.60953113475E-01  0.66604998634E-01  0.51100000000E-03 0.  1.
</event>
<event>
 8    1  0.1157726E+005  0.1043930E+01  0.7957747E-01            NaN
         13   -1    0    0    0    0  0.00000000000E+00  0.00000000000E+00  0.74505805969E-08  0.10566000000E+00  0.10566000000E+00 0. -1.
     999900   -1    0    0    0    0 -0.00000000000E+00 -0.00000000000E+00 -0.74505805969E-08  0.93827000000E+00  0.93827000000E+00 0. -1.
     999902    2    1    2    0    0 -0.19020342471E-02  0.23977866991E-01 -0.26050390881E-03  0.10198754016E+01  0.10195916885E+01 0.  0.
     999903    2    3    3    0    0 -0.68640020632E-01  0.57282280268E-01 -0.94627898117E-01  0.13169279212E+00  0.19895736470E-01 0.  0.
         14    1    1    2    0    0  0.19020342471E-02 -0.23977866991E-01  0.26050390881E-03  0.24054598354E-01  0.00000000000E+00 0.  1.
     999901    1    3    3    0    0  0.66737986385E-01 -0.33304413278E-01  0.94367394208E-01  0.88818260952E+00  0.88000000000E+00 0.  1.
        -11    1    4    4    0    0 -0.44257471238E-01  0.24614169016E-01 -0.48333541886E-01  0.70006953004E-01  0.51100000000E-03 0.  1.
         11    1    4    4    0    0 -0.24382549394E-01  0.32668111253E-01 -0.46294356232E-01  0.61685839118E-01  0.51100000000E-03 0. -1.
</event>
<event>
 8    1  0.1157726E+005  0.1043930E+01  0.7957747E-01            NaN
         13   -1    0    0    0    0  0.00000000000E+00  0.00000000000E+00  0.74505805969E-08  0.10566000000E+00  0.10566000000E+00 0. -1.
     999900   -1    0    0    0    0 -0.00000000000E+00 -0.00000000000E+00 -0.74505805969E-08  0.93827000000E+00  0.93827000000E+00 0. -1.
     999902    2    1    2    0    0  0.17811156210E-01  0.14113366329E-01  0.57918201890E-02  0.10204785699E+01  0.10202090678E+01 0.  0.
     999903    2    3    3    0    0  0.59566417319E-01 -0.45940172852E-01 -0.10451761518E+00  0.13058076621E+00  0.21650567359E-01 0.  0.
         14    1    1    2    0    0 -0.17811156210E-01 -0.14113366329E-01 -0.57918201890E-02  0.23451430144E-01  0.00000000000E+00 0. -1.
     999901    1    3    3    0    0 -0.41755261110E-01  0.60053539181E-01  0.11030943537E+00  0.88989780364E+00  0.88000000000E+00 0.  1.
        -11    1    4    4    0    0  0.54504950670E-01 -0.44798492785E-01 -0.85452203132E-01  0.11081531818E+00  0.51100000000E-03 0.  1.
         11    1    4    4    0    0  0.50614666495E-02 -0.11416800671E-02 -0.19065412052E-01  0.19765448027E-01  0.51100000000E-03 0. -1.
</event>
<event>
 8    1  0.1157726E+005  0.1043930E+01  0.7957747E-01            NaN
         13   -1    0    0    0    0  0.00000000000E+00  0.00000000000E+00  0.74505805969E-08  0.10566000000E+00  0.10566000000E+00 0. -1.
     999900   -1    0    0    0    0 -0.00000000000E+00 -0.00000000000E+00 -0.74505805969E-08  0.93827000000E+00  0.93827000000E+00 0.  1.
     999902    2    1    2    0    0  0.11607445014E-01 -0.39845025339E-02 -0.19949737796E-01  0.10205077653E+01  0.10202389416E+01 0.  0.
     999903    2    3    3    0    0  0.12942702873E+00 -0.36018017111E-02  0.15636026282E-01  0.13194265943E+00  0.20001282909E-01 0.  0.
         14    1    1    2    0    0 -0.11607445014E-01  0.39845025339E-02  0.19949737796E-01  0.23422234700E-01  0.00000000000E+00 0. -1.
     999901    1    3    3    0    0 -0.11781958372E+00 -0.38270082285E-03 -0.35585764078E-01  0.88856510587E+00  0.88000000000E+00 0.  1.
        -11    1    4    4    0    0  0.12646719558E+00 -0.50072702056E-02  0.12178503689E-01  0.12715188314E+00  0.51100000000E-03 0. -1.
         11    1    4    4    0    0  0.29598331454E-02  0.14054684945E-02  0.34575225931E-02  0.47907762857E-02  0.51100000000E-03 0.  1.
</event>
<event>
 8    1  0.1157726E+005  0.1043930E+01  0.7957747E-01            NaN
         13   -1    0    0    0    0  0.00000000000E+00  0.00000000000E+00  0.74505805969E-08  0.10566000000E+00  0.10566000000E+00 0. -1.
     999900   -1    0    0    0    0 -0.00000000000E+00 -0.00000000000E+00 -0.74505805969E-08  0.93827000000E+00  0.93827000000E+00 0. -1.
     999902    2    1    2    0    0  0.10425408052E-01  0.24646122775E-01 -0.27897210521E-02  0.10170245536E+01  0.10166685987E+01 0.  0.
     999903    2    3    3    0    0  0.78890771663E-01 -0.92525692786E-01  0.26378637189E-01  0.12614435209E+00  0.20779975568E-01 0.  0.
         14    1    1    2    0    0 -0.10425408052E-01 -0.24646122775E-01  0.27897210521E-02  0.26905446371E-01  0.00000000000E+00 0. -1.
     999901    1    3    3    0    0 -0.68465363610E-01  0.11717181556E+00 -0.29168358241E-01  0.89088020154E+00  0.88000000000E+00 0. -1.
        -11    1    4    4    0    0  0.12074446864E-01 -0.27202089796E-01  0.90086997374E-02  0.31099256395E-01  0.51100000000E-03 0.  1.
         11    1    4    4    0    0  0.66816324799E-01 -0.65323602990E-01  0.17369937452E-01  0.95045095692E-01  0.51100000000E-03 0. -1.
</event>
<event>
 8    1  0.1157726E+005  0.1043930E+01  0.7957747E-01            NaN
         13   -1    0    0    0    0  0.00000000000E+00  0.00000000000E+00  0.74505805969E-08  0.10566000000E+00  0.10566000000E+00 0. -1.
     999900   -1    0    0    0    0 -0.00000000000E+00 -0.00000000000E+00 -0.74505805969E-08  0.93827000000E+00  0.93827000000E+00 0.  1.
     999902    2    1    2    0    0 -0.68105877123E-02  0.22687986479E-01 -0.63531002632E-02  0.10194046923E+01  0.10191096290E+01 0.  0.
     999903    2    3    3    0    0 -0.95817717405E-01 -0.57795783636E-01  0.60433673979E-01  0.12875303221E+00  0.20092953424E-01 0.  0.
         14    1    1    2    0    0  0.68105877123E-02 -0.22687986479E-01  0.63531002632E-02  0.24525307713E-01  0.00000000000E+00 0.  1.
     999901    1    3    3    0    0  0.89007129693E-01  0.80483770115E-01 -0.66786774242E-01  0.89065166008E+00  0.88000000000E+00 0.  1.
        -11    1    4    4    0    0 -0.28108208501E-01 -0.88249737656E-02  0.22009102021E-01  0.36777890639E-01  0.51100000000E-03 0.  1.
         11    1    4    4    0    0 -0.67709508904E-01 -0.48970809871E-01  0.38424571958E-01  0.91975141569E-01  0.51100000000E-03 0. -1.
</event>
<event>
 8    1  0.1157726E+005  0.1043930E+01  0.7957747E-01            NaN
         13   -1    0    0    0    0  0.00000000000E+00  0.00000000000E+00  0.74505805969E-08  0.10566000000E+00  0.10566000000E+00 0. -1.
     999900   -1    0    0    0    0 -0.00000000000E+00 -0.00000000000E+00 -0.74505805969E-08  0.93827000000E+00  0.93827000000E+00 0.  1.
     999902    2    1    2    0    0  0.19218249996E-01  0.10917197158E-02 -0.13739578202E-01  0.10202802855E+01  0.10200061530E+01 0.  0.
     999903    2    3    3    0    0 -0.11746496404E-01 -0.11202000374E+00 -0.63737042043E-01  0.13109367751E+00  0.20896897840E-01 0.  0.
         14    1    1    2    0    0 -0.19218249996E-01 -0.10917197158E-02  0.13739578202E-01  0.23649714460E-01  0.00000000000E+00 0. -1.
     999901    1    3    3    0    0  0.30964746401E-01  0.11311172346E+00  0.49997463841E-01  0.88918660803E+00  0.88000000000E+00 0. -1.
        -11    1    4    4    0    0 -0.10908183272E-01 -0.24581414707E-01 -0.18458654979E-01  0.32622346266E-01  0.51100000000E-03 0. -1.
         11    1    4    4    0    0 -0.83831313272E-03 -0.87438589036E-01 -0.45278387064E-01  0.98471331247E-01  0.51100000000E-03 0.  1.
</event>
<event>
 8    1  0.1157726E+005  0.1043930E+01  0.7957747E-01            NaN
         13   -1    0    0    0    0  0.00000000000E+00  0.00000000000E+00  0.74505805969E-08  0.10566000000E+00  0.10566000000E+00 0. -1.
     999900   -1    0    0    0    0 -0.00000000000E+00 -0.00000000000E+00 -0.74505805969E-08  0.93827000000E+00  0.93827000000E+00 0. -1.
     999902    2    1    2    0    0 -0.12858403468E-01 -0.17164905774E-01  0.18279602675E-02  0.10224052708E+01  0.10221786653E+01 0.  0.
     999903    2    3    3    0    0  0.47303272295E-01  0.81718222432E-01 -0.87501402022E-01  0.13034191245E+00  0.20421834847E-01 0.  0.
         14    1    1    2    0    0  0.12858403468E-01  0.17164905774E-01 -0.18279602675E-02  0.21524729237E-01  0.00000000000E+00 0. -1.
     999901    1    3    3    0    0 -0.60161675764E-01 -0.98883128206E-01  0.89329362289E-01  0.89206335831E+00  0.88000000000E+00 0.  1.
        -11    1    4    4    0    0  0.20584528162E-01  0.51396138695E-01 -0.58834940149E-01  0.80790452256E-01  0.51100000000E-03 0. -1.
         11    1    4    4    0    0  0.26718744134E-01  0.30322083737E-01 -0.28666461873E-01  0.49551460196E-01  0.51100000000E-03 0.  1.
</event>
<event>
 8    1  0.1157726E+005  0.1043930E+01  0.7957747E-01            NaN
         13   -1    0    0    0    0  0.00000000000E+00  0.00000000000E+00  0.74505805969E-08  0.10566000000E+00  0.10566000000E+00 0.  1.
     999900   -1    0    0    0    0 -0.00000000000E+00 -0.00000000000E+00 -0.74505805969E-08  0.93827000000E+00  0.93827000000E+00 0. -1.
     999902    2    1    2    0    0  0.39415509740E-02  0.54463892562E-02  0.23005275569E-01  0.10199624869E+01  0.10196808486E+01 0.  0.
     999903    2    3    3    0    0  0.76759769578E-01 -0.97896044090E-01 -0.31595658047E-01  0.12925298687E+00  0.15243074969E-01 0.  0.
         14    1    1    2    0    0 -0.39415509740E-02 -0.54463892562E-02 -0.23005275569E-01  0.23967513096E-01  0.00000000000E+00 0. -1.
     999901    1    3    3    0    0 -0.72818218604E-01  0.10334243335E+00  0.54600933615E-01  0.89070950003E+00  0.88000000000E+00 0.  1.
        -11    1    4    4    0    0  0.34757504865E-01 -0.56548464725E-01 -0.15834408051E-01  0.68240769387E-01  0.51100000000E-03 0.  1.
         11    1    4    4    0    0  0.42002264713E-01 -0.41347579365E-01 -0.15761249996E-01  0.61012217488E-01  0.51100000000E-03 0. -1.
</event>
<event>
 8    1  0.1157726E+005  0.1043930E+01  0.7957747E-01            NaN
         13   -1    0    0    0    0  0.00000000000E+00  0.00000000000E+00  0.74505805969E-08  0.10566000000E+00  0.10566000000E+00 0. -1.
     999900   -1    0    0    0    0 -0.00000000000E+00 -0.00000000000E+00 -0.74505805969E-08  0.93827000000E+00  0.93827000000E+00 0.  1.
     999902    2    1    2    0    0  0.39990007232E-02  0.16072307100E-01 -0.16775831863E-01  0.10203558702E+01  0.10200835075E+01 0.  0.
     999903    2    3    3    0    0  0.47412299625E-01 -0.87165105349E-02  0.11765988881E+00  0.12874375552E+00  0.20179232849E-01 0.  0.
         14    1    1    2    0    0 -0.39990007232E-02 -0.16072307100E-01  0.16775831863E-01  0.23574129825E-01  0.00000000000E+00 0.  1.
     999901    1    3    3    0    0 -0.43413298902E-01  0.24788817635E-01 -0.13443572068E+00  0.89161211465E+00  0.88000000000E+00 0.  1.
        -11    1    4    4    0    0  0.44319877363E-01 -0.15217989375E-02  0.97604705214E-01  0.10720777492E+00  0.51100000000E-03 0.  1.
         11    1    4    4    0    0  0.30924222624E-02 -0.71947115973E-02  0.20055183601E-01  0.21535980606E-01  0.51100000000E-03 0. -1.
</event>
<event>
 8    1  0.1157726E+005  0.1043930E+01  0.7957747E-01            NaN
         13   -1    0    0    0    0  0.00000000000E+00  0.00000000000E+00  0.74505805969E-08  0.10566000000E+00  0.10566000000E+00 0.  1.
     999900   -1    0    0    0    0 -0.00000000000E+00 -0.00000000000E+00 -0.74505805969E-08  0.93827000000E+00  0.93827000000E+00 0.  1.
     999902    2    1    2    0    0  0.11031927862E-01 -0.27747503029E-02  0.20604087705E-01  0.10203942591E+01  0.10201227930E+01 0.  0.
     999903    2    3    3    0    0  0.50016919067E-01 -0.59034680873E-01  0.10672671961E+00  0.13354471316E+00  0.21373160647E-01 0.  0.
         14    1    1    2    0    0 -0.11031927862E-01  0.27747503029E-02 -0.20604087705E-01  0.23535740943E-01  0.00000000000E+00 0.  1.
     999901    1    3    3    0    0 -0.38984991205E-01  0.56259930570E-01 -0.86122631907E-01  0.88684954589E+00  0.88000000000E+00 0.  1.
        -11    1    4    4    0    0  0.24785570153E-01 -0.22064774994E-01  0.61668468312E-01  0.70031706307E-01  0.51100000000E-03 0.  1.
         11    1    4    4    0    0  0.25231348914E-01 -0.36969905878E-01  0.45058251299E-01  0.63513006855E-01  0.51100000000E-03 0. -1.
</event>
<event>
 8    1  0.1157726E+005  0.1043930E+01  0.7957747E-01            NaN
         13   -1    0    0    0    0  0.00000000000E+00  0.00000000000E+00  0.74505805969E-08  0.10566000000E+00  0.10566000000E+00 0. -1.
     999900   -1    0    0    0    0 -0.00000000000E+00 -0.00000000000E+00 -0.74505805969E-08  0.93827000000E+00  0.93827000000E+00 0. -1.
     999902    2    1    2    0    0  0.12944677350E-01 -0.71433149799E-02  0.18969079169E-01  0.10198796864E+01  0.10195960755E+01 0.  0.
     999903    2    3    3    0    0  0.59161283749E-01  0.28088901479E-01  0.11372698151E+00  0.13288682066E+00  0.20881496649E-01 0.  0.
         14    1    1    2    0    0 -0.12944677350E-01  0.71433149799E-02 -0.18969079169E-01  0.24050313618E-01  0.00000000000E+00 0.  1.
     999901    1    3    3    0    0 -0.46216606399E-01 -0.35232216459E-01 -0.94757902336E-01  0.88699286572E+00  0.88000000000E+00 0. -1.
        -11    1    4    4    0    0  0.36367704117E-01  0.93245573858E-02  0.77766880822E-01  0.86356853503E-01  0.51100000000E-03 0.  1.
         11    1    4    4    0    0  0.22793579631E-01  0.18764344093E-01  0.35960100683E-01  0.46529967159E-01  0.51100000000E-03 0. -1.
</event>
<event>
 8    1  0.1157726E+005  0.1043930E+01  0.7957747E-01            NaN
         13   -1    0    0    0    0  0.00000000000E+00  0.00000000000E+00  0.74505805969E-08  0.10566000000E+00  0.10566000000E+00 0.  1.
     999900   -1    0    0    0    0 -0.00000000000E+00 -0.00000000000E+00 -0.74505805969E-08  0.93827000000E+00  0.93827000000E+00 0.  1.
     999902    2    1    2    0    0  0.12751362738E-01  0.15318042589E-01 -0.12510650900E-01  0.10203979779E+01  0.10201265986E+01 0.  0.
     999903    2    3    3    0    0  0.61134142126E-02 -0.82606272789E-01  0.95399786532E-01  0.12839018842E+00  0.22841871079E-01 0.  0.
         14    1    1    2    0    0 -0.12751362738E-01 -0.15318042589E-01  0.12510650900E-01  0.23532022148E-01  0.00000000000E+00 0.  1.
     999901    1    3    3    0    0  0.66379485258E-02  0.97924315377E-01 -0.10791043743E+00  0.89200778943E+00  0.88000000000E+00 0.  1.
        -11    1    4    4    0    0  0.10985922700E-01 -0.35278170489E-01  0.30482330220E-01  0.47902749266E-01  0.51100000000E-03 0. -1.
         11    1    4    4    0    0 -0.48725084875E-02 -0.47328102300E-01  0.64917456312E-01  0.80487439152E-01  0.51100000000E-03 0.  1.
</event>
<event>
 8    1  0.1157726E+005  0.1043930E+01  0.7957747E-01            NaN
         13   -1    0    0    0    0  0.00000000000E+00  0.00000000000E+00  0.74505805969E-08  0.10566000000E+00  0.10566000000E+00 0. -1.
     999900   -1    0    0    0    0 -0.00000000000E+00 -0.00000000000E+00 -0.74505805969E-08  0.93827000000E+00  0.93827000000E+00 0.  1.
     999902    2    1    2    0    0  0.18256432039E-01  0.10621452302E-01 -0.49900418026E-02  0.10222271643E+01  0.10219967526E+01 0.  0.
     999903    2    3    3    0    0 -0.88866038907E-01  0.64906064915E-01 -0.69699326469E-01  0.13171644878E+00  0.19525794108E-01 0.  0.
         14    1    1    2    0    0 -0.18256432039E-01 -0.10621452302E-01  0.49900418026E-02  0.21702835690E-01  0.00000000000E+00 0. -1.
     999901    1    3    3    0    0  0.10712247095E+00 -0.54284612613E-01  0.64709284667E-01  0.89051071553E+00  0.88000000000E+00 0.  1.
        -11    1    4    4    0    0 -0.33121810767E-01  0.24745045944E-01 -0.15322363229E-01  0.44095437215E-01  0.51100000000E-03 0. -1.
         11    1    4    4    0    0 -0.55744228140E-01  0.40161018971E-01 -0.54376963240E-01  0.87621011567E-01  0.51100000000E-03 0.  1.
</event>
<event>
 8    1  0.1157726E+005  0.1043930E+01  0.7957747E-01            NaN
         13   -1    0    0    0    0  0.00000000000E+00  0.00000000000E+00  0.74505805969E-08  0.10566000000E+00  0.10566000000E+00 0.  1.
     999900   -1    0    0    0    0 -0.00000000000E+00 -0.00000000000E+00 -0.74505805969E-08  0.93827000000E+00  0.93827000000E+00 0. -1.
     999902    2    1    2    0    0  0.12099625510E-01 -0.12221262465E-01 -0.14832596654E-01  0.10212195153E+01  0.10209669594E+01 0.  0.
     999903    2    3    3    0    0  0.78327585238E-01 -0.10425884590E+00  0.19113312012E-01  0.13329531572E+00  0.19930000949E-01 0.  0.
         14    1    1    2    0    0 -0.12099625510E-01  0.12221262465E-01  0.14832596654E-01  0.22710484742E-01  0.00000000000E+00 0.  1.
     999901    1    3    3    0    0 -0.66227959728E-01  0.92037583438E-01 -0.33945908666E-01  0.88792419954E+00  0.88000000000E+00 0. -1.
        -11    1    4    4    0    0  0.37294068351E-01 -0.49999479168E-01  0.19196094167E-01  0.65265202087E-01  0.51100000000E-03 0.  1.
         11    1    4    4    0    0  0.41033516887E-01 -0.54259366735E-01 -0.82782154870E-04  0.68030113630E-01  0.51100000000E-03 0. -1.
</event>
<event>
 8    1  0.1157726E+005  0.1043930E+01  0.7957747E-01            NaN
         13   -1    0    0    0    0  0.00000000000E+00  0.00000000000E+00  0.74505805969E-08  0.10566000000E+00  0.10566000000E+00 0. -1.
     999900   -1    0    0    0    0 -0.00000000000E+00 -0.00000000000E+00 -0.74505805969E-08  0.93827000000E+00  0.93827000000E+00 0.  1.
     999902    2    1    2    0    0  0.12624365587E-02  0.16557516174E-01 -0.16299443427E-01  0.10206616321E+01  0.10203963692E+01 0.  0.
     999903    2    3    3    0    0  0.69857490678E-01 -0.43019689359E-02  0.10611667587E+00  0.12929969338E+00  0.23644996715E-01 0.  0.
         14    1    1    2    0    0 -0.12624365587E-02 -0.16557516174E-01  0.16299443427E-01  0.23268367883E-01  0.00000000000E+00 0. -1.
     999901    1    3    3    0    0 -0.68595054119E-01  0.20859485110E-01 -0.12241611930E+00  0.89136193874E+00  0.88000000000E+00 0.  1.
        -11    1    4    4    0    0  0.36281901118E-01  0.38437895191E-02  0.36665865620E-01  0.51728115076E-01  0.51100000000E-03 0. -1.
         11    1    4    4    0    0  0.33575589560E-01 -0.81457584550E-02  0.69450810248E-01  0.77571578302E-01  0.51100000000E-03 0.  1.
</event>
<event>
 8    1  0.1157726E+005  0.1043930E+01  0.7957747E-01            NaN
         13   -1    0    0    0    0  0.00000000000E+00  0.00000000000E+00  0.74505805969E-08  0.10566000000E+00  0.10566000000E+00 0.  1.
     999900   -1    0    0    0    0 -0.00000000000E+00 -0.00000000000E+00 -0.74505805969E-08  0.93827000000E+00  0.93827000000E+00 0. -1.
     999902    2    1    2    0    0  0.90117160512E-02  0.26759633456E-02 -0.21699533278E-01  0.10202817115E+01  0.10200076123E+01 0.  0.
     999903    2    3    3    0    0 -0.78886158145E-01  0.89936465773E-02 -0.10359928127E+00  0.13209619136E+00  0.20314553090E-01 0.  0.
         14    1    1    2    0    0 -0.90117160512E-02 -0.26759633456E-02  0.21699533278E-01  0.23648288532E-01  0.00000000000E+00 0.  1.
     999901    1    3    3    0    0  0.87897874197E-01 -0.63176832317E-02  0.81899747987E-01  0.88818552011E+00  0.88000000000E+00 0.  1.
        -11    1    4    4    0    0 -0.22601013792E-01  0.14346379382E-02 -0.16136116418E-01  0.27811856905E-01  0.51100000000E-03 0. -1.
         11    1    4    4    0    0 -0.56285144353E-01  0.75590086391E-02 -0.87463164847E-01  0.10428433445E+00  0.51100000000E-03 0.  1.
</event>
<event>
 8    1  0.1157726E+005  0.1043930E+01  0.7957747E-01            NaN
         13   -1    0    0    0    0  0.00000000000E+00  0.00000000000E+00  0.74505805969E-08  0.10566000000E+00  0.10566000000E+00 0.  1.
     999900   -1    0    0    0    0 -0.00000000000E+00 -0.00000000000E+00 -0.74505805969E-08  0.93827000000E+00  0.93827000000E+00 0.  1.
     999902    2    1    2    0    0  0.20806383657E-01  0.81021214562E-02 -0.88235331816E-02  0.10199215700E+01  0.10196389578E+01 0.  0.
     999903    2    3    3    0    0  0.71516181497E-01 -0.10115714317E+00 -0.36376495872E-01  0.13128877956E+00  0.23794166443E-01 0.  0.
         14    1    1    2    0    0 -0.20806383657E-01 -0.81021214562E-02  0.88235331816E-02  0.24008429994E-01  0.00000000000E+00 0.  1.
     999901    1    3    3    0    0 -0.50709797840E-01  0.10925926462E+00  0.27552962691E-01  0.88863279045E+00  0.88000000000E+00 0. -1.
        -11    1    4    4    0    0  0.15804421515E-01 -0.27418292095E-01 -0.19967357904E-01  0.37423241221E-01  0.51100000000E-03 0.  1.
         11    1    4    4    0    0  0.55711759982E-01 -0.73738851072E-01 -0.16409137968E-01  0.93865538338E-01  0.51100000000E-03 0. -1.
</event>
<event>
 8    1  0.1157726E+005  0.1043930E+01  0.7957747E-01            NaN
         13   -1    0    0    0    0  0.00000000000E+00  0.00000000000E+00  0.74505805969E-08  0.10566000000E+00  0.10566000000E+00 0. -1.
     999900   -1    0    0    0    0 -0.00000000000E+00 -0.00000000000E+00 -0.74505805969E-08  0.93827000000E+00  0.93827000000E+00 0.  1.
     999902    2    1    2    0    0 -0.20709823086E-01 -0.16176313759E-01  0.44765432318E-02  0.10172727432E+01  0.10169234115E+01 0.  0.
     999903    2    3    3    0    0 -0.69037720753E-01 -0.68343535273E-01 -0.83959390602E-01  0.12998591301E+00  0.20251237252E-01 0.  0.
         14    1    1    2    0    0  0.20709823086E-01  0.16176313759E-01 -0.44765432318E-02  0.26657256768E-01  0.00000000000E+00 0. -1.
     999901    1    3    3    0    0  0.48327897667E-01  0.52167221514E-01  0.88435933834E-01  0.88728683022E+00  0.88000000000E+00 0. -1.
        -11    1    4    4    0    0 -0.30330374232E-02 -0.90393075152E-02 -0.14207309058E-01  0.17117743660E-01  0.51100000000E-03 0.  1.
         11    1    4    4    0    0 -0.66004683330E-01 -0.59304227758E-01 -0.69752081544E-01  0.11286816935E+00  0.51100000000E-03 0. -1.
</event>
<event>
 8    1  0.1157726E+005  0.1043930E+01  0.7957747E-01            NaN
         13   -1    0    0    0    0  0.00000000000E+00  0.00000000000E+00  0.74505805969E-08  0.10566000000E+00  0.10566000000E+00 0. -1.
     999900   -1    0    0    0    0 -0.00000000000E+00 -0.00000000000E+00 -0.74505805969E-08  0.93827000000E+00  0.93827000000E+00 0.  1.
     999902    2    1    2    0    0 -0.47259488514E-02 -0.23907925369E-01  0.26448836718E-02  0.10194163528E+01  0.10191215735E+01 0.  0.
     999903    2    3    3    0    0  0.76253897600E-01  0.39464874700E-01 -0.92986896898E-01  0.12828264525E+00  0.20922257152E-01 0.  0.
         14    1    1    2    0    0  0.47259488514E-02  0.23907925369E-01 -0.26448836718E-02  0.24513647172E-01  0.00000000000E+00 0.  1.
     999901    1    3    3    0    0 -0.80979846451E-01 -0.63372800070E-01  0.95631780570E-01  0.89113370757E+00  0.88000000000E+00 0. -1.
        -11    1    4    4    0    0  0.10213998246E-01  0.14557681582E-01 -0.18634535035E-01  0.25763518203E-01  0.51100000000E-03 0. -1.
         11    1    4    4    0    0  0.66039899354E-01  0.24907193118E-01 -0.74352361863E-01  0.10251912705E+00  0.51100000000E-03 0.  1.
</event>
<event>
 8    1  0.1157726E+005  0.1043930E+01  0.7957747E-01            NaN
         13   -1    0    0    0    0  0.00000000000E+00  0.00000000000E+00  0.74505805969E-08  0.10566000000E+00  0.10566000000E+00 0.  1.
     999900   -1    0    0    0    0 -0.00000000000E+00 -0.00000000000E+00 -0.74505805969E-08  0.93827000000E+00  0.93827000000E+00 0. -1.
     999902    2    1    2    0    0  0.65481136142E-02  0.73218255536E-02 -0.21617746684E-01  0.10201852344E+01  0.10199088678E+01 0.  0.
     999903    2    3    3    0    0  0.12808310535E+00  0.18792868049E-01  0.86981980438E-02  0.13124125668E+00  0.19752342633E-01 0.  0.
         14    1    1    2    0    0 -0.65481136142E-02 -0.73218255536E-02  0.21617746684E-01  0.23744765593E-01  0.00000000000E+00 0.  1.
     999901    1    3    3    0    0 -0.12153499174E+00 -0.11471042495E-01 -0.30315944728E-01  0.88894397773E+00  0.88000000000E+00 0. -1.
        -11    1    4    4    0    0  0.47914834849E-01  0.43261508209E-02 -0.59202751125E-02  0.48475331437E-01  0.51100000000E-03 0. -1.
         11    1    4    4    0    0  0.80168270504E-01  0.14466717228E-01  0.14618473156E-01  0.82765925243E-01  0.51100000000E-03 0.  1.
</event>
<event>
 8    1  0.1157726E+005  0.1043930E+01  0.7957747E-01            NaN
         13   -1    0    0    0    0  0.00000000000E+00  0.00000000000E+00  0.74505805969E-08  0.10566000000E+00  0.10566000000E+00 0.  1.
     999900   -1    0    0    0    0 -0.00000000000E+00 -0.00000000000E+00 -0.74505805969E-08  0.93827000000E+00  0.93827000000E+00 0. -1.
     999902    2    1    2    0    0 -0.71712900105E-02  0.20624829226E-01 -0.76910954023E-02  0.10207791052E+01  0.10205165446E+01 0.  0.
     999903    2    3    3    0    0 -0.43511483022E-01  0.12477985363E+00 -0.81765601643E-02  0.13389178745E+00  0.19922188193E-01 0.  0.
         14    1    1    2    0    0  0.71712900105E-02 -0.20624829226E-01  0.76910954023E-02  0.23150894788E-01  0.00000000000E+00 0.  1.
     999901    1    3    3    0    0  0.36340193012E-01 -0.10415502441E+00  0.48546476202E-03  0.88688731777E+00  0.88000000000E+00 0.  1.
        -11    1    4    4    0    0 -0.17199716817E-01  0.56437049578E-01  0.59704390588E-02  0.59303272146E-01  0.51100000000E-03 0.  1.
         11    1    4    4    0    0 -0.26311766205E-01  0.68342804054E-01 -0.14146999223E-01  0.74588515301E-01  0.51100000000E-03 0. -1.
</event>
<event>
 8    1  0.1157726E+005  0.1043930E+01  0.7957747E-01            NaN
         13   -1    0    0    0    0  0.00000000000E+00  0.00000000000E+00  0.74505805969E-08  0.10566000000E+00  0.10566000000E+00 0.  1.
     999900   -1    0    0    0    0 -0.00000000000E+00 -0.00000000000E+00 -0.74505805969E-08  0.93827000000E+00  0.93827000000E+00 0. -1.
     999902    2    1    2    0    0 -0.23993677243E-01 -0.41177820292E-02 -0.54940931213E-02  0.10189732828E+01  0.10186676167E+01 0.  0.
     999903    2    3    3    0    0  0.11366645410E+00 -0.52193790508E-01 -0.13103426223E-01  0.12694216429E+00  0.17273064029E-01 0.  0.
         14    1    1    2    0    0  0.23993677243E-01  0.41177820292E-02  0.54940931213E-02  0.24956717246E-01  0.00000000000E+00 0.  1.
     999901    1    3    3    0    0 -0.13766013134E+00  0.48076008479E-01  0.76093331019E-02  0.89203111846E+00  0.88000000000E+00 0. -1.
        -11    1    4    4    0    0  0.67156457719E-01 -0.35594554627E-01 -0.65258732493E-03  0.76010848724E-01  0.51100000000E-03 0.  1.
         11    1    4    4    0    0  0.46509996382E-01 -0.16599235881E-01 -0.12450838898E-01  0.50931315569E-01  0.51100000000E-03 0. -1.
</event>
<event>
 8    1  0.1157726E+005  0.1043930E+01  0.7957747E-01            NaN
         13   -1    0    0    0    0  0.00000000000E+00  0.00000000000E+00  0.74505805969E-08  0.10566000000E+00  0.10566000000E+00 0.  1.
     999900   -1    0    0    0    0 -0.00000000000E+00 -0.00000000000E+00 -0.74505805969E-08  0.93827000000E+00  0.93827000000E+00 0. -1.
     999902    2    1    2    0    0  0.40783630331E-02 -0.11478562544E-01  0.20523313169E-01  0.10200637723E+01  0.10197845374E+01 0.  0.
     999903    2    3    3    0    0  0.10879225861E+00 -0.62182534199E-01  0.37968508068E-01  0.13223483181E+00  0.18493784039E-01 0.  0.
         14    1    1    2    0    0 -0.40783630331E-02  0.11478562544E-01 -0.20523313169E-01  0.23866227740E-01  0.00000000000E+00 0.  1.
     999901    1    3    3    0    0 -0.10471389557E+00  0.50703971655E-01 -0.17445194899E-01  0.88782894045E+00  0.88000000000E+00 0. -1.
        -11    1    4    4    0    0  0.61759765924E-01 -0.25625102648E-01  0.16114210290E-01  0.68781127259E-01  0.51100000000E-03 0. -1.
         11    1    4    4    0    0  0.47032492682E-01 -0.36557431551E-01  0.21854297778E-01  0.63453704555E-01  0.51100000000E-03 0.  1.
</event>
<event>
 8    1  0.1157726E+005  0.1043930E+01  0.7957747E-01            NaN
         13   -1    0    0    0    0  0.00000000000E+00  0.00000000000E+00  0.74505805969E-08  0.10566000000E+00  0.10566000000E+00 0.  1.
     999900   -1    0    0    0    0 -0.00000000000E+00 -0.00000000000E+00 -0.74505805969E-08  0.93827000000E+00  0.93827000000E+00 0.  1.
     999902    2    1    2    0    0 -0.11897840974E-01 -0.74312708820E-02  0.19105011459E-01  0.10202280197E+01  0.10199526598E+01 0.  0.
     999903    2    3    3    0    0 -0.95309463613E-01 -0.40584917214E-01 -0.76879547895E-01  0.13046979486E+00  0.19515971071E-01 0.  0.
         14    1    1    2    0    0  0.11897840974E-01  0.74312708820E-02 -0.19105011459E-01  0.23701980289E-01  0.00000000000E+00 0. -1.
     999901    1    3    3    0    0  0.83411622639E-01  0.33153646332E-01  0.95984559354E-01  0.88975822485E+00  0.88000000000E+00 0. -1.
        -11    1    4    4    0    0 -0.43428814368E-01 -0.15850289916E-01 -0.46013805528E-01  0.65229019831E-01  0.51100000000E-03 0. -1.
         11    1    4    4    0    0 -0.51880649244E-01 -0.24734627298E-01 -0.30865742366E-01  0.65240775029E-01  0.51100000000E-03 0.  1.
</event>
<event>
 8    1  0.1157726E+005  0.1043930E+01  0.7957747E-01            NaN
         13   -1    0    0    0    0  0.00000000000E+00  0.00000000000E+00  0.74505805969E-08  0.10566000000E+00  0.10566000000E+00 0.  1.
     999900   -1    0    0    0    0 -0.00000000000E+00 -0.00000000000E+00 -0.74505805969E-08  0.93827000000E+00  0.93827000000E+00 0.  1.
     999902    2    1    2    0    0 -0.19323521545E-01 -0.62945433017E-02  0.12038788393E-01  0.10203089885E+01  0.10200355287E+01 0.  0.
     999903    2    3    3    0    0 -0.83098183010E-01  0.74950150590E-01  0.68140307473E-01  0.13249409324E+00  0.19716747895E-01 0.  0.
         14    1    1    2    0    0  0.19323521545E-01  0.62945433017E-02 -0.12038788393E-01  0.23621011542E-01  0.00000000000E+00 0.  1.
     999901    1    3    3    0    0  0.63774661464E-01 -0.81244693892E-01 -0.56101519080E-01  0.88781489522E+00  0.88000000000E+00 0.  1.
        -11    1    4    4    0    0 -0.36118468888E-01  0.30851508366E-01  0.40320928971E-01  0.62308890195E-01  0.51100000000E-03 0.  1.
         11    1    4    4    0    0 -0.46979714122E-01  0.44098642225E-01  0.27819378502E-01  0.70185203043E-01  0.51100000000E-03 0. -1.
</event>
<event>
 8    1  0.1157726E+005  0.1043930E+01  0.7957747E-01            NaN
         13   -1    0    0    0    0  0.00000000000E+00  0.00000000000E+00  0.74505805969E-08  0.10566000000E+00  0.10566000000E+00 0.  1.
     999900   -1    0    0    0    0 -0.00000000000E+00 -0.00000000000E+00 -0.74505805969E-08  0.93827000000E+00  0.93827000000E+00 0.  1.
     999902    2    1    2    0    0  0.12018114079E-01  0.23076201204E-01 -0.79992763064E-02  0.10167098870E+01  0.10163454432E+01 0.  0.
     999903    2    3    3    0    0 -0.31693377561E-01  0.56204641232E-01 -0.11015934919E+00  0.12910362944E+00  0.19215437613E-01 0.  0.
         14    1    1    2    0    0 -0.12018114079E-01 -0.23076201204E-01  0.79992763064E-02  0.27220112958E-01  0.00000000000E+00 0. -1.
     999901    1    3    3    0    0  0.43711491640E-01 -0.33128440028E-01  0.10216007289E+00  0.88760625760E+00  0.88000000000E+00 0. -1.
        -11    1    4    4    0    0 -0.67138127868E-02  0.71296393918E-02 -0.32169827701E-01  0.33631324317E-01  0.51100000000E-03 0. -1.
         11    1    4    4    0    0 -0.24979564774E-01  0.49075001841E-01 -0.77989521493E-01  0.95472305124E-01  0.51100000000E-03 0.  1.
</event>
<event>
 8    1  0.1157726E+005  0.1043930E+01  0.7957747E-01            NaN
         13   -1    0    0    0    0  0.00000000000E+00  0.00000000000E+00  0.74505805969E-08  0.10566000000E+00  0.10566000000E+00 0.  1.
     999900   -1    0    0    0    0 -0.00000000000E+00 -0.00000000000E+00 -0.74505805969E-08  0.93827000000E+00  0.93827000000E+00 0. -1.
     999902    2    1    2    0    0 -0.65911816765E-02  0.70352099142E-02  0.22416253488E-01  0.10195286419E+01  0.10192365895E+01 0.  0.
     999903    2    3    3    0    0 -0.12880426857E+00  0.36801058144E-02  0.11815362396E-01  0.13101320920E+00  0.20512811037E-01 0.  0.
         14    1    1    2    0    0  0.65911816765E-02 -0.70352099142E-02 -0.22416253488E-01  0.24401358054E-01  0.00000000000E+00 0. -1.
     999901    1    3    3    0    0  0.12221308689E+00  0.33551040998E-02  0.10600891092E-01  0.88851543274E+00  0.88000000000E+00 0. -1.
        -11    1    4    4    0    0 -0.80380264308E-01  0.47671176399E-02  0.16998582203E-01  0.82297783803E-01  0.51100000000E-03 0.  1.
         11    1    4    4    0    0 -0.48424004260E-01 -0.10870118255E-02 -0.51832198075E-02  0.48715425400E-01  0.51100000000E-03 0. -1.
</event>
<event>
 8    1  0.1157726E+005  0.1043930E+01  0.7957747E-01            NaN
         13   -1    0    0    0    0  0.00000000000E+00  0.00000000000E+00  0.74505805969E-08  0.10566000000E+00  0.10566000000E+00 0.  1.
     999900   -1    0    0    0    0 -0.00000000000E+00 -0.00000000000E+00 -0.74505805969E-08  0.93827000000E+00  0.93827000000E+00 0.  1.
     999902    2    1    2    0    0  0.48848294592E-02 -0.17456836850E-01  0.14246564258E-01  0.10208742566E+01  0.10206138743E+01 0.  0.
     999903    2    3    3    0    0 -0.42781518162E-01 -0.19405857489E-01 -0.11909897318E+00  0.12955113238E+00  0.19801133492E-01 0.  0.
         14    1    1    2    0    0 -0.48848294592E-02  0.17456836850E-01 -0.14246564258E-01  0.23055743424E-01  0.00000000000E+00 0. -1.
     999901    1    3    3    0    0  0.47666347621E-01  0.19490206383E-02  0.13334553743E+00  0.89132312420E+00  0.88000000000E+00 0. -1.
        -11    1    4    4    0    0 -0.24170536058E-01 -0.18451912940E-01 -0.89932392138E-01  0.94935684445E-01  0.51100000000E-03 0. -1.
         11    1    4    4    0    0 -0.18610982104E-01 -0.95394454808E-03 -0.29166581039E-01  0.34615447932E-01  0.51100000000E-03 0.  1.
</event>
<event>
 8    1  0.1157726E+005  0.1043930E+01  0.7957747E-01            NaN
         13   -1    0    0    0    0  0.00000000000E+00  0.00000000000E+00  0.74505805969E-08  0.10566000000E+00  0.10566000000E+00 0.  1.
     999900   -1    0    0    0    0 -0.00000000000E+00 -0.00000000000E+00 -0.74505805969E-08  0.93827000000E+00  0.93827000000E+00 0. -1.
     999902    2    1    2    0    0  0.17856847720E-01  0.12556602659E-01  0.98702501488E-02  0.10199725978E+01  0.10196911999E+01 0.  0.
     999903    2    3    3    0    0  0.12629493491E+00 -0.29147089819E-01  0.17819619255E-01  0.13230080646E+00  0.19646911471E-01 0.  0.
         14    1    1    2    0    0 -0.17856847720E-01 -0.12556602659E-01 -0.98702501488E-02  0.23957402172E-01  0.00000000000E+00 0.  1.
     999901    1    3    3    0    0 -0.10843808719E+00  0.41703692478E-01 -0.79493691057E-02  0.88767179137E+00  0.88000000000E+00 0.  1.
        -11    1    4    4    0    0  0.40910907970E-01 -0.16677498763E-01 -0.30643813481E-04  0.44182614408E-01  0.51100000000E-03 0.  1.
         11    1    4    4    0    0  0.85384026942E-01 -0.12469591057E-01  0.17850263068E-01  0.88118192052E-01  0.51100000000E-03 0. -1.
</event>
<event>
 8    1  0.1606205E+005  0.1043930E+01  0.7957747E-01            NaN
         13   -1    0    0    0    0  0.00000000000E+00  0.00000000000E+00  0.74505805969E-08  0.10566000000E+00  0.10566000000E+00 0.  1.
     999900   -1    0    0    0    0 -0.00000000000E+00 -0.00000000000E+00 -0.74505805969E-08  0.93827000000E+00  0.93827000000E+00 0.  1.
     999902    2    1    2    0    0  0.16516241648E-01 -0.17033037594E-01  0.42626130016E-02  0.10198243891E+01  0.10195394569E+01 0.  0.
     999903    2    3    3    0    0 -0.64527177619E-01  0.45437443106E-01 -0.98562865281E-01  0.12794789778E+00  0.20681108432E-01 0.  0.
         14    1    1    2    0    0 -0.16516241648E-01  0.17033037594E-01 -0.42626130016E-02  0.24105610913E-01  0.00000000000E+00 0. -1.
     999901    1    3    3    0    0  0.81043419267E-01 -0.62470480701E-01  0.10282547828E+00  0.89187649131E+00  0.88000000000E+00 0. -1.
        -11    1    4    4    0    0 -0.43468146294E-01  0.25629098614E-01 -0.47697395302E-01  0.69437980081E-01  0.51100000000E-03 0.  1.
         11    1    4    4    0    0 -0.21059031324E-01  0.19808344492E-01 -0.50865469979E-01  0.58509917698E-01  0.51100000000E-03 0. -1.
</event>
<event>
 8    1  0.1157726E+005  0.1043930E+01  0.7957747E-01            NaN
         13   -1    0    0    0    0  0.00000000000E+00  0.00000000000E+00  0.74505805969E-08  0.10566000000E+00  0.10566000000E+00 0. -1.
     999900   -1    0    0    0    0 -0.00000000000E+00 -0.00000000000E+00 -0.74505805969E-08  0.93827000000E+00  0.93827000000E+00 0. -1.
     999902    2    1    2    0    0 -0.13949752475E-01 -0.13426066322E-01  0.13743590633E-01  0.10201867666E+01  0.10199104360E+01 0.  0.
     999903    2    3    3    0    0  0.38707078531E-01  0.24555801148E-01  0.12093290227E+00  0.13130830881E+00  0.22712987753E-01 0.  0.
         14    1    1    2    0    0  0.13949752475E-01  0.13426066322E-01 -0.13743590633E-01  0.23743233446E-01  0.00000000000E+00 0.  1.
     999901    1    3    3    0    0 -0.52656831006E-01 -0.37981867470E-01 -0.10718931164E+00  0.88887845774E+00  0.88000000000E+00 0.  1.
        -11    1    4    4    0    0  0.34939632872E-01  0.17133023623E-01  0.73694990731E-01  0.83339853753E-01  0.51100000000E-03 0. -1.
         11    1    4    4    0    0  0.37674456585E-02  0.74227775251E-02  0.47237911541E-01  0.47968455059E-01  0.51100000000E-03 0.  1.
</event>
<event>
 8    1  0.1157726E+005  0.1043930E+01  0.7957747E-01            NaN
         13   -1    0    0    0    0  0.00000000000E+00  0.00000000000E+00  0.74505805969E-08  0.10566000000E+00  0.10566000000E+00 0.  1.
     999900   -1    0    0    0    0 -0.00000000000E+00 -0.00000000000E+00 -0.74505805969E-08  0.93827000000E+00  0.93827000000E+00 0.  1.
     999902    2    1    2    0    0  0.17118899313E-01  0.10711365180E-02 -0.15806597388E-02  0.10267049446E+01  0.10265604419E+01 0.  0.
     999903    2    3    3    0    0 -0.10214157211E+00  0.57064633282E-01 -0.63752193748E-01  0.13472757308E+00  0.19947521545E-01 0.  0.
         14    1    1    2    0    0 -0.17118899313E-01 -0.10711365180E-02  0.15806597388E-02  0.17225055365E-01  0.00000000000E+00 0. -1.
     999901    1    3    3    0    0  0.11926047142E+00 -0.55993496764E-01  0.62171534009E-01  0.89197737155E+00  0.88000000000E+00 0.  1.
        -11    1    4    4    0    0 -0.67315293775E-01  0.48064761805E-01 -0.44370723621E-01  0.93864755574E-01  0.51100000000E-03 0. -1.
         11    1    4    4    0    0 -0.34826278335E-01  0.89998714771E-02 -0.19381470128E-01  0.40862817507E-01  0.51100000000E-03 0.  1.
</event>
<event>
 8    1  0.1157726E+005  0.1043930E+01  0.7957747E-01            NaN
         13   -1    0    0    0    0  0.00000000000E+00  0.00000000000E+00  0.74505805969E-08  0.10566000000E+00  0.10566000000E+00 0.  1.
     999900   -1    0    0    0    0 -0.00000000000E+00 -0.00000000000E+00 -0.74505805969E-08  0.93827000000E+00  0.93827000000E+00 0.  1.
     999902    2    1    2    0    0 -0.12270168331E-01 -0.16970950742E-01 -0.23616029611E-01  0.10123659848E+01  0.10118738064E+01 0.  0.
     999903    2    3    3    0    0 -0.10800875822E+00  0.54465973339E-01 -0.21106138471E-01  0.12429199507E+00  0.19250892272E-01 0.  0.
         14    1    1    2    0    0  0.12270168331E-01  0.16970950742E-01  0.23616029611E-01  0.31564015185E-01  0.00000000000E+00 0.  1.
     999901    1    3    3    0    0  0.95738589885E-01 -0.71436924081E-01 -0.25098911400E-02  0.88807398975E+00  0.88000000000E+00 0. -1.
        -11    1    4    4    0    0 -0.45313210405E-01  0.12396024355E-01 -0.77695780041E-02  0.47619070974E-01  0.51100000000E-03 0.  1.
         11    1    4    4    0    0 -0.62695547811E-01  0.42069948984E-01 -0.13336560467E-01  0.76672924092E-01  0.51100000000E-03 0. -1.
</event>
<event>
 8    1  0.1157726E+005  0.1043930E+01  0.7957747E-01            NaN
         13   -1    0    0    0    0  0.00000000000E+00  0.00000000000E+00  0.74505805969E-08  0.10566000000E+00  0.10566000000E+00 0. -1.
     999900   -1    0    0    0    0 -0.00000000000E+00 -0.00000000000E+00 -0.74505805969E-08  0.93827000000E+00  0.93827000000E+00 0.  1.
     999902    2    1    2    0    0  0.15649975361E-01  0.10785351299E-01  0.15259506890E-01  0.10195558727E+01  0.10192644796E+01 0.  0.
     999903    2    3    3    0    0 -0.10953212393E+00  0.62127081053E-01  0.84448438753E-02  0.12918911072E+00  0.27594393787E-01 0.  0.
         14    1    1    2    0    0 -0.15649975361E-01 -0.10785351299E-01 -0.15259506890E-01  0.24374127307E-01  0.00000000000E+00 0.  1.
     999901    1    3    3    0    0  0.12518209929E+00 -0.51341729754E-01  0.68146630148E-02  0.89036676197E+00  0.88000000000E+00 0. -1.
        -11    1    4    4    0    0 -0.47093802747E-01  0.19356813313E-01  0.15370740563E-01  0.53188657299E-01  0.51100000000E-03 0. -1.
         11    1    4    4    0    0 -0.62438321179E-01  0.42770267739E-01 -0.69258966875E-02  0.76000453420E-01  0.51100000000E-03 0.  1.
</event>
<event>
 8    1  0.1157726E+005  0.1043930E+01  0.7957747E-01            NaN
         13   -1    0    0    0    0  0.00000000000E+00  0.00000000000E+00  0.74505805969E-08  0.10566000000E+00  0.10566000000E+00 0.  1.
     999900   -1    0    0    0    0 -0.00000000000E+00 -0.00000000000E+00 -0.74505805969E-08  0.93827000000E+00  0.93827000000E+00 0. -1.
     999902    2    1    2    0    0  0.16413872349E-01  0.16470192883E-01  0.29957902391E-02  0.10204852305E+01  0.10202158832E+01 0.  0.
     999903    2    3    3    0    0 -0.16955696450E-01 -0.90227254116E-01 -0.88029554905E-01  0.12875461713E+00  0.20002396535E-01 0.  0.
         14    1    1    2    0    0 -0.16413872349E-01 -0.16470192883E-01 -0.29957902391E-02  0.23444769529E-01  0.00000000000E+00 0.  1.
     999901    1    3    3    0    0  0.33369568799E-01  0.10669744700E+00  0.91025345144E-01  0.89173061334E+00  0.88000000000E+00 0.  1.
        -11    1    4    4    0    0 -0.17125648001E-01 -0.54844100354E-01 -0.44618933967E-01  0.72748014079E-01  0.51100000000E-03 0.  1.
         11    1    4    4    0    0  0.16995155126E-03 -0.35383153762E-01 -0.43410620938E-01  0.56006603047E-01  0.51100000000E-03 0. -1.
</event>
<event>
 8    1  0.1157726E+005  0.1043930E+01  0.7957747E-01            NaN
         13   -1    0    0    0    0  0.00000000000E+00  0.00000000000E+00  0.74505805969E-08  0.10566000000E+00  0.10566000000E+00 0. -1.
     999900   -1    0    0    0    0 -0.00000000000E+00 -0.00000000000E+00 -0.74505805969E-08  0.93827000000E+00  0.93827000000E+00 0. -1.
     999902    2    1    2    0    0  0.10899106772E-02 -0.20895476015E-01  0.17007415187E-01  0.10169659314E+01  0.10166084028E+01 0.  0.
     999903    2    3    3    0    0 -0.10777138358E+00  0.61358714528E-01  0.13843274994E-01  0.12644555263E+00  0.20427397029E-01 0.  0.
         14    1    1    2    0    0 -0.10899106772E-02  0.20895476015E-01 -0.17007415187E-01  0.26964068582E-01  0.00000000000E+00 0.  1.
     999901    1    3    3    0    0  0.10886129426E+00 -0.82254190543E-01  0.31641401934E-02  0.89052037879E+00  0.88000000000E+00 0. -1.
        -11    1    4    4    0    0 -0.69239326328E-01  0.48907333719E-01  0.45389064800E-02  0.84893311838E-01  0.51100000000E-03 0.  1.
         11    1    4    4    0    0 -0.38532057257E-01  0.12451380810E-01  0.93043685137E-02  0.41552240793E-01  0.51100000000E-03 0. -1.
</event>
<event>
 8    1  0.1157726E+005  0.1043930E+01  0.7957747E-01            NaN
         13   -1    0    0    0    0  0.00000000000E+00  0.00000000000E+00  0.74505805969E-08  0.10566000000E+00  0.10566000000E+00 0.  1.
     999900   -1    0    0    0    0 -0.00000000000E+00 -0.00000000000E+00 -0.74505805969E-08  0.93827000000E+00  0.93827000000E+00 0.  1.
     999902    2    1    2    0    0  0.17294078136E-01 -0.13218938148E-01 -0.69001144343E-02  0.10210950040E+01  0.10208396398E+01 0.  0.
     999903    2    3    3    0    0 -0.10788937030E-01 -0.10322301270E+00  0.79177191036E-01  0.13188260432E+00  0.18777705661E-01 0.  0.
         14    1    1    2    0    0 -0.17294078136E-01  0.13218938148E-01  0.69001144343E-02  0.22834996027E-01  0.00000000000E+00 0.  1.
     999901    1    3    3    0    0  0.28083015166E-01  0.90004074549E-01 -0.86077305470E-01  0.88921239965E+00  0.88000000000E+00 0.  1.
        -11    1    4    4    0    0 -0.11244959038E-01 -0.87121339987E-01  0.57980009127E-01  0.10525454653E+00  0.51100000000E-03 0. -1.
         11    1    4    4    0    0  0.45602200852E-03 -0.16101672710E-01  0.21197181909E-01  0.26628057796E-01  0.51100000000E-03 0.  1.
</event>
<event>
 8    1  0.1157726E+005  0.1043930E+01  0.7957747E-01            NaN
         13   -1    0    0    0    0  0.00000000000E+00  0.00000000000E+00  0.74505805969E-08  0.10566000000E+00  0.10566000000E+00 0.  1.
     999900   -1    0    0    0    0 -0.00000000000E+00 -0.00000000000E+00 -0.74505805969E-08  0.93827000000E+00  0.93827000000E+00 0. -1.
     999902    2    1    2    0    0  0.11058850624E-01 -0.17039451500E-01  0.12811790954E-01  0.10199136915E+01  0.10196308916E+01 0.  0.
     999903    2    3    3    0    0 -0.67157602693E-01 -0.52971875585E-01  0.98020384532E-01  0.13161787533E+00  0.19977640537E-01 0.  0.
         14    1    1    2    0    0 -0.11058850624E-01  0.17039451500E-01 -0.12811790954E-01  0.24016308459E-01  0.00000000000E+00 0. -1.
     999901    1    3    3    0    0  0.78216453316E-01  0.35932424084E-01 -0.85208593578E-01  0.88829581621E+00  0.88000000000E+00 0. -1.
        -11    1    4    4    0    0 -0.58807804728E-02 -0.13944167278E-01  0.18488836946E-01  0.23898150403E-01  0.51100000000E-03 0. -1.
         11    1    4    4    0    0 -0.61276822220E-01 -0.39027708307E-01  0.79531547586E-01  0.10771972493E+00  0.51100000000E-03 0.  1.
</event>
<event>
 8    1  0.1157726E+005  0.1043930E+01  0.7957747E-01            NaN
         13   -1    0    0    0    0  0.00000000000E+00  0.00000000000E+00  0.74505805969E-08  0.10566000000E+00  0.10566000000E+00 0.  1.
     999900   -1    0    0    0    0 -0.00000000000E+00 -0.00000000000E+00 -0.74505805969E-08  0.93827000000E+00  0.93827000000E+00 0.  1.
     999902    2    1    2    0    0 -0.44811815746E-02  0.77247887336E-02 -0.22289205875E-01  0.10199182935E+01  0.10196356033E+01 0.  0.
     999903    2    3    3    0    0  0.41775327585E-01 -0.29016004509E-01  0.11497214017E+00  0.12732083238E+00  0.20121998651E-01 0.  0.
         14    1    1    2    0    0  0.44811815746E-02 -0.77247887336E-02  0.22289205875E-01  0.24011706474E-01  0.00000000000E+00 0.  1.
     999901    1    3    3    0    0 -0.46256509159E-01  0.36740793242E-01 -0.13726134605E+00  0.89259746115E+00  0.88000000000E+00 0.  1.
        -11    1    4    4    0    0  0.35494886943E-01 -0.28948916757E-01  0.83643173560E-01  0.95364397889E-01  0.51100000000E-03 0.  1.
         11    1    4    4    0    0  0.62804406415E-02 -0.67087752163E-04  0.31328966611E-01  0.31956434490E-01  0.51100000000E-03 0. -1.
</event>
<event>
 8    1  0.1157726E+005  0.1043930E+01  0.7957747E-01            NaN
         13   -1    0    0    0    0  0.00000000000E+00  0.00000000000E+00  0.74505805969E-08  0.10566000000E+00  0.10566000000E+00 0. -1.
     999900   -1    0    0    0    0 -0.00000000000E+00 -0.00000000000E+00 -0.74505805969E-08  0.93827000000E+00  0.93827000000E+00 0.  1.
     999902    2    1    2    0    0 -0.59567347408E-02  0.40813859796E-02  0.22151741744E-01  0.10206310716E+01  0.10203651035E+01 0.  0.
     999903    2    3    3    0    0  0.12226036739E+00 -0.19225391806E-01 -0.31920313685E-01  0.12939226058E+00  0.20155335465E-01 0.  0.
         14    1    1    2    0    0  0.59567347408E-02 -0.40813859796E-02 -0.22151741744E-01  0.23298928357E-01  0.00000000000E+00 0.  1.
     999901    1    3    3    0    0 -0.12821710213E+00  0.23306777785E-01  0.54072055429E-01  0.89123881106E+00  0.88000000000E+00 0. -1.
        -11    1    4    4    0    0  0.88207826680E-01 -0.96144640121E-02 -0.14353004270E-01  0.89885084738E-01  0.51100000000E-03 0.  1.
         11    1    4    4    0    0  0.34052540709E-01 -0.96109277936E-02 -0.17567309415E-01  0.39507175840E-01  0.51100000000E-03 0. -1.
</event>
<event>
 8    1  0.1157726E+005  0.1043930E+01  0.7957747E-01            NaN
         13   -1    0    0    0    0  0.00000000000E+00  0.00000000000E+00  0.74505805969E-08  0.10566000000E+00  0.10566000000E+00 0. -1.
     999900   -1    0    0    0    0 -0.00000000000E+00 -0.00000000000E+00 -0.74505805969E-08  0.93827000000E+00  0.93827000000E+00 0.  1.
     999902    2    1    2    0    0  0.60817373165E-02  0.11509647963E-01 -0.19882447202E-01  0.10201650840E+01  0.10198882426E+01 0.  0.
     999903    2    3    3    0    0  0.12464960868E+00  0.29045578905E-01  0.20433247035E-01  0.13112559997E+00  0.19880512657E-01 0.  0.
         14    1    1    2    0    0 -0.60817373165E-02 -0.11509647963E-01  0.19882447202E-01  0.23764915985E-01  0.00000000000E+00 0. -1.
     999901    1    3    3    0    0 -0.11856787137E+00 -0.17535930942E-01 -0.40315694238E-01  0.88903948405E+00  0.88000000000E+00 0.  1.
        -11    1    4    4    0    0  0.69571329932E-01  0.88717486902E-02  0.42011170216E-02  0.70262282759E-01  0.51100000000E-03 0.  1.
         11    1    4    4    0    0  0.55078278752E-01  0.20173830215E-01  0.16232130014E-01  0.60863317208E-01  0.51100000000E-03 0. -1.
</event>
<event>
 8    1  0.1157726E+005  0.1043930E+01  0.7957747E-01            NaN
         13   -1    0    0    0    0  0.00000000000E+00  0.00000000000E+00  0.74505805969E-08  0.10566000000E+00  0.10566000000E+00 0. -1.
     999900   -1    0    0    0    0 -0.00000000000E+00 -0.00000000000E+00 -0.74505805969E-08  0.93827000000E+00  0.93827000000E+00 0. -1.
     999902    2    1    2    0    0  0.20635481926E-01 -0.57751580094E-03  0.70195850217E-02  0.10221256148E+01  0.10218930185E+01 0.  0.
     999903    2    3    3    0    0 -0.10905716037E+00  0.48008574432E-02 -0.66884884677E-01  0.12953893612E+00  0.19754384636E-01 0.  0.
         14    1    1    2    0    0 -0.20635481926E-01  0.57751580094E-03 -0.70195850217E-02  0.21804385171E-01  0.00000000000E+00 0. -1.
     999901    1    3    3    0    0  0.12969264230E+00 -0.53783732442E-02  0.73904469698E-01  0.89258667871E+00  0.88000000000E+00 0. -1.
        -11    1    4    4    0    0 -0.57522138999E-01  0.19122302032E-02 -0.23725240681E-01  0.62254327285E-01  0.51100000000E-03 0.  1.
         11    1    4    4    0    0 -0.51535021374E-01  0.28886272401E-02 -0.43159643996E-01  0.67284608836E-01  0.51100000000E-03 0. -1.
</event>
<event>
 8    1  0.1157726E+005  0.1043930E+01  0.7957747E-01            NaN
         13   -1    0    0    0    0  0.00000000000E+00  0.00000000000E+00  0.74505805969E-08  0.10566000000E+00  0.10566000000E+00 0. -1.
     999900   -1    0    0    0    0 -0.00000000000E+00 -0.00000000000E+00 -0.74505805969E-08  0.93827000000E+00  0.93827000000E+00 0.  1.
     999902    2    1    2    0    0  0.74494759029E-02 -0.12891612258E-01 -0.17804329871E-01  0.10207204649E+01  0.10204565571E+01 0.  0.
     999903    2    3    3    0    0 -0.40359737200E-01  0.44170611650E-01 -0.11613779148E+00  0.13211971769E+00  0.19689638704E-01 0.  0.
         14    1    1    2    0    0 -0.74494759029E-02  0.12891612258E-01  0.17804329871E-01  0.23209535109E-01  0.00000000000E+00 0.  1.
     999901    1    3    3    0    0  0.47809213103E-01 -0.57062223908E-01  0.98333461607E-01  0.88860074720E+00  0.88000000000E+00 0.  1.
        -11    1    4    4    0    0 -0.35377255505E-03  0.10625266672E-01 -0.23069499959E-01  0.25406384950E-01  0.51100000000E-03 0. -1.
         11    1    4    4    0    0 -0.40005964645E-01  0.33545344978E-01 -0.93068291520E-01  0.10671333274E+00  0.51100000000E-03 0.  1.
</event>
<event>
 8    1  0.1157726E+005  0.1043930E+01  0.7957747E-01            NaN
         13   -1    0    0    0    0  0.00000000000E+00  0.00000000000E+00  0.74505805969E-08  0.10566000000E+00  0.10566000000E+00 0. -1.
     999900   -1    0    0    0    0 -0.00000000000E+00 -0.00000000000E+00 -0.74505805969E-08  0.93827000000E+00  0.93827000000E+00 0. -1.
     999902    2    1    2    0    0 -0.94660525003E-02  0.62816793540E-02 -0.21129479288E-01  0.10199399908E+01  0.10196578173E+01 0.  0.
     999903    2    3    3    0    0  0.89467169892E-01  0.91868165071E-01  0.37203796609E-02  0.12992294350E+00  0.20542535896E-01 0.  0.
         14    1    1    2    0    0  0.94660525003E-02 -0.62816793540E-02  0.21129479288E-01  0.23990009179E-01  0.00000000000E+00 0. -1.
     999901    1    3    3    0    0 -0.98933222393E-01 -0.85586485717E-01 -0.24849858949E-01  0.89001704732E+00  0.88000000000E+00 0.  1.
        -11    1    4    4    0    0  0.73974163603E-01  0.74936079852E-01 -0.48715155305E-02  0.10541150662E+00  0.51100000000E-03 0. -1.
         11    1    4    4    0    0  0.15493006289E-01  0.16932085219E-01  0.85918951914E-02  0.24511436876E-01  0.51100000000E-03 0.  1.
</event>
<event>
 8    1  0.1157726E+005  0.1043930E+01  0.7957747E-01            NaN
         13   -1    0    0    0    0  0.00000000000E+00  0.00000000000E+00  0.74505805969E-08  0.10566000000E+00  0.10566000000E+00 0.  1.
     999900   -1    0    0    0    0 -0.00000000000E+00 -0.00000000000E+00 -0.74505805969E-08  0.93827000000E+00  0.93827000000E+00 0. -1.
     999902    2    1    2    0    0 -0.20648139574E-01 -0.60149074180E-02  0.10159219417E-01  0.10201448257E+01  0.10198675065E+01 0.  0.
     999903    2    3    3    0    0  0.54108727661E-01 -0.97358911622E-02  0.11678123170E+00  0.13055464562E+00  0.19598914034E-01 0.  0.
         14    1    1    2    0    0  0.20648139574E-01  0.60149074180E-02 -0.10159219417E-01  0.23785174337E-01  0.00000000000E+00 0. -1.
     999901    1    3    3    0    0 -0.74756867235E-01  0.37209837443E-02 -0.10662201228E+00  0.88959018004E+00  0.88000000000E+00 0. -1.
        -11    1    4    4    0    0  0.39197693239E-01  0.50449318663E-03  0.67541795926E-01  0.78095255852E-01  0.51100000000E-03 0.  1.
         11    1    4    4    0    0  0.14911034422E-01 -0.10240384349E-01  0.49239435772E-01  0.52459389772E-01  0.51100000000E-03 0. -1.
</event>
<event>
 8    1  0.1157726E+005  0.1043930E+01  0.7957747E-01            NaN
         13   -1    0    0    0    0  0.00000000000E+00  0.00000000000E+00  0.74505805969E-08  0.10566000000E+00  0.10566000000E+00 0. -1.
     999900   -1    0    0    0    0 -0.00000000000E+00 -0.00000000000E+00 -0.74505805969E-08  0.93827000000E+00  0.93827000000E+00 0. -1.
     999902    2    1    2    0    0 -0.19525698220E-01  0.71060935938E-02 -0.62620357673E-02  0.10222283284E+01  0.10219979417E+01 0.  0.
     999903    2    3    3    0    0  0.65351023084E-01  0.14042351541E-01  0.11021643373E+00  0.13047757662E+00  0.20218602329E-01 0.  0.
         14    1    1    2    0    0  0.19525698220E-01 -0.71060935938E-02  0.62620357673E-02  0.21701671574E-01  0.00000000000E+00 0. -1.
     999901    1    3    3    0    0 -0.84876721304E-01 -0.69362579473E-02 -0.11647846950E+00  0.89175075181E+00  0.88000000000E+00 0. -1.
        -11    1    4    4    0    0  0.35649476960E-01 -0.22943245388E-02  0.61537378221E-01  0.71156582070E-01  0.51100000000E-03 0.  1.
         11    1    4    4    0    0  0.29701546124E-01  0.16336676080E-01  0.48679055513E-01  0.59320994548E-01  0.51100000000E-03 0. -1.
</event>
<event>
 8    1  0.1157726E+005  0.1043930E+01  0.7957747E-01            NaN
         13   -1    0    0    0    0  0.00000000000E+00  0.00000000000E+00  0.74505805969E-08  0.10566000000E+00  0.10566000000E+00 0.  1.
     999900   -1    0    0    0    0 -0.00000000000E+00 -0.00000000000E+00 -0.74505805969E-08  0.93827000000E+00  0.93827000000E+00 0. -1.
     999902    2    1    2    0    0 -0.34851098475E-02 -0.10711767133E-01 -0.20242165878E-01  0.10207646546E+01  0.10205017623E+01 0.  0.
     999903    2    3    3    0    0 -0.74729085441E-01 -0.96816615857E-01 -0.48035735264E-01  0.13326128478E+00  0.22209116191E-01 0.  0.
         14    1    1    2    0    0  0.34851098475E-02  0.10711767133E-01  0.20242165878E-01  0.23165345350E-01  0.00000000000E+00 0.  1.
     999901    1    3    3    0    0  0.71243975593E-01  0.86104848723E-01  0.27793569386E-01  0.88750336987E+00  0.88000000000E+00 0.  1.
        -11    1    4    4    0    0 -0.11922956525E-01 -0.26515695418E-01 -0.18531915028E-01  0.34480893135E-01  0.51100000000E-03 0.  1.
         11    1    4    4    0    0 -0.62806128916E-01 -0.70300920438E-01 -0.29503820236E-01  0.98780391644E-01  0.51100000000E-03 0. -1.
</event>
<event>
 8    1  0.1157726E+005  0.1043930E+01  0.7957747E-01            NaN
         13   -1    0    0    0    0  0.00000000000E+00  0.00000000000E+00  0.74505805969E-08  0.10566000000E+00  0.10566000000E+00 0. -1.
     999900   -1    0    0    0    0 -0.00000000000E+00 -0.00000000000E+00 -0.74505805969E-08  0.93827000000E+00  0.93827000000E+00 0. -1.
     999902    2    1    2    0    0 -0.12493625848E-01 -0.50484824142E-02  0.27108793348E-01  0.10136568347E+01  0.10132046753E+01 0.  0.
     999903    2    3    3    0    0  0.11127874280E+00  0.21956897780E-01 -0.40397472017E-01  0.12202575309E+00  0.19830902962E-01 0.  0.
         14    1    1    2    0    0  0.12493625848E-01  0.50484824142E-02 -0.27108793348E-01  0.30273165317E-01  0.00000000000E+00 0.  1.
     999901    1    3    3    0    0 -0.12377236865E+00 -0.27005380194E-01  0.67506265365E-01  0.89163108159E+00  0.88000000000E+00 0.  1.
        -11    1    4    4    0    0  0.48589717144E-01  0.39553883566E-02 -0.87622893328E-02  0.49534276461E-01  0.51100000000E-03 0.  1.
         11    1    4    4    0    0  0.62689025657E-01  0.18001509423E-01 -0.31635182684E-01  0.72491476629E-01  0.51100000000E-03 0. -1.
</event>
<event>
 8    1  0.1157726E+005  0.1043930E+01  0.7957747E-01            NaN
         13   -1    0    0    0    0  0.00000000000E+00  0.00000000000E+00  0.74505805969E-08  0.10566000000E+00  0.10566000000E+00 0.  1.
     999900   -1    0    0    0    0 -0.00000000000E+00 -0.00000000000E+00 -0.74505805969E-08  0.93827000000E+00  0.93827000000E+00 0. -1.
     999902    2    1    2    0    0 -0.14124774417E-01 -0.16627154354E-01 -0.45244893838E-02  0.10216490099E+01  0.10214060196E+01 0.  0.
     999903    2    3    3    0    0  0.32318812307E-01 -0.11241611724E+00 -0.61213039503E-01  0.13342261769E+00  0.19304653876E-01 0.  0.
         14    1    1    2    0    0  0.14124774417E-01  0.16627154354E-01  0.45244893838E-02  0.22280990068E-01  0.00000000000E+00 0.  1.
     999901    1    3    3    0    0 -0.46443586724E-01  0.95788962889E-01  0.56688550119E-01  0.88822639224E+00  0.88000000000E+00 0. -1.
        -11    1    4    4    0    0  0.10838747517E-01 -0.19683700367E-01 -0.55431843516E-02  0.23149827680E-01  0.51100000000E-03 0. -1.
         11    1    4    4    0    0  0.21480064790E-01 -0.92732416877E-01 -0.55669855151E-01  0.11027279001E+00  0.51100000000E-03 0.  1.
</event>
<event>
 8    1  0.1157726E+005  0.1043930E+01  0.7957747E-01            NaN
         13   -1    0    0    0    0  0.00000000000E+00  0.00000000000E+00  0.74505805969E-08  0.10566000000E+00  0.10566000000E+00 0.  1.
     999900   -1    0    0    0    0 -0.00000000000E+00 -0.00000000000E+00 -0.74505805969E-08  0.93827000000E+00  0.93827000000E+00 0.  1.
     999902    2    1    2    0    0  0.87096756293E-02  0.10049829292E-01 -0.20072365509E-01  0.10198518486E+01  0.10195675729E+01 0.  0.
     999903    2    3    3    0    0  0.51486841418E-02  0.51725194778E-01 -0.12074583657E+00  0.13312490949E+00  0.20992373725E-01 0.  0.
         14    1    1    2    0    0 -0.87096756293E-02 -0.10049829292E-01  0.20072365509E-01  0.24078151414E-01  0.00000000000E+00 0.  1.
     999901    1    3    3    0    0  0.35609914875E-02 -0.41675365485E-01  0.10067347106E+00  0.88672693910E+00  0.88000000000E+00 0. -1.
        -11    1    4    4    0    0 -0.26596923193E-02  0.37090247035E-01 -0.64193076708E-01  0.74187415419E-01  0.51100000000E-03 0. -1.
         11    1    4    4    0    0  0.78083764611E-02  0.14634947743E-01 -0.56552759859E-01  0.58937494069E-01  0.51100000000E-03 0.  1.
</event>
<event>
 8    1  0.1157726E+005  0.1043930E+01  0.7957747E-01            NaN
         13   -1    0    0    0    0  0.00000000000E+00  0.00000000000E+00  0.74505805969E-08  0.10566000000E+00  0.10566000000E+00 0. -1.
     999900   -1    0    0    0    0 -0.00000000000E+00 -0.00000000000E+00 -0.74505805969E-08  0.93827000000E+00  0.93827000000E+00 0.  1.
     999902    2    1    2    0    0 -0.16050324624E-01  0.56647424641E-02  0.16224876944E-01  0.10204151353E+01  0.10201441563E+01 0.  0.
     999903    2    3    3    0    0  0.11825212268E+00 -0.46145177329E-01 -0.27322677158E-02  0.12851783830E+00  0.19910488830E-01 0.  0.
         14    1    1    2    0    0  0.16050324624E-01 -0.56647424641E-02 -0.16224876944E-01  0.23514864652E-01  0.00000000000E+00 0.  1.
     999901    1    3    3    0    0 -0.13430244731E+00  0.51809919793E-01  0.18957144660E-01  0.89189729704E+00  0.88000000000E+00 0.  1.
        -11    1    4    4    0    0  0.32640574968E-01 -0.17506176346E-01  0.70701342725E-02  0.37711023111E-01  0.51100000000E-03 0. -1.
         11    1    4    4    0    0  0.85611547716E-01 -0.28639000983E-01 -0.98024019883E-02  0.90806815192E-01  0.51100000000E-03 0.  1.
</event>
<event>
 8    1  0.1157726E+005  0.1043930E+01  0.7957747E-01            NaN
         13   -1    0    0    0    0  0.00000000000E+00  0.00000000000E+00  0.74505805969E-08  0.10566000000E+00  0.10566000000E+00 0.  1.
     999900   -1    0    0    0    0 -0.00000000000E+00 -0.00000000000E+00 -0.74505805969E-08  0.93827000000E+00  0.93827000000E+00 0. -1.
     999902    2    1    2    0    0 -0.21226658579E-01  0.28668136490E-02  0.97907763539E-02  0.10203790137E+01  0.10201071917E+01 0.  0.
     999903    2    3    3    0    0  0.18751458797E-01 -0.16469282369E-01 -0.12543134480E+00  0.12894356648E+00  0.16448909103E-01 0.  0.
         14    1    1    2    0    0  0.21226658579E-01 -0.28668136490E-02 -0.97907763539E-02  0.23550986318E-01  0.00000000000E+00 0. -1.
     999901    1    3    3    0    0 -0.39978117376E-01  0.19336096018E-01  0.13522212115E+00  0.89143544720E+00  0.88000000000E+00 0.  1.
        -11    1    4    4    0    0  0.10607574940E-01 -0.64804026171E-02 -0.27709904130E-01  0.30374597480E-01  0.51100000000E-03 0.  1.
         11    1    4    4    0    0  0.81438838564E-02 -0.99888797521E-02 -0.97721440666E-01  0.98568969001E-01  0.51100000000E-03 0. -1.
</event>
<event>
 8    1  0.1157726E+005  0.1043930E+01  0.7957747E-01            NaN
         13   -1    0    0    0    0  0.00000000000E+00  0.00000000000E+00  0.74505805969E-08  0.10566000000E+00  0.10566000000E+00 0. -1.
     999900   -1    0    0    0    0 -0.00000000000E+00 -0.00000000000E+00 -0.74505805969E-08  0.93827000000E+00  0.93827000000E+00 0.  1.
     999902    2    1    2    0    0 -0.61193090772E-02 -0.21614088307E-02  0.22326510876E-01  0.10206793931E+01  0.10204145397E+01 0.  0.
     999903    2    3    3    0    0 -0.88663627352E-01 -0.60070850144E-01 -0.70942580457E-01  0.13002447047E+00  0.20093962933E-01 0.  0.
         14    1    1    2    0    0  0.61193090772E-02  0.21614088307E-02 -0.22326510876E-01  0.23250606866E-01  0.00000000000E+00 0.  1.
     999901    1    3    3    0    0  0.82544318275E-01  0.57909441313E-01  0.93269091333E-01  0.89065492267E+00  0.88000000000E+00 0. -1.
        -11    1    4    4    0    0 -0.24911177252E-01 -0.79461390699E-02 -0.12129973673E-01  0.28828896276E-01  0.51100000000E-03 0. -1.
         11    1    4    4    0    0 -0.63752450100E-01 -0.52124711074E-01 -0.58812606783E-01  0.10119557419E+00  0.51100000000E-03 0.  1.
</event>
<event>
 8    1  0.1157726E+005  0.1043930E+01  0.7957747E-01            NaN
         13   -1    0    0    0    0  0.00000000000E+00  0.00000000000E+00  0.74505805969E-08  0.10566000000E+00  0.10566000000E+00 0. -1.
     999900   -1    0    0    0    0 -0.00000000000E+00 -0.00000000000E+00 -0.74505805969E-08  0.93827000000E+00  0.93827000000E+00 0. -1.
     999902    2    1    2    0    0 -0.27588161197E-02 -0.29001550412E-03  0.21658413113E-01  0.10220946609E+01  0.10218613966E+01 0.  0.
     999903    2    3    3    0    0  0.65829724552E-02  0.58227514356E-01  0.12015068928E+00  0.13461942249E+00  0.15887788507E-01 0.  0.
         14    1    1    2    0    0  0.27588161197E-02  0.29001550412E-03 -0.21658413113E-01  0.21835339107E-01  0.00000000000E+00 0.  1.
     999901    1    3    3    0    0 -0.93417885749E-02 -0.58517529860E-01 -0.98492276163E-01  0.88747523840E+00  0.88000000000E+00 0. -1.
        -11    1    4    4    0    0  0.96973720670E-02  0.38902060749E-01  0.68369225474E-01  0.79259204314E-01  0.51100000000E-03 0. -1.
         11    1    4    4    0    0 -0.31143996118E-02  0.19325453607E-01  0.51781463801E-01  0.55360218176E-01  0.51100000000E-03 0.  1.
</event>
<event>
 8    1  0.1157726E+005  0.1043930E+01  0.7957747E-01            NaN
         13   -1    0    0    0    0  0.00000000000E+00  0.00000000000E+00  0.74505805969E-08  0.10566000000E+00  0.10566000000E+00 0.  1.
     999900   -1    0    0    0    0 -0.00000000000E+00 -0.00000000000E+00 -0.74505805969E-08  0.93827000000E+00  0.93827000000E+00 0. -1.
     999902    2    1    2    0    0 -0.13589954372E-01  0.63761312994E-02 -0.25776366255E-01  0.10141011052E+01  0.10136623148E+01 0.  0.
     999903    2    3    3    0    0 -0.81191351580E-01  0.92924285952E-01 -0.23947135190E-01  0.12727311842E+00  0.19950511195E-01 0.  0.
         14    1    1    2    0    0  0.13589954372E-01 -0.63761312994E-02  0.25776366255E-01  0.29828894842E-01  0.00000000000E+00 0.  1.
     999901    1    3    3    0    0  0.67601397208E-01 -0.86548154653E-01 -0.18292310648E-02  0.88682798674E+00  0.88000000000E+00 0.  1.
        -11    1    4    4    0    0 -0.13958476750E-01  0.29064040077E-01 -0.50720299822E-02  0.32642673113E-01  0.51100000000E-03 0. -1.
         11    1    4    4    0    0 -0.67232874830E-01  0.63860245875E-01 -0.18875105208E-01  0.94630445306E-01  0.51100000000E-03 0.  1.
</event>
<event>
 8    1  0.1157726E+005  0.1043930E+01  0.7957747E-01            NaN
         13   -1    0    0    0    0  0.00000000000E+00  0.00000000000E+00  0.74505805969E-08  0.10566000000E+00  0.10566000000E+00 0.  1.
     999900   -1    0    0    0    0 -0.00000000000E+00 -0.00000000000E+00 -0.74505805969E-08  0.93827000000E+00  0.93827000000E+00 0. -1.
     999902    2    1    2    0    0  0.17586095885E-01  0.25957609663E-01  0.11267968641E-01  0.10106128065E+01  0.10100634679E+01 0.  0.
     999903    2    3    3    0    0  0.34419341846E-02  0.11913426372E+00  0.33140347571E-01  0.12531040212E+00  0.19989860930E-01 0.  0.
         14    1    1    2    0    0 -0.17586095885E-01 -0.25957609663E-01 -0.11267968641E-01  0.33317193537E-01  0.00000000000E+00 0. -1.
     999901    1    3    3    0    0  0.14144161700E-01 -0.93176654057E-01 -0.21872378930E-01  0.88530240434E+00  0.88000000000E+00 0. -1.
        -11    1    4    4    0    0  0.98730257106E-02  0.85095532114E-01  0.18191100855E-01  0.87577985212E-01  0.51100000000E-03 0.  1.
         11    1    4    4    0    0 -0.64310915260E-02  0.34038731605E-01  0.14949246716E-01  0.37732416910E-01  0.51100000000E-03 0. -1.
</event>
<event>
 7    1  0.1157726E+005  0.1043930E+01  0.7957747E-01            NaN
         13   -1    0    0    0    0  0.00000000000E+00  0.00000000000E+00  0.74505805969E-08  0.10566000000E+00  0.10566000000E+00 0. -1.
     999900   -1    0    0    0    0 -0.00000000000E+00 -0.00000000000E+00 -0.74505805969E-08  0.93827000000E+00  0.93827000000E+00 0.  1.
     999903    2    1    2    0    0 -0.32097695552E-01 -0.75267717972E-01  0.46916236219E-01  0.96452427856E-01  0.20160510659E-01 0.  0.
         14    1    1    2    0    0  0.53247288639E-01 -0.24254987506E-01  0.11732097824E-01  0.59675960702E-01  0.00000000000E+00 0. -1.
     999901    1    1    2    0    0 -0.21149593087E-01  0.99522705477E-01 -0.58648334043E-01  0.88780161144E+00  0.88000000000E+00 0.  1.
        -11    1    3    3    0    0 -0.20091314038E-01 -0.43022898287E-01  0.15761847396E-01  0.50033265245E-01  0.51100000000E-03 0.  1.
         11    1    3    3    0    0 -0.12006381513E-01 -0.32244819685E-01  0.31154388823E-01  0.46419162611E-01  0.51100000000E-03 0. -1.
</event>
<event>
 8    1  0.1157726E+005  0.1043930E+01  0.7957747E-01            NaN
         13   -1    0    0    0    0  0.00000000000E+00  0.00000000000E+00  0.74505805969E-08  0.10566000000E+00  0.10566000000E+00 0.  1.
     999900   -1    0    0    0    0 -0.00000000000E+00 -0.00000000000E+00 -0.74505805969E-08  0.93827000000E+00  0.93827000000E+00 0. -1.
     999902    2    1    2    0    0  0.37185254005E-02  0.17184695981E-01  0.14104881852E-01  0.10213891726E+01  0.10211404179E+01 0.  0.
     999903    2    3    3    0    0  0.10300046815E+00 -0.75522302892E-01  0.19011526543E-01  0.13095356744E+00  0.21787244225E-01 0.  0.
         14    1    1    2    0    0 -0.37185254005E-02 -0.17184695981E-01 -0.14104881852E-01  0.22540827384E-01  0.00000000000E+00 0.  1.
     999901    1    3    3    0    0 -0.99281942752E-01  0.92706998873E-01 -0.49066446912E-02  0.89043560517E+00  0.88000000000E+00 0.  1.
        -11    1    4    4    0    0  0.87759150159E-01 -0.61179308493E-01  0.79493772565E-02  0.10727548622E+00  0.51100000000E-03 0.  1.
         11    1    4    4    0    0  0.15241317993E-01 -0.14342994399E-01  0.11062149286E-01  0.23678081222E-01  0.51100000000E-03 0. -1.
</event>
<event>
 8    1  0.1157726E+005  0.1043930E+01  0.7957747E-01            NaN
         13   -1    0    0    0    0  0.00000000000E+00  0.00000000000E+00  0.74505805969E-08  0.10566000000E+00  0.10566000000E+00 0. -1.
     999900   -1    0    0    0    0 -0.00000000000E+00 -0.00000000000E+00 -0.74505805969E-08  0.93827000000E+00  0.93827000000E+00 0.  1.
     999902    2    1    2    0    0 -0.30582280705E-01 -0.79501913989E-03 -0.12335044284E-01  0.10109442263E+01  0.10104059419E+01 0.  0.
     999903    2    3    3    0    0 -0.34439556146E-01 -0.81982400149E-01  0.81378655263E-01  0.12224375546E+00  0.20343383545E-01 0.  0.
         14    1    1    2    0    0  0.30582280705E-01  0.79501913989E-03  0.12335044284E-01  0.32985773692E-01  0.00000000000E+00 0. -1.
     999901    1    3    3    0    0  0.38572754403E-02  0.81187381009E-01 -0.93713699547E-01  0.88870047085E+00  0.88000000000E+00 0.  1.
        -11    1    4    4    0    0 -0.14206522747E-01 -0.51808257890E-01  0.38795892654E-01  0.66266909404E-01  0.51100000000E-03 0.  1.
         11    1    4    4    0    0 -0.20233033399E-01 -0.30174142259E-01  0.42582762609E-01  0.55976846052E-01  0.51100000000E-03 0. -1.
</event>
<event>
 8    1  0.1157726E+005  0.1043930E+01  0.7957747E-01            NaN
         13   -1    0    0    0    0  0.00000000000E+00  0.00000000000E+00  0.74505805969E-08  0.10566000000E+00  0.10566000000E+00 0.  1.
     999900   -1    0    0    0    0 -0.00000000000E+00 -0.00000000000E+00 -0.74505805969E-08  0.93827000000E+00  0.93827000000E+00 0. -1.
     999902    2    1    2    0    0  0.69020112019E-02 -0.18421257185E-01  0.12670490692E-01  0.10205308161E+01  0.10202625273E+01 0.  0.
     999903    2    3    3    0    0  0.48999650665E-01 -0.22945137626E-01  0.11982599096E+00  0.13302026514E+00  0.20215779072E-01 0.  0.
         14    1    1    2    0    0 -0.69020112019E-02  0.18421257185E-01 -0.12670490692E-01  0.23399183945E-01  0.00000000000E+00 0. -1.
     999901    1    3    3    0    0 -0.42097639464E-01  0.45238804403E-02 -0.10715550027E+00  0.88751055091E+00  0.88000000000E+00 0. -1.
        -11    1    4    4    0    0  0.19090943634E-01 -0.12386277057E-01  0.29337992085E-01  0.37133043085E-01  0.51100000000E-03 0. -1.
         11    1    4    4    0    0  0.29908707031E-01 -0.10558860568E-01  0.90487998874E-01  0.95887222058E-01  0.51100000000E-03 0.  1.
</event>
<event>
 8    1  0.1157726E+005  0.1043930E+01  0.7957747E-01            NaN
         13   -1    0    0    0    0  0.00000000000E+00  0.00000000000E+00  0.74505805969E-08  0.10566000000E+00  0.10566000000E+00 0.  1.
     999900   -1    0    0    0    0 -0.00000000000E+00 -0.00000000000E+00 -0.74505805969E-08  0.93827000000E+00  0.93827000000E+00 0.  1.
     999902    2    1    2    0    0 -0.10598128742E-01 -0.18713893276E-01 -0.10088179524E-01  0.10201749689E+01  0.10198983605E+01 0.  0.
     999903    2    3    3    0    0 -0.80056080253E-01 -0.41188466556E-01 -0.95846774688E-01  0.13299739364E+00  0.19905696048E-01 0.  0.
         14    1    1    2    0    0  0.10598128742E-01  0.18713893276E-01  0.10088179524E-01  0.23755031056E-01  0.00000000000E+00 0.  1.
     999901    1    3    3    0    0  0.69457951512E-01  0.22474573281E-01  0.85758595164E-01  0.88717757530E+00  0.88000000000E+00 0. -1.
        -11    1    4    4    0    0 -0.29610073497E-01 -0.26286566744E-01 -0.41711725446E-01  0.57514078314E-01  0.51100000000E-03 0. -1.
         11    1    4    4    0    0 -0.50446006756E-01 -0.14901899813E-01 -0.54135049242E-01  0.75483315329E-01  0.51100000000E-03 0.  1.
</event>
<event>
 8    1  0.1157726E+005  0.1043930E+01  0.7957747E-01            NaN
         13   -1    0    0    0    0  0.00000000000E+00  0.00000000000E+00  0.74505805969E-08  0.10566000000E+00  0.10566000000E+00 0.  1.
     999900   -1    0    0    0    0 -0.00000000000E+00 -0.00000000000E+00 -0.74505805969E-08  0.93827000000E+00  0.93827000000E+00 0. -1.
     999902    2    1    2    0    0 -0.17096045382E-01  0.93551711244E-02  0.18365127087E-01  0.10171518020E+01  0.10167992508E+01 0.  0.
     999903    2    3    3    0    0  0.52386409074E-01  0.98593478703E-01  0.61504268796E-01  0.12886565861E+00  0.18936023614E-01 0.  0.
         14    1    1    2    0    0  0.17096045382E-01 -0.93551711244E-02 -0.18365127087E-01  0.26778197986E-01  0.00000000000E+00 0. -1.
     999901    1    3    3    0    0 -0.69482454456E-01 -0.89238307579E-01 -0.43139141709E-01  0.88828614340E+00  0.88000000000E+00 0.  1.
        -11    1    4    4    0    0  0.26349655206E-01  0.49622670508E-01  0.41703986237E-01  0.69972832920E-01  0.51100000000E-03 0. -1.
         11    1    4    4    0    0  0.26036753868E-01  0.48970808195E-01  0.19800282559E-01  0.58892825689E-01  0.51100000000E-03 0.  1.
</event>
<event>
 8    1  0.1157726E+005  0.1043930E+01  0.7957747E-01            NaN
         13   -1    0    0    0    0  0.00000000000E+00  0.00000000000E+00  0.74505805969E-08  0.10566000000E+00  0.10566000000E+00 0.  1.
     999900   -1    0    0    0    0 -0.00000000000E+00 -0.00000000000E+00 -0.74505805969E-08  0.93827000000E+00  0.93827000000E+00 0. -1.
     999902    2    1    2    0    0  0.12128590646E-01 -0.15764381588E-01  0.12720050013E-01  0.10203202963E+01  0.10200471013E+01 0.  0.
     999903    2    3    3    0    0  0.48704705907E-01 -0.48180667391E-01 -0.10932690589E+00  0.13055398580E+00  0.19961106408E-01 0.  0.
         14    1    1    2    0    0 -0.12128590646E-01  0.15764381588E-01 -0.12720050013E-01  0.23609703731E-01  0.00000000000E+00 0. -1.
     999901    1    3    3    0    0 -0.36576115261E-01  0.32416285803E-01  0.12204695591E+00  0.88976631047E+00  0.88000000000E+00 0.  1.
        -11    1    4    4    0    0  0.36484770473E-01 -0.28379604669E-01 -0.57772425123E-01  0.73989557798E-01  0.51100000000E-03 0. -1.
         11    1    4    4    0    0  0.12219935435E-01 -0.19801062722E-01 -0.51554480772E-01  0.56564428006E-01  0.51100000000E-03 0.  1.
</event>
<event>
 8    1  0.1157726E+005  0.1043930E+01  0.7957747E-01            NaN
         13   -1    0    0    0    0  0.00000000000E+00  0.00000000000E+00  0.74505805969E-08  0.10566000000E+00  0.10566000000E+00 0.  1.
     999900   -1    0    0    0    0 -0.00000000000E+00 -0.00000000000E+00 -0.74505805969E-08  0.93827000000E+00  0.93827000000E+00 0.  1.
     999902    2    1    2    0    0 -0.14586075980E-01 -0.14018147185E-01 -0.12537964105E-01  0.10201295251E+01  0.10198518448E+01 0.  0.
     999903    2    3    3    0    0  0.37684101060E-01 -0.11355839844E+00 -0.52272591519E-01  0.13208714227E+00  0.19974684022E-01 0.  0.
         14    1    1    2    0    0  0.14586075980E-01  0.14018147185E-01  0.12537964105E-01  0.23800474930E-01  0.00000000000E+00 0.  1.
     999901    1    3    3    0    0 -0.52270177040E-01  0.99540251252E-01  0.39734627414E-01  0.88804238280E+00  0.88000000000E+00 0. -1.
        -11    1    4    4    0    0  0.19105334106E-01 -0.30177558509E-01 -0.18494403171E-01  0.40224406752E-01  0.51100000000E-03 0. -1.
         11    1    4    4    0    0  0.18578766954E-01 -0.83380839927E-01 -0.33778188348E-01  0.91862735522E-01  0.51100000000E-03 0.  1.
</event>
<event>
 8    1  0.1157726E+005  0.1043930E+01  0.7957747E-01            NaN
         13   -1    0    0    0    0  0.00000000000E+00  0.00000000000E+00  0.74505805969E-08  0.10566000000E+00  0.10566000000E+00 0. -1.
     999900   -1    0    0    0    0 -0.00000000000E+00 -0.00000000000E+00 -0.74505805969E-08  0.93827000000E+00  0.93827000000E+00 0. -1.
     999902    2    1    2    0    0 -0.19675128638E-01  0.17616439157E-02 -0.15466679207E-01  0.10188415118E+01  0.10185325689E+01 0.  0.
     999903    2    3    3    0    0 -0.78608643522E-01 -0.80107367474E-01 -0.65889137611E-01  0.13164473623E+00  0.19810324652E-01 0.  0.
         14    1    1    2    0    0  0.19675128638E-01 -0.17616439157E-02  0.15466679207E-01  0.25088488235E-01  0.00000000000E+00 0. -1.
     999901    1    3    3    0    0  0.58933514884E-01  0.81869011390E-01  0.50422458404E-01  0.88719677553E+00  0.88000000000E+00 0. -1.
        -11    1    4    4    0    0 -0.36226224908E-01 -0.29993093021E-01 -0.37409778879E-01  0.60097235185E-01  0.51100000000E-03 0.  1.
         11    1    4    4    0    0 -0.42382418614E-01 -0.50114274453E-01 -0.28479358732E-01  0.71547501049E-01  0.51100000000E-03 0. -1.
</event>
<event>
 8    1  0.1157726E+005  0.1043930E+01  0.7957747E-01            NaN
         13   -1    0    0    0    0  0.00000000000E+00  0.00000000000E+00  0.74505805969E-08  0.10566000000E+00  0.10566000000E+00 0. -1.
     999900   -1    0    0    0    0 -0.00000000000E+00 -0.00000000000E+00 -0.74505805969E-08  0.93827000000E+00  0.93827000000E+00 0. -1.
     999902    2    1    2    0    0 -0.12774471424E-01 -0.88976093809E-02  0.18033817178E-01  0.10201062065E+01  0.10198279754E+01 0.  0.
     999903    2    3    3    0    0 -0.99386613548E-01  0.70851687799E-01  0.45683281980E-01  0.13183479167E+00  0.19894457180E-01 0.  0.
         14    1    1    2    0    0  0.12774471424E-01  0.88976093809E-02 -0.18033817178E-01  0.23823793461E-01  0.00000000000E+00 0.  1.
     999901    1    3    3    0    0  0.86612142124E-01 -0.79749297180E-01 -0.27649464802E-01  0.88827141487E+00  0.88000000000E+00 0.  1.
        -11    1    4    4    0    0 -0.90689797284E-01  0.61224920209E-01  0.34596987238E-01  0.11476211410E+00  0.51100000000E-03 0.  1.
         11    1    4    4    0    0 -0.86968162637E-02  0.96267675899E-02  0.11086294742E-01  0.17072677572E-01  0.51100000000E-03 0. -1.
</event>
<event>
 8    1  0.1157726E+005  0.1043930E+01  0.7957747E-01            NaN
         13   -1    0    0    0    0  0.00000000000E+00  0.00000000000E+00  0.74505805969E-08  0.10566000000E+00  0.10566000000E+00 0. -1.
     999900   -1    0    0    0    0 -0.00000000000E+00 -0.00000000000E+00 -0.74505805969E-08  0.93827000000E+00  0.93827000000E+00 0.  1.
     999902    2    1    2    0    0  0.13337247101E-02  0.94280359645E-02 -0.22014698573E-01  0.10199443035E+01  0.10196622326E+01 0.  0.
     999903    2    3    3    0    0 -0.10145649465E+00  0.80050738197E-01 -0.72785016728E-02  0.13102892464E+00  0.20348501451E-01 0.  0.
         14    1    1    2    0    0 -0.13337247101E-02 -0.94280359645E-02  0.22014698573E-01  0.23985696509E-01  0.00000000000E+00 0. -1.
     999901    1    3    3    0    0  0.10279021936E+00 -0.70622702233E-01 -0.14736196900E-01  0.88891537886E+00  0.88000000000E+00 0. -1.
        -11    1    4    4    0    0 -0.49967688378E-01  0.27021250148E-01 -0.58741546399E-03  0.56811301862E-01  0.51100000000E-03 0.  1.
         11    1    4    4    0    0 -0.51488806275E-01  0.53029488049E-01 -0.66910862088E-02  0.74217622773E-01  0.51100000000E-03 0. -1.
</event>
<event>
 8    1  0.1157726E+005  0.1043930E+01  0.7957747E-01            NaN
         13   -1    0    0    0    0  0.00000000000E+00  0.00000000000E+00  0.74505805969E-08  0.10566000000E+00  0.10566000000E+00 0. -1.
     999900   -1    0    0    0    0 -0.00000000000E+00 -0.00000000000E+00 -0.74505805969E-08  0.93827000000E+00  0.93827000000E+00 0.  1.
     999902    2    1    2    0    0 -0.19393332107E-01 -0.89153347066E-03 -0.14792810204E-01  0.10195225545E+01  0.10192303546E+01 0.  0.
     999903    2    3    3    0    0 -0.69797282212E-01 -0.10678131546E+00  0.21335016206E-01  0.13100782533E+00  0.20831645264E-01 0.  0.
         14    1    1    2    0    0  0.19393332107E-01  0.89153347066E-03  0.14792810204E-01  0.24407445501E-01  0.00000000000E+00 0. -1.
     999901    1    3    3    0    0  0.50403950105E-01  0.10588978199E+00 -0.36127826410E-01  0.88851472917E+00  0.88000000000E+00 0. -1.
        -11    1    4    4    0    0 -0.58172436441E-01 -0.86102085619E-01  0.90987461998E-02  0.10431035333E+00  0.51100000000E-03 0.  1.
         11    1    4    4    0    0 -0.11624845771E-01 -0.20679229842E-01  0.12236270007E-01  0.26697471992E-01  0.51100000000E-03 0. -1.
</event>
<event>
 8    1  0.1157726E+005  0.1043930E+01  0.7957747E-01            NaN
         13   -1    0    0    0    0  0.00000000000E+00  0.00000000000E+00  0.74505805969E-08  0.10566000000E+00  0.10566000000E+00 0.  1.
     999900   -1    0    0    0    0 -0.00000000000E+00 -0.00000000000E+00 -0.74505805969E-08  0.93827000000E+00  0.93827000000E+00 0. -1.
     999902    2    1    2    0    0  0.10962982209E-01  0.99837514120E-02  0.19625853870E-01  0.10193325121E+01  0.10190356882E+01 0.  0.
     999903    2    3    3    0    0 -0.24086470027E-01  0.12618978969E+00 -0.10843762781E-01  0.13047892180E+00  0.20078366033E-01 0.  0.
         14    1    1    2    0    0 -0.10962982209E-01 -0.99837514120E-02 -0.19625853870E-01  0.24597487906E-01  0.00000000000E+00 0. -1.
     999901    1    3    3    0    0  0.35049452235E-01 -0.11620603828E+00  0.30469616651E-01  0.88885359029E+00  0.88000000000E+00 0. -1.
        -11    1    4    4    0    0 -0.19581633767E-01  0.11588097453E+00 -0.46286067480E-02  0.11761600979E+00  0.51100000000E-03 0. -1.
         11    1    4    4    0    0 -0.45048362602E-02  0.10308815165E-01 -0.62151560327E-02  0.12862912009E-01  0.51100000000E-03 0.  1.
</event>
<event>
 8    1  0.1157726E+005  0.1043930E+01  0.7957747E-01            NaN
         13   -1    0    0    0    0  0.00000000000E+00  0.00000000000E+00  0.74505805969E-08  0.10566000000E+00  0.10566000000E+00 0. -1.
     999900   -1    0    0    0    0 -0.00000000000E+00 -0.00000000000E+00 -0.74505805969E-08  0.93827000000E+00  0.93827000000E+00 0. -1.
     999902    2    1    2    0    0  0.23082162280E-01  0.23692847884E-01 -0.83977348665E-02  0.10098028963E+01  0.10092260550E+01 0.  0.
     999903    2    3    3    0    0 -0.60572139575E-01  0.27054100150E-01 -0.99404937525E-01  0.12115693126E+00  0.19918633500E-01 0.  0.
         14    1    1    2    0    0 -0.23082162280E-01 -0.23692847884E-01  0.83977348665E-02  0.34127103705E-01  0.00000000000E+00 0. -1.
     999901    1    3    3    0    0  0.83654301855E-01 -0.33612522662E-02  0.91007202659E-01  0.88864596503E+00  0.88000000000E+00 0.  1.
        -11    1    4    4    0    0 -0.38241534911E-01  0.18877442264E-01 -0.46197578677E-01  0.62874877458E-01  0.51100000000E-03 0. -1.
         11    1    4    4    0    0 -0.22330604664E-01  0.81766578868E-02 -0.53207358848E-01  0.58282053803E-01  0.51100000000E-03 0.  1.
</event>
<event>
 8    1  0.1157726E+005  0.1043930E+01  0.7957747E-01            NaN
         13   -1    0    0    0    0  0.00000000000E+00  0.00000000000E+00  0.74505805969E-08  0.10566000000E+00  0.10566000000E+00 0.  1.
     999900   -1    0    0    0    0 -0.00000000000E+00 -0.00000000000E+00 -0.74505805969E-08  0.93827000000E+00  0.93827000000E+00 0. -1.
     999902    2    1    2    0    0  0.23354001879E-01 -0.13202828515E-02  0.47758189795E-02  0.10200561441E+01  0.10197767285E+01 0.  0.
     999903    2    3    3    0    0  0.81211020191E-01  0.99574690668E-01 -0.22813911496E-01  0.13197482826E+00  0.19660414886E-01 0.  0.
         14    1    1    2    0    0 -0.23354001879E-01  0.13202828515E-02 -0.47758189795E-02  0.23873855941E-01  0.00000000000E+00 0. -1.
     999901    1    3    3    0    0 -0.57857018312E-01 -0.10089497352E+00  0.27589730475E-01  0.88808131580E+00  0.88000000000E+00 0. -1.
        -11    1    4    4    0    0  0.35860639542E-01  0.37730666056E-01 -0.18194391303E-01  0.55144225675E-01  0.51100000000E-03 0.  1.
         11    1    4    4    0    0  0.45350380649E-01  0.61844024612E-01 -0.46195201923E-02  0.76830602582E-01  0.51100000000E-03 0. -1.
</event>
<event>
 8    1  0.1157726E+005  0.1043930E+01  0.7957747E-01            NaN
         13   -1    0    0    0    0  0.00000000000E+00  0.00000000000E+00  0.74505805969E-08  0.10566000000E+00  0.10566000000E+00 0.  1.
     999900   -1    0    0    0    0 -0.00000000000E+00 -0.00000000000E+00 -0.74505805969E-08  0.93827000000E+00  0.93827000000E+00 0. -1.
     999902    2    1    2    0    0  0.94583588786E-03 -0.19469548105E-01 -0.47938900065E-02  0.10238566522E+01  0.10236598581E+01 0.  0.
     999903    2    3    3    0    0 -0.88551995553E-01 -0.37226890722E-01 -0.92435988659E-01  0.13480866562E+00  0.20041632132E-01 0.  0.
         14    1    1    2    0    0 -0.94583588786E-03  0.19469548105E-01  0.47938900065E-02  0.20073347761E-01  0.00000000000E+00 0.  1.
     999901    1    3    3    0    0  0.89497831441E-01  0.17757342617E-01  0.87642098652E-01  0.88904798662E+00  0.88000000000E+00 0.  1.
        -11    1    4    4    0    0 -0.38369097795E-01 -0.56497148323E-02 -0.38619772031E-01  0.54734402856E-01  0.51100000000E-03 0.  1.
         11    1    4    4    0    0 -0.50182897759E-01 -0.31577175890E-01 -0.53816216628E-01  0.80074262767E-01  0.51100000000E-03 0. -1.
</event>
<event>
 8    1  0.1157726E+005  0.1043930E+01  0.7957747E-01            NaN
         13   -1    0    0    0    0  0.00000000000E+00  0.00000000000E+00  0.74505805969E-08  0.10566000000E+00  0.10566000000E+00 0. -1.
     999900   -1    0    0    0    0 -0.00000000000E+00 -0.00000000000E+00 -0.74505805969E-08  0.93827000000E+00  0.93827000000E+00 0. -1.
     999902    2    1    2    0    0  0.22153318456E-01  0.44820584685E-02 -0.80207961977E-02  0.10199468489E+01  0.10196648385E+01 0.  0.
     999903    2    3    3    0    0 -0.10285941850E+00 -0.11734510849E-01 -0.73518493922E-01  0.12855405670E+00  0.20085263880E-01 0.  0.
         14    1    1    2    0    0 -0.22153318456E-01 -0.44820584685E-02  0.80207961977E-02  0.23983151135E-01  0.00000000000E+00 0. -1.
     999901    1    3    3    0    0  0.12501273696E+00  0.16216569318E-01  0.65497697725E-01  0.89139279217E+00  0.88000000000E+00 0.  1.
        -11    1    4    4    0    0 -0.55860195442E-01 -0.16375937962E-01 -0.39582266501E-01  0.70395665501E-01  0.51100000000E-03 0. -1.
         11    1    4    4    0    0 -0.46999223060E-01  0.46414271130E-02 -0.33936227422E-01  0.58158391196E-01  0.51100000000E-03 0.  1.
</event>
<event>
 8    1  0.1157726E+005  0.1043930E+01  0.7957747E-01            NaN
         13   -1    0    0    0    0  0.00000000000E+00  0.00000000000E+00  0.74505805969E-08  0.10566000000E+00  0.10566000000E+00 0. -1.
     999900   -1    0    0    0    0 -0.00000000000E+00 -0.00000000000E+00 -0.74505805969E-08  0.93827000000E+00  0.93827000000E+00 0.  1.
     999902    2    1    2    0    0  0.16025015565E-01 -0.16438776370E-01 -0.67489910304E-02  0.10200012856E+01  0.10197205692E+01 0.  0.
     999903    2    3    3    0    0  0.75535784862E-01  0.68455205340E-01  0.77946453948E-01  0.12987666614E+00  0.20013215407E-01 0.  0.
         14    1    1    2    0    0 -0.16025015565E-01  0.16438776370E-01  0.67489910304E-02  0.23928714389E-01  0.00000000000E+00 0. -1.
     999901    1    3    3    0    0 -0.59510769297E-01 -0.84893981710E-01 -0.84695444978E-01  0.89012461947E+00  0.88000000000E+00 0.  1.
        -11    1    4    4    0    0  0.47815859592E-01  0.55432929203E-01  0.56725520887E-01  0.92613238305E-01  0.51100000000E-03 0.  1.
         11    1    4    4    0    0  0.27719925270E-01  0.13022276137E-01  0.21220933061E-01  0.37263427832E-01  0.51100000000E-03 0. -1.
</event>
<event>
 8    1  0.1157726E+005  0.1043930E+01  0.7957747E-01            NaN
         13   -1    0    0    0    0  0.00000000000E+00  0.00000000000E+00  0.74505805969E-08  0.10566000000E+00  0.10566000000E+00 0.  1.
     999900   -1    0    0    0    0 -0.00000000000E+00 -0.00000000000E+00 -0.74505805969E-08  0.93827000000E+00  0.93827000000E+00 0.  1.
     999902    2    1    2    0    0 -0.15674543655E-01  0.74256846464E-02  0.11645413097E-01  0.10230386679E+01  0.10228253361E+01 0.  0.
     999903    2    3    3    0    0  0.40293775892E-02  0.12625219918E-01 -0.12943520173E+00  0.13156852281E+00  0.19523644295E-01 0.  0.
         14    1    1    2    0    0  0.15674543655E-01 -0.74256846464E-02 -0.11645413097E-01  0.20891332113E-01  0.00000000000E+00 0. -1.
     999901    1    3    3    0    0 -0.19703921244E-01 -0.51995352715E-02  0.14108061483E+00  0.89147014507E+00  0.88000000000E+00 0. -1.
        -11    1    4    4    0    0 -0.67832742944E-02  0.32805837487E-02 -0.71363607392E-01  0.71762111318E-01  0.51100000000E-03 0. -1.
         11    1    4    4    0    0  0.10812651884E-01  0.93446361692E-02 -0.58071594338E-01  0.59806411494E-01  0.51100000000E-03 0.  1.
</event>
<event>
 7    1  0.1157726E+005  0.1043930E+01  0.7957747E-01            NaN
         13   -1    0    0    0    0  0.00000000000E+00  0.00000000000E+00  0.74505805969E-08  0.10566000000E+00  0.10566000000E+00 0.  1.
     999900   -1    0    0    0    0 -0.00000000000E+00 -0.00000000000E+00 -0.74505805969E-08  0.93827000000E+00  0.93827000000E+00 0. -1.
     999903    2    1    2    0    0 -0.33530077217E-01  0.84774530572E-01 -0.64950333544E-01  0.11355516120E+00  0.19111297579E-01 0.  0.
         14    1    1    2    0    0  0.19978480801E-01  0.14404947801E-01 -0.30914742413E-01  0.39526744298E-01  0.00000000000E+00 0. -1.
     999901    1    1    2    0    0  0.13551596416E-01 -0.99179478373E-01  0.95865075957E-01  0.89084809451E+00  0.88000000000E+00 0. -1.
        -11    1    3    3    0    0 -0.19759657800E-01  0.26544915919E-01 -0.26844524747E-01  0.42614155716E-01  0.51100000000E-03 0.  1.
         11    1    3    3    0    0 -0.13770419417E-01  0.58229614653E-01 -0.38105808797E-01  0.70941005481E-01  0.51100000000E-03 0. -1.
</event>
<event>
 8    1  0.1157726E+005  0.1043930E+01  0.7957747E-01            NaN
         13   -1    0    0    0    0  0.00000000000E+00  0.00000000000E+00  0.74505805969E-08  0.10566000000E+00  0.10566000000E+00 0.  1.
     999900   -1    0    0    0    0 -0.00000000000E+00 -0.00000000000E+00 -0.74505805969E-08  0.93827000000E+00  0.93827000000E+00 0. -1.
     999902    2    1    2    0    0 -0.11315659626E-01 -0.10140884666E-01 -0.18295740094E-01  0.10201473214E+01  0.10198700611E+01 0.  0.
     999903    2    3    3    0    0 -0.66337510927E-01 -0.88252127621E-02 -0.11356942607E+00  0.13329546776E+00  0.19776689559E-01 0.  0.
         14    1    1    2    0    0  0.11315659626E-01  0.10140884666E-01  0.18295740094E-01  0.23782678575E-01  0.00000000000E+00 0.  1.
     999901    1    3    3    0    0  0.55021851301E-01 -0.13156719037E-02  0.95273685979E-01  0.88685185367E+00  0.88000000000E+00 0.  1.
        -11    1    4    4    0    0 -0.53248945741E-01 -0.14889652896E-01 -0.87866253087E-01  0.10381662458E+00  0.51100000000E-03 0. -1.
         11    1    4    4    0    0 -0.13088565187E-01  0.60644401339E-02 -0.25703172986E-01  0.29478843182E-01  0.51100000000E-03 0.  1.
</event>
<event>
 8    1  0.1157726E+005  0.1043930E+01  0.7957747E-01            NaN
         13   -1    0    0    0    0  0.00000000000E+00  0.00000000000E+00  0.74505805969E-08  0.10566000000E+00  0.10566000000E+00 0.  1.
     999900   -1    0    0    0    0 -0.00000000000E+00 -0.00000000000E+00 -0.74505805969E-08  0.93827000000E+00  0.93827000000E+00 0.  1.
     999902    2    1    2    0    0  0.13741559854E-01  0.19760009345E-02 -0.17961255318E-01  0.10212288604E+01  0.10209765147E+01 0.  0.
     999903    2    3    3    0    0 -0.19525305399E-01 -0.12573003021E+00  0.21840739976E-01  0.13049898352E+00  0.19070624814E-01 0.  0.
         14    1    1    2    0    0 -0.13741559854E-01 -0.19760009345E-02  0.17961255318E-01  0.22701139609E-01  0.00000000000E+00 0.  1.
     999901    1    3    3    0    0  0.33266865253E-01  0.12770603114E+00 -0.39801995294E-01  0.89072987687E+00  0.88000000000E+00 0. -1.
        -11    1    4    4    0    0 -0.13419008179E-01 -0.46768330358E-01  0.12816744521E-02  0.48674945459E-01  0.51100000000E-03 0. -1.
         11    1    4    4    0    0 -0.61062972195E-02 -0.78961699851E-01  0.20559065524E-01  0.81824038065E-01  0.51100000000E-03 0.  1.
</event>
<event>
 8    1  0.1157726E+005  0.1043930E+01  0.7957747E-01            NaN
         13   -1    0    0    0    0  0.00000000000E+00  0.00000000000E+00  0.74505805969E-08  0.10566000000E+00  0.10566000000E+00 0. -1.
     999900   -1    0    0    0    0 -0.00000000000E+00 -0.00000000000E+00 -0.74505805969E-08  0.93827000000E+00  0.93827000000E+00 0. -1.
     999902    2    1    2    0    0 -0.17660451684E-01 -0.11815615846E-01 -0.11942320845E-01  0.10195554362E+01  0.10192640326E+01 0.  0.
     999903    2    3    3    0    0 -0.40462467881E-02 -0.63525279260E-01  0.11086322338E+00  0.12942036921E+00  0.20177820694E-01 0.  0.
         14    1    1    2    0    0  0.17660451684E-01  0.11815615846E-01  0.11942320845E-01  0.24374563763E-01  0.00000000000E+00 0. -1.
     999901    1    3    3    0    0 -0.13614204895E-01  0.51709663414E-01 -0.12280554423E+00  0.89013506703E+00  0.88000000000E+00 0. -1.
        -11    1    4    4    0    0 -0.60359192132E-02 -0.59553727328E-01  0.10941623453E+00  0.12472069700E+00  0.51100000000E-03 0.  1.
         11    1    4    4    0    0  0.19896724251E-02 -0.39715519320E-02  0.14469888497E-02  0.46996722054E-02  0.51100000000E-03 0. -1.
</event>
<event>
 8    1  0.1157726E+005  0.1043930E+01  0.7957747E-01            NaN
         13   -1    0    0    0    0  0.00000000000E+00  0.00000000000E+00  0.74505805969E-08  0.10566000000E+00  0.10566000000E+00 0. -1.
     999900   -1    0    0    0    0 -0.00000000000E+00 -0.00000000000E+00 -0.74505805969E-08  0.93827000000E+00  0.93827000000E+00 0. -1.
     999902    2    1    2    0    0  0.17379236323E-01  0.28379635964E-02 -0.16026522863E-01  0.10201194702E+01  0.10198415525E+01 0.  0.
     999903    2    3    3    0    0  0.10259454515E+00  0.56227864228E-01 -0.60547252300E-01  0.13327437345E+00  0.20220668775E-01 0.  0.
         14    1    1    2    0    0 -0.17379236323E-01 -0.28379635964E-02  0.16026522863E-01  0.23810529763E-01  0.00000000000E+00 0. -1.
     999901    1    3    3    0    0 -0.85215308832E-01 -0.53389900632E-01  0.44520729437E-01  0.88684509679E+00  0.88000000000E+00 0.  1.
        -11    1    4    4    0    0  0.82722481731E-01  0.53809646863E-01 -0.49491394244E-01  0.11039993797E+00  0.51100000000E-03 0.  1.
         11    1    4    4    0    0  0.19872063424E-01  0.24182173651E-02 -0.11055858055E-01  0.22874435474E-01  0.51100000000E-03 0. -1.
</event>
<event>
 8    1  0.1157726E+005  0.1043930E+01  0.7957747E-01            NaN
         13   -1    0    0    0    0  0.00000000000E+00  0.00000000000E+00  0.74505805969E-08  0.10566000000E+00  0.10566000000E+00 0.  1.
     999900   -1    0    0    0    0 -0.00000000000E+00 -0.00000000000E+00 -0.74505805969E-08  0.93827000000E+00  0.93827000000E+00 0. -1.
     999902    2    1    2    0    0 -0.22091069907E-01  0.10157202900E-02  0.75607658958E-02  0.10205588161E+01  0.10202911765E+01 0.  0.
     999903    2    3    3    0    0  0.79151631499E-01 -0.10680505590E-01  0.10040036536E+00  0.12982536687E+00  0.19883122267E-01 0.  0.
         14    1    1    2    0    0  0.22091069907E-01 -0.10157202900E-02 -0.75607658958E-02  0.23371183930E-01  0.00000000000E+00 0. -1.
     999901    1    3    3    0    0 -0.10124270141E+00  0.11696225880E-01 -0.92839599464E-01  0.89073344920E+00  0.88000000000E+00 0. -1.
        -11    1    4    4    0    0  0.48325402368E-01  0.31913281507E-02  0.61668669785E-01  0.78414380336E-01  0.51100000000E-03 0.  1.
         11    1    4    4    0    0  0.30826229132E-01 -0.13871833741E-01  0.38731695574E-01  0.51410986539E-01  0.51100000000E-03 0. -1.
</event>
<event>
 8    1  0.1157726E+005  0.1043930E+01  0.7957747E-01            NaN
         13   -1    0    0    0    0  0.00000000000E+00  0.00000000000E+00  0.74505805969E-08  0.10566000000E+00  0.10566000000E+00 0. -1.
     999900   -1    0    0    0    0 -0.00000000000E+00 -0.00000000000E+00 -0.74505805969E-08  0.93827000000E+00  0.93827000000E+00 0.  1.
     999902    2    1    2    0    0  0.15036775876E-01  0.10982771913E-01  0.15316585745E-01  0.10198193445E+01  0.10195342916E+01 0.  0.
     999903    2    3    3    0    0 -0.62357356888E-01  0.10419849835E+00  0.44147532766E-01  0.13105039428E+00  0.21895985361E-01 0.  0.
         14    1    1    2    0    0 -0.15036775876E-01 -0.10982771913E-01 -0.15316585745E-01  0.24110655456E-01  0.00000000000E+00 0.  1.
     999901    1    3    3    0    0  0.77394132764E-01 -0.93215726442E-01 -0.28830947021E-01  0.88876895026E+00  0.88000000000E+00 0.  1.
        -11    1    4    4    0    0 -0.58071143206E-01  0.92171891786E-01  0.32308584794E-01  0.11363107445E+00  0.51100000000E-03 0.  1.
         11    1    4    4    0    0 -0.42862136813E-02  0.12026606568E-01  0.11838947972E-01  0.17419319831E-01  0.51100000000E-03 0. -1.
</event>
<event>
 8    1  0.1157726E+005  0.1043930E+01  0.7957747E-01            NaN
         13   -1    0    0    0    0  0.00000000000E+00  0.00000000000E+00  0.74505805969E-08  0.10566000000E+00  0.10566000000E+00 0. -1.
     999900   -1    0    0    0    0 -0.00000000000E+00 -0.00000000000E+00 -0.74505805969E-08  0.93827000000E+00  0.93827000000E+00 0. -1.
     999902    2    1    2    0    0 -0.18462397169E-02 -0.86371462695E-02  0.21416463734E-01  0.10207637786E+01  0.10205008661E+01 0.  0.
     999903    2    3    3    0    0 -0.11274659477E-01 -0.12977056775E+00 -0.54757615811E-02  0.13200881082E+00  0.20708065308E-01 0.  0.
         14    1    1    2    0    0  0.18462397169E-02  0.86371462695E-02 -0.21416463734E-01  0.23166221437E-01  0.00000000000E+00 0.  1.
     999901    1    3    3    0    0  0.94284197599E-02  0.12113342148E+00  0.26892225316E-01  0.88875496774E+00  0.88000000000E+00 0.  1.
        -11    1    4    4    0    0 -0.91027935696E-02 -0.19235727422E-01 -0.22348060054E-02  0.21403960828E-01  0.51100000000E-03 0.  1.
         11    1    4    4    0    0 -0.21718659072E-02 -0.11053484033E+00 -0.32409555757E-02  0.11060485000E+00  0.51100000000E-03 0. -1.
</event>
<event>
 8    1  0.1157726E+005  0.1043930E+01  0.7957747E-01            NaN
         13   -1    0    0    0    0  0.00000000000E+00  0.00000000000E+00  0.74505805969E-08  0.10566000000E+00  0.10566000000E+00 0. -1.
     999900   -1    0    0    0    0 -0.00000000000E+00 -0.00000000000E+00 -0.74505805969E-08  0.93827000000E+00  0.93827000000E+00 0.  1.
     999902    2    1    2    0    0 -0.16990504912E-01  0.58447609221E-02  0.14896505388E-01  0.10205902408E+01  0.10203233288E+01 0.  0.
     999903    2    3    3    0    0 -0.95851873389E-01 -0.31257436177E-02  0.91109032616E-01  0.13373741495E+00  0.19684725742E-01 0.  0.
         14    1    1    2    0    0  0.16990504912E-01 -0.58447609221E-02 -0.14896505388E-01  0.23339759214E-01  0.00000000000E+00 0.  1.
     999901    1    3    3    0    0  0.78861368477E-01  0.89705045398E-02 -0.76212527228E-01  0.88685282584E+00  0.88000000000E+00 0.  1.
        -11    1    4    4    0    0 -0.64795210799E-01  0.70548394483E-02  0.58973922174E-01  0.87899799315E-01  0.51100000000E-03 0. -1.
         11    1    4    4    0    0 -0.31056662590E-01 -0.10180583066E-01  0.32135110442E-01  0.45837615633E-01  0.51100000000E-03 0.  1.
</event>
<event>
 8    1  0.1157726E+005  0.1043930E+01  0.7957747E-01            NaN
         13   -1    0    0    0    0  0.00000000000E+00  0.00000000000E+00  0.74505805969E-08  0.10566000000E+00  0.10566000000E+00 0.  1.
     999900   -1    0    0    0    0 -0.00000000000E+00 -0.00000000000E+00 -0.74505805969E-08  0.93827000000E+00  0.93827000000E+00 0.  1.
     999902    2    1    2    0    0  0.21282622762E-01  0.85508697117E-03  0.92015963868E-02  0.10207276169E+01  0.10204638736E+01 0.  0.
     999903    2    3    3    0    0  0.75078381080E-01  0.10174811342E+00  0.36005794657E-01  0.13292592089E+00  0.19581657371E-01 0.  0.
         14    1    1    2    0    0 -0.21282622762E-01 -0.85508697117E-03 -0.92015963868E-02  0.23202383098E-01  0.00000000000E+00 0.  1.
     999901    1    3    3    0    0 -0.53795758317E-01 -0.10089302645E+00 -0.26804198270E-01  0.88780169601E+00  0.88000000000E+00 0. -1.
        -11    1    4    4    0    0  0.46627890022E-01  0.47948004211E-01  0.22661363741E-01  0.70618480324E-01  0.51100000000E-03 0. -1.
         11    1    4    4    0    0  0.28450491058E-01  0.53800109208E-01  0.13344430916E-01  0.62307440564E-01  0.51100000000E-03 0.  1.
</event>
<event>
 8    1  0.1157726E+005  0.1043930E+01  0.7957747E-01            NaN
         13   -1    0    0    0    0  0.00000000000E+00  0.00000000000E+00  0.74505805969E-08  0.10566000000E+00  0.10566000000E+00 0. -1.
     999900   -1    0    0    0    0 -0.00000000000E+00 -0.00000000000E+00 -0.74505805969E-08  0.93827000000E+00  0.93827000000E+00 0.  1.
     999902    2    1    2    0    0 -0.12484478861E-01  0.16675437892E-01 -0.75232603444E-02  0.10217820455E+01  0.10215419799E+01 0.  0.
     999903    2    3    3    0    0 -0.21941856325E-01 -0.12646420528E+00  0.61796992571E-02  0.13006114158E+00  0.20076642874E-01 0.  0.
         14    1    1    2    0    0  0.12484478861E-01 -0.16675437892E-01  0.75232603444E-02  0.22147954477E-01  0.00000000000E+00 0.  1.
     999901    1    3    3    0    0  0.94573774644E-02  0.14313964317E+00 -0.13702959601E-01  0.89172090395E+00  0.88000000000E+00 0. -1.
        -11    1    4    4    0    0  0.38288421472E-02 -0.18817487312E-01  0.16089271464E-02  0.19277127080E-01  0.51100000000E-03 0.  1.
         11    1    4    4    0    0 -0.25770698472E-01 -0.10764671797E+00  0.45707721107E-02  0.11078401449E+00  0.51100000000E-03 0. -1.
</event>
<event>
 8    1  0.1157726E+005  0.1043930E+01  0.7957747E-01            NaN
         13   -1    0    0    0    0  0.00000000000E+00  0.00000000000E+00  0.74505805969E-08  0.10566000000E+00  0.10566000000E+00 0.  1.
     999900   -1    0    0    0    0 -0.00000000000E+00 -0.00000000000E+00 -0.74505805969E-08  0.93827000000E+00  0.93827000000E+00 0. -1.
     999902    2    1    2    0    0 -0.53240895804E-02  0.16662000283E-01  0.15938007297E-01  0.10202659289E+01  0.10199914595E+01 0.  0.
     999903    2    3    3    0    0  0.74390516998E-01 -0.60408369279E-01  0.86188723181E-01  0.13053033705E+00  0.20653154439E-01 0.  0.
         14    1    1    2    0    0  0.53240895804E-02 -0.16662000283E-01 -0.15938007297E-01  0.23664071076E-01  0.00000000000E+00 0. -1.
     999901    1    3    3    0    0 -0.79714606579E-01  0.77070369562E-01 -0.70250715884E-01  0.88973559187E+00  0.88000000000E+00 0. -1.
        -11    1    4    4    0    0  0.68050814472E-02 -0.50867497921E-02  0.10805500804E-02  0.85797940783E-02  0.51100000000E-03 0. -1.
         11    1    4    4    0    0  0.67585435551E-01 -0.55321619487E-01  0.85108173101E-01  0.12195054297E+00  0.51100000000E-03 0.  1.
</event>
<event>
 8    1  0.1157726E+005  0.1043930E+01  0.7957747E-01            NaN
         13   -1    0    0    0    0  0.00000000000E+00  0.00000000000E+00  0.74505805969E-08  0.10566000000E+00  0.10566000000E+00 0.  1.
     999900   -1    0    0    0    0 -0.00000000000E+00 -0.00000000000E+00 -0.74505805969E-08  0.93827000000E+00  0.93827000000E+00 0. -1.
     999902    2    1    2    0    0 -0.74447597382E-02 -0.16994378853E-01  0.10005295464E-01  0.10228506429E+01  0.10226334134E+01 0.  0.
     999903    2    3    3    0    0 -0.12880359292E+00  0.28139100404E-01 -0.13546494923E-02  0.13330354141E+00  0.19642417267E-01 0.  0.
         14    1    1    2    0    0  0.74447597382E-02  0.16994378853E-01 -0.10005295464E-01  0.21079357142E-01  0.00000000000E+00 0. -1.
     999901    1    3    3    0    0  0.12135883319E+00 -0.45133479257E-01  0.11359944957E-01  0.88954710145E+00  0.88000000000E+00 0.  1.
        -11    1    4    4    0    0 -0.70402901924E-01  0.68854344136E-02 -0.59083924829E-02  0.70986956753E-01  0.51100000000E-03 0. -1.
         11    1    4    4    0    0 -0.58400691000E-01  0.21253665990E-01  0.45537429906E-02  0.62316584659E-01  0.51100000000E-03 0.  1.
</event>
<event>
 8    1  0.1157726E+005  0.1043930E+01  0.7957747E-01            NaN
         13   -1    0    0    0    0  0.00000000000E+00  0.00000000000E+00  0.74505805969E-08  0.10566000000E+00  0.10566000000E+00 0. -1.
     999900   -1    0    0    0    0 -0.00000000000E+00 -0.00000000000E+00 -0.74505805969E-08  0.93827000000E+00  0.93827000000E+00 0.  1.
     999902    2    1    2    0    0  0.20148712060E-01 -0.13015996209E-01  0.27154311185E-02  0.10197895708E+01  0.10195038050E+01 0.  0.
     999903    2    3    3    0    0 -0.28465659787E-01  0.89776677335E-01  0.85440201197E-01  0.12862568103E+00  0.19349218542E-01 0.  0.
         14    1    1    2    0    0 -0.20148712060E-01  0.13015996209E-01 -0.27154311185E-02  0.24140429183E-01  0.00000000000E+00 0.  1.
     999901    1    3    3    0    0  0.48614371847E-01 -0.10279267354E+00 -0.82724770079E-01  0.89116388979E+00  0.88000000000E+00 0.  1.
        -11    1    4    4    0    0  0.12524987201E-02  0.19741148727E-01  0.13807991537E-01  0.24128892586E-01  0.51100000000E-03 0.  1.
         11    1    4    4    0    0 -0.29718158507E-01  0.70035528607E-01  0.71632209661E-01  0.10449678844E+00  0.51100000000E-03 0. -1.
</event>
<event>
 8    1  0.1157726E+005  0.1043930E+01  0.7957747E-01            NaN
         13   -1    0    0    0    0  0.00000000000E+00  0.00000000000E+00  0.74505805969E-08  0.10566000000E+00  0.10566000000E+00 0. -1.
     999900   -1    0    0    0    0 -0.00000000000E+00 -0.00000000000E+00 -0.74505805969E-08  0.93827000000E+00  0.93827000000E+00 0. -1.
     999902    2    1    2    0    0  0.11414316654E-01  0.21062388353E-01 -0.78115238662E-02  0.10187321681E+01  0.10184204925E+01 0.  0.
     999903    2    3    3    0    0  0.13846972113E-01  0.15827341728E-01  0.12536348338E+00  0.12869345765E+00  0.20093772550E-01 0.  0.
         14    1    1    2    0    0 -0.11414316654E-01 -0.21062388353E-01  0.78115238662E-02  0.25197831909E-01  0.00000000000E+00 0. -1.
     999901    1    3    3    0    0 -0.24326554591E-02  0.52350466246E-02 -0.13317500724E+00  0.89003871044E+00  0.88000000000E+00 0. -1.
        -11    1    4    4    0    0  0.11125913483E-01  0.12675692786E-01  0.42547292881E-01  0.45771086845E-01  0.51100000000E-03 0. -1.
         11    1    4    4    0    0  0.27210586292E-02  0.31516489423E-02  0.82816190495E-01  0.82922370807E-01  0.51100000000E-03 0.  1.
</event>
<event>
 8    1  0.1157726E+005  0.1043930E+01  0.7957747E-01            NaN
         13   -1    0    0    0    0  0.00000000000E+00  0.00000000000E+00  0.74505805969E-08  0.10566000000E+00  0.10566000000E+00 0. -1.
     999900   -1    0    0    0    0 -0.00000000000E+00 -0.00000000000E+00 -0.74505805969E-08  0.93827000000E+00  0.93827000000E+00 0. -1.
     999902    2    1    2    0    0  0.15144627592E-01  0.15738552012E-01 -0.40965858445E-02  0.10217074038E+01  0.10214656995E+01 0.  0.
     999903    2    3    3    0    0 -0.87966847652E-01 -0.89798326502E-01 -0.23376641994E-01  0.12921553855E+00  0.18662322554E-01 0.  0.
         14    1    1    2    0    0 -0.15144627592E-01 -0.15738552012E-01  0.40965858445E-02  0.22222596156E-01  0.00000000000E+00 0. -1.
     999901    1    3    3    0    0  0.10311147524E+00  0.10553687851E+00  0.19280056149E-01  0.89249186530E+00  0.88000000000E+00 0.  1.
        -11    1    4    4    0    0 -0.21894762654E-01 -0.34035789058E-01 -0.45310546752E-02  0.40726000858E-01  0.51100000000E-03 0.  1.
         11    1    4    4    0    0 -0.66072084998E-01 -0.55762537445E-01 -0.18845587319E-01  0.88489537690E-01  0.51100000000E-03 0. -1.
</event>
<event>
 8    1  0.1157726E+005  0.1043930E+01  0.7957747E-01            NaN
         13   -1    0    0    0    0  0.00000000000E+00  0.00000000000E+00  0.74505805969E-08  0.10566000000E+00  0.10566000000E+00 0. -1.
     999900   -1    0    0    0    0 -0.00000000000E+00 -0.00000000000E+00 -0.74505805969E-08  0.93827000000E+00  0.93827000000E+00 0.  1.
     999902    2    1    2    0    0  0.10482158444E-01  0.42048020881E-02  0.20161388295E-01  0.10208207468E+01  0.10205591406E+01 0.  0.
     999903    2    3    3    0    0  0.29790493252E-01  0.74629091262E-01  0.10499607009E+00  0.13373038186E+00  0.20066528061E-01 0.  0.
         14    1    1    2    0    0 -0.10482158444E-01 -0.42048020881E-02 -0.20161388295E-01  0.23109253216E-01  0.00000000000E+00 0.  1.
     999901    1    3    3    0    0 -0.19308334807E-01 -0.70424289174E-01 -0.84834681795E-01  0.88709036492E+00  0.88000000000E+00 0.  1.
        -11    1    4    4    0    0  0.23388275135E-01  0.70109534431E-01  0.87399726148E-01  0.11446104789E+00  0.51100000000E-03 0.  1.
         11    1    4    4    0    0  0.64022181166E-02  0.45195568313E-02  0.17596343941E-01  0.19269333975E-01  0.51100000000E-03 0. -1.
</event>
<event>
 8    1  0.1157726E+005  0.1043930E+01  0.7957747E-01            NaN
         13   -1    0    0    0    0  0.00000000000E+00  0.00000000000E+00  0.74505805969E-08  0.10566000000E+00  0.10566000000E+00 0. -1.
     999900   -1    0    0    0    0 -0.00000000000E+00 -0.00000000000E+00 -0.74505805969E-08  0.93827000000E+00  0.93827000000E+00 0.  1.
     999902    2    1    2    0    0 -0.11936301963E-01  0.18507828498E-01  0.54121774051E-02  0.10212516693E+01  0.10209998361E+01 0.  0.
     999903    2    3    3    0    0  0.11760567818E+00  0.26216792742E-01  0.46594851590E-01  0.13078181274E+00  0.20356487598E-01 0.  0.
         14    1    1    2    0    0  0.11936301963E-01 -0.18507828498E-01 -0.54121774051E-02  0.22678330726E-01  0.00000000000E+00 0.  1.
     999901    1    3    3    0    0 -0.12954198014E+00 -0.77089642436E-02 -0.41182674185E-01  0.89046985654E+00  0.88000000000E+00 0.  1.
        -11    1    4    4    0    0  0.65531617253E-01  0.20733679779E-01  0.35066183047E-01  0.77163311564E-01  0.51100000000E-03 0. -1.
         11    1    4    4    0    0  0.52074060922E-01  0.54831129631E-02  0.11528668542E-01  0.53618501173E-01  0.51100000000E-03 0.  1.
</event>
<event>
 8    1  0.1157726E+005  0.1043930E+01  0.7957747E-01            NaN
         13   -1    0    0    0    0  0.00000000000E+00  0.00000000000E+00  0.74505805969E-08  0.10566000000E+00  0.10566000000E+00 0.  1.
     999900   -1    0    0    0    0 -0.00000000000E+00 -0.00000000000E+00 -0.74505805969E-08  0.93827000000E+00  0.93827000000E+00 0. -1.
     999902    2    1    2    0    0 -0.62879078637E-02 -0.10522795971E-01 -0.14661906194E-01  0.10248187857E+01  0.10246405735E+01 0.  0.
     999903    2    3    3    0    0  0.21955953882E-01 -0.12853544921E+00  0.30508474215E-01  0.13534418494E+00  0.19592237863E-01 0.  0.
         14    1    1    2    0    0  0.62879078637E-02  0.10522795971E-01  0.14661906194E-01  0.19111214341E-01  0.00000000000E+00 0.  1.
     999901    1    3    3    0    0 -0.28243861746E-01  0.11801265324E+00 -0.45170380409E-01  0.88947460072E+00  0.88000000000E+00 0. -1.
        -11    1    4    4    0    0  0.12351399943E-01 -0.25202636021E-01  0.58078353821E-02  0.28665694058E-01  0.51100000000E-03 0.  1.
         11    1    4    4    0    0  0.96045539392E-02 -0.10333281319E+00  0.24700638833E-01  0.10667849089E+00  0.51100000000E-03 0. -1.
</event>
<event>
 8    1  0.1157726E+005  0.1043930E+01  0.7957747E-01            NaN
         13   -1    0    0    0    0  0.00000000000E+00  0.00000000000E+00  0.74505805969E-08  0.10566000000E+00  0.10566000000E+00 0. -1.
     999900   -1    0    0    0    0 -0.00000000000E+00 -0.00000000000E+00 -0.74505805969E-08  0.93827000000E+00  0.93827000000E+00 0. -1.
     999902    2    1    2    0    0 -0.14965520889E-01 -0.19292769337E-01 -0.23163397457E-02  0.10194036225E+01  0.10191085332E+01 0.  0.
     999903    2    3    3    0    0 -0.56649763102E-01 -0.51756892581E-01 -0.10526574311E+00  0.13182823132E+00  0.20244364945E-01 0.  0.
         14    1    1    2    0    0  0.14965520889E-01  0.19292769337E-01  0.23163397457E-02  0.24526377515E-01  0.00000000000E+00 0. -1.
     999901    1    3    3    0    0  0.41684242213E-01  0.32464123244E-01  0.10294940336E+00  0.88757539116E+00  0.88000000000E+00 0.  1.
        -11    1    4    4    0    0 -0.94932737339E-02 -0.32440599415E-02 -0.24433642986E-01  0.26417990114E-01  0.51100000000E-03 0. -1.
         11    1    4    4    0    0 -0.47156489368E-01 -0.48512832639E-01 -0.80832100122E-01  0.10541024121E+00  0.51100000000E-03 0.  1.
</event>
<event>
 8    1  0.1157726E+005  0.1043930E+01  0.7957747E-01            NaN
         13   -1    0    0    0    0  0.00000000000E+00  0.00000000000E+00  0.74505805969E-08  0.10566000000E+00  0.10566000000E+00 0.  1.
     999900   -1    0    0    0    0 -0.00000000000E+00 -0.00000000000E+00 -0.74505805969E-08  0.93827000000E+00  0.93827000000E+00 0. -1.
     999902    2    1    2    0    0 -0.11063239522E-01 -0.14749339788E-01 -0.13955027498E-01  0.10208068280E+01  0.10205449029E+01 0.  0.
     999903    2    3    3    0    0 -0.70425400699E-01 -0.87126423304E-01 -0.70969087673E-01  0.13400757702E+00  0.19252755469E-01 0.  0.
         14    1    1    2    0    0  0.11063239522E-01  0.14749339788E-01  0.13955027498E-01  0.23123172044E-01  0.00000000000E+00 0.  1.
     999901    1    3    3    0    0  0.59362161177E-01  0.72377083516E-01  0.57014060176E-01  0.88679925093E+00  0.88000000000E+00 0.  1.
        -11    1    4    4    0    0 -0.41504622609E-01 -0.62523058340E-01 -0.53765111584E-01  0.92318551044E-01  0.51100000000E-03 0.  1.
         11    1    4    4    0    0 -0.28920778090E-01 -0.24603364964E-01 -0.17203976089E-01  0.41689025980E-01  0.51100000000E-03 0. -1.
</event>
<event>
 8    1  0.1157726E+005  0.1043930E+01  0.7957747E-01            NaN
         13   -1    0    0    0    0  0.00000000000E+00  0.00000000000E+00  0.74505805969E-08  0.10566000000E+00  0.10566000000E+00 0.  1.
     999900   -1    0    0    0    0 -0.00000000000E+00 -0.00000000000E+00 -0.74505805969E-08  0.93827000000E+00  0.93827000000E+00 0.  1.
     999902    2    1    2    0    0 -0.37072593021E-02  0.23695722753E-01 -0.18693287717E-02  0.10198732870E+01  0.10195895234E+01 0.  0.
     999903    2    3    3    0    0 -0.11040513018E+00 -0.33257335676E-01 -0.56403705909E-01  0.12992829728E+00  0.20115696535E-01 0.  0.
         14    1    1    2    0    0  0.37072593021E-02 -0.23695722753E-01  0.18693287717E-02  0.24056712959E-01  0.00000000000E+00 0. -1.
     999901    1    3    3    0    0  0.10669787088E+00  0.56953058429E-01  0.54534377137E-01  0.88994498976E+00  0.88000000000E+00 0. -1.
        -11    1    4    4    0    0 -0.75200543746E-01 -0.28550071091E-01 -0.47077194381E-01  0.93202745082E-01  0.51100000000E-03 0.  1.
         11    1    4    4    0    0 -0.35204586434E-01 -0.47072645844E-02 -0.93265115277E-02  0.36725552196E-01  0.51100000000E-03 0. -1.
</event>
<event>
 8    1  0.1157726E+005  0.1043930E+01  0.7957747E-01            NaN
         13   -1    0    0    0    0  0.00000000000E+00  0.00000000000E+00  0.74505805969E-08  0.10566000000E+00  0.10566000000E+00 0.  1.
     999900   -1    0    0    0    0 -0.00000000000E+00 -0.00000000000E+00 -0.74505805969E-08  0.93827000000E+00  0.93827000000E+00 0.  1.
     999902    2    1    2    0    0 -0.27922489923E-03  0.21741199705E-01  0.13848444409E-01  0.10181513820E+01  0.10178249848E+01 0.  0.
     999903    2    3    3    0    0  0.83343426325E-01  0.33361516557E-02  0.97449618417E-01  0.13005192259E+00  0.21443363067E-01 0.  0.
         14    1    1    2    0    0  0.27922489923E-03 -0.21741199705E-01 -0.13848444409E-01  0.25778617956E-01  0.00000000000E+00 0. -1.
     999901    1    3    3    0    0 -0.83622651224E-01  0.18405048049E-01 -0.83601174008E-01  0.88809945946E+00  0.88000000000E+00 0.  1.
        -11    1    4    4    0    0  0.78401470330E-01 -0.22498876506E-02  0.86193491073E-01  0.11653939921E+00  0.51100000000E-03 0. -1.
         11    1    4    4    0    0  0.49419559951E-02  0.55860393062E-02  0.11256127344E-01  0.13512523376E-01  0.51100000000E-03 0.  1.
</event>
<event>
 8    1  0.1157726E+005  0.1043930E+01  0.7957747E-01            NaN
         13   -1    0    0    0    0  0.00000000000E+00  0.00000000000E+00  0.74505805969E-08  0.10566000000E+00  0.10566000000E+00 0.  1.
     999900   -1    0    0    0    0 -0.00000000000E+00 -0.00000000000E+00 -0.74505805969E-08  0.93827000000E+00  0.93827000000E+00 0.  1.
     999902    2    1    2    0    0 -0.16300473824E-01  0.88402265510E-02 -0.13717833099E-01  0.10208641378E+01  0.10206035244E+01 0.  0.
     999903    2    3    3    0    0  0.10448137306E+00 -0.46673121832E-01 -0.60015765910E-01  0.12967757770E+00  0.10938207415E-01 0.  0.
         14    1    1    2    0    0  0.16300473824E-01 -0.88402265510E-02  0.13717833099E-01  0.23065862162E-01  0.00000000000E+00 0.  1.
     999901    1    3    3    0    0 -0.12078184689E+00  0.55513348383E-01  0.46297932811E-01  0.89118656014E+00  0.88000000000E+00 0.  1.
        -11    1    4    4    0    0  0.63471977695E-01 -0.22538494986E-01 -0.36017021497E-01  0.76381690655E-01  0.51100000000E-03 0.  1.
         11    1    4    4    0    0  0.41009395370E-01 -0.24134626846E-01 -0.23998744413E-01  0.53295887046E-01  0.51100000000E-03 0. -1.
</event>
<event>
 8    1  0.1157726E+005  0.1043930E+01  0.7957747E-01            NaN
         13   -1    0    0    0    0  0.00000000000E+00  0.00000000000E+00  0.74505805969E-08  0.10566000000E+00  0.10566000000E+00 0.  1.
     999900   -1    0    0    0    0 -0.00000000000E+00 -0.00000000000E+00 -0.74505805969E-08  0.93827000000E+00  0.93827000000E+00 0.  1.
     999902    2    1    2    0    0  0.92147245016E-03  0.21622500814E-01 -0.98187200988E-02  0.10201647119E+01  0.10198878617E+01 0.  0.
     999903    2    3    3    0    0 -0.32502971418E-01  0.13794279616E-02 -0.12612924984E+00  0.13165184495E+00  0.19112159543E-01 0.  0.
         14    1    1    2    0    0 -0.92147245016E-03 -0.21622500814E-01  0.98187200988E-02  0.23765288075E-01  0.00000000000E+00 0.  1.
     999901    1    3    3    0    0  0.33424443868E-01  0.20243072852E-01  0.11631052974E+00  0.88851286697E+00  0.88000000000E+00 0. -1.
        -11    1    4    4    0    0 -0.19701113660E-01  0.93329988086E-02 -0.60424493408E-01  0.64238767663E-01  0.51100000000E-03 0.  1.
         11    1    4    4    0    0 -0.12801857758E-01 -0.79535708469E-02 -0.65704756429E-01  0.67413077290E-01  0.51100000000E-03 0. -1.
</event>
<event>
 8    1  0.1157726E+005  0.1043930E+01  0.7957747E-01            NaN
         13   -1    0    0    0    0  0.00000000000E+00  0.00000000000E+00  0.74505805969E-08  0.10566000000E+00  0.10566000000E+00 0. -1.
     999900   -1    0    0    0    0 -0.00000000000E+00 -0.00000000000E+00 -0.74505805969E-08  0.93827000000E+00  0.93827000000E+00 0.  1.
     999902    2    1    2    0    0 -0.41213880766E-02  0.96285987474E-02 -0.20638238334E-01  0.10207862614E+01  0.10205238649E+01 0.  0.
     999903    2    3    3    0    0  0.25721136973E-01 -0.82076132738E-01  0.93155916046E-01  0.12823405363E+00  0.19180181524E-01 0.  0.
         14    1    1    2    0    0  0.41213880766E-02 -0.96285987474E-02  0.20638238334E-01  0.23143738571E-01  0.00000000000E+00 0. -1.
     999901    1    3    3    0    0 -0.29842525050E-01  0.91704731485E-01 -0.11379415438E+00  0.89255220780E+00  0.88000000000E+00 0.  1.
        -11    1    4    4    0    0 -0.65176960309E-03 -0.21857698088E-01  0.29492720512E-01  0.36718734367E-01  0.51100000000E-03 0. -1.
         11    1    4    4    0    0  0.26372906576E-01 -0.60218434650E-01  0.63663195534E-01  0.91515319261E-01  0.51100000000E-03 0.  1.
</event>
<event>
 8    1  0.1157726E+005  0.1043930E+01  0.7957747E-01            NaN
         13   -1    0    0    0    0  0.00000000000E+00  0.00000000000E+00  0.74505805969E-08  0.10566000000E+00  0.10566000000E+00 0. -1.
     999900   -1    0    0    0    0 -0.00000000000E+00 -0.00000000000E+00 -0.74505805969E-08  0.93827000000E+00  0.93827000000E+00 0. -1.
     999902    2    1    2    0    0  0.13387512522E-01 -0.19561250169E-01  0.11600210429E-01  0.10175399852E+01  0.10171977136E+01 0.  0.
     999903    2    3    3    0    0  0.46317580932E-01  0.48250138450E-01  0.10848243819E+00  0.12901933833E+00  0.20103634139E-01 0.  0.
         14    1    1    2    0    0 -0.13387512522E-01  0.19561250169E-01 -0.11600210429E-01  0.26390014811E-01  0.00000000000E+00 0.  1.
     999901    1    3    3    0    0 -0.32930068410E-01 -0.67811388619E-01 -0.96882227758E-01  0.88852064685E+00  0.88000000000E+00 0. -1.
        -11    1    4    4    0    0  0.44696211209E-01  0.40990654272E-01  0.85267438855E-01  0.10463642905E+00  0.51100000000E-03 0. -1.
         11    1    4    4    0    0  0.16213697231E-02  0.72594841783E-02  0.23214999332E-01  0.24382909287E-01  0.51100000000E-03 0.  1.
</event>
<event>
 8    1  0.1157726E+005  0.1043930E+01  0.7957747E-01            NaN
         13   -1    0    0    0    0  0.00000000000E+00  0.00000000000E+00  0.74505805969E-08  0.10566000000E+00  0.10566000000E+00 0.  1.
     999900   -1    0    0    0    0 -0.00000000000E+00 -0.00000000000E+00 -0.74505805969E-08  0.93827000000E+00  0.93827000000E+00 0.  1.
     999902    2    1    2    0    0  0.12040668767E-01  0.12809854709E-01 -0.15550720414E-01  0.10204588478E+01  0.10201888869E+01 0.  0.
     999903    2    3    3    0    0 -0.86654272847E-01 -0.38967166119E-02  0.92338924538E-01  0.12823691544E+00  0.19851501048E-01 0.  0.
         14    1    1    2    0    0 -0.12040668767E-01 -0.12809854709E-01  0.15550720414E-01  0.23471152239E-01  0.00000000000E+00 0.  1.
     999901    1    3    3    0    0  0.98694941614E-01  0.16706571321E-01 -0.10788964495E+00  0.89222193232E+00  0.88000000000E+00 0.  1.
        -11    1    4    4    0    0 -0.73909948184E-01 -0.17678246106E-02  0.66935686575E-01  0.99731905139E-01  0.51100000000E-03 0. -1.
         11    1    4    4    0    0 -0.12744324663E-01 -0.21288920012E-02  0.25403237963E-01  0.28505010301E-01  0.51100000000E-03 0.  1.
</event>
<event>
 8    1  0.1368286E+005  0.1043930E+01  0.7957747E-01            NaN
         13   -1    0    0    0    0  0.00000000000E+00  0.00000000000E+00  0.74505805969E-08  0.10566000000E+00  0.10566000000E+00 0.  1.
     999900   -1    0    0    0    0 -0.00000000000E+00 -0.00000000000E+00 -0.74505805969E-08  0.93827000000E+00  0.93827000000E+00 0. -1.
     999902    2    1    2    0    0  0.18131498898E-01  0.13786974294E-01 -0.27034006149E-02  0.10209922519E+01  0.10207345581E+01 0.  0.
     999903    2    3    3    0    0 -0.53600799138E-01 -0.10499673125E+00 -0.51230435493E-01  0.12879834675E+00  0.81912980616E-02 0.  0.
         14    1    1    2    0    0 -0.18131498898E-01 -0.13786974294E-01  0.27034006149E-02  0.22937748089E-01  0.00000000000E+00 0.  1.
     999901    1    3    3    0    0  0.71732298036E-01  0.11878370555E+00  0.48527034878E-01  0.89219390516E+00  0.88000000000E+00 0. -1.
        -11    1    4    4    0    0 -0.27323758992E-01 -0.45586896320E-01 -0.21069117733E-01  0.57174485259E-01  0.51100000000E-03 0.  1.
         11    1    4    4    0    0 -0.26277040146E-01 -0.59409834933E-01 -0.30161317760E-01  0.71623861496E-01  0.51100000000E-03 0. -1.
</event>
<event>
 8    1  0.1157726E+005  0.1043930E+01  0.7957747E-01            NaN
         13   -1    0    0    0    0  0.00000000000E+00  0.00000000000E+00  0.74505805969E-08  0.10566000000E+00  0.10566000000E+00 0.  1.
     999900   -1    0    0    0    0 -0.00000000000E+00 -0.00000000000E+00 -0.74505805969E-08  0.93827000000E+00  0.93827000000E+00 0.  1.
     999902    2    1    2    0    0  0.23507360916E-01 -0.13647168885E-02  0.49884701859E-02  0.10198604486E+01  0.10195763784E+01 0.  0.
     999903    2    3    3    0    0  0.11683852790E+00 -0.44170231485E-01  0.41412990550E-01  0.13314191125E+00  0.20235656461E-01 0.  0.
         14    1    1    2    0    0 -0.23507360916E-01  0.13647168885E-02 -0.49884701859E-02  0.24069551393E-01  0.00000000000E+00 0. -1.
     999901    1    3    3    0    0 -0.93331166988E-01  0.42805514596E-01 -0.36424520364E-01  0.88671853736E+00  0.88000000000E+00 0. -1.
        -11    1    4    4    0    0  0.10362120957E-01 -0.10717178299E-01  0.54810970071E-02  0.15891350063E-01  0.51100000000E-03 0.  1.
         11    1    4    4    0    0  0.10647640695E+00 -0.33453053186E-01  0.35931893543E-01  0.11725056119E+00  0.51100000000E-03 0. -1.
</event>
<event>
 8    1  0.1157726E+005  0.1043930E+01  0.7957747E-01            NaN
         13   -1    0    0    0    0  0.00000000000E+00  0.00000000000E+00  0.74505805969E-08  0.10566000000E+00  0.10566000000E+00 0.  1.
     999900   -1    0    0    0    0 -0.00000000000E+00 -0.00000000000E+00 -0.74505805969E-08  0.93827000000E+00  0.93827000000E+00 0.  1.
     999902    2    1    2    0    0  0.30360544000E-02  0.29329431733E-02  0.23244316156E-01  0.10203054785E+01  0.10200319365E+01 0.  0.
     999903    2    3    3    0    0  0.37320886950E-01 -0.12307549245E+00  0.11095375597E-01  0.13058576290E+00  0.19725837598E-01 0.  0.
         14    1    1    2    0    0 -0.30360544000E-02 -0.29329431733E-02 -0.23244316156E-01  0.23624521488E-01  0.00000000000E+00 0. -1.
     999901    1    3    3    0    0 -0.34284832550E-01  0.12600843562E+00  0.12148940558E-01  0.88971971561E+00  0.88000000000E+00 0. -1.
        -11    1    4    4    0    0  0.36769619518E-01 -0.11404992034E+00  0.14915091409E-01  0.12075640903E+00  0.51100000000E-03 0. -1.
         11    1    4    4    0    0  0.55126743177E-03 -0.90255721090E-02 -0.38197158114E-02  0.98293538728E-02  0.51100000000E-03 0.  1.
</event>
<event>
 8    1  0.1157726E+005  0.1043930E+01  0.7957747E-01            NaN
         13   -1    0    0    0    0  0.00000000000E+00  0.00000000000E+00  0.74505805969E-08  0.10566000000E+00  0.10566000000E+00 0.  1.
     999900   -1    0    0    0    0 -0.00000000000E+00 -0.00000000000E+00 -0.74505805969E-08  0.93827000000E+00  0.93827000000E+00 0. -1.
     999902    2    1    2    0    0 -0.24944235957E-02 -0.23195338672E-02 -0.23322145213E-01  0.10203604255E+01  0.10200881692E+01 0.  0.
     999903    2    3    3    0    0 -0.95630933508E-01  0.72269492513E-01 -0.51217108550E-01  0.13186953563E+00  0.19955631492E-01 0.  0.
         14    1    1    2    0    0  0.24944235957E-02  0.23195338672E-02  0.23322145213E-01  0.23569574535E-01  0.00000000000E+00 0.  1.
     999901    1    3    3    0    0  0.93136509912E-01 -0.74589026380E-01  0.27894963337E-01  0.88849088983E+00  0.88000000000E+00 0.  1.
        -11    1    4    4    0    0 -0.46575350233E-01  0.46493725697E-01 -0.32311680967E-01  0.73315998434E-01  0.51100000000E-03 0.  1.
         11    1    4    4    0    0 -0.49055583275E-01  0.25775766815E-01 -0.18905427583E-01  0.58553537198E-01  0.51100000000E-03 0. -1.
</event>
<event>
 8    1  0.1157726E+005  0.1043930E+01  0.7957747E-01            NaN
         13   -1    0    0    0    0  0.00000000000E+00  0.00000000000E+00  0.74505805969E-08  0.10566000000E+00  0.10566000000E+00 0. -1.
     999900   -1    0    0    0    0 -0.00000000000E+00 -0.00000000000E+00 -0.74505805969E-08  0.93827000000E+00  0.93827000000E+00 0. -1.
     999902    2    1    2    0    0 -0.13071038082E-01 -0.18656443698E-01 -0.48448688480E-02  0.10206407818E+01  0.10203750379E+01 0.  0.
     999903    2    3    3    0    0 -0.37511926253E-01 -0.89687528020E-01  0.87941921302E-01  0.13257988282E+00  0.19815310065E-01 0.  0.
         14    1    1    2    0    0  0.13071038082E-01  0.18656443698E-01  0.48448688480E-02  0.23289218152E-01  0.00000000000E+00 0. -1.
     999901    1    3    3    0    0  0.24440888170E-01  0.71031084322E-01 -0.92786790150E-01  0.88806089903E+00  0.88000000000E+00 0. -1.
        -11    1    4    4    0    0 -0.77899330617E-02 -0.43713573625E-01  0.37047030398E-01  0.57829950358E-01  0.51100000000E-03 0.  1.
         11    1    4    4    0    0 -0.29721993191E-01 -0.45973954395E-01  0.50894890904E-01  0.74749932462E-01  0.51100000000E-03 0. -1.
</event>
<event>
 8    1  0.1157726E+005  0.1043930E+01  0.7957747E-01            NaN
         13   -1    0    0    0    0  0.00000000000E+00  0.00000000000E+00  0.74505805969E-08  0.10566000000E+00  0.10566000000E+00 0. -1.
     999900   -1    0    0    0    0 -0.00000000000E+00 -0.00000000000E+00 -0.74505805969E-08  0.93827000000E+00  0.93827000000E+00 0.  1.
     999902    2    1    2    0    0  0.21948937249E-01  0.68270211910E-02 -0.67037130921E-02  0.10199862360E+01  0.10197051622E+01 0.  0.
     999903    2    3    3    0    0 -0.82304960519E-01 -0.51428331096E-01  0.81555238832E-01  0.12754452707E+00  0.14048830497E-01 0.  0.
         14    1    1    2    0    0 -0.21948937249E-01 -0.68270211910E-02  0.67037130921E-02  0.23943763988E-01  0.00000000000E+00 0. -1.
     999901    1    3    3    0    0  0.10425389777E+00  0.58255352287E-01 -0.88258951924E-01  0.89244170895E+00  0.88000000000E+00 0.  1.
        -11    1    4    4    0    0 -0.26666186674E-01 -0.16804064435E-01  0.35321491771E-01  0.47342697380E-01  0.51100000000E-03 0. -1.
         11    1    4    4    0    0 -0.55638773846E-01 -0.34624266661E-01  0.46233747060E-01  0.80201829687E-01  0.51100000000E-03 0.  1.
</event>
<event>
 8    1  0.1157726E+005  0.1043930E+01  0.7957747E-01            NaN
         13   -1    0    0    0    0  0.00000000000E+00  0.00000000000E+00  0.74505805969E-08  0.10566000000E+00  0.10566000000E+00 0.  1.
     999900   -1    0    0    0    0 -0.00000000000E+00 -0.00000000000E+00 -0.74505805969E-08  0.93827000000E+00  0.93827000000E+00 0.  1.
     999902    2    1    2    0    0 -0.57714488619E-02  0.18081138456E-01  0.14172303833E-01  0.10202426324E+01  0.10199676159E+01 0.  0.
     999903    2    3    3    0    0 -0.21260828413E-01 -0.42815542212E-01 -0.11730553631E+00  0.12825902879E+00  0.20114575257E-01 0.  0.
         14    1    1    2    0    0  0.57714488619E-02 -0.18081138456E-01 -0.14172303833E-01  0.23687367641E-01  0.00000000000E+00 0. -1.
     999901    1    3    3    0    0  0.15489379551E-01  0.60896680668E-01  0.13147784014E+00  0.89198360357E+00  0.88000000000E+00 0. -1.
        -11    1    4    4    0    0 -0.17821419935E-01 -0.43378016959E-01 -0.98112826232E-01  0.10874577305E+00  0.51100000000E-03 0.  1.
         11    1    4    4    0    0 -0.34394084781E-02  0.56247474783E-03 -0.19192710073E-01  0.19513255738E-01  0.51100000000E-03 0. -1.
</event>
<event>
 8    1  0.1157726E+005  0.1043930E+01  0.7957747E-01            NaN
         13   -1    0    0    0    0  0.00000000000E+00  0.00000000000E+00  0.74505805969E-08  0.10566000000E+00  0.10566000000E+00 0.  1.
     999900   -1    0    0    0    0 -0.00000000000E+00 -0.00000000000E+00 -0.74505805969E-08  0.93827000000E+00  0.93827000000E+00 0. -1.
     999902    2    1    2    0    0  0.11128998365E-01 -0.69418630010E-02  0.19593670869E-01  0.10203512807E+01  0.10200788107E+01 0.  0.
     999903    2    3    3    0    0  0.10615762456E+00 -0.55119301690E-01 -0.50179690105E-01  0.13118322722E+00  0.19582112603E-01 0.  0.
         14    1    1    2    0    0 -0.11128998365E-01  0.69418630010E-02 -0.19593670869E-01  0.23578719318E-01  0.00000000000E+00 0. -1.
     999901    1    3    3    0    0 -0.95028626195E-01  0.48177438689E-01  0.69773360974E-01  0.88916805346E+00  0.88000000000E+00 0.  1.
        -11    1    4    4    0    0  0.62942035667E-01 -0.23409028625E-01 -0.22295419036E-01  0.70760365361E-01  0.51100000000E-03 0. -1.
         11    1    4    4    0    0  0.43215588893E-01 -0.31710273066E-01 -0.27884271069E-01  0.60422861859E-01  0.51100000000E-03 0.  1.
</event>
<event>
 8    1  0.1157726E+005  0.1043930E+01  0.7957747E-01            NaN
         13   -1    0    0    0    0  0.00000000000E+00  0.00000000000E+00  0.74505805969E-08  0.10566000000E+00  0.10566000000E+00 0.  1.
     999900   -1    0    0    0    0 -0.00000000000E+00 -0.00000000000E+00 -0.74505805969E-08  0.93827000000E+00  0.93827000000E+00 0.  1.
     999902    2    1    2    0    0  0.77538544516E-02  0.11601716489E-01  0.19746995286E-01  0.10197501343E+01  0.10194634228E+01 0.  0.
     999903    2    3    3    0    0 -0.92391925764E-01 -0.44326906944E-01  0.78097882809E-01  0.13038968186E+00  0.20026163173E-01 0.  0.
         14    1    1    2    0    0 -0.77538544516E-02 -0.11601716489E-01 -0.19746995286E-01  0.24179865740E-01  0.00000000000E+00 0. -1.
     999901    1    3    3    0    0  0.10014578022E+00  0.55928623433E-01 -0.58350887523E-01  0.88936045240E+00  0.88000000000E+00 0.  1.
        -11    1    4    4    0    0 -0.53588628606E-01 -0.35015177776E-01  0.54155939162E-01  0.83850644948E-01  0.51100000000E-03 0.  1.
         11    1    4    4    0    0 -0.38803297158E-01 -0.93117291683E-02  0.23941943646E-01  0.46539036915E-01  0.51100000000E-03 0. -1.
</event>
<event>
 8    1  0.1157726E+005  0.1043930E+01  0.7957747E-01            NaN
         13   -1    0    0    0    0  0.00000000000E+00  0.00000000000E+00  0.74505805969E-08  0.10566000000E+00  0.10566000000E+00 0. -1.
     999900   -1    0    0    0    0 -0.00000000000E+00 -0.00000000000E+00 -0.74505805969E-08  0.93827000000E+00  0.93827000000E+00 0. -1.
     999902    2    1    2    0    0  0.68204571059E-02  0.11067792685E-01  0.18159463019E-01  0.10215965997E+01  0.10213524523E+01 0.  0.
     999903    2    3    3    0    0 -0.12396098732E+00 -0.32056451299E-01 -0.15596197408E-01  0.13024766064E+00  0.18090585453E-01 0.  0.
         14    1    1    2    0    0 -0.68204571059E-02 -0.11067792685E-01 -0.18159463019E-01  0.22333400261E-01  0.00000000000E+00 0.  1.
     999901    1    3    3    0    0  0.13078144442E+00  0.43124243985E-01  0.33755660428E-01  0.89134893910E+00  0.88000000000E+00 0.  1.
        -11    1    4    4    0    0 -0.10104674149E+00 -0.23649974004E-01 -0.19291641281E-01  0.10555659042E+00  0.51100000000E-03 0. -1.
         11    1    4    4    0    0 -0.22914245826E-01 -0.84064772956E-02  0.36954438723E-02  0.24691070222E-01  0.51100000000E-03 0.  1.
</event>
<event>
 8    1  0.1157726E+005  0.1043930E+01  0.7957747E-01            NaN
         13   -1    0    0    0    0  0.00000000000E+00  0.00000000000E+00  0.74505805969E-08  0.10566000000E+00  0.10566000000E+00 0.  1.
     999900   -1    0    0    0    0 -0.00000000000E+00 -0.00000000000E+00 -0.74505805969E-08  0.93827000000E+00  0.93827000000E+00 0.  1.
     999902    2    1    2    0    0 -0.91214230127E-02  0.15910497662E-01 -0.15750821671E-01  0.10197549576E+01  0.10194683618E+01 0.  0.
     999903    2    3    3    0    0  0.12101798296E+00 -0.37530368818E-01  0.52439691056E-02  0.12833307515E+00  0.19697669458E-01 0.  0.
         14    1    1    2    0    0  0.91214230127E-02 -0.15910497662E-01  0.15750821671E-01  0.24175042440E-01  0.00000000000E+00 0.  1.
     999901    1    3    3    0    0 -0.13013940597E+00  0.53440866481E-01 -0.20994790777E-01  0.89142188241E+00  0.88000000000E+00 0.  1.
        -11    1    4    4    0    0  0.76086804584E-01 -0.28726307154E-01  0.11425627305E-01  0.82129219129E-01  0.51100000000E-03 0.  1.
         11    1    4    4    0    0  0.44931178378E-01 -0.88040616646E-02 -0.61816581995E-02  0.46203856022E-01  0.51100000000E-03 0. -1.
</event>
<event>
 8    1  0.1157726E+005  0.1043930E+01  0.7957747E-01            NaN
         13   -1    0    0    0    0  0.00000000000E+00  0.00000000000E+00  0.74505805969E-08  0.10566000000E+00  0.10566000000E+00 0. -1.
     999900   -1    0    0    0    0 -0.00000000000E+00 -0.00000000000E+00 -0.74505805969E-08  0.93827000000E+00  0.93827000000E+00 0.  1.
     999902    2    1    2    0    0 -0.11521129666E-01  0.20135622434E-01  0.56114900719E-02  0.10200622699E+01  0.10197829994E+01 0.  0.
     999903    2    3    3    0    0 -0.83441327565E-01 -0.92130702850E-01  0.30959541110E-01  0.12965856014E+00  0.20058102537E-01 0.  0.
         14    1    1    2    0    0  0.11521129666E-01 -0.20135622434E-01 -0.56114900719E-02  0.23867730106E-01  0.00000000000E+00 0.  1.
     999901    1    3    3    0    0  0.71920197900E-01  0.11226632528E+00 -0.25348051038E-01  0.89040370976E+00  0.88000000000E+00 0. -1.
        -11    1    4    4    0    0 -0.78109714107E-01 -0.76502805329E-01  0.28159278920E-01  0.11290266946E+00  0.51100000000E-03 0. -1.
         11    1    4    4    0    0 -0.53316134586E-02 -0.15627897521E-01  0.28002621899E-02  0.16755890676E-01  0.51100000000E-03 0.  1.
</event>
<event>
 8    1  0.1157726E+005  0.1043930E+01  0.7957747E-01            NaN
         13   -1    0    0    0    0  0.00000000000E+00  0.00000000000E+00  0.74505805969E-08  0.10566000000E+00  0.10566000000E+00 0.  1.
     999900   -1    0    0    0    0 -0.00000000000E+00 -0.00000000000E+00 -0.74505805969E-08  0.93827000000E+00  0.93827000000E+00 0.  1.
     999902    2    1    2    0    0  0.10765927433E-01 -0.66518723417E-02 -0.19844245283E-01  0.10203939283E+01  0.10201224546E+01 0.  0.
     999903    2    3    3    0    0  0.11597691794E+00 -0.46216945326E-01 -0.41302577975E-01  0.13298466109E+00  0.19808220757E-01 0.  0.
         14    1    1    2    0    0 -0.10765927433E-01  0.66518723417E-02  0.19844245283E-01  0.23536071677E-01  0.00000000000E+00 0.  1.
     999901    1    3    3    0    0 -0.10521099050E+00  0.39565072984E-01  0.21458332692E-01  0.88740926723E+00  0.88000000000E+00 0.  1.
        -11    1    4    4    0    0  0.89279881812E-01 -0.26382035835E-01 -0.32031038873E-01  0.98453835290E-01  0.51100000000E-03 0. -1.
         11    1    4    4    0    0  0.26697036125E-01 -0.19834909490E-01 -0.92715391025E-02  0.34530825803E-01  0.51100000000E-03 0.  1.
</event>
<event>
 8    1  0.1157726E+005  0.1043930E+01  0.7957747E-01            NaN
         13   -1    0    0    0    0  0.00000000000E+00  0.00000000000E+00  0.74505805969E-08  0.10566000000E+00  0.10566000000E+00 0.  1.
     999900   -1    0    0    0    0 -0.00000000000E+00 -0.00000000000E+00 -0.74505805969E-08  0.93827000000E+00  0.93827000000E+00 0. -1.
     999902    2    1    2    0    0 -0.22348387187E-01 -0.29180786679E-02  0.87129302096E-02  0.10197663756E+01  0.10194800537E+01 0.  0.
     999903    2    3    3    0    0  0.71858337258E-02  0.83260046313E-01  0.97736153576E-01  0.13059593424E+00  0.22783125459E-01 0.  0.
         14    1    1    2    0    0  0.22348387187E-01  0.29180786679E-02 -0.87129302096E-02  0.24163624435E-01  0.00000000000E+00 0.  1.
     999901    1    3    3    0    0 -0.29534220913E-01 -0.86178124981E-01 -0.89023223366E-01  0.88917044133E+00  0.88000000000E+00 0. -1.
        -11    1    4    4    0    0  0.14925936470E-01  0.43910770895E-01  0.48809377363E-01  0.67331685109E-01  0.51100000000E-03 0. -1.
         11    1    4    4    0    0 -0.77401027442E-02  0.39349275417E-01  0.48926776213E-01  0.63264249130E-01  0.51100000000E-03 0.  1.
</event>
<event>
 8    1  0.1157726E+005  0.1043930E+01  0.7957747E-01            NaN
         13   -1    0    0    0    0  0.00000000000E+00  0.00000000000E+00  0.74505805969E-08  0.10566000000E+00  0.10566000000E+00 0. -1.
     999900   -1    0    0    0    0 -0.00000000000E+00 -0.00000000000E+00 -0.74505805969E-08  0.93827000000E+00  0.93827000000E+00 0. -1.
     999902    2    1    2    0    0  0.22853791267E-01  0.33005075061E-02 -0.50044397364E-02  0.10203030336E+01  0.10200294343E+01 0.  0.
     999903    2    3    3    0    0  0.20575340934E-01  0.39796498696E-01  0.12096363237E+00  0.13058110854E+00  0.20300728750E-01 0.  0.
         14    1    1    2    0    0 -0.22853791267E-01 -0.33005075061E-02  0.50044397364E-02  0.23626966419E-01  0.00000000000E+00 0.  1.
     999901    1    3    3    0    0  0.22784503336E-02 -0.36495991190E-01 -0.12596807211E+00  0.88972192504E+00  0.88000000000E+00 0. -1.
        -11    1    4    4    0    0  0.23985472990E-02  0.12382000719E-01  0.59944623018E-01  0.61259170095E-01  0.51100000000E-03 0.  1.
         11    1    4    4    0    0  0.18176793635E-01  0.27414497977E-01  0.61019009354E-01  0.69321938445E-01  0.51100000000E-03 0. -1.
</event>
<event>
 8    1  0.1157726E+005  0.1043930E+01  0.7957747E-01            NaN
         13   -1    0    0    0    0  0.00000000000E+00  0.00000000000E+00  0.74505805969E-08  0.10566000000E+00  0.10566000000E+00 0.  1.
     999900   -1    0    0    0    0 -0.00000000000E+00 -0.00000000000E+00 -0.74505805969E-08  0.93827000000E+00  0.93827000000E+00 0.  1.
     999902    2    1    2    0    0 -0.26771690358E-02 -0.18472163196E-01 -0.14436286712E-01  0.10203335083E+01  0.10200606226E+01 0.  0.
     999903    2    3    3    0    0  0.76581238567E-01  0.13972416299E-01  0.10020492269E+00  0.12877467523E+00  0.21953950237E-01 0.  0.
         14    1    1    2    0    0  0.26771690358E-02  0.18472163196E-01  0.14436286712E-01  0.23596491714E-01  0.00000000000E+00 0.  1.
     999901    1    3    3    0    0 -0.79258407602E-01 -0.32444579496E-01 -0.11464120940E+00  0.89155883306E+00  0.88000000000E+00 0.  1.
        -11    1    4    4    0    0  0.29301618202E-01  0.11415725733E-01  0.26282776845E-01  0.40987182179E-01  0.51100000000E-03 0.  1.
         11    1    4    4    0    0  0.47279620364E-01  0.25566905664E-02  0.73922145843E-01  0.87787493047E-01  0.51100000000E-03 0. -1.
</event>
<event>
 8    1  0.1157726E+005  0.1043930E+01  0.7957747E-01            NaN
         13   -1    0    0    0    0  0.00000000000E+00  0.00000000000E+00  0.74505805969E-08  0.10566000000E+00  0.10566000000E+00 0.  1.
     999900   -1    0    0    0    0 -0.00000000000E+00 -0.00000000000E+00 -0.74505805969E-08  0.93827000000E+00  0.93827000000E+00 0.  1.
     999902    2    1    2    0    0  0.22468385839E-01  0.27658186213E-02 -0.72507623547E-02  0.10201591845E+01  0.10198822040E+01 0.  0.
     999903    2    3    3    0    0 -0.13444946467E-01  0.79398560691E-01 -0.10157777612E+00  0.13108104951E+00  0.19475597908E-01 0.  0.
         14    1    1    2    0    0 -0.22468385839E-01 -0.27658186213E-02  0.72507623547E-02  0.23770815501E-01  0.00000000000E+00 0. -1.
     999901    1    3    3    0    0  0.35913332307E-01 -0.76632742069E-01  0.94327013762E-01  0.88907813499E+00  0.88000000000E+00 0. -1.
        -11    1    4    4    0    0 -0.79232635863E-02  0.42518929773E-01 -0.69644576011E-01  0.81983325034E-01  0.51100000000E-03 0.  1.
         11    1    4    4    0    0 -0.55216828810E-02  0.36879630917E-01 -0.31933200106E-01  0.49097724473E-01  0.51100000000E-03 0. -1.
</event>
<event>
 8    1  0.1157726E+005  0.1043930E+01  0.7957747E-01            NaN
         13   -1    0    0    0    0  0.00000000000E+00  0.00000000000E+00  0.74505805969E-08  0.10566000000E+00  0.10566000000E+00 0.  1.
     999900   -1    0    0    0    0 -0.00000000000E+00 -0.00000000000E+00 -0.74505805969E-08  0.93827000000E+00  0.93827000000E+00 0. -1.
     999902    2    1    2    0    0 -0.99216995303E-02 -0.19308642301E-01  0.93374352127E-02  0.10202984219E+01  0.10200247145E+01 0.  0.
     999903    2    3    3    0    0 -0.43343608071E-01 -0.10625073457E+00 -0.64492311756E-01  0.13230811622E+00  0.13352617081E-01 0.  0.
         14    1    1    2    0    0  0.99216995303E-02  0.19308642301E-01 -0.93374352127E-02  0.23631578141E-01  0.00000000000E+00 0. -1.
     999901    1    3    3    0    0  0.33421908540E-01  0.86942092273E-01  0.73829746969E-01  0.88799030564E+00  0.88000000000E+00 0.  1.
        -11    1    4    4    0    0 -0.28686690151E-01 -0.84867078152E-01 -0.49277288638E-01  0.10224411691E+00  0.51100000000E-03 0. -1.
         11    1    4    4    0    0 -0.14656917920E-01 -0.21383656421E-01 -0.15215023118E-01  0.30063999307E-01  0.51100000000E-03 0.  1.
</event>
<event>
 8    1  0.1157726E+005  0.1043930E+01  0.7957747E-01            NaN
         13   -1    0    0    0    0  0.00000000000E+00  0.00000000000E+00  0.74505805969E-08  0.10566000000E+00  0.10566000000E+00 0. -1.
     999900   -1    0    0    0    0 -0.00000000000E+00 -0.00000000000E+00 -0.74505805969E-08  0.93827000000E+00  0.93827000000E+00 0. -1.
     999902    2    1    2    0    0  0.21693562110E-01 -0.27956273678E-02  0.89771927958E-02  0.10202864774E+01  0.10200124900E+01 0.  0.
     999903    2    3    3    0    0 -0.94898606715E-01  0.65555368212E-01 -0.52621147475E-01  0.12784042978E+00  0.16460208587E-01 0.  0.
         14    1    1    2    0    0 -0.21693562110E-01  0.27956273678E-02 -0.89771927958E-02  0.23643522578E-01  0.00000000000E+00 0.  1.
     999901    1    3    3    0    0  0.11659216883E+00 -0.68350995580E-01  0.61598340271E-01  0.89244604764E+00  0.88000000000E+00 0. -1.
        -11    1    4    4    0    0 -0.38348751987E-01  0.35431963730E-01 -0.27538935953E-01  0.59031389507E-01  0.51100000000E-03 0.  1.
         11    1    4    4    0    0 -0.56549854728E-01  0.30123404482E-01 -0.25082211523E-01  0.68809040273E-01  0.51100000000E-03 0. -1.
</event>
<event>
 8    1  0.1157726E+005  0.1043930E+01  0.7957747E-01            NaN
         13   -1    0    0    0    0  0.00000000000E+00  0.00000000000E+00  0.74505805969E-08  0.10566000000E+00  0.10566000000E+00 0. -1.
     999900   -1    0    0    0    0 -0.00000000000E+00 -0.00000000000E+00 -0.74505805969E-08  0.93827000000E+00  0.93827000000E+00 0.  1.
     999902    2    1    2    0    0  0.49422218877E-02  0.21989623008E-01 -0.61629151651E-02  0.10205644142E+01  0.10202969043E+01 0.  0.
     999903    2    3    3    0    0 -0.10009534086E-01  0.60641103700E-01 -0.11585974698E+00  0.13278578926E+00  0.20761758776E-01 0.  0.
         14    1    1    2    0    0 -0.49422218877E-02 -0.21989623008E-01  0.61629151651E-02  0.23365585816E-01  0.00000000000E+00 0. -1.
     999901    1    3    3    0    0  0.14951755974E-01 -0.38651480692E-01  0.10969683182E+00  0.88777862493E+00  0.88000000000E+00 0. -1.
        -11    1    4    4    0    0 -0.11068318357E-01  0.32052817757E-01 -0.80131206173E-01  0.87012425096E-01  0.51100000000E-03 0.  1.
         11    1    4    4    0    0  0.10587842712E-02  0.28588285943E-01 -0.35728540808E-01  0.45773364161E-01  0.51100000000E-03 0. -1.
</event>
<event>
 8    1  0.1157726E+005  0.1043930E+01  0.7957747E-01            NaN
         13   -1    0    0    0    0  0.00000000000E+00  0.00000000000E+00  0.74505805969E-08  0.10566000000E+00  0.10566000000E+00 0. -1.
     999900   -1    0    0    0    0 -0.00000000000E+00 -0.00000000000E+00 -0.74505805969E-08  0.93827000000E+00  0.93827000000E+00 0.  1.
     999902    2    1    2    0    0 -0.41377739640E-02  0.31564668281E-02  0.23438569698E-01  0.10199206059E+01  0.10196379707E+01 0.  0.
     999903    2    3    3    0    0 -0.61627987967E-01 -0.54958569303E-01  0.10214149772E+00  0.13263450039E+00  0.18454590096E-01 0.  0.
         14    1    1    2    0    0  0.41377739640E-02 -0.31564668281E-02 -0.23438569698E-01  0.24009394114E-01  0.00000000000E+00 0.  1.
     999901    1    3    3    0    0  0.57490214003E-01  0.58115036131E-01 -0.78702928024E-01  0.88728610550E+00  0.88000000000E+00 0.  1.
        -11    1    4    4    0    0 -0.32816991478E-01 -0.40885955001E-01  0.60018411795E-01  0.79693708167E-01  0.51100000000E-03 0.  1.
         11    1    4    4    0    0 -0.28810996489E-01 -0.14072614302E-01  0.42123085927E-01  0.52940792221E-01  0.51100000000E-03 0. -1.
</event>
<event>
 8    1  0.1157726E+005  0.1043930E+01  0.7957747E-01            NaN
         13   -1    0    0    0    0  0.00000000000E+00  0.00000000000E+00  0.74505805969E-08  0.10566000000E+00  0.10566000000E+00 0.  1.
     999900   -1    0    0    0    0 -0.00000000000E+00 -0.00000000000E+00 -0.74505805969E-08  0.93827000000E+00  0.93827000000E+00 0.  1.
     999902    2    1    2    0    0 -0.14475983030E-01 -0.84081736845E-02 -0.16402652368E-01  0.10204928826E+01  0.10202237131E+01 0.  0.
     999903    2    3    3    0    0 -0.28859339451E-01 -0.11732956204E+00 -0.52166237836E-01  0.13294018901E+00  0.18780039401E-01 0.  0.
         14    1    1    2    0    0  0.14475983030E-01  0.84081736845E-02  0.16402652368E-01  0.23437117444E-01  0.00000000000E+00 0.  1.
     999901    1    3    3    0    0  0.14383356422E-01  0.10892138836E+00  0.35763585468E-01  0.88755269355E+00  0.88000000000E+00 0.  1.
        -11    1    4    4    0    0 -0.21782799038E-01 -0.97047711505E-01 -0.35013688909E-01  0.10544651808E+00  0.51100000000E-03 0. -1.
         11    1    4    4    0    0 -0.70765404127E-02 -0.20281850538E-01 -0.17152548927E-01  0.27493670929E-01  0.51100000000E-03 0.  1.
</event>
<event>
 8    1  0.1157726E+005  0.1043930E+01  0.7957747E-01            NaN
         13   -1    0    0    0    0  0.00000000000E+00  0.00000000000E+00  0.74505805969E-08  0.10566000000E+00  0.10566000000E+00 0.  1.
     999900   -1    0    0    0    0 -0.00000000000E+00 -0.00000000000E+00 -0.74505805969E-08  0.93827000000E+00  0.93827000000E+00 0. -1.
     999902    2    1    2    0    0  0.88779147149E-02  0.23192222900E-01  0.49573712435E-02  0.10186066491E+01  0.10182918213E+01 0.  0.
     999903    2    3    3    0    0  0.81035267331E-01 -0.76840670739E-01  0.59863308237E-01  0.12831011124E+00  0.20215482760E-01 0.  0.
         14    1    1    2    0    0 -0.88779147149E-02 -0.23192222900E-01 -0.49573712435E-02  0.25323350931E-01  0.00000000000E+00 0.  1.
     999901    1    3    3    0    0 -0.72157352616E-01  0.10003289364E+00 -0.54905936993E-01  0.89029653783E+00  0.88000000000E+00 0. -1.
        -11    1    4    4    0    0  0.54051508205E-01 -0.61367134945E-01  0.49124888629E-01  0.95399195984E-01  0.51100000000E-03 0.  1.
         11    1    4    4    0    0  0.26983759126E-01 -0.15473535794E-01  0.10738419608E-01  0.32910915259E-01  0.51100000000E-03 0. -1.
</event>
<event>
 8    1  0.1157726E+005  0.1043930E+01  0.7957747E-01            NaN
         13   -1    0    0    0    0  0.00000000000E+00  0.00000000000E+00  0.74505805969E-08  0.10566000000E+00  0.10566000000E+00 0.  1.
     999900   -1    0    0    0    0 -0.00000000000E+00 -0.00000000000E+00 -0.74505805969E-08  0.93827000000E+00  0.93827000000E+00 0. -1.
     999902    2    1    2    0    0 -0.13105935598E-01  0.20236034816E-01 -0.48038278597E-03  0.10198158253E+01  0.10195306882E+01 0.  0.
     999903    2    3    3    0    0 -0.27125693697E-01  0.24993585320E-01  0.12397965610E+00  0.13093479324E+00  0.20309662473E-01 0.  0.
         14    1    1    2    0    0  0.13105935598E-01 -0.20236034816E-01  0.48038278597E-03  0.24114174682E-01  0.00000000000E+00 0.  1.
     999901    1    3    3    0    0  0.14019758099E-01 -0.47575505036E-02 -0.12446003888E+00  0.88888103208E+00  0.88000000000E+00 0. -1.
        -11    1    4    4    0    0 -0.52265266891E-02  0.15796014075E-01  0.33778811743E-01  0.37657667023E-01  0.51100000000E-03 0. -1.
         11    1    4    4    0    0 -0.21899167008E-01  0.91975712452E-02  0.90200844355E-01  0.93277126219E-01  0.51100000000E-03 0.  1.
</event>
<event>
 8    1  0.1157726E+005  0.1043930E+01  0.7957747E-01            NaN
         13   -1    0    0    0    0  0.00000000000E+00  0.00000000000E+00  0.74505805969E-08  0.10566000000E+00  0.10566000000E+00 0. -1.
     999900   -1    0    0    0    0 -0.00000000000E+00 -0.00000000000E+00 -0.74505805969E-08  0.93827000000E+00  0.93827000000E+00 0. -1.
     999902    2    1    2    0    0  0.12117073475E-01  0.86276665521E-02  0.18585361656E-01  0.10201250474E+01  0.10198472614E+01 0.  0.
     999903    2    3    3    0    0  0.40414467697E-01 -0.36528898066E-01 -0.11471263092E+00  0.12849271698E+00  0.19588288097E-01 0.  0.
         14    1    1    2    0    0 -0.12117073475E-01 -0.86276665521E-02 -0.18585361656E-01  0.23804952586E-01  0.00000000000E+00 0.  1.
     999901    1    3    3    0    0 -0.28297394223E-01  0.45156564618E-01  0.13329799258E+00  0.89163233043E+00  0.88000000000E+00 0.  1.
        -11    1    4    4    0    0  0.22596858066E-01 -0.26784440279E-01 -0.53148831978E-01  0.63663833510E-01  0.51100000000E-03 0.  1.
         11    1    4    4    0    0  0.17817609631E-01 -0.97444577869E-02 -0.61563798945E-01  0.64828883471E-01  0.51100000000E-03 0. -1.
</event>
<event>
 8    1  0.1157726E+005  0.1043930E+01  0.7957747E-01            NaN
         13   -1    0    0    0    0  0.00000000000E+00  0.00000000000E+00  0.74505805969E-08  0.10566000000E+00  0.10566000000E+00 0.  1.
     999900   -1    0    0    0    0 -0.00000000000E+00 -0.00000000000E+00 -0.74505805969E-08  0.93827000000E+00  0.93827000000E+00 0.  1.
     999902    2    1    2    0    0 -0.22412471168E-01 -0.16429756944E-02 -0.62451876065E-03  0.10214487132E+01  0.10212012855E+01 0.  0.
     999903    2    3    3    0    0 -0.24314020994E-01  0.78571231091E-01  0.10071515627E+00  0.13200637970E+00  0.22749321059E-01 0.  0.
         14    1    1    2    0    0  0.22412471168E-01  0.16429756944E-02  0.62451876065E-03  0.22481286811E-01  0.00000000000E+00 0.  1.
     999901    1    3    3    0    0  0.19015498254E-02 -0.80214206785E-01 -0.10133967503E+00  0.88944233349E+00  0.88000000000E+00 0.  1.
        -11    1    4    4    0    0 -0.85157325942E-02  0.54033724789E-01  0.76699062875E-01  0.94208112618E-01  0.51100000000E-03 0. -1.
         11    1    4    4    0    0 -0.15798288400E-01  0.24537506301E-01  0.24016093391E-01  0.37798267085E-01  0.51100000000E-03 0.  1.
</event>
<event>
 8    1  0.1157726E+005  0.1043930E+01  0.7957747E-01            NaN
         13   -1    0    0    0    0  0.00000000000E+00  0.00000000000E+00  0.74505805969E-08  0.10566000000E+00  0.10566000000E+00 0. -1.
     999900   -1    0    0    0    0 -0.00000000000E+00 -0.00000000000E+00 -0.74505805969E-08  0.93827000000E+00  0.93827000000E+00 0.  1.
     999902    2    1    2    0    0 -0.17959080634E-01 -0.56361819655E-02  0.10992269617E-01  0.10221326351E+01  0.10219001902E+01 0.  0.
     999903    2    3    3    0    0  0.44519198625E-01 -0.80168442358E-01 -0.92509943549E-01  0.13074534480E+00  0.11283498320E-01 0.  0.
         14    1    1    2    0    0  0.17959080634E-01  0.56361819655E-02 -0.10992269617E-01  0.21797364880E-01  0.00000000000E+00 0.  1.
     999901    1    3    3    0    0 -0.62478279259E-01  0.74532260393E-01  0.10350221317E+00  0.89138729032E+00  0.88000000000E+00 0.  1.
        -11    1    4    4    0    0  0.17803164983E-01 -0.21630818939E-01 -0.26698308584E-01  0.38702788190E-01  0.51100000000E-03 0.  1.
         11    1    4    4    0    0  0.26716033642E-01 -0.58537623419E-01 -0.65811634965E-01  0.92042556608E-01  0.51100000000E-03 0. -1.
</event>
<event>
 8    1  0.1157726E+005  0.1043930E+01  0.7957747E-01            NaN
         13   -1    0    0    0    0  0.00000000000E+00  0.00000000000E+00  0.74505805969E-08  0.10566000000E+00  0.10566000000E+00 0.  1.
     999900   -1    0    0    0    0 -0.00000000000E+00 -0.00000000000E+00 -0.74505805969E-08  0.93827000000E+00  0.93827000000E+00 0. -1.
     999902    2    1    2    0    0 -0.11139484322E-01  0.39150168118E-02 -0.35381832827E-01  0.10066300059E+01  0.10059387055E+01 0.  0.
     999903    2    3    3    0    0  0.69647452634E-01  0.30435663644E-01 -0.91739005010E-01  0.12073723316E+00  0.19604518635E-01 0.  0.
         14    1    1    2    0    0  0.11139484322E-01 -0.39150168118E-02  0.35381832827E-01  0.37299994126E-01  0.00000000000E+00 0.  1.
     999901    1    3    3    0    0 -0.80786936956E-01 -0.26520646832E-01  0.56357172183E-01  0.88589277271E+00  0.88000000000E+00 0.  1.
        -11    1    4    4    0    0  0.39422816601E-01  0.10865404606E-01 -0.36608297977E-01  0.54887558589E-01  0.51100000000E-03 0. -1.
         11    1    4    4    0    0  0.30224636032E-01  0.19570259038E-01 -0.55130707033E-01  0.65849674571E-01  0.51100000000E-03 0.  1.
</event>
<event>
 8    1  0.1157726E+005  0.1043930E+01  0.7957747E-01            NaN
         13   -1    0    0    0    0  0.00000000000E+00  0.00000000000E+00  0.74505805969E-08  0.10566000000E+00  0.10566000000E+00 0.  1.
     999900   -1    0    0    0    0 -0.00000000000E+00 -0.00000000000E+00 -0.74505805969E-08  0.93827000000E+00  0.93827000000E+00 0.  1.
     999902    2    1    2    0    0 -0.95300250785E-02 -0.14968980502E-01  0.14875645988E-01  0.10207745126E+01  0.10205118465E+01 0.  0.
     999903    2    3    3    0    0  0.54632262471E-02 -0.11751648534E+00  0.60752315224E-01  0.13350597535E+00  0.17118133095E-01 0.  0.
         14    1    1    2    0    0  0.95300250785E-02  0.14968980502E-01 -0.14875645988E-01  0.23155487445E-01  0.00000000000E+00 0. -1.
     999901    1    3    3    0    0 -0.14993251326E-01  0.10254750484E+00 -0.45876669236E-01  0.88726853721E+00  0.88000000000E+00 0.  1.
        -11    1    4    4    0    0  0.91436689270E-02 -0.33656838912E-01  0.19775791140E-01  0.40096540040E-01  0.51100000000E-03 0.  1.
         11    1    4    4    0    0 -0.36804426799E-02 -0.83859646431E-01  0.40976524084E-01  0.93409435309E-01  0.51100000000E-03 0. -1.
</event>
<event>
 8    1  0.1157726E+005  0.1043930E+01  0.7957747E-01            NaN
         13   -1    0    0    0    0  0.00000000000E+00  0.00000000000E+00  0.74505805969E-08  0.10566000000E+00  0.10566000000E+00 0.  1.
     999900   -1    0    0    0    0 -0.00000000000E+00 -0.00000000000E+00 -0.74505805969E-08  0.93827000000E+00  0.93827000000E+00 0.  1.
     999902    2    1    2    0    0  0.32502075596E-02  0.39199755150E-02 -0.24820602005E-01  0.10185924322E+01  0.10182772464E+01 0.  0.
     999903    2    3    3    0    0 -0.14973231448E-01 -0.12473881390E+00 -0.21513399633E-01  0.12904416742E+00  0.20139548814E-01 0.  0.
         14    1    1    2    0    0 -0.32502075596E-02 -0.39199755150E-02  0.24820602005E-01  0.25337567782E-01  0.00000000000E+00 0.  1.
     999901    1    3    3    0    0  0.18223439008E-01  0.12865878942E+00 -0.33072023721E-02  0.88954826480E+00  0.88000000000E+00 0. -1.
        -11    1    4    4    0    0 -0.14946104288E-01 -0.81493432298E-01 -0.59012992109E-02  0.83064143856E-01  0.51100000000E-03 0. -1.
         11    1    4    4    0    0 -0.27127160199E-04 -0.43245381605E-01 -0.15612100422E-01  0.45980023561E-01  0.51100000000E-03 0.  1.
</event>
<event>
 8    1  0.1157726E+005  0.1043930E+01  0.7957747E-01            NaN
         13   -1    0    0    0    0  0.00000000000E+00  0.00000000000E+00  0.74505805969E-08  0.10566000000E+00  0.10566000000E+00 0.  1.
     999900   -1    0    0    0    0 -0.00000000000E+00 -0.00000000000E+00 -0.74505805969E-08  0.93827000000E+00  0.93827000000E+00 0. -1.
     999902    2    1    2    0    0  0.68185197095E-03  0.23294768761E-01  0.22948781206E-03  0.10206241244E+01  0.10203579957E+01 0.  0.
     999903    2    3    3    0    0 -0.24304006221E-01 -0.11731649761E+00 -0.41820382849E-01  0.12811977539E+00  0.17660325460E-01 0.  0.
         14    1    1    2    0    0 -0.68185197095E-03 -0.23294768761E-01 -0.22948781206E-03  0.23305875620E-01  0.00000000000E+00 0. -1.
     999901    1    3    3    0    0  0.24985858192E-01  0.14061126637E+00  0.42049870661E-01  0.89250434899E+00  0.88000000000E+00 0.  1.
        -11    1    4    4    0    0 -0.22965598958E-01 -0.74363070266E-01 -0.31190140818E-01  0.83847307411E-01  0.51100000000E-03 0. -1.
         11    1    4    4    0    0 -0.13384072635E-02 -0.42953427343E-01 -0.10630242031E-01  0.44272467981E-01  0.51100000000E-03 0.  1.
</event>
<event>
 8    1  0.1157726E+005  0.1043930E+01  0.7957747E-01            NaN
         13   -1    0    0    0    0  0.00000000000E+00  0.00000000000E+00  0.74505805969E-08  0.10566000000E+00  0.10566000000E+00 0. -1.
     999900   -1    0    0    0    0 -0.00000000000E+00 -0.00000000000E+00 -0.74505805969E-08  0.93827000000E+00  0.93827000000E+00 0. -1.
     999902    2    1    2    0    0  0.94007218270E-02  0.32597481104E-02 -0.22770691693E-01  0.10190803737E+01  0.10187773575E+01 0.  0.
     999903    2    3    3    0    0 -0.41199233008E-02  0.90338404984E-01 -0.93709152312E-01  0.13183871238E+00  0.20543604174E-01 0.  0.
         14    1    1    2    0    0 -0.94007218270E-02 -0.32597481104E-02  0.22770691693E-01  0.24849626331E-01  0.00000000000E+00 0. -1.
     999901    1    3    3    0    0  0.13520645128E-01 -0.87078656874E-01  0.70938460618E-01  0.88724166129E+00  0.88000000000E+00 0.  1.
        -11    1    4    4    0    0 -0.11864882959E-01  0.37843925571E-01 -0.39247600739E-01  0.55799403536E-01  0.51100000000E-03 0. -1.
         11    1    4    4    0    0  0.77449596587E-02  0.52494479414E-01 -0.54461551573E-01  0.76039308846E-01  0.51100000000E-03 0.  1.
</event>
<event>
 8    1  0.1157726E+005  0.1043930E+01  0.7957747E-01            NaN
         13   -1    0    0    0    0  0.00000000000E+00  0.00000000000E+00  0.74505805969E-08  0.10566000000E+00  0.10566000000E+00 0.  1.
     999900   -1    0    0    0    0 -0.00000000000E+00 -0.00000000000E+00 -0.74505805969E-08  0.93827000000E+00  0.93827000000E+00 0.  1.
     999902    2    1    2    0    0  0.18061348273E-01  0.14454626510E-01 -0.42751089992E-02  0.10204050115E+01  0.10201337963E+01 0.  0.
     999903    2    3    3    0    0 -0.70172817109E-01  0.17166454583E-01 -0.10627392375E+00  0.13012618987E+00  0.20488216045E-01 0.  0.
         14    1    1    2    0    0 -0.18061348273E-01 -0.14454626510E-01  0.42751089992E-02  0.23524988542E-01  0.00000000000E+00 0. -1.
     999901    1    3    3    0    0  0.88234165382E-01 -0.27118280734E-02  0.10199881475E+00  0.89027882159E+00  0.88000000000E+00 0. -1.
        -11    1    4    4    0    0 -0.59437396853E-01  0.15813489866E-01 -0.10056055299E+00  0.11787941527E+00  0.51100000000E-03 0. -1.
         11    1    4    4    0    0 -0.10735420256E-01  0.13529647172E-02 -0.57133707626E-02  0.12246774598E-01  0.51100000000E-03 0.  1.
</event>
<event>
 8    1  0.1157726E+005  0.1043930E+01  0.7957747E-01            NaN
         13   -1    0    0    0    0  0.00000000000E+00  0.00000000000E+00  0.74505805969E-08  0.10566000000E+00  0.10566000000E+00 0.  1.
     999900   -1    0    0    0    0 -0.00000000000E+00 -0.00000000000E+00 -0.74505805969E-08  0.93827000000E+00  0.93827000000E+00 0.  1.
     999902    2    1    2    0    0 -0.86931403621E-02 -0.21906649424E-02  0.21985512390E-01  0.10201869493E+01  0.10199106231E+01 0.  0.
     999903    2    3    3    0    0  0.94788813560E-01  0.72180592070E-01  0.49478514301E-01  0.13058284418E+00  0.20218772711E-01 0.  0.
         14    1    1    2    0    0  0.86931403621E-02  0.21906649424E-02 -0.21985512390E-01  0.23743050716E-01  0.00000000000E+00 0. -1.
     999901    1    3    3    0    0 -0.10348195392E+00 -0.74371257013E-01 -0.27493001910E-01  0.88960410510E+00  0.88000000000E+00 0.  1.
        -11    1    4    4    0    0  0.15288252263E-01  0.61991877032E-02  0.12148981179E-02  0.16549854497E-01  0.51100000000E-03 0. -1.
         11    1    4    4    0    0  0.79500561296E-01  0.65981404367E-01  0.48263616183E-01  0.11403298969E+00  0.51100000000E-03 0.  1.
</event>
<event>
 8    1  0.1157726E+005  0.1043930E+01  0.7957747E-01            NaN
         13   -1    0    0    0    0  0.00000000000E+00  0.00000000000E+00  0.74505805969E-08  0.10566000000E+00  0.10566000000E+00 0. -1.
     999900   -1    0    0    0    0 -0.00000000000E+00 -0.00000000000E+00 -0.74505805969E-08  0.93827000000E+00  0.93827000000E+00 0. -1.
     999902    2    1    2    0    0  0.19278756063E-01  0.86413483135E-02  0.10283499643E-01  0.10204333257E+01  0.10201627706E+01 0.  0.
     999903    2    3    3    0    0  0.56075787998E-01 -0.78574211750E-01  0.87699253522E-01  0.13197748868E+00  0.20211325967E-01 0.  0.
         14    1    1    2    0    0 -0.19278756063E-01 -0.86413483135E-02 -0.10283499643E-01  0.23496674252E-01  0.00000000000E+00 0.  1.
     999901    1    3    3    0    0 -0.36797031935E-01  0.87215560064E-01 -0.77415753879E-01  0.88845583707E+00  0.88000000000E+00 0. -1.
        -11    1    4    4    0    0  0.26502800667E-01 -0.44542331613E-01  0.34614556702E-01  0.62328536044E-01  0.51100000000E-03 0. -1.
         11    1    4    4    0    0  0.29572987332E-01 -0.34031880137E-01  0.53084696821E-01  0.69648952633E-01  0.51100000000E-03 0.  1.
</event>
<event>
 8    1  0.1157726E+005  0.1043930E+01  0.7957747E-01            NaN
         13   -1    0    0    0    0  0.00000000000E+00  0.00000000000E+00  0.74505805969E-08  0.10566000000E+00  0.10566000000E+00 0.  1.
     999900   -1    0    0    0    0 -0.00000000000E+00 -0.00000000000E+00 -0.74505805969E-08  0.93827000000E+00  0.93827000000E+00 0. -1.
     999902    2    1    2    0    0  0.17757152661E-01  0.16375179740E-01 -0.51963909776E-03  0.10197694328E+01  0.10194831843E+01 0.  0.
     999903    2    3    3    0    0  0.87132039976E-01  0.15830427854E-01  0.96538666641E-01  0.13171904772E+00  0.13696661602E-01 0.  0.
         14    1    1    2    0    0 -0.17757152661E-01 -0.16375179740E-01  0.51963909776E-03  0.24160567190E-01  0.00000000000E+00 0. -1.
     999901    1    3    3    0    0 -0.69374887315E-01  0.54475188635E-03 -0.97058305739E-01  0.88805038509E+00  0.88000000000E+00 0. -1.
        -11    1    4    4    0    0  0.68319673388E-01  0.65694852659E-02  0.74027318521E-01  0.10095068557E+00  0.51100000000E-03 0. -1.
         11    1    4    4    0    0  0.18812366588E-01  0.92609425882E-02  0.22511348120E-01  0.30768362151E-01  0.51100000000E-03 0.  1.
</event>
<event>
 8    1  0.1157726E+005  0.1043930E+01  0.7957747E-01            NaN
         13   -1    0    0    0    0  0.00000000000E+00  0.00000000000E+00  0.74505805969E-08  0.10566000000E+00  0.10566000000E+00 0.  1.
     999900   -1    0    0    0    0 -0.00000000000E+00 -0.00000000000E+00 -0.74505805969E-08  0.93827000000E+00  0.93827000000E+00 0.  1.
     999902    2    1    2    0    0  0.79632049249E-02  0.14973865548E-01  0.17918034303E-01  0.10192584529E+01  0.10189598170E+01 0.  0.
     999903    2    3    3    0    0  0.56658785513E-01  0.10891318318E+00  0.45925820340E-01  0.13247759439E+00  0.19205014862E-01 0.  0.
         14    1    1    2    0    0 -0.79632049249E-02 -0.14973865548E-01 -0.17918034303E-01  0.24671547082E-01  0.00000000000E+00 0. -1.
     999901    1    3    3    0    0 -0.48695580588E-01 -0.93939317634E-01 -0.28007786036E-01  0.88678085852E+00  0.88000000000E+00 0.  1.
        -11    1    4    4    0    0  0.34127426379E-01  0.56324684785E-01  0.33664412072E-01  0.73964215054E-01  0.51100000000E-03 0.  1.
         11    1    4    4    0    0  0.22531359134E-01  0.52588498397E-01  0.12261408268E-01  0.58513379340E-01  0.51100000000E-03 0. -1.
</event>
<event>
 8    1  0.1157726E+005  0.1043930E+01  0.7957747E-01            NaN
         13   -1    0    0    0    0  0.00000000000E+00  0.00000000000E+00  0.74505805969E-08  0.10566000000E+00  0.10566000000E+00 0. -1.
     999900   -1    0    0    0    0 -0.00000000000E+00 -0.00000000000E+00 -0.74505805969E-08  0.93827000000E+00  0.93827000000E+00 0. -1.
     999902    2    1    2    0    0 -0.23081239431E-01  0.63758973318E-02 -0.24952839153E-02  0.10198546574E+01  0.10195704488E+01 0.  0.
     999903    2    3    3    0    0 -0.91574345253E-01 -0.92591798991E-01 -0.36981214131E-02  0.13166134662E+00  0.19024514257E-01 0.  0.
         14    1    1    2    0    0  0.23081239431E-01 -0.63758973318E-02  0.24952839153E-02  0.24075342620E-01  0.00000000000E+00 0.  1.
     999901    1    3    3    0    0  0.68493105822E-01  0.98967696323E-01  0.12028374978E-02  0.88819331076E+00  0.88000000000E+00 0.  1.
        -11    1    4    4    0    0 -0.35577650123E-01 -0.45498715395E-01  0.50096605489E-02  0.57976375454E-01  0.51100000000E-03 0. -1.
         11    1    4    4    0    0 -0.55996695130E-01 -0.47093083596E-01 -0.87077819620E-02  0.73684971166E-01  0.51100000000E-03 0.  1.
</event>
<event>
 8    1  0.1157726E+005  0.1043930E+01  0.7957747E-01            NaN
         13   -1    0    0    0    0  0.00000000000E+00  0.00000000000E+00  0.74505805969E-08  0.10566000000E+00  0.10566000000E+00 0. -1.
     999900   -1    0    0    0    0 -0.00000000000E+00 -0.00000000000E+00 -0.74505805969E-08  0.93827000000E+00  0.93827000000E+00 0.  1.
     999902    2    1    2    0    0 -0.17302270318E-01 -0.14676255060E-01  0.23908314434E-02  0.10211160329E+01  0.10208611441E+01 0.  0.
     999903    2    3    3    0    0  0.26494648051E-01  0.30345109567E-01 -0.12223139298E+00  0.13011895536E+00  0.19173864115E-01 0.  0.
         14    1    1    2    0    0  0.17302270318E-01  0.14676255060E-01 -0.23908314434E-02  0.22813967119E-01  0.00000000000E+00 0.  1.
     999901    1    3    3    0    0 -0.43796918368E-01 -0.45021364626E-01  0.12462222442E+00  0.89099707752E+00  0.88000000000E+00 0. -1.
        -11    1    4    4    0    0  0.20502631101E-01  0.20755559724E-01 -0.58312135573E-01  0.65205194713E-01  0.51100000000E-03 0.  1.
         11    1    4    4    0    0  0.59920169495E-02  0.95895498434E-02 -0.63919257403E-01  0.64913760647E-01  0.51100000000E-03 0. -1.
</event>
<event>
 8    1  0.1157726E+005  0.1043930E+01  0.7957747E-01            NaN
         13   -1    0    0    0    0  0.00000000000E+00  0.00000000000E+00  0.74505805969E-08  0.10566000000E+00  0.10566000000E+00 0.  1.
     999900   -1    0    0    0    0 -0.00000000000E+00 -0.00000000000E+00 -0.74505805969E-08  0.93827000000E+00  0.93827000000E+00 0. -1.
     999902    2    1    2    0    0  0.22644706695E-01  0.66865223562E-02  0.22055248059E-02  0.10202159396E+01  0.10199402956E+01 0.  0.
     999903    2    3    3    0    0  0.11687079307E+00  0.42095010956E-01  0.45219086202E-01  0.13343384520E+00  0.18139819960E-01 0.  0.
         14    1    1    2    0    0 -0.22644706695E-01 -0.66865223562E-02 -0.22055248059E-02  0.23714060432E-01  0.00000000000E+00 0. -1.
     999901    1    3    3    0    0 -0.94226086379E-01 -0.35408488600E-01 -0.43013561396E-01  0.88678209436E+00  0.88000000000E+00 0. -1.
        -11    1    4    4    0    0  0.62093294884E-01  0.17623766806E-01  0.15053699804E-01  0.66280083168E-01  0.51100000000E-03 0.  1.
         11    1    4    4    0    0  0.54777498190E-01  0.24471244150E-01  0.30165386398E-01  0.67153762037E-01  0.51100000000E-03 0. -1.
</event>
<event>
 8    1  0.1157726E+005  0.1043930E+01  0.7957747E-01            NaN
         13   -1    0    0    0    0  0.00000000000E+00  0.00000000000E+00  0.74505805969E-08  0.10566000000E+00  0.10566000000E+00 0.  1.
     999900   -1    0    0    0    0 -0.00000000000E+00 -0.00000000000E+00 -0.74505805969E-08  0.93827000000E+00  0.93827000000E+00 0.  1.
     999902    2    1    2    0    0  0.56384931360E-02 -0.22282541116E-01 -0.54304440416E-02  0.10203123378E+01  0.10200389565E+01 0.  0.
     999903    2    3    3    0    0 -0.11093404571E+00 -0.65424446500E-01 -0.24344610057E-01  0.13137582352E+00  0.89569117895E-02 0.  0.
         14    1    1    2    0    0 -0.56384931360E-02  0.22282541116E-01  0.54304440416E-02  0.23617662161E-01  0.00000000000E+00 0.  1.
     999901    1    3    3    0    0  0.11657253885E+00  0.43141905384E-01  0.18914166016E-01  0.88893651432E+00  0.88000000000E+00 0. -1.
        -11    1    4    4    0    0 -0.47066995268E-01 -0.23328579815E-01 -0.12083677275E-01  0.53905482627E-01  0.51100000000E-03 0. -1.
         11    1    4    4    0    0 -0.63867050444E-01 -0.42095866686E-01 -0.12260932782E-01  0.77470340894E-01  0.51100000000E-03 0.  1.
</event>
<event>
 8    1  0.1157726E+005  0.1043930E+01  0.7957747E-01            NaN
         13   -1    0    0    0    0  0.00000000000E+00  0.00000000000E+00  0.74505805969E-08  0.10566000000E+00  0.10566000000E+00 0. -1.
     999900   -1    0    0    0    0 -0.00000000000E+00 -0.00000000000E+00 -0.74505805969E-08  0.93827000000E+00  0.93827000000E+00 0.  1.
     999902    2    1    2    0    0  0.22374962947E-01  0.59235059325E-04  0.52357185854E-02  0.10209505478E+01  0.10206919054E+01 0.  0.
     999903    2    3    3    0    0 -0.10525637588E+00  0.11114669265E-01 -0.70224397606E-01  0.12847858159E+00  0.19309048970E-01 0.  0.
         14    1    1    2    0    0 -0.22374962947E-01 -0.59235059325E-04 -0.52357185854E-02  0.22979452230E-01  0.00000000000E+00 0. -1.
     999901    1    3    3    0    0  0.12763133883E+00 -0.11055434206E-01  0.75460116192E-01  0.89247196618E+00  0.88000000000E+00 0. -1.
        -11    1    4    4    0    0 -0.52062012571E-01  0.13084461167E-01 -0.42425261243E-01  0.68423827645E-01  0.51100000000E-03 0.  1.
         11    1    4    4    0    0 -0.53194363311E-01 -0.19697919020E-02 -0.27799136363E-01  0.60054753948E-01  0.51100000000E-03 0. -1.
</event>
<event>
 8    1  0.1157726E+005  0.1043930E+01  0.7957747E-01            NaN
         13   -1    0    0    0    0  0.00000000000E+00  0.00000000000E+00  0.74505805969E-08  0.10566000000E+00  0.10566000000E+00 0. -1.
     999900   -1    0    0    0    0 -0.00000000000E+00 -0.00000000000E+00 -0.74505805969E-08  0.93827000000E+00  0.93827000000E+00 0. -1.
     999902    2    1    2    0    0  0.49764329312E-02 -0.28781067395E-01 -0.98746481845E-02  0.10130978187E+01  0.10126285434E+01 0.  0.
     999903    2    3    3    0    0 -0.10212776046E+00 -0.20410700380E-01  0.63274577595E-01  0.12355176567E+00  0.20363950552E-01 0.  0.
         14    1    1    2    0    0 -0.49764329312E-02  0.28781067395E-01  0.98746481845E-02  0.30832181270E-01  0.00000000000E+00 0.  1.
     999901    1    3    3    0    0  0.10710419340E+00 -0.83703670147E-02 -0.73149225780E-01  0.88954605306E+00  0.88000000000E+00 0. -1.
        -11    1    4    4    0    0 -0.58291745617E-01 -0.15941824681E-01  0.25821995563E-01  0.65719905334E-01  0.51100000000E-03 0. -1.
         11    1    4    4    0    0 -0.43836014847E-01 -0.44688756994E-02  0.37452582032E-01  0.57831860333E-01  0.51100000000E-03 0.  1.
</event>
<event>
 8    1  0.1157726E+005  0.1043930E+01  0.7957747E-01            NaN
         13   -1    0    0    0    0  0.00000000000E+00  0.00000000000E+00  0.74505805969E-08  0.10566000000E+00  0.10566000000E+00 0.  1.
     999900   -1    0    0    0    0 -0.00000000000E+00 -0.00000000000E+00 -0.74505805969E-08  0.93827000000E+00  0.93827000000E+00 0. -1.
     999902    2    1    2    0    0 -0.23451595308E-01 -0.17935573364E-02  0.43517214858E-02  0.10200107264E+01  0.10197302341E+01 0.  0.
     999903    2    3    3    0    0 -0.68985477050E-01  0.96987066601E-01  0.53175366559E-01  0.13197092189E+00  0.20572250326E-01 0.  0.
         14    1    1    2    0    0  0.23451595308E-01  0.17935573364E-02 -0.43517214858E-02  0.23919273616E-01  0.00000000000E+00 0. -1.
     999901    1    3    3    0    0  0.45533881742E-01 -0.98780623937E-01 -0.48823645074E-01  0.88803980450E+00  0.88000000000E+00 0. -1.
        -11    1    4    4    0    0 -0.56767237785E-01  0.80423892037E-01  0.34911412873E-01  0.10444898068E+00  0.51100000000E-03 0.  1.
         11    1    4    4    0    0 -0.12218239265E-01  0.16563174564E-01  0.18263953686E-01  0.27521941204E-01  0.51100000000E-03 0. -1.
</event>
<event>
 8    1  0.1157726E+005  0.1043930E+01  0.7957747E-01            NaN
         13   -1    0    0    0    0  0.00000000000E+00  0.00000000000E+00  0.74505805969E-08  0.10566000000E+00  0.10566000000E+00 0.  1.
     999900   -1    0    0    0    0 -0.00000000000E+00 -0.00000000000E+00 -0.74505805969E-08  0.93827000000E+00  0.93827000000E+00 0.  1.
     999902    2    1    2    0    0  0.17788081020E-01  0.13307877136E-01  0.78975896781E-02  0.10203527367E+01  0.10200803008E+01 0.  0.
     999903    2    3    3    0    0  0.17887752236E-01  0.12469249428E+00 -0.35116276266E-01  0.13228926179E+00  0.19977640376E-01 0.  0.
         14    1    1    2    0    0 -0.17788081020E-01 -0.13307877136E-01 -0.78975896781E-02  0.23577263263E-01  0.00000000000E+00 0. -1.
     999901    1    3    3    0    0 -0.99671216108E-04 -0.11138461715E+00  0.43013865945E-01  0.88806347495E+00  0.88000000000E+00 0. -1.
        -11    1    4    4    0    0  0.17420257087E-01  0.94845689061E-01 -0.18738770310E-01  0.98237328568E-01  0.51100000000E-03 0.  1.
         11    1    4    4    0    0  0.46749514953E-03  0.29846805223E-01 -0.16377505956E-01  0.34051933221E-01  0.51100000000E-03 0. -1.
</event>
<event>
 8    1  0.1157726E+005  0.1043930E+01  0.7957747E-01            NaN
         13   -1    0    0    0    0  0.00000000000E+00  0.00000000000E+00  0.74505805969E-08  0.10566000000E+00  0.10566000000E+00 0.  1.
     999900   -1    0    0    0    0 -0.00000000000E+00 -0.00000000000E+00 -0.74505805969E-08  0.93827000000E+00  0.93827000000E+00 0. -1.
     999902    2    1    2    0    0 -0.85213780862E-02 -0.59770106435E-02  0.21228535919E-01  0.10202870459E+01  0.10200130719E+01 0.  0.
     999903    2    3    3    0    0 -0.64366575332E-01  0.66558521567E-01  0.92922570335E-01  0.13263839692E+00  0.19627721376E-01 0.  0.
         14    1    1    2    0    0  0.85213780862E-02  0.59770106435E-02 -0.21228535919E-01  0.23642954088E-01  0.00000000000E+00 0. -1.
     999901    1    3    3    0    0  0.55845197245E-01 -0.72535532211E-01 -0.71694034416E-01  0.88764864899E+00  0.88000000000E+00 0. -1.
        -11    1    4    4    0    0 -0.32440536915E-01  0.23581844036E-01  0.49452254399E-01  0.63673215637E-01  0.51100000000E-03 0.  1.
         11    1    4    4    0    0 -0.31926038417E-01  0.42976677531E-01  0.43470315936E-01  0.68965181282E-01  0.51100000000E-03 0. -1.
</event>
<event>
 8    1  0.1157726E+005  0.1043930E+01  0.7957747E-01            NaN
         13   -1    0    0    0    0  0.00000000000E+00  0.00000000000E+00  0.74505805969E-08  0.10566000000E+00  0.10566000000E+00 0.  1.
     999900   -1    0    0    0    0 -0.00000000000E+00 -0.00000000000E+00 -0.74505805969E-08  0.93827000000E+00  0.93827000000E+00 0.  1.
     999902    2    1    2    0    0 -0.15792886932E-02  0.14778820648E-01  0.18219951661E-01  0.10204167201E+01  0.10201457780E+01 0.  0.
     999903    2    3    3    0    0 -0.53291451167E-01 -0.98320048467E-01 -0.59642074423E-01  0.12826875198E+00  0.19720167194E-01 0.  0.
         14    1    1    2    0    0  0.15792886932E-02 -0.14778820648E-01 -0.18219951661E-01  0.23513279887E-01  0.00000000000E+00 0. -1.
     999901    1    3    3    0    0  0.51712162474E-01  0.11309886912E+00  0.77862026084E-01  0.89214796814E+00  0.88000000000E+00 0. -1.
        -11    1    4    4    0    0 -0.95021478998E-02 -0.11425926431E-01 -0.15708678972E-02  0.14952302714E-01  0.51100000000E-03 0.  1.
         11    1    4    4    0    0 -0.43789303267E-01 -0.86894122036E-01 -0.58071206526E-01  0.11331644926E+00  0.51100000000E-03 0. -1.
</event>
<event>
 8    1  0.1157726E+005  0.1043930E+01  0.7957747E-01            NaN
         13   -1    0    0    0    0  0.00000000000E+00  0.00000000000E+00  0.74505805969E-08  0.10566000000E+00  0.10566000000E+00 0.  1.
     999900   -1    0    0    0    0 -0.00000000000E+00 -0.00000000000E+00 -0.74505805969E-08  0.93827000000E+00  0.93827000000E+00 0. -1.
     999902    2    1    2    0    0  0.32330163212E-02  0.22025504700E-01  0.87379159394E-02  0.10200150167E+01  0.10197346262E+01 0.  0.
     999903    2    3    3    0    0  0.38126489566E-01  0.73645148538E-01 -0.99465459097E-01  0.13120113714E+00  0.21050504130E-01 0.  0.
         14    1    1    2    0    0 -0.32330163212E-02 -0.22025504700E-01 -0.87379159394E-02  0.23914983312E-01  0.00000000000E+00 0. -1.
     999901    1    3    3    0    0 -0.34893473245E-01 -0.51619643838E-01  0.10820337504E+00  0.88881387955E+00  0.88000000000E+00 0.  1.
        -11    1    4    4    0    0  0.72807219288E-02  0.35453307367E-01 -0.37138220088E-01  0.51859950129E-01  0.51100000000E-03 0.  1.
         11    1    4    4    0    0  0.30845767637E-01  0.38191841171E-01 -0.62327239009E-01  0.79341187013E-01  0.51100000000E-03 0. -1.
</event>
<event>
 8    1  0.1157726E+005  0.1043930E+01  0.7957747E-01            NaN
         13   -1    0    0    0    0  0.00000000000E+00  0.00000000000E+00  0.74505805969E-08  0.10566000000E+00  0.10566000000E+00 0. -1.
     999900   -1    0    0    0    0 -0.00000000000E+00 -0.00000000000E+00 -0.74505805969E-08  0.93827000000E+00  0.93827000000E+00 0. -1.
     999902    2    1    2    0    0  0.11803294938E-01 -0.86482669343E-02  0.22387307608E-01  0.10171848727E+01  0.10168332033E+01 0.  0.
     999903    2    3    3    0    0  0.97240194907E-02 -0.36090828559E-01 -0.11840284001E+00  0.12556876515E+00  0.18739738488E-01 0.  0.
         14    1    1    2    0    0 -0.11803294938E-01  0.86482669343E-02 -0.22387307608E-01  0.26745127300E-01  0.00000000000E+00 0.  1.
     999901    1    3    3    0    0  0.20792754474E-02  0.27442561624E-01  0.14079014762E+00  0.89161610755E+00  0.88000000000E+00 0.  1.
        -11    1    4    4    0    0  0.37290343248E-02 -0.28881026600E-01 -0.63397967323E-01  0.69768064157E-01  0.51100000000E-03 0.  1.
         11    1    4    4    0    0  0.59949851659E-02 -0.72098019582E-02 -0.55004872684E-01  0.55800700994E-01  0.51100000000E-03 0. -1.
</event>
<event>
 8    1  0.1157726E+005  0.1043930E+01  0.7957747E-01            NaN
         13   -1    0    0    0    0  0.00000000000E+00  0.00000000000E+00  0.74505805969E-08  0.10566000000E+00  0.10566000000E+00 0.  1.
     999900   -1    0    0    0    0 -0.00000000000E+00 -0.00000000000E+00 -0.74505805969E-08  0.93827000000E+00  0.93827000000E+00 0.  1.
     999902    2    1    2    0    0 -0.20255614538E-01 -0.33704519169E-03  0.10580109330E-01  0.10210751923E+01  0.10208193798E+01 0.  0.
     999903    2    3    3    0    0  0.88549099487E-01 -0.73046606717E-01 -0.55369205688E-01  0.12895723025E+00  0.19684220138E-01 0.  0.
         14    1    1    2    0    0  0.20255614538E-01  0.33704519169E-03 -0.10580109330E-01  0.22854807660E-01  0.00000000000E+00 0.  1.
     999901    1    3    3    0    0 -0.10880471402E+00  0.72709561526E-01  0.65949315018E-01  0.89211796209E+00  0.88000000000E+00 0.  1.
        -11    1    4    4    0    0  0.88484688986E-01 -0.70031554866E-01 -0.51546763588E-01  0.12406163315E+00  0.51100000000E-03 0.  1.
         11    1    4    4    0    0  0.64410500566E-04 -0.30150518514E-02 -0.38224421003E-02  0.48955971025E-02  0.51100000000E-03 0. -1.
</event>
<event>
 8    1  0.1157726E+005  0.1043930E+01  0.7957747E-01            NaN
         13   -1    0    0    0    0  0.00000000000E+00  0.00000000000E+00  0.74505805969E-08  0.10566000000E+00  0.10566000000E+00 0.  1.
     999900   -1    0    0    0    0 -0.00000000000E+00 -0.00000000000E+00 -0.74505805969E-08  0.93827000000E+00  0.93827000000E+00 0. -1.
     999902    2    1    2    0    0  0.10852090111E-01  0.24961748123E-01  0.12050129205E-01  0.10141632007E+01  0.10137262625E+01 0.  0.
     999903    2    3    3    0    0 -0.41992756991E-01 -0.44542105404E-01  0.10697209801E+00  0.12476253522E+00  0.19371877769E-01 0.  0.
         14    1    1    2    0    0 -0.10852090111E-01 -0.24961748123E-01 -0.12050129205E-01  0.29766799341E-01  0.00000000000E+00 0.  1.
     999901    1    3    3    0    0  0.52844847101E-01  0.69503853526E-01 -0.94921968807E-01  0.88940066544E+00  0.88000000000E+00 0. -1.
        -11    1    4    4    0    0 -0.38914046062E-01 -0.42213328594E-01  0.10629464529E+00  0.12081010235E+00  0.51100000000E-03 0.  1.
         11    1    4    4    0    0 -0.30787109282E-02 -0.23287768091E-02  0.67745272386E-03  0.39524328710E-02  0.51100000000E-03 0. -1.
</event>
<event>
 8    1  0.1157726E+005  0.1043930E+01  0.7957747E-01            NaN
         13   -1    0    0    0    0  0.00000000000E+00  0.00000000000E+00  0.74505805969E-08  0.10566000000E+00  0.10566000000E+00 0. -1.
     999900   -1    0    0    0    0 -0.00000000000E+00 -0.00000000000E+00 -0.74505805969E-08  0.93827000000E+00  0.93827000000E+00 0.  1.
     999902    2    1    2    0    0  0.16410066791E-01 -0.10004694212E-01  0.13817535125E-01  0.10202591640E+01  0.10199845358E+01 0.  0.
     999903    2    3    3    0    0 -0.26277424744E-01 -0.61776079192E-01 -0.10866029689E+00  0.12924664023E+00  0.19769847726E-01 0.  0.
         14    1    1    2    0    0 -0.16410066791E-01  0.10004694212E-01 -0.13817535125E-01  0.23670835965E-01  0.00000000000E+00 0.  1.
     999901    1    3    3    0    0  0.42687491535E-01  0.51771384980E-01  0.12247783202E+00  0.89101252380E+00  0.88000000000E+00 0. -1.
        -11    1    4    4    0    0 -0.20246800153E-01 -0.59084784354E-01 -0.10334739006E+00  0.12075549185E+00  0.51100000000E-03 0. -1.
         11    1    4    4    0    0 -0.60306245913E-02 -0.26912948382E-02 -0.53129068360E-02  0.84911483861E-02  0.51100000000E-03 0.  1.
</event>
<event>
 8    1  0.1157726E+005  0.1043930E+01  0.7957747E-01            NaN
         13   -1    0    0    0    0  0.00000000000E+00  0.00000000000E+00  0.74505805969E-08  0.10566000000E+00  0.10566000000E+00 0. -1.
     999900   -1    0    0    0    0 -0.00000000000E+00 -0.00000000000E+00 -0.74505805969E-08  0.93827000000E+00  0.93827000000E+00 0.  1.
     999902    2    1    2    0    0 -0.72872840553E-02  0.50523641649E-02 -0.21802133991E-01  0.10203935615E+01  0.10201220791E+01 0.  0.
     999903    2    3    3    0    0 -0.59417966682E-01 -0.68989929332E-01  0.88832675710E-01  0.12885560354E+00  0.20552789972E-01 0.  0.
         14    1    1    2    0    0  0.72872840553E-02 -0.50523641649E-02  0.21802133991E-01  0.23536438540E-01  0.00000000000E+00 0. -1.
     999901    1    3    3    0    0  0.52130682627E-01  0.74042293497E-01 -0.11063480970E+00  0.89153795792E+00  0.88000000000E+00 0.  1.
        -11    1    4    4    0    0 -0.40868144802E-01 -0.31946116420E-01  0.47657073115E-01  0.70443007834E-01  0.51100000000E-03 0. -1.
         11    1    4    4    0    0 -0.18549821881E-01 -0.37043812913E-01  0.41175602595E-01  0.58412595704E-01  0.51100000000E-03 0.  1.
</event>
<event>
 8    1  0.1492045E+005  0.1043930E+01  0.7957747E-01            NaN
         13   -1    0    0    0    0  0.00000000000E+00  0.00000000000E+00  0.74505805969E-08  0.10566000000E+00  0.10566000000E+00 0. -1.
     999900   -1    0    0    0    0 -0.00000000000E+00 -0.00000000000E+00 -0.74505805969E-08  0.93827000000E+00  0.93827000000E+00 0.  1.
     999902    2    1    2    0    0 -0.22153244391E-01 -0.26986761299E-02 -0.83352639435E-02  0.10201072018E+01  0.10198289942E+01 0.  0.
     999903    2    3    3    0    0 -0.13400952944E-01 -0.26720084335E-01  0.12461111107E+00  0.12975425531E+00  0.20363922101E-01 0.  0.
         14    1    1    2    0    0  0.22153244391E-01  0.26986761299E-02  0.83352639435E-02  0.23822798218E-01  0.00000000000E+00 0.  1.
     999901    1    3    3    0    0 -0.87522914472E-02  0.24021408205E-01 -0.13294637501E+00  0.89035294647E+00  0.88000000000E+00 0.  1.
        -11    1    4    4    0    0 -0.17632959258E-01 -0.13311324283E-01  0.75855428548E-01  0.79008985360E-01  0.51100000000E-03 0.  1.
         11    1    4    4    0    0  0.42320063135E-02 -0.13408760052E-01  0.48755682521E-01  0.50745269953E-01  0.51100000000E-03 0. -1.
</event>
<event>
 8    1  0.1157726E+005  0.1043930E+01  0.7957747E-01            NaN
         13   -1    0    0    0    0  0.00000000000E+00  0.00000000000E+00  0.74505805969E-08  0.10566000000E+00  0.10566000000E+00 0. -1.
     999900   -1    0    0    0    0 -0.00000000000E+00 -0.00000000000E+00 -0.74505805969E-08  0.93827000000E+00  0.93827000000E+00 0. -1.
     999902    2    1    2    0    0 -0.41411541381E-03 -0.21261120490E-01  0.10588424611E-01  0.10201745486E+01  0.10198979302E+01 0.  0.
     999903    2    3    3    0    0  0.37059947785E-01 -0.28474144263E-01 -0.11931588148E+00  0.12981986540E+00  0.20801472515E-01 0.  0.
         14    1    1    2    0    0  0.41411541381E-03  0.21261120490E-01 -0.10588424611E-01  0.23755451412E-01  0.00000000000E+00 0.  1.
     999901    1    3    3    0    0 -0.37474063199E-01  0.72130237730E-02  0.12990430609E+00  0.89035468318E+00  0.88000000000E+00 0.  1.
        -11    1    4    4    0    0  0.39031448540E-01 -0.26745984138E-01 -0.10381306009E+00  0.11408862436E+00  0.51100000000E-03 0.  1.
         11    1    4    4    0    0 -0.19715007550E-02 -0.17281601247E-02 -0.15502821395E-01  0.15731241046E-01  0.51100000000E-03 0. -1.
</event>
<event>
 8    1  0.1157726E+005  0.1043930E+01  0.7957747E-01            NaN
         13   -1    0    0    0    0  0.00000000000E+00  0.00000000000E+00  0.74505805969E-08  0.10566000000E+00  0.10566000000E+00 0.  1.
     999900   -1    0    0    0    0 -0.00000000000E+00 -0.00000000000E+00 -0.74505805969E-08  0.93827000000E+00  0.93827000000E+00 0. -1.
     999902    2    1    2    0    0 -0.65429147173E-02 -0.14068746307E-01  0.20607391199E-01  0.10181345755E+01  0.10178077470E+01 0.  0.
     999903    2    3    3    0    0  0.21824792856E-01  0.10105305053E+00  0.74043341340E-01  0.12857673264E+00  0.19013657584E-01 0.  0.
         14    1    1    2    0    0  0.65429147173E-02  0.14068746307E-01 -0.20607391199E-01  0.25795424550E-01  0.00000000000E+00 0. -1.
     999901    1    3    3    0    0 -0.28367707574E-01 -0.11512179684E+00 -0.53435950140E-01  0.88955784281E+00  0.88000000000E+00 0. -1.
        -11    1    4    4    0    0  0.18352330351E-01  0.78341253680E-01  0.66505747094E-01  0.10439078300E+00  0.51100000000E-03 0. -1.
         11    1    4    4    0    0  0.34724625054E-02  0.22711796850E-01  0.75375942458E-02  0.24185949641E-01  0.51100000000E-03 0.  1.
</event>
<event>
 8    1  0.1157726E+005  0.1043930E+01  0.7957747E-01            NaN
         13   -1    0    0    0    0  0.00000000000E+00  0.00000000000E+00  0.74505805969E-08  0.10566000000E+00  0.10566000000E+00 0. -1.
     999900   -1    0    0    0    0 -0.00000000000E+00 -0.00000000000E+00 -0.74505805969E-08  0.93827000000E+00  0.93827000000E+00 0. -1.
     999902    2    1    2    0    0 -0.16656901598E-02  0.17424132469E-01 -0.14068743228E-01  0.10214732760E+01  0.10212263947E+01 0.  0.
     999903    2    3    3    0    0  0.11129459815E-01  0.12221213801E+00  0.47720651626E-01  0.13301271342E+00  0.18853376031E-01 0.  0.
         14    1    1    2    0    0  0.16656901598E-02 -0.17424132469E-01  0.14068743228E-01  0.22456723983E-01  0.00000000000E+00 0.  1.
     999901    1    3    3    0    0 -0.12795149975E-01 -0.10478800554E+00 -0.61789394854E-01  0.88846056259E+00  0.88000000000E+00 0. -1.
        -11    1    4    4    0    0 -0.27402828216E-02  0.66486961800E-01  0.29226494053E-01  0.72680632323E-01  0.51100000000E-03 0. -1.
         11    1    4    4    0    0  0.13869742637E-01  0.55725176211E-01  0.18494157574E-01  0.60332081100E-01  0.51100000000E-03 0.  1.
</event>
<event>
 8    1  0.1157726E+005  0.1043930E+01  0.7957747E-01            NaN
         13   -1    0    0    0    0  0.00000000000E+00  0.00000000000E+00  0.74505805969E-08  0.10566000000E+00  0.10566000000E+00 0.  1.
     999900   -1    0    0    0    0 -0.00000000000E+00 -0.00000000000E+00 -0.74505805969E-08  0.93827000000E+00  0.93827000000E+00 0.  1.
     999902    2    1    2    0    0 -0.21952047723E-01  0.42662015975E-02  0.31166924394E-02  0.10213511017E+01  0.10211014966E+01 0.  0.
     999903    2    3    3    0    0 -0.23507916684E-01 -0.10421871202E-01 -0.12754087759E+00  0.13158171542E+00  0.19642678768E-01 0.  0.
         14    1    1    2    0    0  0.21952047723E-01 -0.42662015975E-02 -0.31166924394E-02  0.22578898269E-01  0.00000000000E+00 0. -1.
     999901    1    3    3    0    0  0.15558689609E-02  0.14688072799E-01  0.13065757003E+00  0.88976938631E+00  0.88000000000E+00 0. -1.
        -11    1    4    4    0    0 -0.87112761079E-02 -0.86643937705E-03 -0.86161592091E-01  0.86606686355E-01  0.51100000000E-03 0.  1.
         11    1    4    4    0    0 -0.14796640576E-01 -0.95554318249E-02 -0.41379285502E-01  0.44975029064E-01  0.51100000000E-03 0. -1.
</event>
<event>
 8    1  0.1157726E+005  0.1043930E+01  0.7957747E-01            NaN
         13   -1    0    0    0    0  0.00000000000E+00  0.00000000000E+00  0.74505805969E-08  0.10566000000E+00  0.10566000000E+00 0.  1.
     999900   -1    0    0    0    0 -0.00000000000E+00 -0.00000000000E+00 -0.74505805969E-08  0.93827000000E+00  0.93827000000E+00 0.  1.
     999902    2    1    2    0    0 -0.10679887818E-01  0.78333058959E-02 -0.19680149587E-01  0.10202080909E+01  0.10199322623E+01 0.  0.
     999903    2    3    3    0    0 -0.82643523520E-01 -0.97333817582E-01  0.14744565815E-01  0.13036318879E+00  0.21756257620E-01 0.  0.
         14    1    1    2    0    0  0.10679887818E-01 -0.78333058959E-02  0.19680149587E-01  0.23721909131E-01  0.00000000000E+00 0.  1.
     999901    1    3    3    0    0  0.71963635702E-01  0.10516712348E+00 -0.34424715402E-01  0.88984490208E+00  0.88000000000E+00 0. -1.
        -11    1    4    4    0    0 -0.28999347605E-01 -0.42652731071E-01 -0.32265778086E-02  0.51680649712E-01  0.51100000000E-03 0. -1.
         11    1    4    4    0    0 -0.53644175915E-01 -0.54681086511E-01  0.17971143624E-01  0.78682539078E-01  0.51100000000E-03 0.  1.
</event>
<event>
 8    1  0.1157726E+005  0.1043930E+01  0.7957747E-01            NaN
         13   -1    0    0    0    0  0.00000000000E+00  0.00000000000E+00  0.74505805969E-08  0.10566000000E+00  0.10566000000E+00 0.  1.
     999900   -1    0    0    0    0 -0.00000000000E+00 -0.00000000000E+00 -0.74505805969E-08  0.93827000000E+00  0.93827000000E+00 0.  1.
     999902    2    1    2    0    0 -0.40161151933E-02  0.11341835582E-01 -0.19262051552E-01  0.10212189224E+01  0.10209663532E+01 0.  0.
     999903    2    3    3    0    0 -0.62110629664E-01  0.61661990009E-03 -0.11713199491E+00  0.13382468720E+00  0.18194288551E-01 0.  0.
         14    1    1    2    0    0  0.40161151933E-02 -0.11341835582E-01  0.19262051552E-01  0.22711077597E-01  0.00000000000E+00 0.  1.
     999901    1    3    3    0    0  0.58094514470E-01  0.10725215682E-01  0.97869943353E-01  0.88739423520E+00  0.88000000000E+00 0. -1.
        -11    1    4    4    0    0 -0.39843932934E-01 -0.64703622525E-02 -0.84913704155E-01  0.94021289363E-01  0.51100000000E-03 0. -1.
         11    1    4    4    0    0 -0.22266696730E-01  0.70869821526E-02 -0.32218290751E-01  0.39803397835E-01  0.51100000000E-03 0.  1.
</event>
<event>
 8    1  0.1157726E+005  0.1043930E+01  0.7957747E-01            NaN
         13   -1    0    0    0    0  0.00000000000E+00  0.00000000000E+00  0.74505805969E-08  0.10566000000E+00  0.10566000000E+00 0. -1.
     999900   -1    0    0    0    0 -0.00000000000E+00 -0.00000000000E+00 -0.74505805969E-08  0.93827000000E+00  0.93827000000E+00 0. -1.
     999902    2    1    2    0    0  0.80599581143E-02 -0.21637758950E-01  0.42621731704E-02  0.10204497603E+01  0.10201795879E+01 0.  0.
     999903    2    3    3    0    0 -0.12434731739E+00  0.27956810721E-01 -0.55415619702E-02  0.12910952156E+00  0.19867587665E-01 0.  0.
         14    1    1    2    0    0 -0.80599581143E-02  0.21637758950E-01 -0.42621731704E-02  0.23480239720E-01  0.00000000000E+00 0.  1.
     999901    1    3    3    0    0  0.13240727550E+00 -0.49594569671E-01  0.98037351407E-02  0.89134023872E+00  0.88000000000E+00 0.  1.
        -11    1    4    4    0    0 -0.22070163873E-01  0.56802458740E-02  0.66001492316E-02  0.23731422575E-01  0.51100000000E-03 0.  1.
         11    1    4    4    0    0 -0.10227715352E+00  0.22276564847E-01 -0.12141711202E-01  0.10537809898E+00  0.51100000000E-03 0. -1.
</event>
<event>
 8    1  0.1157726E+005  0.1043930E+01  0.7957747E-01            NaN
         13   -1    0    0    0    0  0.00000000000E+00  0.00000000000E+00  0.74505805969E-08  0.10566000000E+00  0.10566000000E+00 0. -1.
     999900   -1    0    0    0    0 -0.00000000000E+00 -0.00000000000E+00 -0.74505805969E-08  0.93827000000E+00  0.93827000000E+00 0. -1.
     999902    2    1    2    0    0 -0.10055169729E-01  0.23352776058E-01 -0.89303101260E-03  0.10184887718E+01  0.10181709690E+01 0.  0.
     999903    2    3    3    0    0 -0.12443080648E+00  0.29141130425E-01  0.19695679670E-01  0.13082938536E+00  0.19904200378E-01 0.  0.
         14    1    1    2    0    0  0.10055169729E-01 -0.23352776058E-01  0.89303101260E-03  0.25441228199E-01  0.00000000000E+00 0.  1.
     999901    1    3    3    0    0  0.11437563675E+00 -0.57883543670E-02 -0.20588710683E-01  0.88765938644E+00  0.88000000000E+00 0.  1.
        -11    1    4    4    0    0 -0.25511681018E-01  0.14359768139E-01  0.58215437342E-02  0.29852978106E-01  0.51100000000E-03 0. -1.
         11    1    4    4    0    0 -0.98919125461E-01  0.14781362286E-01  0.13874135936E-01  0.10097640725E+00  0.51100000000E-03 0.  1.
</event>
<event>
 8    1  0.1157726E+005  0.1043930E+01  0.7957747E-01            NaN
         13   -1    0    0    0    0  0.00000000000E+00  0.00000000000E+00  0.74505805969E-08  0.10566000000E+00  0.10566000000E+00 0.  1.
     999900   -1    0    0    0    0 -0.00000000000E+00 -0.00000000000E+00 -0.74505805969E-08  0.93827000000E+00  0.93827000000E+00 0.  1.
     999902    2    1    2    0    0 -0.12798094351E-02 -0.13387704153E-01  0.19289410086E-01  0.10204151137E+01  0.10201441342E+01 0.  0.
     999903    2    3    3    0    0 -0.53330327719E-01 -0.60368765495E-01  0.10444733473E+00  0.13352822765E+00  0.20785334846E-01 0.  0.
         14    1    1    2    0    0  0.12798094351E-02  0.13387704153E-01 -0.19289410086E-01  0.23514886266E-01  0.00000000000E+00 0. -1.
     999901    1    3    3    0    0  0.52050518284E-01  0.46981061342E-01 -0.85157924646E-01  0.88688688608E+00  0.88000000000E+00 0.  1.
        -11    1    4    4    0    0 -0.35258912070E-01 -0.32624916401E-01  0.75804706433E-01  0.89745142983E-01  0.51100000000E-03 0. -1.
         11    1    4    4    0    0 -0.18071415649E-01 -0.27743849094E-01  0.28642628299E-01  0.43783084667E-01  0.51100000000E-03 0.  1.
</event>
<event>
 8    1  0.1157726E+005  0.1043930E+01  0.7957747E-01            NaN
         13   -1    0    0    0    0  0.00000000000E+00  0.00000000000E+00  0.74505805969E-08  0.10566000000E+00  0.10566000000E+00 0. -1.
     999900   -1    0    0    0    0 -0.00000000000E+00 -0.00000000000E+00 -0.74505805969E-08  0.93827000000E+00  0.93827000000E+00 0.  1.
     999902    2    1    2    0    0 -0.21796638096E-01  0.80063885474E-02 -0.23160993223E-02  0.10205941905E+01  0.10203273698E+01 0.  0.
     999903    2    3    3    0    0 -0.75644752390E-01 -0.79350343671E-02  0.10623799132E+00  0.13214737779E+00  0.19781944356E-01 0.  0.
         14    1    1    2    0    0  0.21796638096E-01 -0.80063885474E-02  0.23160993223E-02  0.23335809520E-01  0.00000000000E+00 0. -1.
     999901    1    3    3    0    0  0.53848114294E-01  0.15941422914E-01 -0.10855409065E+00  0.88844681269E+00  0.88000000000E+00 0.  1.
        -11    1    4    4    0    0 -0.20169702059E-01  0.26962020352E-02  0.41546968304E-01  0.46265517212E-01  0.51100000000E-03 0. -1.
         11    1    4    4    0    0 -0.55475050331E-01 -0.10631236402E-01  0.64691023020E-01  0.85881860582E-01  0.51100000000E-03 0.  1.
</event>
<event>
 8    1  0.1157726E+005  0.1043930E+01  0.7957747E-01            NaN
         13   -1    0    0    0    0  0.00000000000E+00  0.00000000000E+00  0.74505805969E-08  0.10566000000E+00  0.10566000000E+00 0.  1.
     999900   -1    0    0    0    0 -0.00000000000E+00 -0.00000000000E+00 -0.74505805969E-08  0.93827000000E+00  0.93827000000E+00 0. -1.
     999902    2    1    2    0    0 -0.47529487180E-02 -0.72436447764E-02  0.25203409567E-01  0.10172790570E+01  0.10169298928E+01 0.  0.
     999903    2    3    3    0    0 -0.11807629586E+00  0.37760997512E-01 -0.23067610948E-01  0.12756129820E+00  0.19283815638E-01 0.  0.
         14    1    1    2    0    0  0.47529487180E-02  0.72436447764E-02 -0.25203409567E-01  0.26650943041E-01  0.00000000000E+00 0. -1.
     999901    1    3    3    0    0  0.11332334714E+00 -0.45004642288E-01  0.48271020516E-01  0.88971775876E+00  0.88000000000E+00 0.  1.
        -11    1    4    4    0    0 -0.96234044029E-01  0.37954275271E-01 -0.16581994077E-01  0.10476994746E+00  0.51100000000E-03 0.  1.
         11    1    4    4    0    0 -0.21842251832E-01 -0.19327775859E-03 -0.64856168716E-02  0.22791350741E-01  0.51100000000E-03 0. -1.
</event>
<event>
 8    1  0.1157726E+005  0.1043930E+01  0.7957747E-01            NaN
         13   -1    0    0    0    0  0.00000000000E+00  0.00000000000E+00  0.74505805969E-08  0.10566000000E+00  0.10566000000E+00 0. -1.
     999900   -1    0    0    0    0 -0.00000000000E+00 -0.00000000000E+00 -0.74505805969E-08  0.93827000000E+00  0.93827000000E+00 0.  1.
     999902    2    1    2    0    0 -0.50437576543E-03 -0.23291205884E-01 -0.56230382669E-02  0.10199643324E+01  0.10196827379E+01 0.  0.
     999903    2    3    3    0    0  0.71555069182E-01 -0.23741938945E-01 -0.10561978822E+00  0.13137437249E+00  0.20490936835E-01 0.  0.
         14    1    1    2    0    0  0.50437576543E-03  0.23291205884E-01  0.56230382669E-02  0.23965667648E-01  0.00000000000E+00 0.  1.
     999901    1    3    3    0    0 -0.72059444947E-01  0.45073306073E-03  0.99996749956E-01  0.88858995986E+00  0.88000000000E+00 0. -1.
        -11    1    4    4    0    0  0.39478255511E-01 -0.11195635250E-01 -0.40240565733E-01  0.57475552701E-01  0.51100000000E-03 0.  1.
         11    1    4    4    0    0  0.32076813670E-01 -0.12546303695E-01 -0.65379222491E-01  0.73898819789E-01  0.51100000000E-03 0. -1.
</event>
<event>
 8    1  0.1157726E+005  0.1043930E+01  0.7957747E-01            NaN
         13   -1    0    0    0    0  0.00000000000E+00  0.00000000000E+00  0.74505805969E-08  0.10566000000E+00  0.10566000000E+00 0.  1.
     999900   -1    0    0    0    0 -0.00000000000E+00 -0.00000000000E+00 -0.74505805969E-08  0.93827000000E+00  0.93827000000E+00 0.  1.
     999902    2    1    2    0    0  0.13926644114E-01  0.59874034699E-03  0.18170667296E-01  0.10210284049E+01  0.10207715320E+01 0.  0.
     999903    2    3    3    0    0  0.77963119888E-01 -0.10499650498E+00  0.12264180382E-02  0.13224376643E+00  0.19606007710E-01 0.  0.
         14    1    1    2    0    0 -0.13926644114E-01 -0.59874034699E-03 -0.18170667296E-01  0.22901595059E-01  0.00000000000E+00 0. -1.
     999901    1    3    3    0    0 -0.64036475774E-01  0.10559524533E+00  0.16944249258E-01  0.88878463851E+00  0.88000000000E+00 0. -1.
        -11    1    4    4    0    0  0.68985473606E-01 -0.89020903969E-01 -0.53946361859E-02  0.11275229547E+00  0.51100000000E-03 0.  1.
         11    1    4    4    0    0  0.89776462822E-02 -0.15975601011E-01  0.66210542240E-02  0.19491470967E-01  0.51100000000E-03 0. -1.
</event>
<event>
 8    1  0.1157726E+005  0.1043930E+01  0.7957747E-01            NaN
         13   -1    0    0    0    0  0.00000000000E+00  0.00000000000E+00  0.74505805969E-08  0.10566000000E+00  0.10566000000E+00 0. -1.
     999900   -1    0    0    0    0 -0.00000000000E+00 -0.00000000000E+00 -0.74505805969E-08  0.93827000000E+00  0.93827000000E+00 0.  1.
     999902    2    1    2    0    0 -0.20138535916E-01  0.76949157672E-02 -0.59228021630E-02  0.10215726311E+01  0.10213279536E+01 0.  0.
     999903    2    3    3    0    0 -0.34423694101E-02  0.12373285341E+00 -0.42068041502E-01  0.13306261808E+00  0.24784497073E-01 0.  0.
         14    1    1    2    0    0  0.20138535916E-01 -0.76949157672E-02  0.59228021630E-02  0.22357368874E-01  0.00000000000E+00 0.  1.
     999901    1    3    3    0    0 -0.16696166506E-01 -0.11603793764E+00  0.36145239339E-01  0.88851001304E+00  0.88000000000E+00 0. -1.
        -11    1    4    4    0    0  0.42373658731E-02  0.18845863677E-01 -0.15011683405E-01  0.24469033633E-01  0.51100000000E-03 0.  1.
         11    1    4    4    0    0 -0.76797352832E-02  0.10488698973E+00 -0.27056358098E-01  0.10859358445E+00  0.51100000000E-03 0. -1.
</event>
<event>
 8    1  0.1157726E+005  0.1043930E+01  0.7957747E-01            NaN
         13   -1    0    0    0    0  0.00000000000E+00  0.00000000000E+00  0.74505805969E-08  0.10566000000E+00  0.10566000000E+00 0. -1.
     999900   -1    0    0    0    0 -0.00000000000E+00 -0.00000000000E+00 -0.74505805969E-08  0.93827000000E+00  0.93827000000E+00 0.  1.
     999902    2    1    2    0    0  0.19125218811E-01  0.13043074737E-01  0.33207048372E-02  0.10205436178E+01  0.10202756259E+01 0.  0.
     999903    2    3    3    0    0  0.76982643281E-01  0.13884739293E-01 -0.10450007061E+00  0.13207667433E+00  0.20121376505E-01 0.  0.
         14    1    1    2    0    0 -0.19125218811E-01 -0.13043074737E-01 -0.33207048372E-02  0.23386382229E-01  0.00000000000E+00 0. -1.
     999901    1    3    3    0    0 -0.57857424470E-01 -0.84166455639E-03  0.10782077545E+00  0.88846694344E+00  0.88000000000E+00 0. -1.
        -11    1    4    4    0    0  0.48520465288E-03  0.12135521395E-02 -0.87721399312E-02  0.88836756089E-02  0.51100000000E-03 0.  1.
         11    1    4    4    0    0  0.76497438628E-01  0.12671187154E-01 -0.95727930682E-01  0.12319299872E+00  0.51100000000E-03 0. -1.
</event>
<event>
 8    1  0.1157726E+005  0.1043930E+01  0.7957747E-01            NaN
         13   -1    0    0    0    0  0.00000000000E+00  0.00000000000E+00  0.74505805969E-08  0.10566000000E+00  0.10566000000E+00 0. -1.
     999900   -1    0    0    0    0 -0.00000000000E+00 -0.00000000000E+00 -0.74505805969E-08  0.93827000000E+00  0.93827000000E+00 0. -1.
     999902    2    1    2    0    0 -0.20190130888E-01 -0.90573801291E-02 -0.82316306304E-02  0.10203198907E+01  0.10200466862E+01 0.  0.
     999903    2    3    3    0    0  0.90774781806E-01 -0.39983320081E-02 -0.90147771509E-01  0.12956231424E+00  0.20092906518E-01 0.  0.
         14    1    1    2    0    0  0.20190130888E-01  0.90573801291E-02  0.82316306304E-02  0.23610109337E-01  0.00000000000E+00 0. -1.
     999901    1    3    3    0    0 -0.11096491269E+00 -0.50590481210E-02  0.81916140879E-01  0.89075757642E+00  0.88000000000E+00 0.  1.
        -11    1    4    4    0    0  0.57294176671E-01  0.42838994794E-02 -0.46405398548E-01  0.73855917912E-01  0.51100000000E-03 0.  1.
         11    1    4    4    0    0  0.33480605135E-01 -0.82822314875E-02 -0.43742372961E-01  0.55706396328E-01  0.51100000000E-03 0. -1.
</event>
<event>
 8    1  0.1157726E+005  0.1043930E+01  0.7957747E-01            NaN
         13   -1    0    0    0    0  0.00000000000E+00  0.00000000000E+00  0.74505805969E-08  0.10566000000E+00  0.10566000000E+00 0. -1.
     999900   -1    0    0    0    0 -0.00000000000E+00 -0.00000000000E+00 -0.74505805969E-08  0.93827000000E+00  0.93827000000E+00 0.  1.
     999902    2    1    2    0    0 -0.22807186537E-02 -0.29881654630E-01  0.18919894909E-01  0.10084888180E+01  0.10078658733E+01 0.  0.
     999903    2    3    3    0    0  0.50425237268E-01 -0.10897076453E+00 -0.15279504617E-01  0.12271085254E+00  0.20178156336E-01 0.  0.
         14    1    1    2    0    0  0.22807186537E-02  0.29881654630E-01 -0.18919894909E-01  0.35441182039E-01  0.00000000000E+00 0.  1.
     999901    1    3    3    0    0 -0.52705955922E-01  0.79089109905E-01  0.34199399526E-01  0.88577796542E+00  0.88000000000E+00 0.  1.
        -11    1    4    4    0    0  0.97681842865E-02 -0.36594033672E-01  0.19376889081E-02  0.37928307159E-01  0.51100000000E-03 0.  1.
         11    1    4    4    0    0  0.40657052981E-01 -0.72376730863E-01 -0.17217193525E-01  0.84782545382E-01  0.51100000000E-03 0. -1.
</event>
<event>
 8    1  0.1157726E+005  0.1043930E+01  0.7957747E-01            NaN
         13   -1    0    0    0    0  0.00000000000E+00  0.00000000000E+00  0.74505805969E-08  0.10566000000E+00  0.10566000000E+00 0. -1.
     999900   -1    0    0    0    0 -0.00000000000E+00 -0.00000000000E+00 -0.74505805969E-08  0.93827000000E+00  0.93827000000E+00 0. -1.
     999902    2    1    2    0    0 -0.15630834144E-01 -0.14597765714E-01 -0.11378446729E-01  0.10197042536E+01  0.10194164399E+01 0.  0.
     999903    2    3    3    0    0  0.82894003894E-01  0.35782851829E-01  0.87469735534E-01  0.12728265283E+00  0.19952210683E-01 0.  0.
         14    1    1    2    0    0  0.15630834144E-01  0.14597765714E-01  0.11378446729E-01  0.24225746424E-01  0.00000000000E+00 0. -1.
     999901    1    3    3    0    0 -0.98524838038E-01 -0.50380617543E-01 -0.98848182263E-01  0.89242160074E+00  0.88000000000E+00 0. -1.
        -11    1    4    4    0    0  0.47242901245E-01  0.27094478355E-01  0.41566034545E-01  0.68512763950E-01  0.51100000000E-03 0.  1.
         11    1    4    4    0    0  0.35651102650E-01  0.86883734745E-02  0.45903700990E-01  0.58769888883E-01  0.51100000000E-03 0. -1.
</event>
<event>
 8    1  0.1157726E+005  0.1043930E+01  0.7957747E-01            NaN
         13   -1    0    0    0    0  0.00000000000E+00  0.00000000000E+00  0.74505805969E-08  0.10566000000E+00  0.10566000000E+00 0.  1.
     999900   -1    0    0    0    0 -0.00000000000E+00 -0.00000000000E+00 -0.74505805969E-08  0.93827000000E+00  0.93827000000E+00 0.  1.
     999902    2    1    2    0    0 -0.10163122579E-01 -0.12859229884E-01 -0.16555976810E-01  0.10206330212E+01  0.10203670980E+01 0.  0.
     999903    2    3    3    0    0  0.81259309208E-01 -0.10078809617E+00  0.81660881868E-02  0.13119458765E+00  0.19596407051E-01 0.  0.
         14    1    1    2    0    0  0.10163122579E-01  0.12859229884E-01  0.16555976810E-01  0.23296978815E-01  0.00000000000E+00 0.  1.
     999901    1    3    3    0    0 -0.91422431788E-01  0.87928866283E-01 -0.24722064997E-01  0.88943843354E+00  0.88000000000E+00 0.  1.
        -11    1    4    4    0    0  0.51973266718E-01 -0.58828253880E-01  0.13834486559E-01  0.79709711123E-01  0.51100000000E-03 0.  1.
         11    1    4    4    0    0  0.29286042490E-01 -0.41959842286E-01 -0.56683983722E-02  0.51484876523E-01  0.51100000000E-03 0. -1.
</event>
<event>
 8    1  0.1157726E+005  0.1043930E+01  0.7957747E-01            NaN
         13   -1    0    0    0    0  0.00000000000E+00  0.00000000000E+00  0.74505805969E-08  0.10566000000E+00  0.10566000000E+00 0. -1.
     999900   -1    0    0    0    0 -0.00000000000E+00 -0.00000000000E+00 -0.74505805969E-08  0.93827000000E+00  0.93827000000E+00 0. -1.
     999902    2    1    2    0    0 -0.42035249072E-02  0.11717201995E-01  0.20567206817E-01  0.10198889426E+01  0.10196055526E+01 0.  0.
     999903    2    3    3    0    0  0.25048574281E-01 -0.10841819110E+00 -0.59108853171E-01  0.12768018199E+00  0.20650353897E-01 0.  0.
         14    1    1    2    0    0  0.42035249072E-02 -0.11717201995E-01 -0.20567206817E-01  0.24041057392E-01  0.00000000000E+00 0.  1.
     999901    1    3    3    0    0 -0.29252099188E-01  0.12013539310E+00  0.79676059988E-01  0.89220876061E+00  0.88000000000E+00 0.  1.
        -11    1    4    4    0    0  0.69282380279E-02 -0.14996631816E-01 -0.16695072953E-01  0.23492254679E-01  0.51100000000E-03 0. -1.
         11    1    4    4    0    0  0.18120336253E-01 -0.93421559284E-01 -0.42413780218E-01  0.10418792732E+00  0.51100000000E-03 0.  1.
</event>
<event>
 8    1  0.1157726E+005  0.1043930E+01  0.7957747E-01            NaN
         13   -1    0    0    0    0  0.00000000000E+00  0.00000000000E+00  0.74505805969E-08  0.10566000000E+00  0.10566000000E+00 0. -1.
     999900   -1    0    0    0    0 -0.00000000000E+00 -0.00000000000E+00 -0.74505805969E-08  0.93827000000E+00  0.93827000000E+00 0. -1.
     999902    2    1    2    0    0  0.67154921843E-02 -0.69036329028E-02 -0.26850494487E-01  0.10154044494E+01  0.10150036891E+01 0.  0.
     999903    2    3    3    0    0  0.40647606560E-01  0.11099351175E-01 -0.12072269643E+00  0.12957857141E+00  0.21005076060E-01 0.  0.
         14    1    1    2    0    0 -0.67154921843E-02  0.69036329028E-02  0.26850494487E-01  0.28525550595E-01  0.00000000000E+00 0. -1.
     999901    1    3    3    0    0 -0.33932114376E-01 -0.18002984078E-01  0.93872201944E-01  0.88582587799E+00  0.88000000000E+00 0.  1.
        -11    1    4    4    0    0  0.25534566211E-01 -0.21225598922E-02 -0.82647556373E-01  0.86529758046E-01  0.51100000000E-03 0. -1.
         11    1    4    4    0    0  0.15113040349E-01  0.13221911067E-01 -0.38075140058E-01  0.43048813367E-01  0.51100000000E-03 0.  1.
</event>
<event>
 8    1  0.1157726E+005  0.1043930E+01  0.7957747E-01            NaN
         13   -1    0    0    0    0  0.00000000000E+00  0.00000000000E+00  0.74505805969E-08  0.10566000000E+00  0.10566000000E+00 0.  1.
     999900   -1    0    0    0    0 -0.00000000000E+00 -0.00000000000E+00 -0.74505805969E-08  0.93827000000E+00  0.93827000000E+00 0.  1.
     999902    2    1    2    0    0  0.11704245492E-01  0.18162305227E-01 -0.77081976726E-02  0.10209893155E+01  0.10207315550E+01 0.  0.
     999903    2    3    3    0    0 -0.67767819045E-01  0.75798298454E-01 -0.82392800839E-01  0.13238619447E+00  0.19991786083E-01 0.  0.
         14    1    1    2    0    0 -0.11704245492E-01 -0.18162305227E-01  0.77081976726E-02  0.22940684494E-01  0.00000000000E+00 0.  1.
     999901    1    3    3    0    0  0.79472064537E-01 -0.57635993227E-01  0.74684603166E-01  0.88860312103E+00  0.88000000000E+00 0. -1.
        -11    1    4    4    0    0 -0.35594207136E-01  0.35827352729E-01 -0.28586881515E-01  0.58034625018E-01  0.51100000000E-03 0. -1.
         11    1    4    4    0    0 -0.32173611908E-01  0.39970945724E-01 -0.53805919324E-01  0.74351569456E-01  0.51100000000E-03 0.  1.
</event>
<event>
 8    1  0.1157726E+005  0.1043930E+01  0.7957747E-01            NaN
         13   -1    0    0    0    0  0.00000000000E+00  0.00000000000E+00  0.74505805969E-08  0.10566000000E+00  0.10566000000E+00 0.  1.
     999900   -1    0    0    0    0 -0.00000000000E+00 -0.00000000000E+00 -0.74505805969E-08  0.93827000000E+00  0.93827000000E+00 0. -1.
     999902    2    1    2    0    0 -0.80851907481E-02 -0.19971514815E-01  0.12352762028E-01  0.10190940896E+01  0.10187914120E+01 0.  0.
     999903    2    3    3    0    0 -0.10646474594E+00  0.69590688669E-01  0.12452803299E-01  0.12909412606E+00  0.18237735465E-01 0.  0.
         14    1    1    2    0    0  0.80851907481E-02  0.19971514815E-01 -0.12352762028E-01  0.24835910355E-01  0.00000000000E+00 0.  1.
     999901    1    3    3    0    0  0.98379555195E-01 -0.89562203485E-01 -0.10004127099E-03  0.88999996359E+00  0.88000000000E+00 0. -1.
        -11    1    4    4    0    0 -0.88797712310E-01  0.57341690404E-01  0.17141194896E-01  0.10708494223E+00  0.51100000000E-03 0.  1.
         11    1    4    4    0    0 -0.17667033633E-01  0.12248998266E-01 -0.46883915961E-02  0.22009183825E-01  0.51100000000E-03 0. -1.
</event>
<event>
 8    1  0.1157726E+005  0.1043930E+01  0.7957747E-01            NaN
         13   -1    0    0    0    0  0.00000000000E+00  0.00000000000E+00  0.74505805969E-08  0.10566000000E+00  0.10566000000E+00 0.  1.
     999900   -1    0    0    0    0 -0.00000000000E+00 -0.00000000000E+00 -0.74505805969E-08  0.93827000000E+00  0.93827000000E+00 0.  1.
     999902    2    1    2    0    0 -0.43270075020E-02  0.21261048673E-01 -0.10417829867E-01  0.10198616315E+01  0.10195775895E+01 0.  0.
     999903    2    3    3    0    0 -0.39185249485E-01 -0.10570038399E+00 -0.58927255180E-01  0.12874577662E+00  0.19874572764E-01 0.  0.
         14    1    1    2    0    0  0.43270075020E-02 -0.21261048673E-01  0.10417829867E-01  0.24068368531E-01  0.00000000000E+00 0.  1.
     999901    1    3    3    0    0  0.34858241983E-01  0.12696143266E+00  0.48509425313E-01  0.89111585485E+00  0.88000000000E+00 0.  1.
        -11    1    4    4    0    0 -0.32207699258E-01 -0.86350437228E-01 -0.56310833385E-01  0.10800418963E+00  0.51100000000E-03 0. -1.
         11    1    4    4    0    0 -0.69775502268E-02 -0.19349946759E-01 -0.26164217952E-02  0.20741586987E-01  0.51100000000E-03 0.  1.
</event>
<event>
 8    1  0.1157726E+005  0.1043930E+01  0.7957747E-01            NaN
         13   -1    0    0    0    0  0.00000000000E+00  0.00000000000E+00  0.74505805969E-08  0.10566000000E+00  0.10566000000E+00 0.  1.
     999900   -1    0    0    0    0 -0.00000000000E+00 -0.00000000000E+00 -0.74505805969E-08  0.93827000000E+00  0.93827000000E+00 0.  1.
     999902    2    1    2    0    0  0.82373564210E-02  0.21505920253E-01 -0.17143549228E-02  0.10208367616E+01  0.10205755220E+01 0.  0.
     999903    2    3    3    0    0  0.60899278197E-01 -0.10036670993E+00 -0.50921371129E-01  0.12951889101E+00  0.19998963597E-01 0.  0.
         14    1    1    2    0    0 -0.82373564210E-02 -0.21505920253E-01  0.17143549228E-02  0.23093238394E-01  0.00000000000E+00 0.  1.
     999901    1    3    3    0    0 -0.52661921776E-01  0.12187263018E+00  0.49207016206E-01  0.89131787059E+00  0.88000000000E+00 0. -1.
        -11    1    4    4    0    0  0.38762812285E-01 -0.58936790416E-01 -0.40705702343E-01  0.81445173000E-01  0.51100000000E-03 0. -1.
         11    1    4    4    0    0  0.22136465912E-01 -0.41429919514E-01 -0.10215668786E-01  0.48073718014E-01  0.51100000000E-03 0.  1.
</event>
<event>
 8    1  0.1157726E+005  0.1043930E+01  0.7957747E-01            NaN
         13   -1    0    0    0    0  0.00000000000E+00  0.00000000000E+00  0.74505805969E-08  0.10566000000E+00  0.10566000000E+00 0. -1.
     999900   -1    0    0    0    0 -0.00000000000E+00 -0.00000000000E+00 -0.74505805969E-08  0.93827000000E+00  0.93827000000E+00 0.  1.
     999902    2    1    2    0    0 -0.71322029682E-02 -0.17722466132E-01 -0.13044982362E-01  0.10207972161E+01  0.10205350708E+01 0.  0.
     999903    2    3    3    0    0 -0.49826687445E-01 -0.17549768122E-01  0.11723440068E+00  0.13018194202E+00  0.20316008029E-01 0.  0.
         14    1    1    2    0    0  0.71322029682E-02  0.17722466132E-01  0.13044982362E-01  0.23132783875E-01  0.00000000000E+00 0.  1.
     999901    1    3    3    0    0  0.42694484477E-01 -0.17269801047E-03 -0.13027938304E+00  0.89061527411E+00  0.88000000000E+00 0.  1.
        -11    1    4    4    0    0 -0.32164476374E-01 -0.16693973489E-01  0.95577711899E-01  0.10221840551E+00  0.51100000000E-03 0.  1.
         11    1    4    4    0    0 -0.17662211071E-01 -0.85579463293E-03  0.21656688778E-01  0.27963536511E-01  0.51100000000E-03 0. -1.
</event>
<event>
 8    1  0.1157726E+005  0.1043930E+01  0.7957747E-01            NaN
         13   -1    0    0    0    0  0.00000000000E+00  0.00000000000E+00  0.74505805969E-08  0.10566000000E+00  0.10566000000E+00 0. -1.
     999900   -1    0    0    0    0 -0.00000000000E+00 -0.00000000000E+00 -0.74505805969E-08  0.93827000000E+00  0.93827000000E+00 0.  1.
     999902    2    1    2    0    0  0.11900652285E-01  0.22398975087E-01  0.23918407073E-02  0.10184533340E+01  0.10181346340E+01 0.  0.
     999903    2    3    3    0    0 -0.47158724541E-01  0.27340726604E-02  0.11827294302E+00  0.12867631233E+00  0.18376176183E-01 0.  0.
         14    1    1    2    0    0 -0.11900652285E-01 -0.22398975087E-01 -0.23918407073E-02  0.25476666025E-01  0.00000000000E+00 0.  1.
     999901    1    3    3    0    0  0.59059376826E-01  0.19664902427E-01 -0.11588110231E+00  0.88977702165E+00  0.88000000000E+00 0.  1.
        -11    1    4    4    0    0 -0.39261245429E-01 -0.22200841132E-02  0.10723552404E+00  0.11421949441E+00  0.51100000000E-03 0.  1.
         11    1    4    4    0    0 -0.78974791120E-02  0.49541567736E-02  0.11037418973E-01  0.14456817915E-01  0.51100000000E-03 0. -1.
</event>
<event>
 8    1  0.1157726E+005  0.1043930E+01  0.7957747E-01            NaN
         13   -1    0    0    0    0  0.00000000000E+00  0.00000000000E+00  0.74505805969E-08  0.10566000000E+00  0.10566000000E+00 0.  1.
     999900   -1    0    0    0    0 -0.00000000000E+00 -0.00000000000E+00 -0.74505805969E-08  0.93827000000E+00  0.93827000000E+00 0.  1.
     999902    2    1    2    0    0 -0.11700769857E-01  0.80811022043E-02 -0.24305157418E-01  0.10157705805E+01  0.10153801846E+01 0.  0.
     999903    2    3    3    0    0  0.11528757351E-01  0.71802811915E-01  0.99158198051E-01  0.12456731114E+00  0.19902530451E-01 0.  0.
         14    1    1    2    0    0  0.11700769857E-01 -0.80811022043E-02  0.24305157418E-01  0.28159419476E-01  0.00000000000E+00 0.  1.
     999901    1    3    3    0    0 -0.23229527208E-01 -0.63721709711E-01 -0.12346335547E+00  0.89120326939E+00  0.88000000000E+00 0.  1.
        -11    1    4    4    0    0 -0.51495245640E-02  0.11798070949E-01  0.13506652449E-01  0.18665552837E-01  0.51100000000E-03 0.  1.
         11    1    4    4    0    0  0.16678281915E-01  0.60004740966E-01  0.85651545602E-01  0.10590175830E+00  0.51100000000E-03 0. -1.
</event>
<event>
 8    1  0.1157726E+005  0.1043930E+01  0.7957747E-01            NaN
         13   -1    0    0    0    0  0.00000000000E+00  0.00000000000E+00  0.74505805969E-08  0.10566000000E+00  0.10566000000E+00 0. -1.
     999900   -1    0    0    0    0 -0.00000000000E+00 -0.00000000000E+00 -0.74505805969E-08  0.93827000000E+00  0.93827000000E+00 0.  1.
     999902    2    1    2    0    0  0.22609333157E-01 -0.17146760209E-03 -0.57555529780E-02  0.10205989534E+01  0.10203322429E+01 0.  0.
     999903    2    3    3    0    0  0.59895069364E-01  0.88896394992E-01 -0.75341356833E-01  0.13258685076E+00  0.20321529691E-01 0.  0.
         14    1    1    2    0    0 -0.22609333157E-01  0.17146760209E-03  0.57555529780E-02  0.23331046634E-01  0.00000000000E+00 0.  1.
     999901    1    3    3    0    0 -0.37285736207E-01 -0.89067862594E-01  0.69585803855E-01  0.88801210260E+00  0.88000000000E+00 0. -1.
        -11    1    4    4    0    0  0.41202347897E-01  0.54898970585E-01 -0.36745733212E-01  0.77859106557E-01  0.51100000000E-03 0. -1.
         11    1    4    4    0    0  0.18692721467E-01  0.33997424407E-01 -0.38595623622E-01  0.54727744206E-01  0.51100000000E-03 0.  1.
</event>
<event>
 8    1  0.1186499E+005  0.1043930E+01  0.7957747E-01            NaN
         13   -1    0    0    0    0  0.00000000000E+00  0.00000000000E+00  0.74505805969E-08  0.10566000000E+00  0.10566000000E+00 0. -1.
     999900   -1    0    0    0    0 -0.00000000000E+00 -0.00000000000E+00 -0.74505805969E-08  0.93827000000E+00  0.93827000000E+00 0.  1.
     999902    2    1    2    0    0  0.11336278586E-01 -0.20440112920E-01  0.70225216312E-02  0.10195245654E+01  0.10192324142E+01 0.  0.
     999903    2    3    3    0    0 -0.36062225302E-01 -0.10328481646E+00  0.70702038449E-01  0.13207600692E+00  0.21841610699E-01 0.  0.
         14    1    1    2    0    0 -0.11336278586E-01  0.20440112920E-01 -0.70225216312E-02  0.24405434608E-01  0.00000000000E+00 0.  1.
     999901    1    3    3    0    0  0.47398503888E-01  0.82844703538E-01 -0.63679516818E-01  0.88744855847E+00  0.88000000000E+00 0.  1.
        -11    1    4    4    0    0 -0.15693056065E-01 -0.67750380822E-01  0.53064199929E-01  0.87478320430E-01  0.51100000000E-03 0. -1.
         11    1    4    4    0    0 -0.20369169237E-01 -0.35534435636E-01  0.17637838521E-01  0.44597686488E-01  0.51100000000E-03 0.  1.
</event>
<event>
 8    1  0.1157726E+005  0.1043930E+01  0.7957747E-01            NaN
         13   -1    0    0    0    0  0.00000000000E+00  0.00000000000E+00  0.74505805969E-08  0.10566000000E+00  0.10566000000E+00 0.  1.
     999900   -1    0    0    0    0 -0.00000000000E+00 -0.00000000000E+00 -0.74505805969E-08  0.93827000000E+00  0.93827000000E+00 0.  1.
     999902    2    1    2    0    0 -0.52690649378E-03 -0.12695734703E-01 -0.22455383019E-01  0.10181287687E+01  0.10178017912E+01 0.  0.
     999903    2    3    3    0    0 -0.74636135249E-01 -0.70832219723E-01  0.73085316580E-01  0.12796021502E+00  0.21085471133E-01 0.  0.
         14    1    1    2    0    0  0.52690649378E-03  0.12695734703E-01  0.22455383019E-01  0.25801231301E-01  0.00000000000E+00 0.  1.
     999901    1    3    3    0    0  0.74109228755E-01  0.58136485020E-01 -0.95540699599E-01  0.89016855368E+00  0.88000000000E+00 0.  1.
        -11    1    4    4    0    0 -0.54814600465E-01 -0.38851367118E-01  0.50753636691E-01  0.84203692969E-01  0.51100000000E-03 0. -1.
         11    1    4    4    0    0 -0.19821534784E-01 -0.31980852605E-01  0.22331679889E-01  0.43756522053E-01  0.51100000000E-03 0.  1.
</event>
<event>
 8    1  0.1157726E+005  0.1043930E+01  0.7957747E-01            NaN
         13   -1    0    0    0    0  0.00000000000E+00  0.00000000000E+00  0.74505805969E-08  0.10566000000E+00  0.10566000000E+00 0.  1.
     999900   -1    0    0    0    0 -0.00000000000E+00 -0.00000000000E+00 -0.74505805969E-08  0.93827000000E+00  0.93827000000E+00 0. -1.
     999902    2    1    2    0    0 -0.55732805397E-02 -0.20520409688E-01  0.11522080713E-01  0.10197451491E+01  0.10194583180E+01 0.  0.
     999903    2    3    3    0    0  0.99280733786E-01  0.16529926289E-01 -0.77087668144E-01  0.12833122766E+00  0.19912128192E-01 0.  0.
         14    1    1    2    0    0  0.55732805397E-02  0.20520409688E-01 -0.11522080713E-01  0.24184850913E-01  0.00000000000E+00 0. -1.
     999901    1    3    3    0    0 -0.10485401433E+00 -0.37050335977E-01  0.88609748857E-01  0.89141392142E+00  0.88000000000E+00 0. -1.
        -11    1    4    4    0    0  0.71320879866E-01  0.35457919880E-02 -0.58637957769E-01  0.92400821198E-01  0.51100000000E-03 0. -1.
         11    1    4    4    0    0  0.27959853921E-01  0.12984134301E-01 -0.18449710375E-01  0.35930406465E-01  0.51100000000E-03 0.  1.
</event>
<event>
 8    1  0.1157726E+005  0.1043930E+01  0.7957747E-01            NaN
         13   -1    0    0    0    0  0.00000000000E+00  0.00000000000E+00  0.74505805969E-08  0.10566000000E+00  0.10566000000E+00 0. -1.
     999900   -1    0    0    0    0 -0.00000000000E+00 -0.00000000000E+00 -0.74505805969E-08  0.93827000000E+00  0.93827000000E+00 0. -1.
     999902    2    1    2    0    0 -0.30940569733E-02 -0.14780248430E-01  0.17785860139E-01  0.10205983530E+01  0.10203316286E+01 0.  0.
     999903    2    3    3    0    0  0.47647402678E-01  0.43973616215E-01  0.11324728583E+00  0.13203794640E+00  0.20127534278E-01 0.  0.
         14    1    1    2    0    0  0.30940569733E-02  0.14780248430E-01 -0.17785860139E-01  0.23331647029E-01  0.00000000000E+00 0.  1.
     999901    1    3    3    0    0 -0.50741459652E-01 -0.58753864645E-01 -0.95461425689E-01  0.88856040658E+00  0.88000000000E+00 0. -1.
        -11    1    4    4    0    0  0.28255011043E-01  0.38452159774E-01  0.79893032429E-01  0.93059507800E-01  0.51100000000E-03 0. -1.
         11    1    4    4    0    0  0.19392391635E-01  0.55214564405E-02  0.33354253399E-01  0.38978438596E-01  0.51100000000E-03 0.  1.
</event>
<event>
 8    1  0.1157726E+005  0.1043930E+01  0.7957747E-01            NaN
         13   -1    0    0    0    0  0.00000000000E+00  0.00000000000E+00  0.74505805969E-08  0.10566000000E+00  0.10566000000E+00 0.  1.
     999900   -1    0    0    0    0 -0.00000000000E+00 -0.00000000000E+00 -0.74505805969E-08  0.93827000000E+00  0.93827000000E+00 0. -1.
     999902    2    1    2    0    0 -0.66212675385E-02 -0.32990752980E-02 -0.22063067141E-01  0.10206597612E+01  0.10203944552E+01 0.  0.
     999903    2    3    3    0    0  0.86832209774E-02  0.10584918307E+00 -0.76436371638E-01  0.13211937051E+00  0.18263659852E-01 0.  0.
         14    1    1    2    0    0  0.66212675385E-02  0.32990752980E-02  0.22063067141E-01  0.23270238789E-01  0.00000000000E+00 0.  1.
     999901    1    3    3    0    0 -0.15304488516E-01 -0.10914825836E+00  0.54373304497E-01  0.88854039071E+00  0.88000000000E+00 0.  1.
        -11    1    4    4    0    0 -0.10782886127E-02  0.46479354015E-01 -0.42755975123E-01  0.63165082013E-01  0.51100000000E-03 0.  1.
         11    1    4    4    0    0  0.97615095901E-02  0.59369829052E-01 -0.33680396514E-01  0.68954288493E-01  0.51100000000E-03 0. -1.
</event>
<event>
 8    1  0.1157726E+005  0.1043930E+01  0.7957747E-01            NaN
         13   -1    0    0    0    0  0.00000000000E+00  0.00000000000E+00  0.74505805969E-08  0.10566000000E+00  0.10566000000E+00 0.  1.
     999900   -1    0    0    0    0 -0.00000000000E+00 -0.00000000000E+00 -0.74505805969E-08  0.93827000000E+00  0.93827000000E+00 0.  1.
     999902    2    1    2    0    0 -0.14537439572E-01 -0.23458824214E-03 -0.19242336811E-01  0.10198123777E+01  0.10195271580E+01 0.  0.
     999903    2    3    3    0    0  0.10480957686E+00 -0.51156096463E-01 -0.52980961720E-01  0.12965789381E+00  0.20054762858E-01 0.  0.
         14    1    1    2    0    0  0.14537439572E-01  0.23458824214E-03  0.19242336811E-01  0.24117622331E-01  0.00000000000E+00 0. -1.
     999901    1    3    3    0    0 -0.11934701644E+00  0.50921508221E-01  0.33738624910E-01  0.89015448386E+00  0.88000000000E+00 0.  1.
        -11    1    4    4    0    0  0.54470965448E-01 -0.17132941745E-01 -0.19876337441E-01  0.60464482804E-01  0.51100000000E-03 0.  1.
         11    1    4    4    0    0  0.50338611417E-01 -0.34023154718E-01 -0.33104624279E-01  0.69193411002E-01  0.51100000000E-03 0. -1.
</event>
<event>
 8    1  0.1157726E+005  0.1043930E+01  0.7957747E-01            NaN
         13   -1    0    0    0    0  0.00000000000E+00  0.00000000000E+00  0.74505805969E-08  0.10566000000E+00  0.10566000000E+00 0. -1.
     999900   -1    0    0    0    0 -0.00000000000E+00 -0.00000000000E+00 -0.74505805969E-08  0.93827000000E+00  0.93827000000E+00 0. -1.
     999902    2    1    2    0    0 -0.10506639723E-01 -0.14702805374E-01  0.15883411150E-01  0.10198708081E+01  0.10195869853E+01 0.  0.
     999903    2    3    3    0    0  0.41071042407E-01  0.11485753501E+00  0.35669270903E-01  0.12867070750E+00  0.20118901829E-01 0.  0.
         14    1    1    2    0    0  0.10506639723E-01  0.14702805374E-01 -0.15883411150E-01  0.24059191880E-01  0.00000000000E+00 0.  1.
     999901    1    3    3    0    0 -0.51577682129E-01 -0.12956034038E+00 -0.19785859753E-01  0.89120010062E+00  0.88000000000E+00 0. -1.
        -11    1    4    4    0    0  0.31275386362E-01  0.57908759121E-01  0.20253590919E-01  0.68862495171E-01  0.51100000000E-03 0.  1.
         11    1    4    4    0    0  0.97956560446E-02  0.56948775884E-01  0.15415679983E-01  0.59808212332E-01  0.51100000000E-03 0. -1.
</event>
<event>
 8    1  0.1157726E+005  0.1043930E+01  0.7957747E-01            NaN
         13   -1    0    0    0    0  0.00000000000E+00  0.00000000000E+00  0.74505805969E-08  0.10566000000E+00  0.10566000000E+00 0. -1.
     999900   -1    0    0    0    0 -0.00000000000E+00 -0.00000000000E+00 -0.74505805969E-08  0.93827000000E+00  0.93827000000E+00 0. -1.
     999902    2    1    2    0    0 -0.29180296789E-01  0.52025580709E-02  0.10026401375E-01  0.10126396651E+01  0.10121561176E+01 0.  0.
     999903    2    3    3    0    0 -0.17684863916E-01  0.97990429795E-01  0.73694291423E-01  0.12539937393E+00  0.19475000679E-01 0.  0.
         14    1    1    2    0    0  0.29180296789E-01 -0.52025580709E-02 -0.10026401375E-01  0.31290334861E-01  0.00000000000E+00 0. -1.
     999901    1    3    3    0    0 -0.11495432873E-01 -0.92787871724E-01 -0.63667890047E-01  0.88724029121E+00  0.88000000000E+00 0. -1.
        -11    1    4    4    0    0  0.17363948384E-02  0.44666909969E-01  0.31914445248E-01  0.54926686135E-01  0.51100000000E-03 0. -1.
         11    1    4    4    0    0 -0.19421258754E-01  0.53323519825E-01  0.41779846175E-01  0.70472687798E-01  0.51100000000E-03 0.  1.
</event>
<event>
 8    1  0.1157726E+005  0.1043930E+01  0.7957747E-01            NaN
         13   -1    0    0    0    0  0.00000000000E+00  0.00000000000E+00  0.74505805969E-08  0.10566000000E+00  0.10566000000E+00 0. -1.
     999900   -1    0    0    0    0 -0.00000000000E+00 -0.00000000000E+00 -0.74505805969E-08  0.93827000000E+00  0.93827000000E+00 0.  1.
     999902    2    1    2    0    0 -0.90156710610E-02  0.31115353039E-02  0.21424079144E-01  0.10204788776E+01  0.10202093826E+01 0.  0.
     999903    2    3    3    0    0 -0.75443547188E-01 -0.85482464122E-01 -0.59385723641E-01  0.12986572715E+00  0.18424506231E-01 0.  0.
         14    1    1    2    0    0  0.90156710610E-02 -0.31115353039E-02 -0.21424079144E-01  0.23451122442E-01  0.00000000000E+00 0.  1.
     999901    1    3    3    0    0  0.66427876127E-01  0.88593999426E-01  0.80809802785E-01  0.89061315041E+00  0.88000000000E+00 0. -1.
        -11    1    4    4    0    0 -0.40428248160E-01 -0.35500838799E-01 -0.34755290805E-01  0.64054228312E-01  0.51100000000E-03 0. -1.
         11    1    4    4    0    0 -0.35015299029E-01 -0.49981625323E-01 -0.24630432836E-01  0.65811498833E-01  0.51100000000E-03 0.  1.
</event>
<event>
 8    1  0.1157726E+005  0.1043930E+01  0.7957747E-01            NaN
         13   -1    0    0    0    0  0.00000000000E+00  0.00000000000E+00  0.74505805969E-08  0.10566000000E+00  0.10566000000E+00 0.  1.
     999900   -1    0    0    0    0 -0.00000000000E+00 -0.00000000000E+00 -0.74505805969E-08  0.93827000000E+00  0.93827000000E+00 0. -1.
     999902    2    1    2    0    0  0.92303729481E-02  0.51281420086E-02 -0.20157463885E-01  0.10211743199E+01  0.10209207465E+01 0.  0.
     999903    2    3    3    0    0  0.13720989289E-01  0.12160452141E+00  0.43291382486E-01  0.13122338381E+00  0.19222577534E-01 0.  0.
         14    1    1    2    0    0 -0.92303729481E-02 -0.51281420086E-02  0.20157463885E-01  0.22755680071E-01  0.00000000000E+00 0.  1.
     999901    1    3    3    0    0 -0.44906163413E-02 -0.11647637940E+00 -0.63448846371E-01  0.88995093612E+00  0.88000000000E+00 0. -1.
        -11    1    4    4    0    0  0.16629718050E-01  0.10712797701E+00  0.42443068322E-01  0.11642433659E+00  0.51100000000E-03 0.  1.
         11    1    4    4    0    0 -0.29087287604E-02  0.14476544402E-01  0.84831416329E-03  0.14799047224E-01  0.51100000000E-03 0. -1.
</event>
<event>
 8    1  0.1157726E+005  0.1043930E+01  0.7957747E-01            NaN
         13   -1    0    0    0    0  0.00000000000E+00  0.00000000000E+00  0.74505805969E-08  0.10566000000E+00  0.10566000000E+00 0.  1.
     999900   -1    0    0    0    0 -0.00000000000E+00 -0.00000000000E+00 -0.74505805969E-08  0.93827000000E+00  0.93827000000E+00 0. -1.
     999902    2    1    2    0    0  0.30009483290E-01 -0.68897123175E-02  0.93423622052E-02  0.10117536585E+01  0.10112418842E+01 0.  0.
     999903    2    3    3    0    0  0.42981223128E-02 -0.12336168321E+00  0.41590862141E-02  0.12369191487E+00  0.67685350275E-02 0.  0.
         14    1    1    2    0    0 -0.30009483290E-01  0.68897123175E-02 -0.93423622052E-02  0.32176341537E-01  0.00000000000E+00 0. -1.
     999901    1    3    3    0    0  0.25711360977E-01  0.11647197089E+00  0.51832759912E-02  0.88806174359E+00  0.88000000000E+00 0. -1.
        -11    1    4    4    0    0 -0.12880980104E-02 -0.54949648804E-01  0.27484836093E-02  0.55035791839E-01  0.51100000000E-03 0.  1.
         11    1    4    4    0    0  0.55862203232E-02 -0.68412034404E-01  0.14106026047E-02  0.68656123030E-01  0.51100000000E-03 0. -1.
</event>
<event>
 8    1  0.1157726E+005  0.1043930E+01  0.7957747E-01            NaN
         13   -1    0    0    0    0  0.00000000000E+00  0.00000000000E+00  0.74505805969E-08  0.10566000000E+00  0.10566000000E+00 0. -1.
     999900   -1    0    0    0    0 -0.00000000000E+00 -0.00000000000E+00 -0.74505805969E-08  0.93827000000E+00  0.93827000000E+00 0. -1.
     999902    2    1    2    0    0  0.72755801284E-02 -0.12563731595E-01 -0.18397956093E-01  0.10204935710E+01  0.10202244175E+01 0.  0.
     999903    2    3    3    0    0  0.12564893314E+00 -0.32715119354E-01 -0.15994306601E-01  0.13233586725E+00  0.19975747355E-01 0.  0.
         14    1    1    2    0    0 -0.72755801284E-02  0.12563731595E-01  0.18397956093E-01  0.23436429041E-01  0.00000000000E+00 0. -1.
     999901    1    3    3    0    0 -0.11837335301E+00  0.20151387759E-01 -0.24036494926E-02  0.88815770371E+00  0.88000000000E+00 0.  1.
        -11    1    4    4    0    0  0.69430745848E-01 -0.22530478684E-01 -0.17933897548E-01  0.75167391474E-01  0.51100000000E-03 0.  1.
         11    1    4    4    0    0  0.56218187294E-01 -0.10184640670E-01  0.19395909470E-02  0.57168475773E-01  0.51100000000E-03 0. -1.
</event>
<event>
 8    1  0.1157726E+005  0.1043930E+01  0.7957747E-01            NaN
         13   -1    0    0    0    0  0.00000000000E+00  0.00000000000E+00  0.74505805969E-08  0.10566000000E+00  0.10566000000E+00 0. -1.
     999900   -1    0    0    0    0 -0.00000000000E+00 -0.00000000000E+00 -0.74505805969E-08  0.93827000000E+00  0.93827000000E+00 0. -1.
     999902    2    1    2    0    0 -0.46466963486E-02 -0.28238631720E-02 -0.22751142311E-01  0.10205381111E+01  0.10202699916E+01 0.  0.
     999903    2    3    3    0    0 -0.49257151036E-01  0.36418691869E-01 -0.11697022063E+00  0.13351651862E+00  0.19800004698E-01 0.  0.
         14    1    1    2    0    0  0.46466963486E-02  0.28238631720E-02  0.22751142311E-01  0.23391888907E-01  0.00000000000E+00 0. -1.
     999901    1    3    3    0    0  0.44610454687E-01 -0.39242555041E-01  0.94219078314E-01  0.88702159247E+00  0.88000000000E+00 0.  1.
        -11    1    4    4    0    0 -0.23747797639E-02 -0.45603823447E-03 -0.16419982056E-01  0.16604953524E-01  0.51100000000E-03 0.  1.
         11    1    4    4    0    0 -0.46882371272E-01  0.36874730103E-01 -0.10055023857E+00  0.11691156510E+00  0.51100000000E-03 0. -1.
</event>
<event>
 8    1  0.1157726E+005  0.1043930E+01  0.7957747E-01            NaN
         13   -1    0    0    0    0  0.00000000000E+00  0.00000000000E+00  0.74505805969E-08  0.10566000000E+00  0.10566000000E+00 0.  1.
     999900   -1    0    0    0    0 -0.00000000000E+00 -0.00000000000E+00 -0.74505805969E-08  0.93827000000E+00  0.93827000000E+00 0.  1.
     999902    2    1    2    0    0  0.75115329910E-02  0.20136953042E-01  0.99104175877E-02  0.10202627994E+01  0.10199882566E+01 0.  0.
     999903    2    3    3    0    0  0.97368120996E-01 -0.34957240297E-01  0.78407336297E-01  0.13133006609E+00  0.19932793031E-01 0.  0.
         14    1    1    2    0    0 -0.75115329910E-02 -0.20136953042E-01 -0.99104175877E-02  0.23667200562E-01  0.00000000000E+00 0. -1.
     999901    1    3    3    0    0 -0.89856588005E-01  0.55094193339E-01 -0.68496918709E-01  0.88893273335E+00  0.88000000000E+00 0.  1.
        -11    1    4    4    0    0  0.28055862877E-01 -0.18236617474E-01  0.18739115129E-01  0.38355198024E-01  0.51100000000E-03 0.  1.
         11    1    4    4    0    0  0.69312258120E-01 -0.16720622823E-01  0.59668221167E-01  0.92974868064E-01  0.51100000000E-03 0. -1.
</event>
<event>
 8    1  0.1157726E+005  0.1043930E+01  0.7957747E-01            NaN
         13   -1    0    0    0    0  0.00000000000E+00  0.00000000000E+00  0.74505805969E-08  0.10566000000E+00  0.10566000000E+00 0. -1.
     999900   -1    0    0    0    0 -0.00000000000E+00 -0.00000000000E+00 -0.74505805969E-08  0.93827000000E+00  0.93827000000E+00 0.  1.
     999902    2    1    2    0    0 -0.12200755629E-01  0.14985601711E-01 -0.13476394945E-01  0.10203707148E+01  0.10200986990E+01 0.  0.
     999903    2    3    3    0    0  0.11033452398E+00  0.55768651926E-01  0.33975956968E-01  0.12968004034E+00  0.19460151373E-01 0.  0.
         14    1    1    2    0    0  0.12200755629E-01 -0.14985601711E-01  0.13476394945E-01  0.23559285160E-01  0.00000000000E+00 0. -1.
     999901    1    3    3    0    0 -0.12253527961E+00 -0.40783050215E-01 -0.47452351913E-01  0.89069067450E+00  0.88000000000E+00 0.  1.
        -11    1    4    4    0    0  0.82741211773E-01  0.36269219585E-01  0.31955917355E-01  0.95828003161E-01  0.51100000000E-03 0. -1.
         11    1    4    4    0    0  0.27593312209E-01  0.19499432341E-01  0.20200396135E-02  0.33852037181E-01  0.51100000000E-03 0.  1.
</event>
<event>
 8    1  0.1157726E+005  0.1043930E+01  0.7957747E-01            NaN
         13   -1    0    0    0    0  0.00000000000E+00  0.00000000000E+00  0.74505805969E-08  0.10566000000E+00  0.10566000000E+00 0.  1.
     999900   -1    0    0    0    0 -0.00000000000E+00 -0.00000000000E+00 -0.74505805969E-08  0.93827000000E+00  0.93827000000E+00 0.  1.
     999902    2    1    2    0    0 -0.16709576576E-01  0.37142735877E-02 -0.13590573165E-01  0.10220734345E+01  0.10218397115E+01 0.  0.
     999903    2    3    3    0    0 -0.29773682019E-01 -0.34074297099E-01 -0.12477600928E+00  0.13417656652E+00  0.19666434496E-01 0.  0.
         14    1    1    2    0    0  0.16709576576E-01 -0.37142735877E-02  0.13590573165E-01  0.21856565526E-01  0.00000000000E+00 0. -1.
     999901    1    3    3    0    0  0.13064105443E-01  0.37788570687E-01  0.11118543612E+00  0.88789686796E+00  0.88000000000E+00 0. -1.
        -11    1    4    4    0    0  0.28325209001E-02 -0.39666479916E-02 -0.10631973986E-01  0.11707154342E-01  0.51100000000E-03 0.  1.
         11    1    4    4    0    0 -0.32606202919E-01 -0.30107649107E-01 -0.11414403530E+00  0.12246941217E+00  0.51100000000E-03 0. -1.
</event>
<event>
 8    1  0.1157726E+005  0.1043930E+01  0.7957747E-01            NaN
         13   -1    0    0    0    0  0.00000000000E+00  0.00000000000E+00  0.74505805969E-08  0.10566000000E+00  0.10566000000E+00 0. -1.
     999900   -1    0    0    0    0 -0.00000000000E+00 -0.00000000000E+00 -0.74505805969E-08  0.93827000000E+00  0.93827000000E+00 0. -1.
     999902    2    1    2    0    0 -0.10688015937E-01  0.67345805161E-02 -0.28775402647E-01  0.10125037044E+01  0.10120158790E+01 0.  0.
     999903    2    3    3    0    0 -0.66598959662E-02  0.45812113620E-01 -0.11663198467E+00  0.12725681319E+00  0.21170089416E-01 0.  0.
         14    1    1    2    0    0  0.10688015937E-01 -0.67345805161E-02  0.28775402647E-01  0.31426295628E-01  0.00000000000E+00 0. -1.
     999901    1    3    3    0    0 -0.40281199709E-02 -0.39077533104E-01  0.87856582025E-01  0.88524689118E+00  0.88000000000E+00 0.  1.
        -11    1    4    4    0    0 -0.90548364179E-02  0.22910224944E-01 -0.82340964252E-01  0.85948612464E-01  0.51100000000E-03 0.  1.
         11    1    4    4    0    0  0.23949404518E-02  0.22901888676E-01 -0.34291020420E-01  0.41308200725E-01  0.51100000000E-03 0. -1.
</event>
<event>
 8    1  0.1157726E+005  0.1043930E+01  0.7957747E-01            NaN
         13   -1    0    0    0    0  0.00000000000E+00  0.00000000000E+00  0.74505805969E-08  0.10566000000E+00  0.10566000000E+00 0.  1.
     999900   -1    0    0    0    0 -0.00000000000E+00 -0.00000000000E+00 -0.74505805969E-08  0.93827000000E+00  0.93827000000E+00 0. -1.
     999902    2    1    2    0    0  0.17108195610E-01  0.11274069708E-01  0.77813157329E-02  0.10220132512E+01  0.10217782253E+01 0.  0.
     999903    2    3    3    0    0  0.72798268493E-01 -0.21966293790E-01  0.10838757577E+00  0.13390969553E+00  0.20045797986E-01 0.  0.
         14    1    1    2    0    0 -0.17108195610E-01 -0.11274069708E-01 -0.77813157329E-02  0.21916748832E-01  0.00000000000E+00 0. -1.
     999901    1    3    3    0    0 -0.55690072883E-01  0.33240363498E-01 -0.10060626004E+00  0.88810355564E+00  0.88000000000E+00 0. -1.
        -11    1    4    4    0    0  0.20559717611E-01 -0.50480234400E-02  0.16423647422E-01  0.26798914988E-01  0.51100000000E-03 0.  1.
         11    1    4    4    0    0  0.52238550882E-01 -0.16918270350E-01  0.91963928346E-01  0.10711078054E+00  0.51100000000E-03 0. -1.
</event>
<event>
 8    1  0.1157726E+005  0.1043930E+01  0.7957747E-01            NaN
         13   -1    0    0    0    0  0.00000000000E+00  0.00000000000E+00  0.74505805969E-08  0.10566000000E+00  0.10566000000E+00 0. -1.
     999900   -1    0    0    0    0 -0.00000000000E+00 -0.00000000000E+00 -0.74505805969E-08  0.93827000000E+00  0.93827000000E+00 0.  1.
     999902    2    1    2    0    0 -0.62375722655E-02 -0.13463736084E-01 -0.20037494181E-01  0.10189964750E+01  0.10186913838E+01 0.  0.
     999903    2    3    3    0    0  0.14845632183E-01 -0.11419532046E+00 -0.61375524064E-01  0.13203526595E+00  0.20134360910E-01 0.  0.
         14    1    1    2    0    0  0.62375722655E-02  0.13463736084E-01  0.20037494181E-01  0.24933525025E-01  0.00000000000E+00 0. -1.
     999901    1    3    3    0    0 -0.21083204449E-01  0.10073158438E+00  0.41338029883E-01  0.88696120903E+00  0.88000000000E+00 0. -1.
        -11    1    4    4    0    0  0.13503211382E-01 -0.10014350709E+00 -0.60729032264E-01  0.11789544186E+00  0.51100000000E-03 0.  1.
         11    1    4    4    0    0  0.13424208007E-02 -0.14051813372E-01 -0.64649179958E-03  0.14139824090E-01  0.51100000000E-03 0. -1.
</event>
<event>
 7    1  0.1157726E+005  0.1043930E+01  0.7957747E-01            NaN
         13   -1    0    0    0    0  0.00000000000E+00  0.00000000000E+00  0.74505805969E-08  0.10566000000E+00  0.10566000000E+00 0.  1.
     999900   -1    0    0    0    0 -0.00000000000E+00 -0.00000000000E+00 -0.74505805969E-08  0.93827000000E+00  0.93827000000E+00 0. -1.
     999902    2    1    2    0    0  0.10498062199E-01 -0.33540286480E-01  0.44503132098E-02  0.10085045090E+01  0.10078821256E+01 0.  0.
         14    1    1    2    0    0 -0.10498062199E-01  0.33540286480E-01 -0.44503132098E-02  0.35425491030E-01  0.00000000000E+00 0.  1.
     999901    1    3    3    0    0 -0.92982385865E-02  0.77592919052E-01  0.28664739670E-01  0.88392804324E+00  0.88000000000E+00 0.  1.
        -11    1    3    3    0    0  0.39828653016E-02 -0.88412016168E-01 -0.11014250181E-02  0.88510011168E-01  0.51100000000E-03 0. -1.
         11    1    3    3    0    0  0.15813435484E-01 -0.22721189364E-01 -0.23113001442E-01  0.36066454561E-01  0.51100000000E-03 0.  1.
</event>
<event>
 7    1  0.1157726E+005  0.1043930E+01  0.7957747E-01            NaN
         13   -1    0    0    0    0  0.00000000000E+00  0.00000000000E+00  0.74505805969E-08  0.10566000000E+00  0.10566000000E+00 0. -1.
     999900   -1    0    0    0    0 -0.00000000000E+00 -0.00000000000E+00 -0.74505805969E-08  0.93827000000E+00  0.93827000000E+00 0.  1.
     999903    2    1    2    0    0 -0.75233743507E-01 -0.15577218697E-01 -0.12301507284E+00  0.14604822568E+00  0.17164212027E-01 0.  0.
         14    1    1    2    0    0  0.19423521566E-02 -0.42459665065E-02  0.48689416636E-02  0.67459288758E-02  0.00000000000E+00 0.  1.
     999901    1    1    2    0    0  0.73291391350E-01  0.19823185203E-01  0.11814613118E+00  0.89113584544E+00  0.88000000000E+00 0. -1.
        -11    1    3    3    0    0 -0.60018638966E-01 -0.16544350091E-01 -0.10789871404E+00  0.12457265412E+00  0.51100000000E-03 0.  1.
         11    1    3    3    0    0 -0.15215104540E-01  0.96713139439E-03 -0.15116358802E-01  0.21475571558E-01  0.51100000000E-03 0. -1.
</event>
<event>
 8    1  0.1157726E+005  0.1043930E+01  0.7957747E-01            NaN
         13   -1    0    0    0    0  0.00000000000E+00  0.00000000000E+00  0.74505805969E-08  0.10566000000E+00  0.10566000000E+00 0. -1.
     999900   -1    0    0    0    0 -0.00000000000E+00 -0.00000000000E+00 -0.74505805969E-08  0.93827000000E+00  0.93827000000E+00 0.  1.
     999902    2    1    2    0    0  0.11293522164E-01 -0.11501364657E-01 -0.16254104815E-01  0.10210384960E+01  0.10207818520E+01 0.  0.
     999903    2    3    3    0    0  0.98690560379E-01  0.49096186750E-01 -0.71529171243E-01  0.13291370832E+00  0.19984225282E-01 0.  0.
         14    1    1    2    0    0 -0.11293522164E-01  0.11501364657E-01  0.16254104815E-01  0.22891503996E-01  0.00000000000E+00 0. -1.
     999901    1    3    3    0    0 -0.87397038215E-01 -0.60597551407E-01  0.55275066428E-01  0.88812478768E+00  0.88000000000E+00 0.  1.
        -11    1    4    4    0    0  0.11771922568E-01  0.54896473439E-02 -0.17075493037E-01  0.21460381459E-01  0.51100000000E-03 0. -1.
         11    1    4    4    0    0  0.86918637810E-01  0.43606539406E-01 -0.54453678206E-01  0.11145332686E+00  0.51100000000E-03 0.  1.
</event>
<event>
 7    1  0.1157726E+005  0.1043930E+01  0.7957747E-01            NaN
         13   -1    0    0    0    0  0.00000000000E+00  0.00000000000E+00  0.74505805969E-08  0.10566000000E+00  0.10566000000E+00 0.  1.
     999900   -1    0    0    0    0 -0.00000000000E+00 -0.00000000000E+00 -0.74505805969E-08  0.93827000000E+00  0.93827000000E+00 0.  1.
     999903    2    1    2    0    0  0.79319173762E-01 -0.68927277730E-01  0.37282799875E-01  0.11315678055E+00  0.19285976173E-01 0.  0.
         14    1    1    2    0    0  0.27232817053E-01  0.23242739465E-01  0.20560649932E-01  0.41286699894E-01  0.00000000000E+00 0.  1.
     999901    1    1    2    0    0 -0.10655199081E+00  0.45684538264E-01 -0.57843449807E-01  0.88948651955E+00  0.88000000000E+00 0. -1.
        -11    1    3    3    0    0  0.52156881227E-01 -0.39808462907E-01  0.14224873241E-01  0.67139125092E-01  0.51100000000E-03 0.  1.
         11    1    3    3    0    0  0.27162292535E-01 -0.29118814823E-01  0.23057926634E-01  0.46017655461E-01  0.51100000000E-03 0. -1.
</event>
<event>
 8    1  0.1157726E+005  0.1043930E+01  0.7957747E-01            NaN
         13   -1    0    0    0    0  0.00000000000E+00  0.00000000000E+00  0.74505805969E-08  0.10566000000E+00  0.10566000000E+00 0. -1.
     999900   -1    0    0    0    0 -0.00000000000E+00 -0.00000000000E+00 -0.74505805969E-08  0.93827000000E+00  0.93827000000E+00 0. -1.
     999902    2    1    2    0    0 -0.19103782880E-01  0.61591045227E-02 -0.11848676478E-01  0.10206216276E+01  0.10203554413E+01 0.  0.
     999903    2    3    3    0    0 -0.11748053825E+00  0.39198586930E-01 -0.46714768517E-01  0.13383797995E+00  0.19802252239E-01 0.  0.
         14    1    1    2    0    0  0.19103782880E-01 -0.61591045227E-02  0.11848676478E-01  0.23308372383E-01  0.00000000000E+00 0. -1.
     999901    1    3    3    0    0  0.98376755374E-01 -0.33039482408E-01  0.34866092039E-01  0.88678364767E+00  0.88000000000E+00 0. -1.
        -11    1    4    4    0    0 -0.40160418392E-01  0.16893367427E-01 -0.71190512140E-02  0.44149598861E-01  0.51100000000E-03 0. -1.
         11    1    4    4    0    0 -0.77320119863E-01  0.22305219503E-01 -0.39595717303E-01  0.89688381089E-01  0.51100000000E-03 0.  1.
</event>
<event>
 8    1  0.1157726E+005  0.1043930E+01  0.7957747E-01            NaN
         13   -1    0    0    0    0  0.00000000000E+00  0.00000000000E+00  0.74505805969E-08  0.10566000000E+00  0.10566000000E+00 0.  1.
     999900   -1    0    0    0    0 -0.00000000000E+00 -0.00000000000E+00 -0.74505805969E-08  0.93827000000E+00  0.93827000000E+00 0.  1.
     999902    2    1    2    0    0  0.18483305985E-01  0.13961984287E-01  0.24774833377E-02  0.10206339160E+01  0.10203680135E+01 0.  0.
     999903    2    3    3    0    0  0.37032083330E-01  0.26462224231E-01  0.12258245152E+00  0.13219398190E+00  0.19420785873E-01 0.  0.
         14    1    1    2    0    0 -0.18483305985E-01 -0.13961984287E-01 -0.24774833377E-02  0.23296083985E-01  0.00000000000E+00 0.  1.
     999901    1    3    3    0    0 -0.18548777345E-01 -0.12500239944E-01 -0.12010496818E+00  0.88843993411E+00  0.88000000000E+00 0.  1.
        -11    1    4    4    0    0  0.31440499087E-01  0.21416013109E-01  0.11632545780E+00  0.12238882243E+00  0.51100000000E-03 0. -1.
         11    1    4    4    0    0  0.55915842436E-02  0.50462111222E-02  0.62569937161E-02  0.98051594788E-02  0.51100000000E-03 0.  1.
</event>
<event>
 8    1  0.1157726E+005  0.1043930E+01  0.7957747E-01            NaN
         13   -1    0    0    0    0  0.00000000000E+00  0.00000000000E+00  0.74505805969E-08  0.10566000000E+00  0.10566000000E+00 0. -1.
     999900   -1    0    0    0    0 -0.00000000000E+00 -0.00000000000E+00 -0.74505805969E-08  0.93827000000E+00  0.93827000000E+00 0. -1.
     999902    2    1    2    0    0  0.13015842747E-01 -0.17646673350E-01 -0.10107278352E-01  0.10197851389E+01  0.10194992669E+01 0.  0.
     999903    2    3    3    0    0 -0.25436381889E-01  0.79953226883E-01  0.93846392280E-01  0.12747875667E+00  0.20103732103E-01 0.  0.
         14    1    1    2    0    0 -0.13015842747E-01  0.17646673350E-01  0.10107278352E-01  0.24144861118E-01  0.00000000000E+00 0. -1.
     999901    1    3    3    0    0  0.38452224636E-01 -0.97599900233E-01 -0.10395367063E+00  0.89230638222E+00  0.88000000000E+00 0. -1.
        -11    1    4    4    0    0 -0.20119321522E-01  0.64144784257E-01  0.61652960754E-01  0.91217811510E-01  0.51100000000E-03 0.  1.
         11    1    4    4    0    0 -0.53170603670E-02  0.15808442627E-01  0.32193431526E-01  0.36260945156E-01  0.51100000000E-03 0. -1.
</event>
<event>
 8    1  0.1157726E+005  0.1043930E+01  0.7957747E-01            NaN
         13   -1    0    0    0    0  0.00000000000E+00  0.00000000000E+00  0.74505805969E-08  0.10566000000E+00  0.10566000000E+00 0. -1.
     999900   -1    0    0    0    0 -0.00000000000E+00 -0.00000000000E+00 -0.74505805969E-08  0.93827000000E+00  0.93827000000E+00 0.  1.
     999902    2    1    2    0    0 -0.27172132980E-01  0.74545408517E-02 -0.90383403672E-03  0.10157393649E+01  0.10153480908E+01 0.  0.
     999903    2    3    3    0    0 -0.78412678500E-01 -0.44000916011E-01  0.89251015470E-01  0.12815773238E+00  0.19339902953E-01 0.  0.
         14    1    1    2    0    0  0.27172132980E-01 -0.74545408517E-02  0.90383403672E-03  0.28190635076E-01  0.00000000000E+00 0. -1.
     999901    1    3    3    0    0  0.51240545520E-01  0.51455456863E-01 -0.90154849507E-01  0.88758163255E+00  0.88000000000E+00 0.  1.
        -11    1    4    4    0    0 -0.20060280733E-01 -0.21119413030E-01  0.31872221904E-01  0.43180367297E-01  0.51100000000E-03 0. -1.
         11    1    4    4    0    0 -0.58352397767E-01 -0.22881502982E-01  0.57378793566E-01  0.84977365080E-01  0.51100000000E-03 0.  1.
</event>
<event>
 8    1  0.1157726E+005  0.1043930E+01  0.7957747E-01            NaN
         13   -1    0    0    0    0  0.00000000000E+00  0.00000000000E+00  0.74505805969E-08  0.10566000000E+00  0.10566000000E+00 0. -1.
     999900   -1    0    0    0    0 -0.00000000000E+00 -0.00000000000E+00 -0.74505805969E-08  0.93827000000E+00  0.93827000000E+00 0. -1.
     999902    2    1    2    0    0 -0.15539732056E-01 -0.13298414937E-01  0.11220083036E-01  0.10206014472E+01  0.10203347944E+01 0.  0.
     999903    2    3    3    0    0 -0.57930422870E-01 -0.11495039074E+00 -0.26283971361E-01  0.13294349002E+00  0.20337112977E-01 0.  0.
         14    1    1    2    0    0  0.15539732056E-01  0.13298414937E-01 -0.11220083036E-01  0.23328552796E-01  0.00000000000E+00 0.  1.
     999901    1    3    3    0    0  0.42390690814E-01  0.10165197580E+00  0.37504054398E-01  0.88765795718E+00  0.88000000000E+00 0.  1.
        -11    1    4    4    0    0 -0.26820161537E-01 -0.65370738925E-01 -0.56784658372E-02  0.70888367648E-01  0.51100000000E-03 0. -1.
         11    1    4    4    0    0 -0.31110261333E-01 -0.49579651812E-01 -0.20605505524E-01  0.62055122375E-01  0.51100000000E-03 0.  1.
</event>
<event>
 8    1  0.1157726E+005  0.1043930E+01  0.7957747E-01            NaN
         13   -1    0    0    0    0  0.00000000000E+00  0.00000000000E+00  0.74505805969E-08  0.10566000000E+00  0.10566000000E+00 0.  1.
     999900   -1    0    0    0    0 -0.00000000000E+00 -0.00000000000E+00 -0.74505805969E-08  0.93827000000E+00  0.93827000000E+00 0.  1.
     999902    2    1    2    0    0 -0.72918475025E-02  0.17797584577E-01 -0.12243828553E-01  0.10211300791E+01  0.10208755076E+01 0.  0.
     999903    2    3    3    0    0 -0.85431292723E-02 -0.10974572139E+00 -0.66719607460E-01  0.13026731125E+00  0.20023934161E-01 0.  0.
         14    1    1    2    0    0  0.72918475025E-02 -0.17797584577E-01  0.12243828553E-01  0.22799920930E-01  0.00000000000E+00 0.  1.
     999901    1    3    3    0    0  0.12512817698E-02  0.12754330597E+00  0.54475778907E-01  0.89086276782E+00  0.88000000000E+00 0. -1.
        -11    1    4    4    0    0 -0.12883524533E-02 -0.98219766519E-01 -0.57660842589E-01  0.11390266141E+00  0.51100000000E-03 0. -1.
         11    1    4    4    0    0 -0.72547768189E-02 -0.11525954870E-01 -0.90587648714E-02  0.16364649839E-01  0.51100000000E-03 0.  1.
</event>
<event>
 8    1  0.1157726E+005  0.1043930E+01  0.7957747E-01            NaN
         13   -1    0    0    0    0  0.00000000000E+00  0.00000000000E+00  0.74505805969E-08  0.10566000000E+00  0.10566000000E+00 0. -1.
     999900   -1    0    0    0    0 -0.00000000000E+00 -0.00000000000E+00 -0.74505805969E-08  0.93827000000E+00  0.93827000000E+00 0. -1.
     999902    2    1    2    0    0 -0.14074651315E-01 -0.17980479264E-01  0.92534578615E-02  0.10192922256E+01  0.10189944167E+01 0.  0.
     999903    2    3    3    0    0  0.12431934792E+00 -0.16199302919E-02 -0.21602553724E-01  0.12779199564E+00  0.20154388636E-01 0.  0.
         14    1    1    2    0    0  0.14074651315E-01  0.17980479264E-01 -0.92534578615E-02  0.24637774384E-01  0.00000000000E+00 0.  1.
     999901    1    3    3    0    0 -0.13839399924E+00 -0.16360548972E-01  0.30856011586E-01  0.89150022997E+00  0.88000000000E+00 0. -1.
        -11    1    4    4    0    0  0.10803066014E+00  0.35002295445E-02 -0.23472496434E-01  0.11060784035E+00  0.51100000000E-03 0.  1.
         11    1    4    4    0    0  0.16288687784E-01 -0.51201598363E-02  0.18699427094E-02  0.17184155295E-01  0.51100000000E-03 0. -1.
</event>
<event>
 8    1  0.1157726E+005  0.1043930E+01  0.7957747E-01            NaN
         13   -1    0    0    0    0  0.00000000000E+00  0.00000000000E+00  0.74505805969E-08  0.10566000000E+00  0.10566000000E+00 0. -1.
     999900   -1    0    0    0    0 -0.00000000000E+00 -0.00000000000E+00 -0.74505805969E-08  0.93827000000E+00  0.93827000000E+00 0. -1.
     999902    2    1    2    0    0 -0.60422903011E-02  0.10577806764E-01 -0.20388670600E-01  0.10201792704E+01  0.10199027633E+01 0.  0.
     999903    2    3    3    0    0  0.11195719424E+00 -0.16724535894E-01  0.57372837156E-01  0.12848641500E+00  0.20074684394E-01 0.  0.
         14    1    1    2    0    0  0.60422903011E-02 -0.10577806764E-01  0.20388670600E-01  0.23750729607E-01  0.00000000000E+00 0. -1.
     999901    1    3    3    0    0 -0.11799948454E+00  0.27302342657E-01 -0.77761507757E-01  0.89169285539E+00  0.88000000000E+00 0. -1.
        -11    1    4    4    0    0  0.45434684953E-01  0.22839078226E-02  0.27204563364E-01  0.53008265587E-01  0.51100000000E-03 0. -1.
         11    1    4    4    0    0  0.66522509288E-01 -0.19008443716E-01  0.30168273792E-01  0.75478149415E-01  0.51100000000E-03 0.  1.
</event>
<event>
 8    1  0.1157726E+005  0.1043930E+01  0.7957747E-01            NaN
         13   -1    0    0    0    0  0.00000000000E+00  0.00000000000E+00  0.74505805969E-08  0.10566000000E+00  0.10566000000E+00 0.  1.
     999900   -1    0    0    0    0 -0.00000000000E+00 -0.00000000000E+00 -0.74505805969E-08  0.93827000000E+00  0.93827000000E+00 0. -1.
     999902    2    1    2    0    0  0.34694372357E-02 -0.16374073454E-02 -0.22995507510E-01  0.10206166677E+01  0.10203503667E+01 0.  0.
     999903    2    3    3    0    0 -0.71221758041E-01  0.10439106571E+00 -0.25871042038E-01  0.13110608291E+00  0.23440578913E-01 0.  0.
         14    1    1    2    0    0 -0.34694372357E-02  0.16374073454E-02  0.22995507510E-01  0.23313332306E-01  0.00000000000E+00 0.  1.
     999901    1    3    3    0    0  0.74691195277E-01 -0.10602847306E+00  0.28755345278E-02  0.88951058479E+00  0.88000000000E+00 0.  1.
        -11    1    4    4    0    0 -0.42784352547E-01  0.79683743743E-01 -0.22991276151E-01  0.93321271637E-01  0.51100000000E-03 0.  1.
         11    1    4    4    0    0 -0.28437405493E-01  0.24707321970E-01 -0.28797658869E-02  0.37784811270E-01  0.51100000000E-03 0. -1.
</event>
<event>
 8    1  0.1157726E+005  0.1043930E+01  0.7957747E-01            NaN
         13   -1    0    0    0    0  0.00000000000E+00  0.00000000000E+00  0.74505805969E-08  0.10566000000E+00  0.10566000000E+00 0. -1.
     999900   -1    0    0    0    0 -0.00000000000E+00 -0.00000000000E+00 -0.74505805969E-08  0.93827000000E+00  0.93827000000E+00 0. -1.
     999902    2    1    2    0    0 -0.15967412988E-01  0.70581935797E-02 -0.14183645167E-01  0.10214366195E+01  0.10211889226E+01 0.  0.
     999903    2    3    3    0    0  0.11620257305E+00  0.21037748675E-01 -0.51959568632E-01  0.13065530319E+00  0.20624903049E-01 0.  0.
         14    1    1    2    0    0  0.15967412988E-01 -0.70581935797E-02  0.14183645167E-01  0.22493380457E-01  0.00000000000E+00 0. -1.
     999901    1    3    3    0    0 -0.13216998604E+00 -0.13979555095E-01  0.37775923465E-01  0.89078131635E+00  0.88000000000E+00 0.  1.
        -11    1    4    4    0    0  0.37218993045E-01  0.13346215107E-01 -0.25274128339E-01  0.46929922067E-01  0.51100000000E-03 0.  1.
         11    1    4    4    0    0  0.78983580008E-01  0.76915335682E-02 -0.26685440294E-01  0.83725381123E-01  0.51100000000E-03 0. -1.
</event>
<event>
 8    1  0.1157726E+005  0.1043930E+01  0.7957747E-01            NaN
         13   -1    0    0    0    0  0.00000000000E+00  0.00000000000E+00  0.74505805969E-08  0.10566000000E+00  0.10566000000E+00 0. -1.
     999900   -1    0    0    0    0 -0.00000000000E+00 -0.00000000000E+00 -0.74505805969E-08  0.93827000000E+00  0.93827000000E+00 0. -1.
     999902    2    1    2    0    0 -0.15805674800E-01 -0.11194466358E-01 -0.14463150087E-01  0.10197573265E+01  0.10194707876E+01 0.  0.
     999903    2    3    3    0    0 -0.11475485190E+00  0.58070241937E-01  0.15027423905E-01  0.13101763830E+00  0.19974209437E-01 0.  0.
         14    1    1    2    0    0  0.15805674800E-01  0.11194466358E-01  0.14463150087E-01  0.24172673484E-01  0.00000000000E+00 0. -1.
     999901    1    3    3    0    0  0.98949177098E-01 -0.69264708295E-01 -0.29490573992E-01  0.88873968822E+00  0.88000000000E+00 0.  1.
        -11    1    4    4    0    0 -0.69980487968E-01  0.40899408842E-01  0.10446818844E-02  0.81064066152E-01  0.51100000000E-03 0. -1.
         11    1    4    4    0    0 -0.44774363930E-01  0.17170833095E-01  0.13982742020E-01  0.49953572143E-01  0.51100000000E-03 0.  1.
</event>
<event>
 8    1  0.1157726E+005  0.1043930E+01  0.7957747E-01            NaN
         13   -1    0    0    0    0  0.00000000000E+00  0.00000000000E+00  0.74505805969E-08  0.10566000000E+00  0.10566000000E+00 0. -1.
     999900   -1    0    0    0    0 -0.00000000000E+00 -0.00000000000E+00 -0.74505805969E-08  0.93827000000E+00  0.93827000000E+00 0.  1.
     999902    2    1    2    0    0  0.37892890970E-02  0.23489239510E-01  0.31278409042E-02  0.10199323653E+01  0.10196500102E+01 0.  0.
     999903    2    3    3    0    0 -0.10746721469E+00  0.27353021110E-01 -0.65437362876E-01  0.13027280924E+00  0.19788036021E-01 0.  0.
         14    1    1    2    0    0 -0.37892890970E-02 -0.23489239510E-01 -0.31278409042E-02  0.23997634745E-01  0.00000000000E+00 0. -1.
     999901    1    3    3    0    0  0.11125650379E+00 -0.38637815998E-02  0.68565203780E-01  0.88965955602E+00  0.88000000000E+00 0. -1.
        -11    1    4    4    0    0 -0.93304177991E-01  0.27960572982E-01 -0.50669935713E-01  0.10979602351E+00  0.51100000000E-03 0. -1.
         11    1    4    4    0    0 -0.14163036699E-01 -0.60755187188E-03 -0.14767427163E-01  0.20476785730E-01  0.51100000000E-03 0.  1.
</event>
<event>
 8    1  0.1157726E+005  0.1043930E+01  0.7957747E-01            NaN
         13   -1    0    0    0    0  0.00000000000E+00  0.00000000000E+00  0.74505805969E-08  0.10566000000E+00  0.10566000000E+00 0.  1.
     999900   -1    0    0    0    0 -0.00000000000E+00 -0.00000000000E+00 -0.74505805969E-08  0.93827000000E+00  0.93827000000E+00 0.  1.
     999902    2    1    2    0    0  0.32243472253E-02  0.21691842362E-01 -0.11137646930E-01  0.10193336665E+01  0.10190368708E+01 0.  0.
     999903    2    3    3    0    0  0.20041364676E-01 -0.31644682237E-01  0.12034891001E+00  0.12780895484E+00  0.21171362394E-01 0.  0.
         14    1    1    2    0    0 -0.32243472253E-02 -0.21691842362E-01  0.11137646930E-01  0.24596333450E-01  0.00000000000E+00 0. -1.
     999901    1    3    3    0    0 -0.16817017451E-01  0.53336524598E-01 -0.13148655694E+00  0.89152471171E+00  0.88000000000E+00 0.  1.
        -11    1    4    4    0    0  0.18144400256E-01 -0.27578334043E-01  0.71533185161E-01  0.78784779427E-01  0.51100000000E-03 0. -1.
         11    1    4    4    0    0  0.18969644203E-02 -0.40663481941E-02  0.48815724847E-01  0.49024175414E-01  0.51100000000E-03 0.  1.
</event>
<event>
 8    1  0.1157726E+005  0.1043930E+01  0.7957747E-01            NaN
         13   -1    0    0    0    0  0.00000000000E+00  0.00000000000E+00  0.74505805969E-08  0.10566000000E+00  0.10566000000E+00 0. -1.
     999900   -1    0    0    0    0 -0.00000000000E+00 -0.00000000000E+00 -0.74505805969E-08  0.93827000000E+00  0.93827000000E+00 0.  1.
     999902    2    1    2    0    0  0.19006573075E-01  0.10168599927E-01 -0.24127403322E-01  0.10115759920E+01  0.10110584581E+01 0.  0.
     999903    2    3    3    0    0 -0.55236203089E-01 -0.26975692696E-01  0.99805731455E-01  0.11902285059E+00  0.20652573781E-01 0.  0.
         14    1    1    2    0    0 -0.19006573075E-01 -0.10168599927E-01  0.24127403322E-01  0.32354008030E-01  0.00000000000E+00 0. -1.
     999901    1    3    3    0    0  0.74242776164E-01  0.37144292622E-01 -0.12393313478E+00  0.89255314138E+00  0.88000000000E+00 0. -1.
        -11    1    4    4    0    0 -0.52890742366E-01 -0.18501412433E-01  0.85759315454E-01  0.10244341950E+00  0.51100000000E-03 0. -1.
         11    1    4    4    0    0 -0.23454607222E-02 -0.84742802629E-02  0.14046416001E-01  0.16579431096E-01  0.51100000000E-03 0.  1.
</event>
<event>
 8    1  0.1157726E+005  0.1043930E+01  0.7957747E-01            NaN
         13   -1    0    0    0    0  0.00000000000E+00  0.00000000000E+00  0.74505805969E-08  0.10566000000E+00  0.10566000000E+00 0. -1.
     999900   -1    0    0    0    0 -0.00000000000E+00 -0.00000000000E+00 -0.74505805969E-08  0.93827000000E+00  0.93827000000E+00 0. -1.
     999902    2    1    2    0    0 -0.25897263484E-02  0.23414236776E-01 -0.15779716581E-02  0.10203201893E+01  0.10200469918E+01 0.  0.
     999903    2    3    3    0    0 -0.55052972835E-01 -0.44523792072E-01  0.10675854107E+00  0.12953134340E+00  0.19177720263E-01 0.  0.
         14    1    1    2    0    0  0.25897263484E-02 -0.23414236776E-01  0.15779716581E-02  0.23609810692E-01  0.00000000000E+00 0. -1.
     999901    1    3    3    0    0  0.52463246486E-01  0.67938028848E-01 -0.10833651273E+00  0.89078884590E+00  0.88000000000E+00 0. -1.
        -11    1    4    4    0    0 -0.22119835246E-01 -0.17596442075E-01  0.59931614259E-01  0.66264480634E-01  0.51100000000E-03 0.  1.
         11    1    4    4    0    0 -0.32933137589E-01 -0.26927349997E-01  0.46826926810E-01  0.63266862770E-01  0.51100000000E-03 0. -1.
</event>
<event>
 8    1  0.1157726E+005  0.1043930E+01  0.7957747E-01            NaN
         13   -1    0    0    0    0  0.00000000000E+00  0.00000000000E+00  0.74505805969E-08  0.10566000000E+00  0.10566000000E+00 0. -1.
     999900   -1    0    0    0    0 -0.00000000000E+00 -0.00000000000E+00 -0.74505805969E-08  0.93827000000E+00  0.93827000000E+00 0. -1.
     999902    2    1    2    0    0  0.22854221206E-01  0.60029765447E-02 -0.54176596847E-02  0.10196874302E+01  0.10193992118E+01 0.  0.
     999903    2    3    3    0    0 -0.20778271751E-01  0.11468763502E+00 -0.55339046018E-01  0.13052586206E+00  0.19738299022E-01 0.  0.
         14    1    1    2    0    0 -0.22854221206E-01 -0.60029765447E-02  0.54176596847E-02  0.24242569806E-01  0.00000000000E+00 0. -1.
     999901    1    3    3    0    0  0.43632492956E-01 -0.10868465848E+00  0.49921386333E-01  0.88916156813E+00  0.88000000000E+00 0.  1.
        -11    1    4    4    0    0 -0.15246384940E-01  0.44057368370E-01 -0.29181315383E-01  0.55002856743E-01  0.51100000000E-03 0. -1.
         11    1    4    4    0    0 -0.55318868108E-02  0.70630266655E-01 -0.26157730636E-01  0.75523005319E-01  0.51100000000E-03 0.  1.
</event>
<event>
 8    1  0.1157726E+005  0.1043930E+01  0.7957747E-01            NaN
         13   -1    0    0    0    0  0.00000000000E+00  0.00000000000E+00  0.74505805969E-08  0.10566000000E+00  0.10566000000E+00 0.  1.
     999900   -1    0    0    0    0 -0.00000000000E+00 -0.00000000000E+00 -0.74505805969E-08  0.93827000000E+00  0.93827000000E+00 0. -1.
     999902    2    1    2    0    0 -0.77960728079E-02  0.13431218573E-01 -0.16057417508E-01  0.10215913107E+01  0.10213470463E+01 0.  0.
     999903    2    3    3    0    0 -0.32267067948E-01 -0.13779812305E-02  0.12438869195E+00  0.12999540913E+00  0.19575423475E-01 0.  0.
         14    1    1    2    0    0  0.77960728079E-02 -0.13431218573E-01  0.16057417508E-01  0.22338689321E-01  0.00000000000E+00 0.  1.
     999901    1    3    3    0    0  0.24470995140E-01  0.14809199803E-01 -0.14044610945E+00  0.89159590155E+00  0.88000000000E+00 0. -1.
        -11    1    4    4    0    0 -0.26404497749E-01  0.69148905602E-02  0.82928521117E-01  0.87306437039E-01  0.51100000000E-03 0. -1.
         11    1    4    4    0    0 -0.58625701993E-02 -0.82928717907E-02  0.41460170829E-01  0.42688972089E-01  0.51100000000E-03 0.  1.
</event>
<event>
 8    1  0.1157726E+005  0.1043930E+01  0.7957747E-01            NaN
         13   -1    0    0    0    0  0.00000000000E+00  0.00000000000E+00  0.74505805969E-08  0.10566000000E+00  0.10566000000E+00 0. -1.
     999900   -1    0    0    0    0 -0.00000000000E+00 -0.00000000000E+00 -0.74505805969E-08  0.93827000000E+00  0.93827000000E+00 0. -1.
     999902    2    1    2    0    0  0.11141244636E-01 -0.20861289772E-01 -0.49018693073E-03  0.10202749577E+01  0.10200007001E+01 0.  0.
     999903    2    3    3    0    0 -0.84768577833E-01 -0.17867474058E-03 -0.96042759251E-01  0.12968147092E+00  0.20182383014E-01 0.  0.
         14    1    1    2    0    0 -0.11141244636E-01  0.20861289772E-01  0.49018693073E-03  0.23655042300E-01  0.00000000000E+00 0. -1.
     999901    1    3    3    0    0  0.95909822469E-01 -0.20682615031E-01  0.95552572320E-01  0.89059348678E+00  0.88000000000E+00 0.  1.
        -11    1    4    4    0    0 -0.34007168564E-01  0.35812469031E-02 -0.52707779618E-01  0.62830597613E-01  0.51100000000E-03 0.  1.
         11    1    4    4    0    0 -0.50761409269E-01 -0.37599216437E-02 -0.43334979633E-01  0.66850873312E-01  0.51100000000E-03 0. -1.
</event>
<event>
 8    1  0.1157726E+005  0.1043930E+01  0.7957747E-01            NaN
         13   -1    0    0    0    0  0.00000000000E+00  0.00000000000E+00  0.74505805969E-08  0.10566000000E+00  0.10566000000E+00 0.  1.
     999900   -1    0    0    0    0 -0.00000000000E+00 -0.00000000000E+00 -0.74505805969E-08  0.93827000000E+00  0.93827000000E+00 0.  1.
     999902    2    1    2    0    0 -0.18195872864E-01  0.11720521602E-01  0.52374286356E-02  0.10216613881E+01  0.10214186707E+01 0.  0.
     999903    2    3    3    0    0  0.35495286818E-01 -0.18177726467E-01  0.12447386365E+00  0.13149624991E+00  0.14393605632E-01 0.  0.
         14    1    1    2    0    0  0.18195872864E-01 -0.11720521602E-01 -0.52374286356E-02  0.22268611870E-01  0.00000000000E+00 0.  1.
     999901    1    3    3    0    0 -0.53691159682E-01  0.29898248069E-01 -0.11923643501E+00  0.89016513822E+00  0.88000000000E+00 0.  1.
        -11    1    4    4    0    0  0.10938041416E-01 -0.13352437434E-01  0.46496634841E-01  0.49599662377E-01  0.51100000000E-03 0. -1.
         11    1    4    4    0    0  0.24557245402E-01 -0.48252890332E-02  0.77977228809E-01  0.81896587534E-01  0.51100000000E-03 0.  1.
</event>
<event>
 7    1  0.1157726E+005  0.1043930E+01  0.7957747E-01            NaN
         13   -1    0    0    0    0  0.00000000000E+00  0.00000000000E+00  0.74505805969E-08  0.10566000000E+00  0.10566000000E+00 0. -1.
     999900   -1    0    0    0    0 -0.00000000000E+00 -0.00000000000E+00 -0.74505805969E-08  0.93827000000E+00  0.93827000000E+00 0.  1.
     999903    2    1    2    0    0  0.93905153764E-01  0.12057548378E-01  0.28429338038E-01  0.10081354695E+00  0.19788421139E-01 0.  0.
         14    1    1    2    0    0  0.44764593239E-01  0.66294656083E-02  0.22638379921E-01  0.50599554025E-01  0.00000000000E+00 0. -1.
     999901    1    1    2    0    0 -0.13866974700E+00 -0.18687013986E-01 -0.51067717959E-01  0.89251689902E+00  0.88000000000E+00 0.  1.
        -11    1    3    3    0    0  0.43692964106E-01  0.12980480837E-01  0.20450231124E-01  0.49960395006E-01  0.51100000000E-03 0. -1.
         11    1    3    3    0    0  0.50212189658E-01 -0.92293245878E-03  0.79791069138E-02  0.50853151945E-01  0.51100000000E-03 0.  1.
</event>
<event>
 8    1  0.1157726E+005  0.1043930E+01  0.7957747E-01            NaN
         13   -1    0    0    0    0  0.00000000000E+00  0.00000000000E+00  0.74505805969E-08  0.10566000000E+00  0.10566000000E+00 0.  1.
     999900   -1    0    0    0    0 -0.00000000000E+00 -0.00000000000E+00 -0.74505805969E-08  0.93827000000E+00  0.93827000000E+00 0.  1.
     999902    2    1    2    0    0 -0.16428860117E-01  0.69797006102E-03 -0.23488389512E-01  0.10152577303E+01  0.10148527775E+01 0.  0.
     999903    2    3    3    0    0 -0.14786014873E-01 -0.89760920024E-01  0.82137857366E-01  0.12433550376E+00  0.20905522816E-01 0.  0.
         14    1    1    2    0    0  0.16428860117E-01 -0.69797006102E-03  0.23488389512E-01  0.28672269684E-01  0.00000000000E+00 0.  1.
     999901    1    3    3    0    0 -0.16428452445E-02  0.90458890085E-01 -0.10562624688E+00  0.89092222655E+00  0.88000000000E+00 0.  1.
        -11    1    4    4    0    0 -0.14376966671E-01 -0.68251271434E-01  0.72969396491E-01  0.10094417848E+00  0.51100000000E-03 0.  1.
         11    1    4    4    0    0 -0.40904820212E-03 -0.21509648590E-01  0.91684608749E-02  0.23391325287E-01  0.51100000000E-03 0. -1.
</event>
<event>
 8    1  0.1157726E+005  0.1043930E+01  0.7957747E-01            NaN
         13   -1    0    0    0    0  0.00000000000E+00  0.00000000000E+00  0.74505805969E-08  0.10566000000E+00  0.10566000000E+00 0. -1.
     999900   -1    0    0    0    0 -0.00000000000E+00 -0.00000000000E+00 -0.74505805969E-08  0.93827000000E+00  0.93827000000E+00 0.  1.
     999902    2    1    2    0    0  0.11934488944E-01 -0.18764839214E-01  0.86222025907E-02  0.10200785096E+01  0.10197996235E+01 0.  0.
     999903    2    3    3    0    0 -0.29150079462E-01 -0.12541940749E+00 -0.22093925165E-01  0.13215586702E+00  0.19931802452E-01 0.  0.
         14    1    1    2    0    0 -0.11934488944E-01  0.18764839214E-01 -0.86222025907E-02  0.23851490406E-01  0.00000000000E+00 0.  1.
     999901    1    3    3    0    0  0.41084568406E-01  0.10665456828E+00  0.30716127755E-01  0.88792264258E+00  0.88000000000E+00 0. -1.
        -11    1    4    4    0    0 -0.14371881954E-01 -0.36785125797E-01 -0.14116307818E-01  0.41943148883E-01  0.51100000000E-03 0. -1.
         11    1    4    4    0    0 -0.14778197508E-01 -0.88634281698E-01 -0.79776173463E-02  0.90212718135E-01  0.51100000000E-03 0.  1.
</event>
<event>
 8    1  0.1157726E+005  0.1043930E+01  0.7957747E-01            NaN
         13   -1    0    0    0    0  0.00000000000E+00  0.00000000000E+00  0.74505805969E-08  0.10566000000E+00  0.10566000000E+00 0.  1.
     999900   -1    0    0    0    0 -0.00000000000E+00 -0.00000000000E+00 -0.74505805969E-08  0.93827000000E+00  0.93827000000E+00 0. -1.
     999902    2    1    2    0    0 -0.88610305909E-02 -0.18121036775E-01 -0.12146498330E-01  0.10203837209E+01  0.10201120089E+01 0.  0.
     999903    2    3    3    0    0  0.83741725460E-01 -0.96118825532E-01 -0.27594249679E-01  0.13195952128E+00  0.20009183803E-01 0.  0.
         14    1    1    2    0    0  0.88610305909E-02  0.18121036775E-01  0.12146498330E-01  0.23546279083E-01  0.00000000000E+00 0.  1.
     999901    1    3    3    0    0 -0.92602756051E-01  0.77997788757E-01  0.15447751348E-01  0.88842419964E+00  0.88000000000E+00 0.  1.
        -11    1    4    4    0    0  0.26428956715E-01 -0.37036214819E-01 -0.12053601659E-02  0.45517963216E-01  0.51100000000E-03 0. -1.
         11    1    4    4    0    0  0.57312768745E-01 -0.59082610713E-01 -0.26388889513E-01  0.86441558065E-01  0.51100000000E-03 0.  1.
</event>
<event>
 8    1  0.1157726E+005  0.1043930E+01  0.7957747E-01            NaN
         13   -1    0    0    0    0  0.00000000000E+00  0.00000000000E+00  0.74505805969E-08  0.10566000000E+00  0.10566000000E+00 0.  1.
     999900   -1    0    0    0    0 -0.00000000000E+00 -0.00000000000E+00 -0.74505805969E-08  0.93827000000E+00  0.93827000000E+00 0.  1.
     999902    2    1    2    0    0  0.11961056710E-01  0.16294276889E-01 -0.15587283143E-01  0.10184048412E+01  0.10180849114E+01 0.  0.
     999903    2    3    3    0    0 -0.47977757906E-01  0.62530727478E-01 -0.10248628251E+00  0.13089038668E+00  0.20418082431E-01 0.  0.
         14    1    1    2    0    0 -0.11961056710E-01 -0.16294276889E-01  0.15587283143E-01  0.25525158820E-01  0.00000000000E+00 0.  1.
     999901    1    3    3    0    0  0.59938814616E-01 -0.46236450589E-01  0.86898999363E-01  0.88751445450E+00  0.88000000000E+00 0.  1.
        -11    1    4    4    0    0 -0.33932756614E-01  0.36896040459E-01 -0.78178494962E-01  0.92870274946E-01  0.51100000000E-03 0. -1.
         11    1    4    4    0    0 -0.14045001292E-01  0.25634687018E-01 -0.24307787544E-01  0.38020111732E-01  0.51100000000E-03 0.  1.
</event>
<event>
 8    1  0.1157726E+005  0.1043930E+01  0.7957747E-01            NaN
         13   -1    0    0    0    0  0.00000000000E+00  0.00000000000E+00  0.74505805969E-08  0.10566000000E+00  0.10566000000E+00 0.  1.
     999900   -1    0    0    0    0 -0.00000000000E+00 -0.00000000000E+00 -0.74505805969E-08  0.93827000000E+00  0.93827000000E+00 0. -1.
     999902    2    1    2    0    0  0.17745215750E-01  0.39028530453E-03  0.15576063101E-01  0.10203152007E+01  0.10200418864E+01 0.  0.
     999903    2    3    3    0    0 -0.10352540445E+00  0.72862969884E-01  0.17131654365E-01  0.12904572786E+00  0.18242383349E-01 0.  0.
         14    1    1    2    0    0 -0.17745215750E-01 -0.39028530453E-03 -0.15576063101E-01  0.23614799308E-01  0.00000000000E+00 0. -1.
     999901    1    3    3    0    0  0.12127062020E+00 -0.72472684580E-01 -0.15555912640E-02  0.89126947283E+00  0.88000000000E+00 0. -1.
        -11    1    4    4    0    0 -0.82876853447E-01  0.49044791829E-01  0.11008169919E-01  0.96929899251E-01  0.51100000000E-03 0. -1.
         11    1    4    4    0    0 -0.20648551007E-01  0.23818178056E-01  0.61234844465E-02  0.32115828611E-01  0.51100000000E-03 0.  1.
</event>
<event>
 8    1  0.1157726E+005  0.1043930E+01  0.7957747E-01            NaN
         13   -1    0    0    0    0  0.00000000000E+00  0.00000000000E+00  0.74505805969E-08  0.10566000000E+00  0.10566000000E+00 0. -1.
     999900   -1    0    0    0    0 -0.00000000000E+00 -0.00000000000E+00 -0.74505805969E-08  0.93827000000E+00  0.93827000000E+00 0. -1.
     999902    2    1    2    0    0  0.10307581584E-01 -0.16738913321E-01  0.14878022657E-01  0.10192765415E+01  0.10189783487E+01 0.  0.
     999903    2    3    3    0    0 -0.29287590478E-01  0.80229959558E-01  0.95198924973E-01  0.12943262975E+00  0.19883685775E-01 0.  0.
         14    1    1    2    0    0 -0.10307581584E-01  0.16738913321E-01 -0.14878022657E-01  0.24653458489E-01  0.00000000000E+00 0.  1.
     999901    1    3    3    0    0  0.39595172062E-01 -0.96968872879E-01 -0.80320902316E-01  0.88984391177E+00  0.88000000000E+00 0. -1.
        -11    1    4    4    0    0 -0.18553012389E-01  0.59481213401E-01  0.80613955409E-01  0.10188768299E+00  0.51100000000E-03 0. -1.
         11    1    4    4    0    0 -0.10734578088E-01  0.20748746157E-01  0.14584969564E-01  0.27544946760E-01  0.51100000000E-03 0.  1.
</event>
<event>
 8    1  0.1157726E+005  0.1043930E+01  0.7957747E-01            NaN
         13   -1    0    0    0    0  0.00000000000E+00  0.00000000000E+00  0.74505805969E-08  0.10566000000E+00  0.10566000000E+00 0.  1.
     999900   -1    0    0    0    0 -0.00000000000E+00 -0.00000000000E+00 -0.74505805969E-08  0.93827000000E+00  0.93827000000E+00 0. -1.
     999902    2    1    2    0    0 -0.15320784665E-03  0.23632592044E-01  0.58378389665E-02  0.10195865565E+01  0.10192959055E+01 0.  0.
     999903    2    3    3    0    0 -0.12497264275E+00  0.68470040051E-02 -0.29029166704E-01  0.12993642558E+00  0.19383995333E-01 0.  0.
         14    1    1    2    0    0  0.15320784665E-03 -0.23632592044E-01 -0.58378389665E-02  0.24343443535E-01  0.00000000000E+00 0. -1.
     999901    1    3    3    0    0  0.12481943490E+00  0.16785588039E-01  0.34867005671E-01  0.88965013088E+00  0.88000000000E+00 0. -1.
        -11    1    4    4    0    0 -0.82500997661E-01  0.11616158517E-01 -0.13187858651E-01  0.84353603898E-01  0.51100000000E-03 0. -1.
         11    1    4    4    0    0 -0.42471645084E-01 -0.47691545120E-02 -0.15841308053E-01  0.45582821685E-01  0.51100000000E-03 0.  1.
</event>
<event>
 8    1  0.1157726E+005  0.1043930E+01  0.7957747E-01            NaN
         13   -1    0    0    0    0  0.00000000000E+00  0.00000000000E+00  0.74505805969E-08  0.10566000000E+00  0.10566000000E+00 0. -1.
     999900   -1    0    0    0    0 -0.00000000000E+00 -0.00000000000E+00 -0.74505805969E-08  0.93827000000E+00  0.93827000000E+00 0. -1.
     999902    2    1    2    0    0 -0.13343374402E-02 -0.19001041522E-01  0.15082721648E-01  0.10196337343E+01  0.10193442223E+01 0.  0.
     999903    2    3    3    0    0  0.67802198850E-02  0.12594034711E+00 -0.38615291102E-02  0.12753915588E+00  0.18557544667E-01 0.  0.
         14    1    1    2    0    0  0.13343374402E-02  0.19001041522E-01 -0.15082721648E-01  0.24296265714E-01  0.00000000000E+00 0. -1.
     999901    1    3    3    0    0 -0.81145573253E-02 -0.14494138863E+00  0.18944250758E-01  0.89209457840E+00  0.88000000000E+00 0.  1.
        -11    1    4    4    0    0  0.71006760669E-02  0.16060537869E-01 -0.15119777920E-02  0.17632574261E-01  0.51100000000E-03 0.  1.
         11    1    4    4    0    0 -0.32045618191E-03  0.10987980924E+00 -0.23495513182E-02  0.10990658162E+00  0.51100000000E-03 0. -1.
</event>
<event>
 8    1  0.1157726E+005  0.1043930E+01  0.7957747E-01            NaN
         13   -1    0    0    0    0  0.00000000000E+00  0.00000000000E+00  0.74505805969E-08  0.10566000000E+00  0.10566000000E+00 0.  1.
     999900   -1    0    0    0    0 -0.00000000000E+00 -0.00000000000E+00 -0.74505805969E-08  0.93827000000E+00  0.93827000000E+00 0. -1.
     999902    2    1    2    0    0  0.22994637621E-01  0.51651102901E-02  0.81543694185E-02  0.10189915665E+01  0.10186863537E+01 0.  0.
     999903    2    3    3    0    0 -0.29391962665E-01 -0.11453461756E+00  0.46376761588E-01  0.12852352555E+00  0.19632282463E-01 0.  0.
         14    1    1    2    0    0 -0.22994637621E-01 -0.51651102901E-02 -0.81543694185E-02  0.24938433476E-01  0.00000000000E+00 0. -1.
     999901    1    3    3    0    0  0.52386600286E-01  0.11969972785E+00 -0.38222392169E-01  0.89046804098E+00  0.88000000000E+00 0.  1.
        -11    1    4    4    0    0 -0.66952286269E-03 -0.39596291565E-01  0.15782181499E-01  0.42633941179E-01  0.51100000000E-03 0.  1.
         11    1    4    4    0    0 -0.28722439802E-01 -0.74938325996E-01  0.30594580089E-01  0.85889584369E-01  0.51100000000E-03 0. -1.
</event>
<event>
 8    1  0.1157726E+005  0.1043930E+01  0.7957747E-01            NaN
         13   -1    0    0    0    0  0.00000000000E+00  0.00000000000E+00  0.74505805969E-08  0.10566000000E+00  0.10566000000E+00 0. -1.
     999900   -1    0    0    0    0 -0.00000000000E+00 -0.00000000000E+00 -0.74505805969E-08  0.93827000000E+00  0.93827000000E+00 0. -1.
     999902    2    1    2    0    0  0.14536175505E-01  0.61198758334E-02 -0.17572022405E-01  0.10203179427E+01  0.10200446926E+01 0.  0.
     999903    2    3    3    0    0 -0.38292287116E-01  0.11758569613E+00  0.35227623745E-01  0.13014757800E+00  0.20117440111E-01 0.  0.
         14    1    1    2    0    0 -0.14536175505E-01 -0.61198758334E-02  0.17572022405E-01  0.23612057300E-01  0.00000000000E+00 0.  1.
     999901    1    3    3    0    0  0.52828462621E-01 -0.11146582030E+00 -0.52799646149E-01  0.89017036470E+00  0.88000000000E+00 0. -1.
        -11    1    4    4    0    0 -0.16558220689E-01  0.27666233960E-01  0.14430954793E-01  0.35328582637E-01  0.51100000000E-03 0. -1.
         11    1    4    4    0    0 -0.21734066427E-01  0.89919462174E-01  0.20796668952E-01  0.94818995362E-01  0.51100000000E-03 0.  1.
</event>
<event>
 8    1  0.1157726E+005  0.1043930E+01  0.7957747E-01            NaN
         13   -1    0    0    0    0  0.00000000000E+00  0.00000000000E+00  0.74505805969E-08  0.10566000000E+00  0.10566000000E+00 0.  1.
     999900   -1    0    0    0    0 -0.00000000000E+00 -0.00000000000E+00 -0.74505805969E-08  0.93827000000E+00  0.93827000000E+00 0.  1.
     999902    2    1    2    0    0  0.18644344236E-01 -0.13796284602E-01 -0.11164457814E-01  0.10181890956E+01  0.10178636649E+01 0.  0.
     999903    2    3    3    0    0  0.20281089422E-02  0.23701809231E-01 -0.12595148384E+00  0.12978700890E+00  0.20371607969E-01 0.  0.
         14    1    1    2    0    0 -0.18644344236E-01  0.13796284602E-01  0.11164457814E-01  0.25740904396E-01  0.00000000000E+00 0.  1.
     999901    1    3    3    0    0  0.16616235294E-01 -0.37498093833E-01  0.11478702603E+00  0.88840208670E+00  0.88000000000E+00 0. -1.
        -11    1    4    4    0    0  0.11024421138E-01  0.15811911938E-01 -0.73739891202E-01  0.76219335447E-01  0.51100000000E-03 0.  1.
         11    1    4    4    0    0 -0.89963121959E-02  0.78898972939E-02 -0.52211592638E-01  0.53567673453E-01  0.51100000000E-03 0. -1.
</event>
<event>
 8    1  0.1157726E+005  0.1043930E+01  0.7957747E-01            NaN
         13   -1    0    0    0    0  0.00000000000E+00  0.00000000000E+00  0.74505805969E-08  0.10566000000E+00  0.10566000000E+00 0. -1.
     999900   -1    0    0    0    0 -0.00000000000E+00 -0.00000000000E+00 -0.74505805969E-08  0.93827000000E+00  0.93827000000E+00 0.  1.
     999902    2    1    2    0    0 -0.43227612484E-02 -0.17575780345E-01 -0.15958226649E-01  0.10197999499E+01  0.10195144327E+01 0.  0.
     999903    2    3    3    0    0 -0.15812457295E-01  0.11618882928E+00 -0.49800328055E-01  0.12897433750E+00  0.20110425220E-01 0.  0.
         14    1    1    2    0    0  0.43227612484E-02  0.17575780345E-01  0.15958226649E-01  0.24130050090E-01  0.00000000000E+00 0. -1.
     999901    1    3    3    0    0  0.11489696046E-01 -0.13376460963E+00  0.33842101406E-01  0.89082561241E+00  0.88000000000E+00 0. -1.
        -11    1    4    4    0    0 -0.15037764434E-01  0.41316142336E-01 -0.21266376229E-01  0.48843401352E-01  0.51100000000E-03 0. -1.
         11    1    4    4    0    0 -0.77469286084E-03  0.74872686947E-01 -0.28533951826E-01  0.80130936145E-01  0.51100000000E-03 0.  1.
</event>
<event>
 8    1  0.1157726E+005  0.1043930E+01  0.7957747E-01            NaN
         13   -1    0    0    0    0  0.00000000000E+00  0.00000000000E+00  0.74505805969E-08  0.10566000000E+00  0.10566000000E+00 0.  1.
     999900   -1    0    0    0    0 -0.00000000000E+00 -0.00000000000E+00 -0.74505805969E-08  0.93827000000E+00  0.93827000000E+00 0.  1.
     999902    2    1    2    0    0 -0.20531733952E-01  0.10855892636E-01 -0.42067494508E-02  0.10203270501E+01  0.10200540132E+01 0.  0.
     999903    2    3    3    0    0  0.70417527700E-01 -0.67511442301E-01  0.80412272655E-01  0.12815353205E+00  0.20994550085E-01 0.  0.
         14    1    1    2    0    0  0.20531733952E-01 -0.10855892636E-01  0.42067494508E-02  0.23602949920E-01  0.00000000000E+00 0.  1.
     999901    1    3    3    0    0 -0.90949261652E-01  0.78367334936E-01 -0.84619022106E-01  0.89217351803E+00  0.88000000000E+00 0.  1.
        -11    1    4    4    0    0  0.32742149464E-01 -0.45551354087E-01  0.47686842804E-01  0.73629276163E-01  0.51100000000E-03 0.  1.
         11    1    4    4    0    0  0.37675378237E-01 -0.21960088214E-01  0.32725429851E-01  0.54524255883E-01  0.51100000000E-03 0. -1.
</event>
<event>
 8    1  0.1157726E+005  0.1043930E+01  0.7957747E-01            NaN
         13   -1    0    0    0    0  0.00000000000E+00  0.00000000000E+00  0.74505805969E-08  0.10566000000E+00  0.10566000000E+00 0. -1.
     999900   -1    0    0    0    0 -0.00000000000E+00 -0.00000000000E+00 -0.74505805969E-08  0.93827000000E+00  0.93827000000E+00 0. -1.
     999902    2    1    2    0    0 -0.19340343559E-02 -0.18382009947E-03 -0.23389323303E-01  0.10204601316E+01  0.10201902006E+01 0.  0.
     999903    2    3    3    0    0 -0.80460878143E-01  0.10036152141E+00 -0.16171001021E-01  0.13123128867E+00  0.20341139641E-01 0.  0.
         14    1    1    2    0    0  0.19340343559E-02  0.18382009947E-03  0.23389323303E-01  0.23469868413E-01  0.00000000000E+00 0. -1.
     999901    1    3    3    0    0  0.78526843787E-01 -0.10054534151E+00 -0.72183222824E-02  0.88922884291E+00  0.88000000000E+00 0. -1.
        -11    1    4    4    0    0 -0.84447451431E-02  0.94164546388E-02 -0.79181962613E-02  0.14931252176E-01  0.51100000000E-03 0. -1.
         11    1    4    4    0    0 -0.72016133000E-01  0.90945066769E-01 -0.82528047596E-02  0.11630003650E+00  0.51100000000E-03 0.  1.
</event>
<event>
 7    1  0.1157726E+005  0.1043930E+01  0.7957747E-01            NaN
         13   -1    0    0    0    0  0.00000000000E+00  0.00000000000E+00  0.74505805969E-08  0.10566000000E+00  0.10566000000E+00 0. -1.
     999900   -1    0    0    0    0 -0.00000000000E+00 -0.00000000000E+00 -0.74505805969E-08  0.93827000000E+00  0.93827000000E+00 0.  1.
     999902    2    1    2    0    0 -0.16695698567E-01  0.15246904824E-01 -0.79276503946E-02  0.10199704070E+01  0.10196889570E+01 0.  0.
         14    1    1    2    0    0  0.16695698567E-01 -0.15246904824E-01  0.79276503946E-02  0.23959593029E-01  0.00000000000E+00 0. -1.
     999901    1    3    3    0    0  0.61441840483E-01  0.10658404309E+00  0.26097179797E-01  0.88894112336E+00  0.88000000000E+00 0.  1.
        -11    1    3    3    0    0 -0.46317833693E-01 -0.38982002636E-01 -0.34654469204E-01  0.69757663409E-01  0.51100000000E-03 0. -1.
         11    1    3    3    0    0 -0.31819705357E-01 -0.52355135632E-01  0.62963901204E-03  0.61271620203E-01  0.51100000000E-03 0.  1.
</event>
<event>
 8    1  0.1157726E+005  0.1043930E+01  0.7957747E-01            NaN
         13   -1    0    0    0    0  0.00000000000E+00  0.00000000000E+00  0.74505805969E-08  0.10566000000E+00  0.10566000000E+00 0. -1.
     999900   -1    0    0    0    0 -0.00000000000E+00 -0.00000000000E+00 -0.74505805969E-08  0.93827000000E+00  0.93827000000E+00 0.  1.
     999902    2    1    2    0    0 -0.21498222847E-01  0.40532242436E-02 -0.91605639172E-02  0.10202125351E+01  0.10199368110E+01 0.  0.
     999903    2    3    3    0    0  0.10837041785E+00 -0.50136815628E-01  0.40202292313E-01  0.12766611282E+00  0.20604958364E-01 0.  0.
         14    1    1    2    0    0  0.21498222847E-01 -0.40532242436E-02  0.91605639172E-02  0.23717464950E-01  0.00000000000E+00 0. -1.
     999901    1    3    3    0    0 -0.12986864070E+00  0.54190039872E-01 -0.49362856230E-01  0.89254642223E+00  0.88000000000E+00 0.  1.
        -11    1    4    4    0    0  0.84273199678E-01 -0.30543042734E-01  0.24863162641E-01  0.93023048870E-01  0.51100000000E-03 0.  1.
         11    1    4    4    0    0  0.24097218173E-01 -0.19593772894E-01  0.15339129671E-01  0.34643063952E-01  0.51100000000E-03 0. -1.
</event>
<event>
 8    1  0.1157726E+005  0.1043930E+01  0.7957747E-01            NaN
         13   -1    0    0    0    0  0.00000000000E+00  0.00000000000E+00  0.74505805969E-08  0.10566000000E+00  0.10566000000E+00 0. -1.
     999900   -1    0    0    0    0 -0.00000000000E+00 -0.00000000000E+00 -0.74505805969E-08  0.93827000000E+00  0.93827000000E+00 0. -1.
     999902    2    1    2    0    0 -0.60633418660E-02  0.20296448861E-01 -0.10586057809E-01  0.10202493207E+01  0.10199744614E+01 0.  0.
     999903    2    3    3    0    0 -0.88110385971E-01  0.23335320851E-01  0.91709753012E-01  0.13052723766E+00  0.17852273172E-01 0.  0.
         14    1    1    2    0    0  0.60633418660E-02 -0.20296448861E-01  0.10586057809E-01  0.23680679274E-01  0.00000000000E+00 0. -1.
     999901    1    3    3    0    0  0.82047044105E-01 -0.30388719900E-02 -0.10229581082E+00  0.88972208307E+00  0.88000000000E+00 0. -1.
        -11    1    4    4    0    0 -0.67982547602E-01  0.23301032442E-01  0.63714662169E-01  0.96043657717E-01  0.51100000000E-03 0.  1.
         11    1    4    4    0    0 -0.20127838369E-01  0.34288409087E-04  0.27995090844E-01  0.34483579940E-01  0.51100000000E-03 0. -1.
</event>
<event>
 8    1  0.1157726E+005  0.1043930E+01  0.7957747E-01            NaN
         13   -1    0    0    0    0  0.00000000000E+00  0.00000000000E+00  0.74505805969E-08  0.10566000000E+00  0.10566000000E+00 0.  1.
     999900   -1    0    0    0    0 -0.00000000000E+00 -0.00000000000E+00 -0.74505805969E-08  0.93827000000E+00  0.93827000000E+00 0. -1.
     999902    2    1    2    0    0  0.55229935672E-02  0.22988358974E-01  0.45074758225E-02  0.10198616506E+01  0.10195776090E+01 0.  0.
     999903    2    3    3    0    0 -0.25153259528E-01  0.10282450622E+00  0.77362877681E-01  0.13271862236E+00  0.20582816487E-01 0.  0.
         14    1    1    2    0    0 -0.55229935672E-02 -0.22988358974E-01 -0.45074758225E-02  0.24068349436E-01  0.00000000000E+00 0. -1.
     999901    1    3    3    0    0  0.30676253095E-01 -0.79836147243E-01 -0.72855401859E-01  0.88714302820E+00  0.88000000000E+00 0. -1.
        -11    1    4    4    0    0 -0.56479963440E-02  0.64802611092E-01  0.48705018790E-01  0.81263265030E-01  0.51100000000E-03 0. -1.
         11    1    4    4    0    0 -0.19505263184E-01  0.38021895125E-01  0.28657858891E-01  0.51455357330E-01  0.51100000000E-03 0.  1.
</event>
<event>
 8    1  0.1157726E+005  0.1043930E+01  0.7957747E-01            NaN
         13   -1    0    0    0    0  0.00000000000E+00  0.00000000000E+00  0.74505805969E-08  0.10566000000E+00  0.10566000000E+00 0.  1.
     999900   -1    0    0    0    0 -0.00000000000E+00 -0.00000000000E+00 -0.74505805969E-08  0.93827000000E+00  0.93827000000E+00 0. -1.
     999902    2    1    2    0    0 -0.86823587921E-02  0.21609149884E-01  0.45229417185E-02  0.10202066842E+01  0.10199308225E+01 0.  0.
     999903    2    3    3    0    0  0.10211001001E+00  0.16027796040E-01 -0.75659093809E-01  0.12962526771E+00  0.19876296509E-01 0.  0.
         14    1    1    2    0    0  0.86823587921E-02 -0.21609149884E-01 -0.45229417185E-02  0.23723315845E-01  0.00000000000E+00 0. -1.
     999901    1    3    3    0    0 -0.11079236880E+00  0.55813538441E-02  0.80182035528E-01  0.89058141644E+00  0.88000000000E+00 0.  1.
        -11    1    4    4    0    0  0.93153097356E-01  0.17417930142E-01 -0.62083801324E-01  0.11329405697E+00  0.51100000000E-03 0. -1.
         11    1    4    4    0    0  0.89569126537E-02 -0.13901341026E-02 -0.13575292485E-01  0.16331210738E-01  0.51100000000E-03 0.  1.
</event>
<event>
 8    1  0.1157726E+005  0.1043930E+01  0.7957747E-01            NaN
         13   -1    0    0    0    0  0.00000000000E+00  0.00000000000E+00  0.74505805969E-08  0.10566000000E+00  0.10566000000E+00 0.  1.
     999900   -1    0    0    0    0 -0.00000000000E+00 -0.00000000000E+00 -0.74505805969E-08  0.93827000000E+00  0.93827000000E+00 0.  1.
     999902    2    1    2    0    0  0.87023581696E-02  0.14265437407E-01 -0.16485030048E-01  0.10204568247E+01  0.10201868168E+01 0.  0.
     999903    2    3    3    0    0  0.11046598699E+00  0.59025946257E-01 -0.40591160406E-01  0.13313476096E+00  0.19759191785E-01 0.  0.
         14    1    1    2    0    0 -0.87023581696E-02 -0.14265437407E-01  0.16485030048E-01  0.23473175282E-01  0.00000000000E+00 0.  1.
     999901    1    3    3    0    0 -0.10176362882E+00 -0.44760508850E-01  0.24106130358E-01  0.88732206375E+00  0.88000000000E+00 0. -1.
        -11    1    4    4    0    0  0.51914191552E-01  0.33024501867E-01 -0.10765029674E-01  0.62464774016E-01  0.51100000000E-03 0.  1.
         11    1    4    4    0    0  0.58551795441E-01  0.26001444390E-01 -0.29826130732E-01  0.70669986948E-01  0.51100000000E-03 0. -1.
</event>
<event>
 8    1  0.1157726E+005  0.1043930E+01  0.7957747E-01            NaN
         13   -1    0    0    0    0  0.00000000000E+00  0.00000000000E+00  0.74505805969E-08  0.10566000000E+00  0.10566000000E+00 0.  1.
     999900   -1    0    0    0    0 -0.00000000000E+00 -0.00000000000E+00 -0.74505805969E-08  0.93827000000E+00  0.93827000000E+00 0. -1.
     999902    2    1    2    0    0 -0.58794543461E-03  0.12388753915E-01  0.20887419913E-01  0.10196377952E+01  0.10193483812E+01 0.  0.
     999903    2    3    3    0    0  0.98485948711E-01 -0.80048789299E-01  0.13687941562E-01  0.12923779049E+00  0.20192968713E-01 0.  0.
         14    1    1    2    0    0  0.58794543461E-03 -0.12388753915E-01 -0.20887419913E-01  0.24292204799E-01  0.00000000000E+00 0. -1.
     999901    1    3    3    0    0 -0.99073894145E-01  0.92437543214E-01  0.71994783507E-02  0.89040000471E+00  0.88000000000E+00 0.  1.
        -11    1    4    4    0    0  0.21511243567E-01 -0.29132453621E-01  0.35848431802E-02  0.36394308283E-01  0.51100000000E-03 0.  1.
         11    1    4    4    0    0  0.76974705143E-01 -0.50916335678E-01  0.10103098382E-01  0.92843482209E-01  0.51100000000E-03 0. -1.
</event>
<event>
 8    1  0.1157726E+005  0.1043930E+01  0.7957747E-01            NaN
         13   -1    0    0    0    0  0.00000000000E+00  0.00000000000E+00  0.74505805969E-08  0.10566000000E+00  0.10566000000E+00 0. -1.
     999900   -1    0    0    0    0 -0.00000000000E+00 -0.00000000000E+00 -0.74505805969E-08  0.93827000000E+00  0.93827000000E+00 0. -1.
     999902    2    1    2    0    0  0.13654420060E-01 -0.17782540368E-01  0.39753747441E-02  0.10211601618E+01  0.10209062692E+01 0.  0.
     999903    2    3    3    0    0  0.10110125366E+00 -0.84768031757E-01 -0.57901592618E-02  0.13423887415E+00  0.24072114331E-01 0.  0.
         14    1    1    2    0    0 -0.13654420060E-01  0.17782540368E-01 -0.39753747441E-02  0.22769838240E-01  0.00000000000E+00 0.  1.
     999901    1    3    3    0    0 -0.87446833602E-01  0.66985491390E-01  0.97655340059E-02  0.88692128761E+00  0.88000000000E+00 0.  1.
        -11    1    4    4    0    0  0.29262827448E-01 -0.18329219641E-01 -0.11013840374E-01  0.36246919368E-01  0.51100000000E-03 0. -1.
         11    1    4    4    0    0  0.71838426214E-01 -0.66438812117E-01  0.52236811121E-02  0.97991954781E-01  0.51100000000E-03 0.  1.
</event>
<event>
 8    1  0.1157726E+005  0.1043930E+01  0.7957747E-01            NaN
         13   -1    0    0    0    0  0.00000000000E+00  0.00000000000E+00  0.74505805969E-08  0.10566000000E+00  0.10566000000E+00 0. -1.
     999900   -1    0    0    0    0 -0.00000000000E+00 -0.00000000000E+00 -0.74505805969E-08  0.93827000000E+00  0.93827000000E+00 0. -1.
     999902    2    1    2    0    0 -0.25501703243E-02 -0.19428308547E-01  0.13253893120E-01  0.10202735374E+01  0.10199992465E+01 0.  0.
     999903    2    3    3    0    0  0.11484274185E-01 -0.12686160010E+00 -0.29949446999E-01  0.13257685135E+00  0.21304882185E-01 0.  0.
         14    1    1    2    0    0  0.25501703243E-02  0.19428308547E-01 -0.13253893120E-01  0.23656462637E-01  0.00000000000E+00 0.  1.
     999901    1    3    3    0    0 -0.14034444509E-01  0.10743329155E+00  0.43203340119E-01  0.88769668602E+00  0.88000000000E+00 0.  1.
        -11    1    4    4    0    0 -0.26602450420E-02 -0.76975699303E-01 -0.13673456417E-01  0.78227614806E-01  0.51100000000E-03 0. -1.
         11    1    4    4    0    0  0.14144519227E-01 -0.49885900794E-01 -0.16275990582E-01  0.54349236541E-01  0.51100000000E-03 0.  1.
</event>
<event>
 8    1  0.1157726E+005  0.1043930E+01  0.7957747E-01            NaN
         13   -1    0    0    0    0  0.00000000000E+00  0.00000000000E+00  0.74505805969E-08  0.10566000000E+00  0.10566000000E+00 0. -1.
     999900   -1    0    0    0    0 -0.00000000000E+00 -0.00000000000E+00 -0.74505805969E-08  0.93827000000E+00  0.93827000000E+00 0.  1.
     999902    2    1    2    0    0 -0.43239502670E-02 -0.68060747599E-02 -0.21805385434E-01  0.10206814724E+01  0.10204166669E+01 0.  0.
     999903    2    3    3    0    0 -0.82013496070E-01 -0.98724731350E-01  0.19673996595E-01  0.13152161950E+00  0.20930459525E-01 0.  0.
         14    1    1    2    0    0  0.43239502670E-02  0.68060747599E-02  0.21805385434E-01  0.23248527555E-01  0.00000000000E+00 0. -1.
     999901    1    3    3    0    0  0.77689545803E-01  0.91918656590E-01 -0.41479382030E-01  0.88915985295E+00  0.88000000000E+00 0.  1.
        -11    1    4    4    0    0 -0.70891464496E-01 -0.71876479850E-01  0.16251165243E-01  0.10225551128E+00  0.51100000000E-03 0.  1.
         11    1    4    4    0    0 -0.11122031574E-01 -0.26848251500E-01  0.34228313525E-02  0.29266108221E-01  0.51100000000E-03 0. -1.
</event>
<event>
 8    1  0.1157726E+005  0.1043930E+01  0.7957747E-01            NaN
         13   -1    0    0    0    0  0.00000000000E+00  0.00000000000E+00  0.74505805969E-08  0.10566000000E+00  0.10566000000E+00 0.  1.
     999900   -1    0    0    0    0 -0.00000000000E+00 -0.00000000000E+00 -0.74505805969E-08  0.93827000000E+00  0.93827000000E+00 0.  1.
     999902    2    1    2    0    0  0.97092399483E-02 -0.21225622531E-01 -0.46339583077E-02  0.10201335725E+01  0.10198559878E+01 0.  0.
     999903    2    3    3    0    0  0.10639036365E+00 -0.10220228558E-01  0.73604991266E-01  0.13131992971E+00  0.20096433800E-01 0.  0.
         14    1    1    2    0    0 -0.97092399483E-02  0.21225622531E-01  0.46339583077E-02  0.23796427501E-01  0.00000000000E+00 0.  1.
     999901    1    3    3    0    0 -0.96681123698E-01 -0.11005393973E-01 -0.78238949574E-01  0.88881364279E+00  0.88000000000E+00 0. -1.
        -11    1    4    4    0    0  0.75772906443E-01 -0.68041313634E-05  0.58235756847E-01  0.95567765976E-01  0.51100000000E-03 0. -1.
         11    1    4    4    0    0  0.30617457203E-01 -0.10213424427E-01  0.15369234420E-01  0.35752163735E-01  0.51100000000E-03 0.  1.
</event>
<event>
 8    1  0.1157726E+005  0.1043930E+01  0.7957747E-01            NaN
         13   -1    0    0    0    0  0.00000000000E+00  0.00000000000E+00  0.74505805969E-08  0.10566000000E+00  0.10566000000E+00 0.  1.
     999900   -1    0    0    0    0 -0.00000000000E+00 -0.00000000000E+00 -0.74505805969E-08  0.93827000000E+00  0.93827000000E+00 0. -1.
     999902    2    1    2    0    0 -0.14529038925E-01  0.15419892432E-01 -0.80918435125E-02  0.10212508469E+01  0.10209989952E+01 0.  0.
     999903    2    3    3    0    0 -0.87722129612E-02  0.55408137264E-01  0.11721755896E+00  0.13145612498E+00  0.19842965300E-01 0.  0.
         14    1    1    2    0    0  0.14529038925E-01 -0.15419892432E-01  0.80918435125E-02  0.22679153117E-01  0.00000000000E+00 0. -1.
     999901    1    3    3    0    0 -0.57568259636E-02 -0.39988244832E-01 -0.12530940247E+00  0.88979472190E+00  0.88000000000E+00 0. -1.
        -11    1    4    4    0    0  0.54100292468E-02  0.28302817942E-01  0.53274038555E-01  0.60569812818E-01  0.51100000000E-03 0. -1.
         11    1    4    4    0    0 -0.14182242208E-01  0.27105319322E-01  0.63943520406E-01  0.70886312166E-01  0.51100000000E-03 0.  1.
</event>
<event>
 8    1  0.1157726E+005  0.1043930E+01  0.7957747E-01            NaN
         13   -1    0    0    0    0  0.00000000000E+00  0.00000000000E+00  0.74505805969E-08  0.10566000000E+00  0.10566000000E+00 0. -1.
     999900   -1    0    0    0    0 -0.00000000000E+00 -0.00000000000E+00 -0.74505805969E-08  0.93827000000E+00  0.93827000000E+00 0.  1.
     999902    2    1    2    0    0  0.24497119937E-01  0.32770793219E-02 -0.37394593374E-02  0.10189333664E+01  0.10186267096E+01 0.  0.
     999903    2    3    3    0    0  0.29044728854E-04 -0.10492860438E+00  0.72060319320E-01  0.12873520695E+00  0.19236710386E-01 0.  0.
         14    1    1    2    0    0 -0.24497119937E-01 -0.32770793219E-02  0.37394593374E-02  0.24996633578E-01  0.00000000000E+00 0.  1.
     999901    1    3    3    0    0  0.24468075208E-01  0.10820568370E+00 -0.75799778657E-01  0.89019815948E+00  0.88000000000E+00 0.  1.
        -11    1    4    4    0    0 -0.58822186041E-02 -0.93796198571E-01  0.61872393881E-01  0.11252013868E+00  0.51100000000E-03 0.  1.
         11    1    4    4    0    0  0.59112633329E-02 -0.11132405808E-01  0.10187925439E-01  0.16215068270E-01  0.51100000000E-03 0. -1.
</event>
<event>
 8    1  0.1157726E+005  0.1043930E+01  0.7957747E-01            NaN
         13   -1    0    0    0    0  0.00000000000E+00  0.00000000000E+00  0.74505805969E-08  0.10566000000E+00  0.10566000000E+00 0. -1.
     999900   -1    0    0    0    0 -0.00000000000E+00 -0.00000000000E+00 -0.74505805969E-08  0.93827000000E+00  0.93827000000E+00 0. -1.
     999902    2    1    2    0    0 -0.18573727268E-01  0.31470947506E-02 -0.15584387377E-01  0.10194808552E+01  0.10191876439E+01 0.  0.
     999903    2    3    3    0    0 -0.10603021843E+00  0.51583806330E-01  0.53874855590E-01  0.13110067799E+00  0.19534364829E-01 0.  0.
         14    1    1    2    0    0  0.18573727268E-01 -0.31470947506E-02  0.15584387377E-01  0.24449144768E-01  0.00000000000E+00 0. -1.
     999901    1    3    3    0    0  0.87456491165E-01 -0.48436711579E-01 -0.69459242967E-01  0.88838017724E+00  0.88000000000E+00 0. -1.
        -11    1    4    4    0    0 -0.34684517255E-01  0.81263263637E-02  0.20772222625E-01  0.41240747704E-01  0.51100000000E-03 0.  1.
         11    1    4    4    0    0 -0.71345701178E-01  0.43457479966E-01  0.33102632964E-01  0.89859930290E-01  0.51100000000E-03 0. -1.
</event>
<event>
 8    1  0.1157726E+005  0.1043930E+01  0.7957747E-01            NaN
         13   -1    0    0    0    0  0.00000000000E+00  0.00000000000E+00  0.74505805969E-08  0.10566000000E+00  0.10566000000E+00 0. -1.
     999900   -1    0    0    0    0 -0.00000000000E+00 -0.00000000000E+00 -0.74505805969E-08  0.93827000000E+00  0.93827000000E+00 0. -1.
     999902    2    1    2    0    0  0.19183256420E-02  0.15218102355E-01 -0.18186353992E-01  0.10201389495E+01  0.10198614917E+01 0.  0.
     999903    2    3    3    0    0  0.68188360226E-01 -0.92432712119E-01 -0.58037388440E-01  0.13021281757E+00  0.19838867465E-01 0.  0.
         14    1    1    2    0    0 -0.19183256420E-02 -0.15218102355E-01  0.18186353992E-01  0.23791050504E-01  0.00000000000E+00 0. -1.
     999901    1    3    3    0    0 -0.66270034584E-01  0.10765081447E+00  0.39851034449E-01  0.88992613193E+00  0.88000000000E+00 0.  1.
        -11    1    4    4    0    0  0.18338163123E-01 -0.34651639719E-01 -0.11635654644E-01  0.40898336665E-01  0.51100000000E-03 0.  1.
         11    1    4    4    0    0  0.49850197103E-01 -0.57781072400E-01 -0.46401733796E-01  0.89314480904E-01  0.51100000000E-03 0. -1.
</event>
<event>
 8    1  0.1157726E+005  0.1043930E+01  0.7957747E-01            NaN
         13   -1    0    0    0    0  0.00000000000E+00  0.00000000000E+00  0.74505805969E-08  0.10566000000E+00  0.10566000000E+00 0. -1.
     999900   -1    0    0    0    0 -0.00000000000E+00 -0.00000000000E+00 -0.74505805969E-08  0.93827000000E+00  0.93827000000E+00 0.  1.
     999902    2    1    2    0    0 -0.14093990211E-01  0.19341346755E-01 -0.14414091857E-02  0.10199548897E+01  0.10196730707E+01 0.  0.
     999903    2    3    3    0    0 -0.12849556449E+00  0.21028248630E-01  0.13943466429E-01  0.13241488482E+00  0.19646478866E-01 0.  0.
         14    1    1    2    0    0  0.14093990211E-01 -0.19341346755E-01  0.14414091857E-02  0.23975110319E-01  0.00000000000E+00 0.  1.
     999901    1    3    3    0    0  0.11440157428E+00 -0.16869018746E-02 -0.15384875615E-01  0.88754000486E+00  0.88000000000E+00 0.  1.
        -11    1    4    4    0    0 -0.45186859703E-01  0.16849224152E-01  0.65793760481E-02  0.48675434816E-01  0.51100000000E-03 0. -1.
         11    1    4    4    0    0 -0.83308704785E-01  0.41790244777E-02  0.73640903808E-02  0.83739450002E-01  0.51100000000E-03 0.  1.
</event>
<event>
 7    1  0.1157726E+005  0.1043930E+01  0.7957747E-01            NaN
         13   -1    0    0    0    0  0.00000000000E+00  0.00000000000E+00  0.74505805969E-08  0.10566000000E+00  0.10566000000E+00 0. -1.
     999900   -1    0    0    0    0 -0.00000000000E+00 -0.00000000000E+00 -0.74505805969E-08  0.93827000000E+00  0.93827000000E+00 0. -1.
     999903    2    1    2    0    0  0.37934467901E-01  0.10079478307E+00 -0.40129634072E-01  0.11672097093E+00  0.20366280346E-01 0.  0.
         14    1    1    2    0    0 -0.39198659869E-01 -0.85487018734E-02 -0.86537911256E-02  0.41042701423E-01  0.00000000000E+00 0. -1.
     999901    1    1    2    0    0  0.12641919679E-02 -0.92246081198E-01  0.48783425197E-01  0.88616632764E+00  0.88000000000E+00 0.  1.
        -11    1    3    3    0    0  0.16123055888E-01  0.21136112248E-01 -0.14264483503E-01  0.30173246142E-01  0.51100000000E-03 0.  1.
         11    1    3    3    0    0  0.21811412013E-01  0.79658670823E-01 -0.25865150569E-01  0.86547724790E-01  0.51100000000E-03 0. -1.
</event>
<event>
 8    1  0.1157726E+005  0.1043930E+01  0.7957747E-01            NaN
         13   -1    0    0    0    0  0.00000000000E+00  0.00000000000E+00  0.74505805969E-08  0.10566000000E+00  0.10566000000E+00 0.  1.
     999900   -1    0    0    0    0 -0.00000000000E+00 -0.00000000000E+00 -0.74505805969E-08  0.93827000000E+00  0.93827000000E+00 0. -1.
     999902    2    1    2    0    0 -0.99977761685E-02  0.18093981568E-01 -0.98473646062E-02  0.10210320026E+01  0.10207752113E+01 0.  0.
     999903    2    3    3    0    0  0.79997648762E-01  0.10232071100E+00 -0.13162464143E-01  0.13243518265E+00  0.22286216216E-01 0.  0.
         14    1    1    2    0    0  0.99977761685E-02 -0.18093981568E-01  0.98473646062E-02  0.22897997445E-01  0.00000000000E+00 0.  1.
     999901    1    3    3    0    0 -0.89995424931E-01 -0.84226729436E-01  0.33150995366E-02  0.88859681990E+00  0.88000000000E+00 0.  1.
        -11    1    4    4    0    0  0.19218114173E-01  0.29306583452E-01  0.58900603968E-02  0.35541042169E-01  0.51100000000E-03 0. -1.
         11    1    4    4    0    0  0.60779534590E-01  0.73014127553E-01 -0.19052524540E-01  0.96894140481E-01  0.51100000000E-03 0.  1.
</event>
<event>
 8    1  0.1157726E+005  0.1043930E+01  0.7957747E-01            NaN
         13   -1    0    0    0    0  0.00000000000E+00  0.00000000000E+00  0.74505805969E-08  0.10566000000E+00  0.10566000000E+00 0.  1.
     999900   -1    0    0    0    0 -0.00000000000E+00 -0.00000000000E+00 -0.74505805969E-08  0.93827000000E+00  0.93827000000E+00 0.  1.
     999902    2    1    2    0    0  0.23493303601E-01 -0.85690751178E-03  0.67367626494E-02  0.10194748661E+01  0.10191815093E+01 0.  0.
     999903    2    3    3    0    0  0.11602828806E-01 -0.89900417325E-01 -0.90460069314E-01  0.12957748200E+00  0.19763325364E-01 0.  0.
         14    1    1    2    0    0 -0.23493303601E-01  0.85690751178E-03 -0.67367626494E-02  0.24455133931E-01  0.00000000000E+00 0.  1.
     999901    1    3    3    0    0  0.11890474795E-01  0.89043509813E-01  0.97196831964E-01  0.88989738407E+00  0.88000000000E+00 0. -1.
        -11    1    4    4    0    0  0.13343349384E-01 -0.66987293777E-01 -0.77046877679E-01  0.10296516392E+00  0.51100000000E-03 0.  1.
         11    1    4    4    0    0 -0.17405205783E-02 -0.22913123549E-01 -0.13413191635E-01  0.26612318078E-01  0.51100000000E-03 0. -1.
</event>
<event>
 8    1  0.1157726E+005  0.1043930E+01  0.7957747E-01            NaN
         13   -1    0    0    0    0  0.00000000000E+00  0.00000000000E+00  0.74505805969E-08  0.10566000000E+00  0.10566000000E+00 0.  1.
     999900   -1    0    0    0    0 -0.00000000000E+00 -0.00000000000E+00 -0.74505805969E-08  0.93827000000E+00  0.93827000000E+00 0.  1.
     999902    2    1    2    0    0 -0.21851214735E-01 -0.11262672825E-01 -0.71567345428E-02  0.10183264410E+01  0.10180045178E+01 0.  0.
     999903    2    3    3    0    0 -0.27703458938E-01 -0.10980081576E+00  0.60605263226E-01  0.13021850683E+00  0.21451359245E-01 0.  0.
         14    1    1    2    0    0  0.21851214735E-01  0.11262672825E-01  0.71567345428E-02  0.25603559008E-01  0.00000000000E+00 0.  1.
     999901    1    3    3    0    0  0.58522442033E-02  0.98538142930E-01 -0.67761997769E-01  0.88810793416E+00  0.88000000000E+00 0. -1.
        -11    1    4    4    0    0 -0.86430748925E-03 -0.32391542219E-01  0.99843496480E-02  0.33910284482E-01  0.51100000000E-03 0.  1.
         11    1    4    4    0    0 -0.26839151449E-01 -0.77409273536E-01  0.50620913578E-01  0.96308222351E-01  0.51100000000E-03 0. -1.
</event>
<event>
 8    1  0.1157726E+005  0.1043930E+01  0.7957747E-01            NaN
         13   -1    0    0    0    0  0.00000000000E+00  0.00000000000E+00  0.74505805969E-08  0.10566000000E+00  0.10566000000E+00 0. -1.
     999900   -1    0    0    0    0 -0.00000000000E+00 -0.00000000000E+00 -0.74505805969E-08  0.93827000000E+00  0.93827000000E+00 0.  1.
     999902    2    1    2    0    0  0.53742430029E-04 -0.26489708023E-02 -0.21512878911E-01  0.10222545786E+01  0.10220247549E+01 0.  0.
     999903    2    3    3    0    0  0.13007962005E+00 -0.94616011695E-02 -0.10169530088E-01  0.13260194281E+00  0.21670866251E-01 0.  0.
         14    1    1    2    0    0 -0.53742430029E-04  0.26489708023E-02  0.21512878911E-01  0.21675421417E-01  0.00000000000E+00 0. -1.
     999901    1    3    3    0    0 -0.13002587762E+00  0.68126303671E-02 -0.11343348823E-01  0.88965263578E+00  0.88000000000E+00 0.  1.
        -11    1    4    4    0    0  0.10374502061E+00 -0.12014541641E-01 -0.53901227477E-03  0.10444103680E+00  0.51100000000E-03 0.  1.
         11    1    4    4    0    0  0.26334599443E-01  0.25529404717E-02 -0.96305178135E-02  0.28160906009E-01  0.51100000000E-03 0. -1.
</event>
<event>
 8    1  0.1157726E+005  0.1043930E+01  0.7957747E-01            NaN
         13   -1    0    0    0    0  0.00000000000E+00  0.00000000000E+00  0.74505805969E-08  0.10566000000E+00  0.10566000000E+00 0. -1.
     999900   -1    0    0    0    0 -0.00000000000E+00 -0.00000000000E+00 -0.74505805969E-08  0.93827000000E+00  0.93827000000E+00 0. -1.
     999902    2    1    2    0    0 -0.23400310156E-01  0.41449247665E-02  0.22961702684E-02  0.10200547552E+01  0.10197753068E+01 0.  0.
     999903    2    3    3    0    0  0.11826542366E+00  0.13774158603E-01 -0.40884535272E-01  0.12762746089E+00  0.20994896322E-01 0.  0.
         14    1    1    2    0    0  0.23400310156E-01 -0.41449247665E-02 -0.22961702684E-02  0.23875244808E-01  0.00000000000E+00 0. -1.
     999901    1    3    3    0    0 -0.14166573381E+00 -0.96292338370E-02  0.43180705540E-01  0.89242729430E+00  0.88000000000E+00 0.  1.
        -11    1    4    4    0    0  0.67243098473E-01  0.16679157698E-01 -0.17705131288E-01  0.71509169963E-01  0.51100000000E-03 0.  1.
         11    1    4    4    0    0  0.51022325183E-01 -0.29049990948E-02 -0.23179403983E-01  0.56118290930E-01  0.51100000000E-03 0. -1.
</event>
<event>
 7    1  0.1157726E+005  0.1043930E+01  0.7957747E-01            NaN
         13   -1    0    0    0    0  0.00000000000E+00  0.00000000000E+00  0.74505805969E-08  0.10566000000E+00  0.10566000000E+00 0.  1.
     999900   -1    0    0    0    0 -0.00000000000E+00 -0.00000000000E+00 -0.74505805969E-08  0.93827000000E+00  0.93827000000E+00 0.  1.
     999903    2    1    2    0    0  0.35919929786E-01 -0.65422093349E-01 -0.80257416413E-01  0.11141267271E+00  0.20030953480E-01 0.  0.
         14    1    1    2    0    0 -0.40070540323E-01  0.33111071273E-03  0.27356159437E-01  0.48519246647E-01  0.00000000000E+00 0.  1.
     999901    1    1    2    0    0  0.41506105366E-02  0.65090982637E-01  0.52901256977E-01  0.88399808064E+00  0.88000000000E+00 0. -1.
        -11    1    3    3    0    0  0.31577607907E-01 -0.38721177834E-01 -0.47696016707E-01  0.69077102319E-01  0.51100000000E-03 0. -1.
         11    1    3    3    0    0  0.43423218786E-02 -0.26700915516E-01 -0.32561399706E-01  0.42335570393E-01  0.51100000000E-03 0.  1.
</event>
<event>
 8    1  0.1157726E+005  0.1043930E+01  0.7957747E-01            NaN
         13   -1    0    0    0    0  0.00000000000E+00  0.00000000000E+00  0.74505805969E-08  0.10566000000E+00  0.10566000000E+00 0.  1.
     999900   -1    0    0    0    0 -0.00000000000E+00 -0.00000000000E+00 -0.74505805969E-08  0.93827000000E+00  0.93827000000E+00 0. -1.
     999902    2    1    2    0    0  0.58861101108E-02  0.10955791334E-01  0.13989176466E-01  0.10252117545E+01  0.10250408621E+01 0.  0.
     999903    2    3    3    0    0 -0.84734330536E-02 -0.55530023362E-01  0.12175603261E+00  0.13603221397E+00  0.22909587473E-01 0.  0.
         14    1    1    2    0    0 -0.58861101108E-02 -0.10955791334E-01 -0.13989176466E-01  0.18718245489E-01  0.00000000000E+00 0. -1.
     999901    1    3    3    0    0  0.14359543164E-01  0.66485814696E-01 -0.10776685614E+00  0.88917954054E+00  0.88000000000E+00 0. -1.
        -11    1    4    4    0    0  0.11998213275E-02  0.17503318067E-02  0.81124501230E-02  0.84009642690E-02  0.51100000000E-03 0.  1.
         11    1    4    4    0    0 -0.96732543812E-02 -0.57280355169E-01  0.11364358249E+00  0.12763124970E+00  0.51100000000E-03 0. -1.
</event>
<event>
 8    1  0.1157726E+005  0.1043930E+01  0.7957747E-01            NaN
         13   -1    0    0    0    0  0.00000000000E+00  0.00000000000E+00  0.74505805969E-08  0.10566000000E+00  0.10566000000E+00 0.  1.
     999900   -1    0    0    0    0 -0.00000000000E+00 -0.00000000000E+00 -0.74505805969E-08  0.93827000000E+00  0.93827000000E+00 0. -1.
     999902    2    1    2    0    0  0.18943815585E-01  0.11092398827E-02  0.12475732389E-01  0.10212200361E+01  0.10209674920E+01 0.  0.
     999903    2    3    3    0    0  0.32346029144E-01  0.12634696597E+00  0.60843939257E-02  0.13222905944E+00  0.20920872321E-01 0.  0.
         14    1    1    2    0    0 -0.18943815585E-01 -0.11092398827E-02 -0.12475732389E-01  0.22709963908E-01  0.00000000000E+00 0. -1.
     999901    1    3    3    0    0 -0.13402213559E-01 -0.12523772609E+00  0.63913384629E-02  0.88899097665E+00  0.88000000000E+00 0.  1.
        -11    1    4    4    0    0  0.11740994800E-01  0.64748779457E-01  0.12410299894E-01  0.66966648897E-01  0.51100000000E-03 0.  1.
         11    1    4    4    0    0  0.20605034344E-01  0.61598186516E-01 -0.63259059682E-02  0.65262410541E-01  0.51100000000E-03 0. -1.
</event>
<event>
 8    1  0.1157726E+005  0.1043930E+01  0.7957747E-01            NaN
         13   -1    0    0    0    0  0.00000000000E+00  0.00000000000E+00  0.74505805969E-08  0.10566000000E+00  0.10566000000E+00 0. -1.
     999900   -1    0    0    0    0 -0.00000000000E+00 -0.00000000000E+00 -0.74505805969E-08  0.93827000000E+00  0.93827000000E+00 0. -1.
     999902    2    1    2    0    0 -0.56219834066E-02  0.78925194210E-03 -0.22544026271E-01  0.10206821455E+01  0.10204173555E+01 0.  0.
     999903    2    3    3    0    0  0.87559239919E-01  0.79386105002E-01 -0.54447414909E-01  0.13170631241E+00  0.20328737705E-01 0.  0.
         14    1    1    2    0    0  0.56219834066E-02 -0.78925194210E-03  0.22544026271E-01  0.23247854451E-01  0.00000000000E+00 0. -1.
     999901    1    3    3    0    0 -0.93181223326E-01 -0.78596853060E-01  0.31903388638E-01  0.88897583313E+00  0.88000000000E+00 0.  1.
        -11    1    4    4    0    0  0.66909176680E-01  0.50053881084E-01 -0.32558475542E-01  0.89680234089E-01  0.51100000000E-03 0.  1.
         11    1    4    4    0    0  0.20650063239E-01  0.29332223919E-01 -0.21888939367E-01  0.42026078325E-01  0.51100000000E-03 0. -1.
</event>
<event>
 8    1  0.1157726E+005  0.1043930E+01  0.7957747E-01            NaN
         13   -1    0    0    0    0  0.00000000000E+00  0.00000000000E+00  0.74505805969E-08  0.10566000000E+00  0.10566000000E+00 0. -1.
     999900   -1    0    0    0    0 -0.00000000000E+00 -0.00000000000E+00 -0.74505805969E-08  0.93827000000E+00  0.93827000000E+00 0. -1.
     999902    2    1    2    0    0 -0.75433891824E-02 -0.15388188438E-01 -0.14190695733E-01  0.10216797211E+01  0.10214374076E+01 0.  0.
     999903    2    3    3    0    0  0.90803188505E-01 -0.34666231405E-01  0.84645991858E-01  0.13049377921E+00  0.20413618814E-01 0.  0.
         14    1    1    2    0    0  0.75433891824E-02  0.15388188438E-01  0.14190695733E-01  0.22250278855E-01  0.00000000000E+00 0. -1.
     999901    1    3    3    0    0 -0.98346577688E-01  0.19278042967E-01 -0.98836687591E-01  0.89118594193E+00  0.88000000000E+00 0. -1.
        -11    1    4    4    0    0  0.84761590040E-01 -0.32035449649E-01  0.70261655741E-01  0.11466367589E+00  0.51100000000E-03 0.  1.
         11    1    4    4    0    0  0.60415984653E-02 -0.26307817564E-02  0.14384336117E-01  0.15830103322E-01  0.51100000000E-03 0. -1.
</event>
<event>
 8    1  0.1157726E+005  0.1043930E+01  0.7957747E-01            NaN
         13   -1    0    0    0    0  0.00000000000E+00  0.00000000000E+00  0.74505805969E-08  0.10566000000E+00  0.10566000000E+00 0. -1.
     999900   -1    0    0    0    0 -0.00000000000E+00 -0.00000000000E+00 -0.74505805969E-08  0.93827000000E+00  0.93827000000E+00 0.  1.
     999902    2    1    2    0    0  0.10970504335E-02  0.24530471168E-01  0.45625133892E-02  0.10189547310E+01  0.10186486046E+01 0.  0.
     999903    2    3    3    0    0 -0.11703580261E+00  0.49629443730E-01  0.21846789477E-01  0.13053811945E+00  0.20061346984E-01 0.  0.
         14    1    1    2    0    0 -0.10970504335E-02 -0.24530471168E-01 -0.45625133892E-02  0.24975269044E-01  0.00000000000E+00 0. -1.
     999901    1    3    3    0    0  0.11813285304E+00 -0.25098972561E-01 -0.17284276088E-01  0.88841661150E+00  0.88000000000E+00 0.  1.
        -11    1    4    4    0    0 -0.72697857868E-01  0.29261885278E-01  0.36240461558E-02  0.78451458241E-01  0.51100000000E-03 0. -1.
         11    1    4    4    0    0 -0.44337944743E-01  0.20367558451E-01  0.18222743321E-01  0.52086661214E-01  0.51100000000E-03 0.  1.
</event>
<event>
 8    1  0.1157726E+005  0.1043930E+01  0.7957747E-01            NaN
         13   -1    0    0    0    0  0.00000000000E+00  0.00000000000E+00  0.74505805969E-08  0.10566000000E+00  0.10566000000E+00 0. -1.
     999900   -1    0    0    0    0 -0.00000000000E+00 -0.00000000000E+00 -0.74505805969E-08  0.93827000000E+00  0.93827000000E+00 0.  1.
     999902    2    1    2    0    0  0.13566342422E-01  0.18343393776E-01  0.95293987825E-02  0.10192048067E+01  0.10189048547E+01 0.  0.
     999903    2    3    3    0    0 -0.95374859641E-01 -0.36428383838E-01 -0.73489059980E-01  0.12692671238E+00  0.16922097340E-01 0.  0.
         14    1    1    2    0    0 -0.13566342422E-01 -0.18343393776E-01 -0.95293987825E-02  0.24725193287E-01  0.00000000000E+00 0. -1.
     999901    1    3    3    0    0  0.10894120206E+00  0.54771777614E-01  0.83018458762E-01  0.89227809433E+00  0.88000000000E+00 0. -1.
        -11    1    4    4    0    0 -0.29359819438E-01 -0.11565582101E-01 -0.13504179878E-01  0.34327622725E-01  0.51100000000E-03 0.  1.
         11    1    4    4    0    0 -0.66015040204E-01 -0.24862801737E-01 -0.59984880101E-01  0.92599089656E-01  0.51100000000E-03 0. -1.
</event>
<event>
 8    1  0.1157726E+005  0.1043930E+01  0.7957747E-01            NaN
         13   -1    0    0    0    0  0.00000000000E+00  0.00000000000E+00  0.74505805969E-08  0.10566000000E+00  0.10566000000E+00 0.  1.
     999900   -1    0    0    0    0 -0.00000000000E+00 -0.00000000000E+00 -0.74505805969E-08  0.93827000000E+00  0.93827000000E+00 0. -1.
     999902    2    1    2    0    0 -0.13339179833E-02  0.13701786727E-01  0.20102810627E-01  0.10195652449E+01  0.10192740786E+01 0.  0.
     999903    2    3    3    0    0 -0.27946879955E-01  0.60305943597E-01  0.11356586795E+00  0.13299007026E+00  0.19269600172E-01 0.  0.
         14    1    1    2    0    0  0.13339179833E-02 -0.13701786727E-01 -0.20102810627E-01  0.24364755115E-01  0.00000000000E+00 0. -1.
     999901    1    3    3    0    0  0.26612961971E-01 -0.46604156870E-01 -0.93463057325E-01  0.88657517463E+00  0.88000000000E+00 0. -1.
        -11    1    4    4    0    0 -0.12397978417E-01  0.11960458162E-01  0.19018315838E-01  0.25665538891E-01  0.51100000000E-03 0.  1.
         11    1    4    4    0    0 -0.15548901538E-01  0.48345485435E-01  0.94547552114E-01  0.10732453137E+00  0.51100000000E-03 0. -1.
</event>
<event>
 8    1  0.1157726E+005  0.1043930E+01  0.7957747E-01            NaN
         13   -1    0    0    0    0  0.00000000000E+00  0.00000000000E+00  0.74505805969E-08  0.10566000000E+00  0.10566000000E+00 0.  1.
     999900   -1    0    0    0    0 -0.00000000000E+00 -0.00000000000E+00 -0.74505805969E-08  0.93827000000E+00  0.93827000000E+00 0. -1.
     999902    2    1    2    0    0 -0.57638080881E-02 -0.57466857999E-02  0.21859213749E-01  0.10206046681E+01  0.10203380898E+01 0.  0.
     999903    2    3    3    0    0 -0.12816857064E+00 -0.35682138746E-02  0.24848125592E-01  0.13212472731E+00  0.19989986810E-01 0.  0.
         14    1    1    2    0    0  0.57638080881E-02  0.57466857999E-02 -0.21859213749E-01  0.23325331875E-01  0.00000000000E+00 0. -1.
     999901    1    3    3    0    0  0.12240476255E+00 -0.21784719253E-02 -0.29889118432E-02  0.88847994081E+00  0.88000000000E+00 0.  1.
        -11    1    4    4    0    0 -0.65991901177E-01  0.33105106874E-02  0.21462382078E-01  0.69475070835E-01  0.51100000000E-03 0. -1.
         11    1    4    4    0    0 -0.62176669458E-01 -0.68787245620E-02  0.33857435140E-02  0.62649656476E-01  0.51100000000E-03 0.  1.
</event>
<event>
 8    1  0.1157726E+005  0.1043930E+01  0.7957747E-01            NaN
         13   -1    0    0    0    0  0.00000000000E+00  0.00000000000E+00  0.74505805969E-08  0.10566000000E+00  0.10566000000E+00 0.  1.
     999900   -1    0    0    0    0 -0.00000000000E+00 -0.00000000000E+00 -0.74505805969E-08  0.93827000000E+00  0.93827000000E+00 0. -1.
     999902    2    1    2    0    0  0.23313155294E-02 -0.93216818061E-02 -0.21815770529E-01  0.10200918661E+01  0.10198132960E+01 0.  0.
     999903    2    3    3    0    0 -0.32725359974E-01 -0.68144754005E-01 -0.10503600475E+00  0.13351714748E+00  0.32857414595E-01 0.  0.
         14    1    1    2    0    0 -0.23313155294E-02  0.93216818061E-02  0.21815770529E-01  0.23838133894E-01  0.00000000000E+00 0.  1.
     999901    1    3    3    0    0  0.35056675503E-01  0.58823072199E-01  0.83220234221E-01  0.88657471862E+00  0.88000000000E+00 0.  1.
        -11    1    4    4    0    0 -0.19490107545E-01 -0.24638210861E-01 -0.20473258017E-01  0.37500948539E-01  0.51100000000E-03 0.  1.
         11    1    4    4    0    0 -0.13235252429E-01 -0.43506543144E-01 -0.84562746733E-01  0.96016198942E-01  0.51100000000E-03 0. -1.
</event>
<event>
 7    1  0.1157726E+005  0.1043930E+01  0.7957747E-01            NaN
         13   -1    0    0    0    0  0.00000000000E+00  0.00000000000E+00  0.74505805969E-08  0.10566000000E+00  0.10566000000E+00 0. -1.
     999900   -1    0    0    0    0 -0.00000000000E+00 -0.00000000000E+00 -0.74505805969E-08  0.93827000000E+00  0.93827000000E+00 0. -1.
     999903    2    1    2    0    0  0.66144809299E-01  0.82298953522E-01  0.24982579695E-01  0.11174376994E+00  0.26726153568E-01 0.  0.
         14    1    1    2    0    0 -0.33332568974E-02 -0.45771030024E-01  0.15015068164E-01  0.48286127024E-01  0.00000000000E+00 0.  1.
     999901    1    1    2    0    0 -0.62811552402E-01 -0.36527923498E-01 -0.39997647859E-01  0.88390010303E+00  0.88000000000E+00 0. -1.
        -11    1    3    3    0    0  0.29508229710E-01  0.55394803019E-01  0.20673314065E-01  0.66083030026E-01  0.51100000000E-03 0. -1.
         11    1    3    3    0    0  0.36636579589E-01  0.26904150504E-01  0.43092656303E-02  0.45660739915E-01  0.51100000000E-03 0.  1.
</event>
<event>
 8    1  0.1157726E+005  0.1043930E+01  0.7957747E-01            NaN
         13   -1    0    0    0    0  0.00000000000E+00  0.00000000000E+00  0.74505805969E-08  0.10566000000E+00  0.10566000000E+00 0. -1.
     999900   -1    0    0    0    0 -0.00000000000E+00 -0.00000000000E+00 -0.74505805969E-08  0.93827000000E+00  0.93827000000E+00 0.  1.
     999902    2    1    2    0    0 -0.14122161638E-01 -0.50880831123E-02 -0.18721713233E-01  0.10199336131E+01  0.10196512877E+01 0.  0.
     999903    2    3    3    0    0  0.66610639705E-01  0.10117431335E+00  0.35887868752E-01  0.12819840094E+00  0.21764004164E-01 0.  0.
         14    1    1    2    0    0  0.14122161638E-01  0.50880831123E-02  0.18721713233E-01  0.23996386925E-01  0.00000000000E+00 0. -1.
     999901    1    3    3    0    0 -0.80732801343E-01 -0.10626239646E+00 -0.54609581985E-01  0.89173521213E+00  0.88000000000E+00 0.  1.
        -11    1    4    4    0    0  0.52629640785E-01  0.66695605728E-01  0.17714704985E-01  0.86788563799E-01  0.51100000000E-03 0.  1.
         11    1    4    4    0    0  0.13980998921E-01  0.34478707618E-01  0.18173163768E-01  0.41409837143E-01  0.51100000000E-03 0. -1.
</event>
<event>
 8    1  0.1157726E+005  0.1043930E+01  0.7957747E-01            NaN
         13   -1    0    0    0    0  0.00000000000E+00  0.00000000000E+00  0.74505805969E-08  0.10566000000E+00  0.10566000000E+00 0.  1.
     999900   -1    0    0    0    0 -0.00000000000E+00 -0.00000000000E+00 -0.74505805969E-08  0.93827000000E+00  0.93827000000E+00 0. -1.
     999902    2    1    2    0    0  0.10862756133E-01  0.12642290602E-02 -0.21255587116E-01  0.10200260729E+01  0.10197459447E+01 0.  0.
     999903    2    3    3    0    0  0.10284717490E+00 -0.69732029468E-01  0.34605116949E-01  0.13063188570E+00  0.20665868561E-01 0.  0.
         14    1    1    2    0    0 -0.10862756133E-01 -0.12642290602E-02  0.21255587116E-01  0.23903927074E-01  0.00000000000E+00 0.  1.
     999901    1    3    3    0    0 -0.91984418764E-01  0.70996258528E-01 -0.55860704065E-01  0.88939418723E+00  0.88000000000E+00 0. -1.
        -11    1    4    4    0    0  0.27308911753E-01 -0.82182572165E-02  0.89052746504E-02  0.29881121974E-01  0.51100000000E-03 0.  1.
         11    1    4    4    0    0  0.75538263144E-01 -0.61513772251E-01  0.25699842299E-01  0.10075076372E+00  0.51100000000E-03 0. -1.
</event>
<event>
 8    1  0.1157726E+005  0.1043930E+01  0.7957747E-01            NaN
         13   -1    0    0    0    0  0.00000000000E+00  0.00000000000E+00  0.74505805969E-08  0.10566000000E+00  0.10566000000E+00 0.  1.
     999900   -1    0    0    0    0 -0.00000000000E+00 -0.00000000000E+00 -0.74505805969E-08  0.93827000000E+00  0.93827000000E+00 0.  1.
     999902    2    1    2    0    0  0.32729492475E-03  0.16479874127E-01  0.16720519989E-01  0.10204508782E+01  0.10201807318E+01 0.  0.
     999903    2    3    3    0    0 -0.10676901616E+00 -0.57875358783E-01  0.42940035669E-01  0.13045886500E+00  0.20651605901E-01 0.  0.
         14    1    1    2    0    0 -0.32729492475E-03 -0.16479874127E-01 -0.16720519989E-01  0.23479121830E-01  0.00000000000E+00 0. -1.
     999901    1    3    3    0    0  0.10709631109E+00  0.74355232909E-01 -0.26219515680E-01  0.88999201317E+00  0.88000000000E+00 0. -1.
        -11    1    4    4    0    0 -0.14453683674E-01 -0.16296862487E-01  0.51580136039E-02  0.22391134942E-01  0.51100000000E-03 0.  1.
         11    1    4    4    0    0 -0.92315332490E-01 -0.41578496296E-01  0.37782022065E-01  0.10806773006E+00  0.51100000000E-03 0. -1.
</event>
<event>
 8    1  0.1157726E+005  0.1043930E+01  0.7957747E-01            NaN
         13   -1    0    0    0    0  0.00000000000E+00  0.00000000000E+00  0.74505805969E-08  0.10566000000E+00  0.10566000000E+00 0. -1.
     999900   -1    0    0    0    0 -0.00000000000E+00 -0.00000000000E+00 -0.74505805969E-08  0.93827000000E+00  0.93827000000E+00 0. -1.
     999902    2    1    2    0    0 -0.15428451045E-01  0.44192507310E-02 -0.15206855915E-01  0.10218208312E+01  0.10215816148E+01 0.  0.
     999903    2    3    3    0    0  0.20948395279E-01  0.95477261676E-01  0.84480401671E-01  0.13078077281E+00  0.20296046643E-01 0.  0.
         14    1    1    2    0    0  0.15428451045E-01 -0.44192507310E-02  0.15206855915E-01  0.22109168810E-01  0.00000000000E+00 0. -1.
     999901    1    3    3    0    0 -0.36376846324E-01 -0.91058010945E-01 -0.99687257585E-01  0.89104005838E+00  0.88000000000E+00 0. -1.
        -11    1    4    4    0    0  0.27826208705E-02  0.57119866297E-01  0.44388172734E-01  0.72394703565E-01  0.51100000000E-03 0.  1.
         11    1    4    4    0    0  0.18165774408E-01  0.38357395380E-01  0.40092228937E-01  0.58386069248E-01  0.51100000000E-03 0. -1.
</event>
<event>
 8    1  0.1157726E+005  0.1043930E+01  0.7957747E-01            NaN
         13   -1    0    0    0    0  0.00000000000E+00  0.00000000000E+00  0.74505805969E-08  0.10566000000E+00  0.10566000000E+00 0.  1.
     999900   -1    0    0    0    0 -0.00000000000E+00 -0.00000000000E+00 -0.74505805969E-08  0.93827000000E+00  0.93827000000E+00 0.  1.
     999902    2    1    2    0    0 -0.21253894370E-01 -0.55140903234E-02  0.95443920915E-02  0.10199878063E+01  0.10197067698E+01 0.  0.
     999903    2    3    3    0    0  0.31493017960E-01 -0.10379828060E+00  0.70335615510E-01  0.13086599708E+00  0.20320362822E-01 0.  0.
         14    1    1    2    0    0  0.21253894370E-01  0.55140903234E-02 -0.95443920915E-02  0.23942193684E-01  0.00000000000E+00 0. -1.
     999901    1    3    3    0    0 -0.52746912330E-01  0.98284190281E-01 -0.60791223418E-01  0.88912180924E+00  0.88000000000E+00 0. -1.
        -11    1    4    4    0    0  0.18266927625E-01 -0.86839485311E-01  0.54323129868E-01  0.10404826002E+00  0.51100000000E-03 0. -1.
         11    1    4    4    0    0  0.13226090334E-01 -0.16958795294E-01  0.16012485642E-01  0.26817737056E-01  0.51100000000E-03 0.  1.
</event>
<event>
 8    1  0.1157726E+005  0.1043930E+01  0.7957747E-01            NaN
         13   -1    0    0    0    0  0.00000000000E+00  0.00000000000E+00  0.74505805969E-08  0.10566000000E+00  0.10566000000E+00 0. -1.
     999900   -1    0    0    0    0 -0.00000000000E+00 -0.00000000000E+00 -0.74505805969E-08  0.93827000000E+00  0.93827000000E+00 0. -1.
     999902    2    1    2    0    0 -0.72592881251E-02 -0.18287330742E-01 -0.12983153721E-01  0.10203570068E+01  0.10200846706E+01 0.  0.
     999903    2    3    3    0    0  0.16931198717E-01 -0.12283470745E+00 -0.44372404462E-01  0.13328281669E+00  0.20502880367E-01 0.  0.
         14    1    1    2    0    0  0.72592881251E-02  0.18287330742E-01  0.12983153721E-01  0.23572993240E-01  0.00000000000E+00 0. -1.
     999901    1    3    3    0    0 -0.24190486842E-01  0.10454737670E+00  0.31389250741E-01  0.88707419007E+00  0.88000000000E+00 0.  1.
        -11    1    4    4    0    0  0.67788032996E-02 -0.80409826025E-01 -0.19326403434E-01  0.82978691761E-01  0.51100000000E-03 0. -1.
         11    1    4    4    0    0  0.10152395417E-01 -0.42424881420E-01 -0.25046001028E-01  0.50304124928E-01  0.51100000000E-03 0.  1.
</event>
<event>
 8    1  0.1157726E+005  0.1043930E+01  0.7957747E-01            NaN
         13   -1    0    0    0    0  0.00000000000E+00  0.00000000000E+00  0.74505805969E-08  0.10566000000E+00  0.10566000000E+00 0. -1.
     999900   -1    0    0    0    0 -0.00000000000E+00 -0.00000000000E+00 -0.74505805969E-08  0.93827000000E+00  0.93827000000E+00 0.  1.
     999902    2    1    2    0    0 -0.11459745114E-01 -0.35835299040E-02 -0.20133126016E-01  0.10204883659E+01  0.10202190916E+01 0.  0.
     999903    2    3    3    0    0 -0.70628857867E-01 -0.10246911331E+00 -0.42203291012E-01  0.13270098446E+00  0.18441224423E-01 0.  0.
         14    1    1    2    0    0  0.11459745114E-01  0.35835299040E-02  0.20133126016E-01  0.23441634069E-01  0.00000000000E+00 0. -1.
     999901    1    3    3    0    0  0.59169112754E-01  0.98885583410E-01  0.22070164996E-01  0.88778738147E+00  0.88000000000E+00 0.  1.
        -11    1    4    4    0    0 -0.24425825567E-01 -0.32416587401E-01 -0.22842820800E-01  0.46578017094E-01  0.51100000000E-03 0. -1.
         11    1    4    4    0    0 -0.46203032301E-01 -0.70052525913E-01 -0.19360470212E-01  0.86122967369E-01  0.51100000000E-03 0.  1.
</event>
<event>
 8    1  0.1157726E+005  0.1043930E+01  0.7957747E-01            NaN
         13   -1    0    0    0    0  0.00000000000E+00  0.00000000000E+00  0.74505805969E-08  0.10566000000E+00  0.10566000000E+00 0.  1.
     999900   -1    0    0    0    0 -0.00000000000E+00 -0.00000000000E+00 -0.74505805969E-08  0.93827000000E+00  0.93827000000E+00 0. -1.
     999902    2    1    2    0    0 -0.12358549623E-01  0.11976664373E-01 -0.16064772272E-01  0.10203874609E+01  0.10201158362E+01 0.  0.
     999903    2    3    3    0    0 -0.11888650048E+00  0.55072575767E-01 -0.85773753585E-02  0.13288449022E+00  0.20438389696E-01 0.  0.
         14    1    1    2    0    0  0.12358549623E-01 -0.11976664373E-01  0.16064772272E-01  0.23542539082E-01  0.00000000000E+00 0.  1.
     999901    1    3    3    0    0  0.10652795086E+00 -0.43095911394E-01 -0.74873969135E-02  0.88750297070E+00  0.88000000000E+00 0.  1.
        -11    1    4    4    0    0 -0.75596919594E-01  0.24023397377E-01 -0.58371313695E-02  0.79538362425E-01  0.51100000000E-03 0.  1.
         11    1    4    4    0    0 -0.43289580888E-01  0.31049178389E-01 -0.27402439891E-02  0.53346127790E-01  0.51100000000E-03 0. -1.
</event>
<event>
 8    1  0.1157726E+005  0.1043930E+01  0.7957747E-01            NaN
         13   -1    0    0    0    0  0.00000000000E+00  0.00000000000E+00  0.74505805969E-08  0.10566000000E+00  0.10566000000E+00 0. -1.
     999900   -1    0    0    0    0 -0.00000000000E+00 -0.00000000000E+00 -0.74505805969E-08  0.93827000000E+00  0.93827000000E+00 0. -1.
     999902    2    1    2    0    0 -0.20158588962E-02 -0.23695899415E-01  0.11006426040E-02  0.10201230525E+01  0.10198452194E+01 0.  0.
     999903    2    3    3    0    0 -0.11193655830E+00  0.23681074636E-01 -0.58253447806E-01  0.13003876103E+00  0.20640465356E-01 0.  0.
         14    1    1    2    0    0  0.20158588962E-02  0.23695899415E-01 -0.11006426040E-02  0.23806947522E-01  0.00000000000E+00 0. -1.
     999901    1    3    3    0    0  0.10992069940E+00 -0.47376974051E-01  0.59354090410E-01  0.89008429144E+00  0.88000000000E+00 0.  1.
        -11    1    4    4    0    0 -0.38617795446E-01  0.11883868962E-01 -0.31010445166E-01  0.50935933260E-01  0.51100000000E-03 0.  1.
         11    1    4    4    0    0 -0.73318762853E-01  0.11797205673E-01 -0.27243002640E-01  0.79102827773E-01  0.51100000000E-03 0. -1.
</event>
<event>
 8    1  0.1157726E+005  0.1043930E+01  0.7957747E-01            NaN
         13   -1    0    0    0    0  0.00000000000E+00  0.00000000000E+00  0.74505805969E-08  0.10566000000E+00  0.10566000000E+00 0. -1.
     999900   -1    0    0    0    0 -0.00000000000E+00 -0.00000000000E+00 -0.74505805969E-08  0.93827000000E+00  0.93827000000E+00 0.  1.
     999902    2    1    2    0    0  0.13788244151E-01  0.19652898724E-01  0.22257619082E-03  0.10199216339E+01  0.10196390232E+01 0.  0.
     999903    2    3    3    0    0 -0.30178816152E-01  0.38667066083E-01 -0.11934148719E+00  0.13054533205E+00  0.19844148010E-01 0.  0.
         14    1    1    2    0    0 -0.13788244151E-01 -0.19652898724E-01 -0.22257619082E-03  0.24008366150E-01  0.00000000000E+00 0.  1.
     999901    1    3    3    0    0  0.43967060303E-01 -0.19014167359E-01  0.11956406339E+00  0.88937630180E+00  0.88000000000E+00 0.  1.
        -11    1    4    4    0    0 -0.45419859016E-02  0.24689503582E-02 -0.33689857291E-01  0.34088017793E-01  0.51100000000E-03 0. -1.
         11    1    4    4    0    0 -0.25636830250E-01  0.36198115724E-01 -0.85651629904E-01  0.96457314256E-01  0.51100000000E-03 0.  1.
</event>
<event>
 8    1  0.1157726E+005  0.1043930E+01  0.7957747E-01            NaN
         13   -1    0    0    0    0  0.00000000000E+00  0.00000000000E+00  0.74505805969E-08  0.10566000000E+00  0.10566000000E+00 0.  1.
     999900   -1    0    0    0    0 -0.00000000000E+00 -0.00000000000E+00 -0.74505805969E-08  0.93827000000E+00  0.93827000000E+00 0.  1.
     999902    2    1    2    0    0 -0.21726643492E-01 -0.77655097715E-02 -0.25503384394E-02  0.10207167623E+01  0.10204527693E+01 0.  0.
     999903    2    3    3    0    0 -0.66295297376E-01 -0.89574788924E-01 -0.70371614201E-01  0.13320403081E+00  0.19298716916E-01 0.  0.
         14    1    1    2    0    0  0.21726643492E-01  0.77655097715E-02  0.25503384394E-02  0.23213237724E-01  0.00000000000E+00 0.  1.
     999901    1    3    3    0    0  0.44568653884E-01  0.81809279152E-01  0.67821275761E-01  0.88751273146E+00  0.88000000000E+00 0.  1.
        -11    1    4    4    0    0 -0.22486802568E-01 -0.18628063342E-01 -0.12864753980E-01  0.31912756847E-01  0.51100000000E-03 0. -1.
         11    1    4    4    0    0 -0.43808494808E-01 -0.70946725582E-01 -0.57506860221E-01  0.10129127397E+00  0.51100000000E-03 0.  1.
</event>
<event>
 8    1  0.1157726E+005  0.1043930E+01  0.7957747E-01            NaN
         13   -1    0    0    0    0  0.00000000000E+00  0.00000000000E+00  0.74505805969E-08  0.10566000000E+00  0.10566000000E+00 0. -1.
     999900   -1    0    0    0    0 -0.00000000000E+00 -0.00000000000E+00 -0.74505805969E-08  0.93827000000E+00  0.93827000000E+00 0.  1.
     999902    2    1    2    0    0 -0.66649404990E-02  0.11178361899E-01  0.22061101983E-01  0.10183161477E+01  0.10179939623E+01 0.  0.
     999903    2    3    3    0    0  0.30529774792E-01 -0.10515153061E+00 -0.59496507065E-01  0.12614590932E+00  0.19597054552E-01 0.  0.
         14    1    1    2    0    0  0.66649404990E-02 -0.11178361899E-01 -0.22061101983E-01  0.25613852255E-01  0.00000000000E+00 0.  1.
     999901    1    3    3    0    0 -0.37194715291E-01  0.11632989251E+00  0.81557609048E-01  0.89217023842E+00  0.88000000000E+00 0.  1.
        -11    1    4    4    0    0  0.10524603391E-01 -0.69811645647E-01 -0.36647180133E-01  0.79546904887E-01  0.51100000000E-03 0.  1.
         11    1    4    4    0    0  0.20005171402E-01 -0.35339884963E-01 -0.22849326932E-01  0.46599004434E-01  0.51100000000E-03 0. -1.
</event>
<event>
 8    1  0.1157726E+005  0.1043930E+01  0.7957747E-01            NaN
         13   -1    0    0    0    0  0.00000000000E+00  0.00000000000E+00  0.74505805969E-08  0.10566000000E+00  0.10566000000E+00 0. -1.
     999900   -1    0    0    0    0 -0.00000000000E+00 -0.00000000000E+00 -0.74505805969E-08  0.93827000000E+00  0.93827000000E+00 0. -1.
     999902    2    1    2    0    0  0.17071301228E-01  0.16105090234E-02  0.17539448331E-01  0.10194013369E+01  0.10191061919E+01 0.  0.
     999903    2    3    3    0    0  0.24164637246E-01 -0.12400921922E+00  0.25055718053E-01  0.13042038895E+00  0.20481032725E-01 0.  0.
         14    1    1    2    0    0 -0.17071301228E-01 -0.16105090234E-02 -0.17539448331E-01  0.24528663084E-01  0.00000000000E+00 0.  1.
     999901    1    3    3    0    0 -0.70933360173E-02  0.12561972824E+00 -0.75162697224E-02  0.88898094797E+00  0.88000000000E+00 0.  1.
        -11    1    4    4    0    0  0.40724888677E-03 -0.27424005725E-01  0.12569010152E-01  0.30174212150E-01  0.51100000000E-03 0. -1.
         11    1    4    4    0    0  0.23757388359E-01 -0.96585213494E-01  0.12486707901E-01  0.10024617680E+00  0.51100000000E-03 0.  1.
</event>
<event>
 8    1  0.1157726E+005  0.1043930E+01  0.7957747E-01            NaN
         13   -1    0    0    0    0  0.00000000000E+00  0.00000000000E+00  0.74505805969E-08  0.10566000000E+00  0.10566000000E+00 0.  1.
     999900   -1    0    0    0    0 -0.00000000000E+00 -0.00000000000E+00 -0.74505805969E-08  0.93827000000E+00  0.93827000000E+00 0.  1.
     999902    2    1    2    0    0 -0.32992288940E-02  0.13702438390E-01 -0.16879684431E-01  0.10219398778E+01  0.10217032584E+01 0.  0.
     999903    2    3    3    0    0 -0.34605609270E-01 -0.37723285921E-01 -0.12181551427E+00  0.13366276844E+00  0.20152460334E-01 0.  0.
         14    1    1    2    0    0  0.32992288940E-02 -0.13702438390E-01  0.16879684431E-01  0.21990122229E-01  0.00000000000E+00 0.  1.
     999901    1    3    3    0    0  0.31306380376E-01  0.51425724311E-01  0.10493582984E+00  0.88827710933E+00  0.88000000000E+00 0. -1.
        -11    1    4    4    0    0 -0.19390392432E-02 -0.91949555501E-02 -0.39655279655E-01  0.40756709954E-01  0.51100000000E-03 0.  1.
         11    1    4    4    0    0 -0.32666570027E-01 -0.28528330371E-01 -0.82160234614E-01  0.92906058489E-01  0.51100000000E-03 0. -1.
</event>
<event>
 8    1  0.1157726E+005  0.1043930E+01  0.7957747E-01            NaN
         13   -1    0    0    0    0  0.00000000000E+00  0.00000000000E+00  0.74505805969E-08  0.10566000000E+00  0.10566000000E+00 0. -1.
     999900   -1    0    0    0    0 -0.00000000000E+00 -0.00000000000E+00 -0.74505805969E-08  0.93827000000E+00  0.93827000000E+00 0. -1.
     999902    2    1    2    0    0 -0.16139702140E-01  0.42630040869E-02 -0.20584767097E-01  0.10174272487E+01  0.10170820078E+01 0.  0.
     999903    2    3    3    0    0  0.10260474369E+00 -0.35354397572E-01  0.58101985870E-01  0.12509245335E+00  0.22239925095E-01 0.  0.
         14    1    1    2    0    0  0.16139702140E-01 -0.42630040869E-02  0.20584767097E-01  0.26502751280E-01  0.00000000000E+00 0. -1.
     999901    1    3    3    0    0 -0.11874444583E+00  0.39617401659E-01 -0.78686752966E-01  0.89233479537E+00  0.88000000000E+00 0. -1.
        -11    1    4    4    0    0  0.64545015435E-01 -0.23945336858E-01  0.24569656371E-01  0.73098339995E-01  0.51100000000E-03 0. -1.
         11    1    4    4    0    0  0.38059728256E-01 -0.11409060713E-01  0.33532329499E-01  0.51994113358E-01  0.51100000000E-03 0.  1.
</event>
<event>
 8    1  0.1157726E+005  0.1043930E+01  0.7957747E-01            NaN
         13   -1    0    0    0    0  0.00000000000E+00  0.00000000000E+00  0.74505805969E-08  0.10566000000E+00  0.10566000000E+00 0. -1.
     999900   -1    0    0    0    0 -0.00000000000E+00 -0.00000000000E+00 -0.74505805969E-08  0.93827000000E+00  0.93827000000E+00 0. -1.
     999902    2    1    2    0    0 -0.14982098613E-01  0.21557998395E-01 -0.41902857174E-02  0.10173448713E+01  0.10169974524E+01 0.  0.
     999903    2    3    3    0    0 -0.11763706568E+00 -0.47691166722E-01 -0.56992993216E-02  0.12867408509E+00  0.20288212244E-01 0.  0.
         14    1    1    2    0    0  0.14982098613E-01 -0.21557998395E-01  0.41902857174E-02  0.26585128701E-01  0.00000000000E+00 0. -1.
     999901    1    3    3    0    0  0.10265496707E+00  0.69249165118E-01  0.15090136042E-02  0.88867078621E+00  0.88000000000E+00 0.  1.
        -11    1    4    4    0    0 -0.34828542873E-01 -0.22896541084E-01 -0.67413555929E-02  0.42225418748E-01  0.51100000000E-03 0. -1.
         11    1    4    4    0    0 -0.82808522810E-01 -0.24794625638E-01  0.10420562714E-02  0.86448666345E-01  0.51100000000E-03 0.  1.
</event>
<event>
 8    1  0.1157726E+005  0.1043930E+01  0.7957747E-01            NaN
         13   -1    0    0    0    0  0.00000000000E+00  0.00000000000E+00  0.74505805969E-08  0.10566000000E+00  0.10566000000E+00 0.  1.
     999900   -1    0    0    0    0 -0.00000000000E+00 -0.00000000000E+00 -0.74505805969E-08  0.93827000000E+00  0.93827000000E+00 0.  1.
     999902    2    1    2    0    0  0.20178076029E-01  0.14449856605E-01 -0.86559581530E-02  0.10176454281E+01  0.10173059218E+01 0.  0.
     999903    2    3    3    0    0  0.12121349225E+00  0.16988398137E-01 -0.42622082349E-01  0.13120970166E+00  0.20445721597E-01 0.  0.
         14    1    1    2    0    0 -0.20178076029E-01 -0.14449856605E-01  0.86559581530E-02  0.26284571895E-01  0.00000000000E+00 0. -1.
     999901    1    3    3    0    0 -0.10103541622E+00 -0.25385415324E-02  0.33966124196E-01  0.88643572644E+00  0.88000000000E+00 0. -1.
        -11    1    4    4    0    0  0.81471493068E-01  0.19958341530E-01 -0.24207714894E-01  0.87305292857E-01  0.51100000000E-03 0.  1.
         11    1    4    4    0    0  0.39741999181E-01 -0.29699433930E-02 -0.18414367456E-01  0.43904408804E-01  0.51100000000E-03 0. -1.
</event>
<event>
 8    1  0.1157726E+005  0.1043930E+01  0.7957747E-01            NaN
         13   -1    0    0    0    0  0.00000000000E+00  0.00000000000E+00  0.74505805969E-08  0.10566000000E+00  0.10566000000E+00 0.  1.
     999900   -1    0    0    0    0 -0.00000000000E+00 -0.00000000000E+00 -0.74505805969E-08  0.93827000000E+00  0.93827000000E+00 0. -1.
     999902    2    1    2    0    0 -0.18837686956E-02  0.29193929661E-02  0.23006882735E-01  0.10206622521E+01  0.10203970035E+01 0.  0.
     999903    2    3    3    0    0 -0.25101397834E-01 -0.71886542627E-01  0.10734493996E+00  0.13316695959E+00  0.20316195719E-01 0.  0.
         14    1    1    2    0    0  0.18837686956E-02 -0.29193929661E-02 -0.23006882735E-01  0.23267747913E-01  0.00000000000E+00 0. -1.
     999901    1    3    3    0    0  0.23217629138E-01  0.74805935593E-01 -0.84338057223E-01  0.88749529249E+00  0.88000000000E+00 0.  1.
        -11    1    4    4    0    0 -0.33350160935E-02 -0.39213686812E-01  0.49170952425E-01  0.62983166395E-01  0.51100000000E-03 0.  1.
         11    1    4    4    0    0 -0.21766381740E-01 -0.32672855816E-01  0.58173987533E-01  0.70183793198E-01  0.51100000000E-03 0. -1.
</event>
<event>
 8    1  0.1157726E+005  0.1043930E+01  0.7957747E-01            NaN
         13   -1    0    0    0    0  0.00000000000E+00  0.00000000000E+00  0.74505805969E-08  0.10566000000E+00  0.10566000000E+00 0. -1.
     999900   -1    0    0    0    0 -0.00000000000E+00 -0.00000000000E+00 -0.74505805969E-08  0.93827000000E+00  0.93827000000E+00 0.  1.
     999902    2    1    2    0    0  0.14288570531E-01  0.14649029061E-01 -0.10211088164E-01  0.10210602903E+01  0.10208041403E+01 0.  0.
     999903    2    3    3    0    0 -0.31560430067E-01 -0.11870343101E+00  0.24174388267E-01  0.12917051547E+00  0.31844241825E-01 0.  0.
         14    1    1    2    0    0 -0.14288570531E-01 -0.14649029061E-01  0.10211088164E-01  0.22869709700E-01  0.00000000000E+00 0.  1.
     999901    1    3    3    0    0  0.45849000598E-01  0.13335246007E+00 -0.34385476431E-01  0.89188977483E+00  0.88000000000E+00 0.  1.
        -11    1    4    4    0    0 -0.15717916464E-01 -0.72276766128E-01  0.29893956891E-01  0.79780283276E-01  0.51100000000E-03 0.  1.
         11    1    4    4    0    0 -0.15842513603E-01 -0.46426664885E-01 -0.57195686241E-02  0.49390232191E-01  0.51100000000E-03 0. -1.
</event>
<event>
 8    1  0.1157726E+005  0.1043930E+01  0.7957747E-01            NaN
         13   -1    0    0    0    0  0.00000000000E+00  0.00000000000E+00  0.74505805969E-08  0.10566000000E+00  0.10566000000E+00 0.  1.
     999900   -1    0    0    0    0 -0.00000000000E+00 -0.00000000000E+00 -0.74505805969E-08  0.93827000000E+00  0.93827000000E+00 0.  1.
     999902    2    1    2    0    0 -0.13786030071E-03 -0.22119773362E-01  0.56561631448E-02  0.10210981021E+01  0.10208428080E+01 0.  0.
     999903    2    3    3    0    0 -0.11321210355E+00  0.42439779538E-01 -0.44024067644E-01  0.13013129820E+00  0.19440189405E-01 0.  0.
         14    1    1    2    0    0  0.13786030071E-03  0.22119773362E-01 -0.56561631448E-02  0.22831897875E-01  0.00000000000E+00 0.  1.
     999901    1    3    3    0    0  0.11307424324E+00 -0.64559552900E-01  0.49680230789E-01  0.89096680392E+00  0.88000000000E+00 0.  1.
        -11    1    4    4    0    0 -0.12922933007E-01 -0.67237394151E-03 -0.17531024633E-02  0.13068617887E-01  0.51100000000E-03 0. -1.
         11    1    4    4    0    0 -0.10028917054E+00  0.43112153479E-01 -0.42270965180E-01  0.11706268032E+00  0.51100000000E-03 0.  1.
</event>
<event>
 8    1  0.1157726E+005  0.1043930E+01  0.7957747E-01            NaN
         13   -1    0    0    0    0  0.00000000000E+00  0.00000000000E+00  0.74505805969E-08  0.10566000000E+00  0.10566000000E+00 0.  1.
     999900   -1    0    0    0    0 -0.00000000000E+00 -0.00000000000E+00 -0.74505805969E-08  0.93827000000E+00  0.93827000000E+00 0.  1.
     999902    2    1    2    0    0  0.20691344059E-01 -0.61816705407E-03  0.11459275183E-01  0.10202692976E+01  0.10199949073E+01 0.  0.
     999903    2    3    3    0    0 -0.53237866174E-01 -0.59386690782E-01  0.10142391518E+00  0.13065539038E+00  0.20566259466E-01 0.  0.
         14    1    1    2    0    0 -0.20691344059E-01  0.61816705407E-03 -0.11459275183E-01  0.23660702381E-01  0.00000000000E+00 0. -1.
     999901    1    3    3    0    0  0.73929210232E-01  0.58768523728E-01 -0.89964639994E-01  0.88961390724E+00  0.88000000000E+00 0. -1.
        -11    1    4    4    0    0 -0.29848183413E-01 -0.40643734609E-01  0.49285501077E-01  0.70513466469E-01  0.51100000000E-03 0.  1.
         11    1    4    4    0    0 -0.23389682761E-01 -0.18742956173E-01  0.52138414099E-01  0.60141923910E-01  0.51100000000E-03 0. -1.
</event>
<event>
 8    1  0.1157726E+005  0.1043930E+01  0.7957747E-01            NaN
         13   -1    0    0    0    0  0.00000000000E+00  0.00000000000E+00  0.74505805969E-08  0.10566000000E+00  0.10566000000E+00 0. -1.
     999900   -1    0    0    0    0 -0.00000000000E+00 -0.00000000000E+00 -0.74505805969E-08  0.93827000000E+00  0.93827000000E+00 0.  1.
     999902    2    1    2    0    0 -0.13651593461E-01 -0.63027556676E-02  0.16631451725E-01  0.10215091187E+01  0.10212630335E+01 0.  0.
     999903    2    3    3    0    0 -0.11308689453E+00 -0.68141839886E-01 -0.43431616616E-03  0.13358868763E+00  0.20341896994E-01 0.  0.
         14    1    1    2    0    0  0.13651593461E-01  0.63027556676E-02 -0.16631451725E-01  0.22420881327E-01  0.00000000000E+00 0. -1.
     999901    1    3    3    0    0  0.99435301070E-01  0.61839084218E-01  0.17065767891E-01  0.88792043105E+00  0.88000000000E+00 0. -1.
        -11    1    4    4    0    0 -0.75320864636E-01 -0.41335442299E-01  0.87763830147E-02  0.86366298169E-01  0.51100000000E-03 0. -1.
         11    1    4    4    0    0 -0.37766029896E-01 -0.26806397587E-01 -0.92106991808E-02  0.47222389458E-01  0.51100000000E-03 0.  1.
</event>
<event>
 8    1  0.1157726E+005  0.1043930E+01  0.7957747E-01            NaN
         13   -1    0    0    0    0  0.00000000000E+00  0.00000000000E+00  0.74505805969E-08  0.10566000000E+00  0.10566000000E+00 0. -1.
     999900   -1    0    0    0    0 -0.00000000000E+00 -0.00000000000E+00 -0.74505805969E-08  0.93827000000E+00  0.93827000000E+00 0.  1.
     999902    2    1    2    0    0 -0.13462121782E-01  0.50583466649E-02  0.17524854829E-01  0.10212598405E+01  0.10210081908E+01 0.  0.
     999903    2    3    3    0    0  0.80911194651E-01 -0.10069717009E+00  0.13973650174E-02  0.12977195608E+00  0.12339630127E-01 0.  0.
         14    1    1    2    0    0  0.13462121782E-01 -0.50583466649E-02 -0.17524854829E-01  0.22670159475E-01  0.00000000000E+00 0. -1.
     999901    1    3    3    0    0 -0.94373316433E-01  0.10575551676E+00  0.16127489812E-01  0.89148788444E+00  0.88000000000E+00 0.  1.
        -11    1    4    4    0    0  0.61157990379E-01 -0.78454688557E-01  0.60382985792E-02  0.99660223331E-01  0.51100000000E-03 0. -1.
         11    1    4    4    0    0  0.19753204272E-01 -0.22242481538E-01 -0.46409335618E-02  0.30111732752E-01  0.51100000000E-03 0.  1.
</event>
<event>
 8    1  0.1157726E+005  0.1043930E+01  0.7957747E-01            NaN
         13   -1    0    0    0    0  0.00000000000E+00  0.00000000000E+00  0.74505805969E-08  0.10566000000E+00  0.10566000000E+00 0. -1.
     999900   -1    0    0    0    0 -0.00000000000E+00 -0.00000000000E+00 -0.74505805969E-08  0.93827000000E+00  0.93827000000E+00 0. -1.
     999902    2    1    2    0    0  0.10375351303E-01  0.18762345267E-01 -0.51305551262E-02  0.10218846805E+01  0.10216468588E+01 0.  0.
     999903    2    3    3    0    0 -0.12381051872E+00  0.79371332272E-02 -0.38857956224E-01  0.13100838692E+00  0.16162117851E-01 0.  0.
         14    1    1    2    0    0 -0.10375351303E-01 -0.18762345267E-01  0.51305551262E-02  0.22045319469E-01  0.00000000000E+00 0. -1.
     999901    1    3    3    0    0  0.13418587002E+00  0.10825212040E-01  0.33727401098E-01  0.89087629361E+00  0.88000000000E+00 0.  1.
        -11    1    4    4    0    0 -0.11747057506E+00  0.11078173872E-01 -0.36025641647E-01  0.12337005276E+00  0.51100000000E-03 0.  1.
         11    1    4    4    0    0 -0.63399436582E-02 -0.31410406446E-02 -0.28323145775E-02  0.76383341630E-02  0.51100000000E-03 0. -1.
</event>
<event>
 8    1  0.1157726E+005  0.1043930E+01  0.7957747E-01            NaN
         13   -1    0    0    0    0  0.00000000000E+00  0.00000000000E+00  0.74505805969E-08  0.10566000000E+00  0.10566000000E+00 0.  1.
     999900   -1    0    0    0    0 -0.00000000000E+00 -0.00000000000E+00 -0.74505805969E-08  0.93827000000E+00  0.93827000000E+00 0.  1.
     999902    2    1    2    0    0  0.16141474574E-01  0.25998978063E-02 -0.17463017781E-01  0.10200079671E+01  0.10197274093E+01 0.  0.
     999903    2    3    3    0    0 -0.31077480674E-01 -0.91699471305E-02 -0.12624735462E+00  0.13197520250E+00  0.20716220477E-01 0.  0.
         14    1    1    2    0    0 -0.16141474574E-01 -0.25998978063E-02  0.17463017781E-01  0.23922032942E-01  0.00000000000E+00 0.  1.
     999901    1    3    3    0    0  0.47218955248E-01  0.11769844937E-01  0.10878433684E+00  0.88803276456E+00  0.88000000000E+00 0. -1.
        -11    1    4    4    0    0 -0.21887805074E-01 -0.11211147259E-01 -0.56886861210E-01  0.61976946788E-01  0.51100000000E-03 0. -1.
         11    1    4    4    0    0 -0.91896755995E-02  0.20412001282E-02 -0.69360493412E-01  0.69998255713E-01  0.51100000000E-03 0.  1.
</event>
<event>
 8    1  0.1157726E+005  0.1043930E+01  0.7957747E-01            NaN
         13   -1    0    0    0    0  0.00000000000E+00  0.00000000000E+00  0.74505805969E-08  0.10566000000E+00  0.10566000000E+00 0.  1.
     999900   -1    0    0    0    0 -0.00000000000E+00 -0.00000000000E+00 -0.74505805969E-08  0.93827000000E+00  0.93827000000E+00 0.  1.
     999902    2    1    2    0    0 -0.82166819990E-02  0.17239783227E-01 -0.14448096877E-01  0.10199827352E+01  0.10197015782E+01 0.  0.
     999903    2    3    3    0    0  0.78660828669E-01 -0.17831006826E-01  0.97481964381E-01  0.12795919245E+00  0.19114151358E-01 0.  0.
         14    1    1    2    0    0  0.82166819990E-02 -0.17239783227E-01  0.14448096877E-01  0.23947264816E-01  0.00000000000E+00 0.  1.
     999901    1    3    3    0    0 -0.86877510668E-01  0.35070790052E-01 -0.11193006126E+00  0.89202354273E+00  0.88000000000E+00 0.  1.
        -11    1    4    4    0    0  0.26315533945E-01 -0.98149038394E-02  0.21650229882E-01  0.35465944780E-01  0.51100000000E-03 0. -1.
         11    1    4    4    0    0  0.52345294723E-01 -0.80161029864E-02  0.75831734500E-01  0.92493247672E-01  0.51100000000E-03 0.  1.
</event>
<event>
 8    1  0.1157726E+005  0.1043930E+01  0.7957747E-01            NaN
         13   -1    0    0    0    0  0.00000000000E+00  0.00000000000E+00  0.74505805969E-08  0.10566000000E+00  0.10566000000E+00 0.  1.
     999900   -1    0    0    0    0 -0.00000000000E+00 -0.00000000000E+00 -0.74505805969E-08  0.93827000000E+00  0.93827000000E+00 0. -1.
     999902    2    1    2    0    0  0.96464604502E-02  0.12035235245E-02  0.16129007866E-01  0.10250979114E+01  0.10249249145E+01 0.  0.
     999903    2    3    3    0    0 -0.72972631710E-01 -0.64432025733E-01  0.92066899059E-01  0.13554718035E+00  0.20499592158E-01 0.  0.
         14    1    1    2    0    0 -0.96464604502E-02 -0.12035235245E-02 -0.16129007866E-01  0.18832088647E-01  0.00000000000E+00 0. -1.
     999901    1    3    3    0    0  0.82619092160E-01  0.65635549257E-01 -0.75937891193E-01  0.88955073101E+00  0.88000000000E+00 0.  1.
        -11    1    4    4    0    0 -0.16437687019E-01 -0.25031064364E-01  0.21166354035E-01  0.36674615225E-01  0.51100000000E-03 0.  1.
         11    1    4    4    0    0 -0.56534944691E-01 -0.39400961369E-01  0.70900545024E-01  0.98872565121E-01  0.51100000000E-03 0. -1.
</event>
<event>
 8    1  0.1157726E+005  0.1043930E+01  0.7957747E-01            NaN
         13   -1    0    0    0    0  0.00000000000E+00  0.00000000000E+00  0.74505805969E-08  0.10566000000E+00  0.10566000000E+00 0. -1.
     999900   -1    0    0    0    0 -0.00000000000E+00 -0.00000000000E+00 -0.74505805969E-08  0.93827000000E+00  0.93827000000E+00 0.  1.
     999902    2    1    2    0    0  0.71732913015E-02  0.89577733586E-02  0.20787447836E-01  0.10201851943E+01  0.10199088267E+01 0.  0.
     999903    2    3    3    0    0 -0.35060082933E-01  0.12472671264E+00 -0.80154168575E-02  0.13113192803E+00  0.18584223975E-01 0.  0.
         14    1    1    2    0    0 -0.71732913015E-02 -0.89577733586E-02 -0.20787447836E-01  0.23744805730E-01  0.00000000000E+00 0.  1.
     999901    1    3    3    0    0  0.42233374235E-01 -0.11576893928E+00  0.28802864693E-01  0.88905326624E+00  0.88000000000E+00 0. -1.
        -11    1    4    4    0    0 -0.25098599603E-01  0.60062593479E-01  0.86256425244E-03  0.65103455941E-01  0.51100000000E-03 0.  1.
         11    1    4    4    0    0 -0.99614833299E-02  0.64664119157E-01 -0.88779811099E-02  0.66028472087E-01  0.51100000000E-03 0. -1.
</event>
<event>
 8    1  0.1157726E+005  0.1043930E+01  0.7957747E-01            NaN
         13   -1    0    0    0    0  0.00000000000E+00  0.00000000000E+00  0.74505805969E-08  0.10566000000E+00  0.10566000000E+00 0.  1.
     999900   -1    0    0    0    0 -0.00000000000E+00 -0.00000000000E+00 -0.74505805969E-08  0.93827000000E+00  0.93827000000E+00 0.  1.
     999902    2    1    2    0    0 -0.10446883326E-01  0.41423031587E-03 -0.19523758290E-01  0.10217830793E+01  0.10215430363E+01 0.  0.
     999903    2    3    3    0    0  0.63337217859E-01  0.11130354243E+00  0.18989433224E-01  0.13092742375E+00  0.19527160421E-01 0.  0.
         14    1    1    2    0    0  0.10446883326E-01 -0.41423031587E-03  0.19523758290E-01  0.22146920683E-01  0.00000000000E+00 0.  1.
     999901    1    3    3    0    0 -0.73784101185E-01 -0.11088931211E+00 -0.38513191514E-01  0.89085565556E+00  0.88000000000E+00 0.  1.
        -11    1    4    4    0    0  0.25142463015E-01  0.44789325573E-01 -0.19999190429E-02  0.51405135239E-01  0.51100000000E-03 0. -1.
         11    1    4    4    0    0  0.38194754843E-01  0.66514216852E-01  0.20989352267E-01  0.79522288515E-01  0.51100000000E-03 0.  1.
</event>
<event>
 8    1  0.1157726E+005  0.1043930E+01  0.7957747E-01            NaN
         13   -1    0    0    0    0  0.00000000000E+00  0.00000000000E+00  0.74505805969E-08  0.10566000000E+00  0.10566000000E+00 0. -1.
     999900   -1    0    0    0    0 -0.00000000000E+00 -0.00000000000E+00 -0.74505805969E-08  0.93827000000E+00  0.93827000000E+00 0.  1.
     999902    2    1    2    0    0 -0.82392736449E-02 -0.13304744922E-01 -0.18619009398E-01  0.10196078007E+01  0.10193176629E+01 0.  0.
     999903    2    3    3    0    0  0.94281148191E-01 -0.20305032213E-01  0.81629553081E-01  0.12797490809E+00  0.20321513885E-01 0.  0.
         14    1    1    2    0    0  0.82392736449E-02  0.13304744922E-01  0.18619009398E-01  0.24322199296E-01  0.00000000000E+00 0. -1.
     999901    1    3    3    0    0 -0.10252042184E+00  0.70002872904E-02 -0.10024856248E+00  0.89163289262E+00  0.88000000000E+00 0. -1.
        -11    1    4    4    0    0  0.19083534148E-01  0.30690151136E-02  0.21346605066E-01  0.28801715196E-01  0.51100000000E-03 0.  1.
         11    1    4    4    0    0  0.75197614043E-01 -0.23374047326E-01  0.60282948014E-01  0.99173192892E-01  0.51100000000E-03 0. -1.
</event>
<event>
 8    1  0.1157726E+005  0.1043930E+01  0.7957747E-01            NaN
         13   -1    0    0    0    0  0.00000000000E+00  0.00000000000E+00  0.74505805969E-08  0.10566000000E+00  0.10566000000E+00 0. -1.
     999900   -1    0    0    0    0 -0.00000000000E+00 -0.00000000000E+00 -0.74505805969E-08  0.93827000000E+00  0.93827000000E+00 0.  1.
     999902    2    1    2    0    0  0.49186315808E-02  0.16893772202E-01  0.90112238953E-02  0.10241614737E+01  0.10239706683E+01 0.  0.
     999903    2    3    3    0    0 -0.17008964751E-01  0.10130448520E+00  0.87619330089E-01  0.13636351115E+00  0.19129991261E-01 0.  0.
         14    1    1    2    0    0 -0.49186315808E-02 -0.16893772202E-01 -0.90112238953E-02  0.19768526296E-01  0.00000000000E+00 0.  1.
     999901    1    3    3    0    0  0.21927596331E-01 -0.84410712997E-01 -0.78608106193E-01  0.88779796255E+00  0.88000000000E+00 0.  1.
        -11    1    4    4    0    0  0.40062999800E-02  0.15985419190E-01  0.11432731723E-01  0.20063712066E-01  0.51100000000E-03 0. -1.
         11    1    4    4    0    0 -0.21015264731E-01  0.85319066008E-01  0.76186598366E-01  0.11629979909E+00  0.51100000000E-03 0.  1.
</event>
<event>
 8    1  0.1157726E+005  0.1043930E+01  0.7957747E-01            NaN
         13   -1    0    0    0    0  0.00000000000E+00  0.00000000000E+00  0.74505805969E-08  0.10566000000E+00  0.10566000000E+00 0.  1.
     999900   -1    0    0    0    0 -0.00000000000E+00 -0.00000000000E+00 -0.74505805969E-08  0.93827000000E+00  0.93827000000E+00 0. -1.
     999902    2    1    2    0    0 -0.12746115392E-01 -0.52770293779E-03  0.21030598658E-01  0.10193326829E+01  0.10190358632E+01 0.  0.
     999903    2    3    3    0    0 -0.19170933782E-01  0.10369880977E+00 -0.70891556182E-01  0.12840388284E+00  0.18465550135E-01 0.  0.
         14    1    1    2    0    0  0.12746115392E-01  0.52770293779E-03 -0.21030598658E-01  0.24597317087E-01  0.00000000000E+00 0. -1.
     999901    1    3    3    0    0  0.64248183903E-02 -0.10422651271E+00  0.91922154840E-01  0.89092880007E+00  0.88000000000E+00 0.  1.
        -11    1    4    4    0    0 -0.59954664280E-02  0.18565532495E-01 -0.55844607214E-02  0.20299555095E-01  0.51100000000E-03 0.  1.
         11    1    4    4    0    0 -0.13175467354E-01  0.85133277274E-01 -0.65307095461E-01  0.10810432775E+00  0.51100000000E-03 0. -1.
</event>
<event>
 8    1  0.1157726E+005  0.1043930E+01  0.7957747E-01            NaN
         13   -1    0    0    0    0  0.00000000000E+00  0.00000000000E+00  0.74505805969E-08  0.10566000000E+00  0.10566000000E+00 0.  1.
     999900   -1    0    0    0    0 -0.00000000000E+00 -0.00000000000E+00 -0.74505805969E-08  0.93827000000E+00  0.93827000000E+00 0. -1.
     999902    2    1    2    0    0 -0.76110945241E-03  0.14345701954E-01 -0.18276795288E-01  0.10206830712E+01  0.10204183025E+01 0.  0.
     999903    2    3    3    0    0 -0.77259651134E-01 -0.50410988697E-01  0.87371890560E-01  0.12871496602E+00  0.20576047763E-01 0.  0.
         14    1    1    2    0    0  0.76110945241E-03 -0.14345701954E-01  0.18276795288E-01  0.23246928790E-01  0.00000000000E+00 0.  1.
     999901    1    3    3    0    0  0.76498541681E-01  0.64756690650E-01 -0.10564868585E+00  0.89196810519E+00  0.88000000000E+00 0.  1.
        -11    1    4    4    0    0 -0.40989664165E-01 -0.17793922707E-01  0.32265017684E-01  0.55118678693E-01  0.51100000000E-03 0.  1.
         11    1    4    4    0    0 -0.36269986969E-01 -0.32617065990E-01  0.55106872876E-01  0.73596287323E-01  0.51100000000E-03 0. -1.
</event>
<event>
 8    1  0.1157726E+005  0.1043930E+01  0.7957747E-01            NaN
         13   -1    0    0    0    0  0.00000000000E+00  0.00000000000E+00  0.74505805969E-08  0.10566000000E+00  0.10566000000E+00 0. -1.
     999900   -1    0    0    0    0 -0.00000000000E+00 -0.00000000000E+00 -0.74505805969E-08  0.93827000000E+00  0.93827000000E+00 0. -1.
     999902    2    1    2    0    0 -0.24322426579E-01 -0.19845228812E-02  0.17072830246E-02  0.10194670979E+01  0.10191735525E+01 0.  0.
     999903    2    3    3    0    0 -0.84554162565E-01 -0.94144013599E-02  0.98970767945E-01  0.13203076177E+00  0.19971774736E-01 0.  0.
         14    1    1    2    0    0  0.24322426579E-01  0.19845228812E-02 -0.17072830246E-02  0.24462902139E-01  0.00000000000E+00 0.  1.
     999901    1    3    3    0    0  0.60231735987E-01  0.74298784787E-02 -0.97263484920E-01  0.88743633609E+00  0.88000000000E+00 0. -1.
        -11    1    4    4    0    0 -0.79078384643E-01 -0.13700197065E-01  0.88739979873E-01  0.11965003747E+00  0.51100000000E-03 0.  1.
         11    1    4    4    0    0 -0.54757779223E-02  0.42857957047E-02  0.10230788072E-01  0.12380724303E-01  0.51100000000E-03 0. -1.
</event>
<event>
 7    1  0.1157726E+005  0.1043930E+01  0.7957747E-01            NaN
         13   -1    0    0    0    0  0.00000000000E+00  0.00000000000E+00  0.74505805969E-08  0.10566000000E+00  0.10566000000E+00 0. -1.
     999900   -1    0    0    0    0 -0.00000000000E+00 -0.00000000000E+00 -0.74505805969E-08  0.93827000000E+00  0.93827000000E+00 0.  1.
     999903    2    1    2    0    0 -0.36346222280E-01  0.40845762351E-01 -0.75608576097E-01  0.95431174176E-01  0.20025684736E-01 0.  0.
         14    1    1    2    0    0  0.19413849938E-02  0.43488606934E-01  0.45956344971E-01  0.63300975915E-01  0.00000000000E+00 0. -1.
     999901    1    1    2    0    0  0.34404837286E-01 -0.84334369285E-01  0.29652231126E-01  0.88519784991E+00  0.88000000000E+00 0. -1.
        -11    1    3    3    0    0 -0.15169868669E-01  0.15579518618E-01 -0.46959092979E-01  0.51751945376E-01  0.51100000000E-03 0.  1.
         11    1    3    3    0    0 -0.21176353611E-01  0.25266243733E-01 -0.28649483118E-01  0.43679228800E-01  0.51100000000E-03 0. -1.
</event>
<event>
 8    1  0.1157726E+005  0.1043930E+01  0.7957747E-01            NaN
         13   -1    0    0    0    0  0.00000000000E+00  0.00000000000E+00  0.74505805969E-08  0.10566000000E+00  0.10566000000E+00 0. -1.
     999900   -1    0    0    0    0 -0.00000000000E+00 -0.00000000000E+00 -0.74505805969E-08  0.93827000000E+00  0.93827000000E+00 0.  1.
     999902    2    1    2    0    0  0.35866738323E-02  0.14610291969E-01 -0.17444994968E-01  0.10208940995E+01  0.10206341704E+01 0.  0.
     999903    2    3    3    0    0 -0.11206233734E+00 -0.56860430462E-01  0.23818037190E-01  0.12949890336E+00  0.20287707448E-01 0.  0.
         14    1    1    2    0    0 -0.35866738323E-02 -0.14610291969E-01  0.17444994968E-01  0.23035900461E-01  0.00000000000E+00 0. -1.
     999901    1    3    3    0    0  0.11564901117E+00  0.71470722431E-01 -0.41263032158E-01  0.89139519618E+00  0.88000000000E+00 0.  1.
        -11    1    4    4    0    0 -0.96123664269E-01 -0.53736411122E-01  0.15397203549E-01  0.11119665333E+00  0.51100000000E-03 0. -1.
         11    1    4    4    0    0 -0.15938673069E-01 -0.31240193395E-02  0.84208336412E-02  0.18302250033E-01  0.51100000000E-03 0.  1.
</event>
<event>
 8    1  0.1157726E+005  0.1043930E+01  0.7957747E-01            NaN
         13   -1    0    0    0    0  0.00000000000E+00  0.00000000000E+00  0.74505805969E-08  0.10566000000E+00  0.10566000000E+00 0.  1.
     999900   -1    0    0    0    0 -0.00000000000E+00 -0.00000000000E+00 -0.74505805969E-08  0.93827000000E+00  0.93827000000E+00 0.  1.
     999902    2    1    2    0    0  0.15240155161E-01 -0.14439990559E-01  0.70821755400E-02  0.10217729951E+01  0.10215327310E+01 0.  0.
     999903    2    3    3    0    0 -0.86845496705E-01  0.45042400994E-01  0.80672668852E-01  0.13083237084E+00  0.32219118137E-01 0.  0.
         14    1    1    2    0    0 -0.15240155161E-01  0.14439990559E-01 -0.70821755400E-02  0.22157004921E-01  0.00000000000E+00 0.  1.
     999901    1    3    3    0    0  0.10208565187E+00 -0.59482391553E-01 -0.73590493312E-01  0.89094062424E+00  0.88000000000E+00 0.  1.
        -11    1    4    4    0    0 -0.19118554607E-01  0.26407274582E-01  0.22345421123E-01  0.39527740224E-01  0.51100000000E-03 0. -1.
         11    1    4    4    0    0 -0.67726942099E-01  0.18635126412E-01  0.58327247729E-01  0.91304630611E-01  0.51100000000E-03 0.  1.
</event>
<event>
 8    1  0.1157726E+005  0.1043930E+01  0.7957747E-01            NaN
         13   -1    0    0    0    0  0.00000000000E+00  0.00000000000E+00  0.74505805969E-08  0.10566000000E+00  0.10566000000E+00 0. -1.
     999900   -1    0    0    0    0 -0.00000000000E+00 -0.00000000000E+00 -0.74505805969E-08  0.93827000000E+00  0.93827000000E+00 0. -1.
     999902    2    1    2    0    0 -0.11943284596E-01 -0.17925623476E-01  0.98580621584E-02  0.10202413653E+01  0.10199663191E+01 0.  0.
     999903    2    3    3    0    0  0.10805988644E+00  0.28675814327E-01 -0.58939518812E-01  0.12821806841E+00  0.21604740330E-01 0.  0.
         14    1    1    2    0    0  0.11943284596E-01  0.17925623476E-01 -0.98580621584E-02  0.23688634690E-01  0.00000000000E+00 0.  1.
     999901    1    3    3    0    0 -0.12000317103E+00 -0.46601437803E-01  0.68797580970E-01  0.89202329690E+00  0.88000000000E+00 0.  1.
        -11    1    4    4    0    0  0.57211360255E-01  0.41529423310E-02 -0.31582817377E-01  0.65483754830E-01  0.51100000000E-03 0. -1.
         11    1    4    4    0    0  0.50848526185E-01  0.24522871996E-01 -0.27356701435E-01  0.62734313581E-01  0.51100000000E-03 0.  1.
</event>
<event>
 8    1  0.1157726E+005  0.1043930E+01  0.7957747E-01            NaN
         13   -1    0    0    0    0  0.00000000000E+00  0.00000000000E+00  0.74505805969E-08  0.10566000000E+00  0.10566000000E+00 0.  1.
     999900   -1    0    0    0    0 -0.00000000000E+00 -0.00000000000E+00 -0.74505805969E-08  0.93827000000E+00  0.93827000000E+00 0.  1.
     999902    2    1    2    0    0 -0.18037754726E-01 -0.10655208507E-01 -0.11624181690E-01  0.10199713760E+01  0.10196899491E+01 0.  0.
     999903    2    3    3    0    0  0.12189060026E+00  0.13773271833E-01 -0.31280806880E-01  0.12836435601E+00  0.21257882473E-01 0.  0.
         14    1    1    2    0    0  0.18037754726E-01  0.10655208507E-01  0.11624181690E-01  0.23958623997E-01  0.00000000000E+00 0.  1.
     999901    1    3    3    0    0 -0.13992835499E+00 -0.24428480340E-01  0.19656625191E-01  0.89160701999E+00  0.88000000000E+00 0. -1.
        -11    1    4    4    0    0  0.28409452224E-01  0.60924342903E-02  0.12474251357E-02  0.29086627885E-01  0.51100000000E-03 0. -1.
         11    1    4    4    0    0  0.93481148035E-01  0.76808375426E-02 -0.32528232016E-01  0.99277728128E-01  0.51100000000E-03 0.  1.
</event>
<event>
 8    1  0.1157726E+005  0.1043930E+01  0.7957747E-01            NaN
         13   -1    0    0    0    0  0.00000000000E+00  0.00000000000E+00  0.74505805969E-08  0.10566000000E+00  0.10566000000E+00 0. -1.
     999900   -1    0    0    0    0 -0.00000000000E+00 -0.00000000000E+00 -0.74505805969E-08  0.93827000000E+00  0.93827000000E+00 0.  1.
     999902    2    1    2    0    0  0.64535136488E-02  0.12186255198E-01  0.18512588839E-01  0.10208460532E+01  0.10205850262E+01 0.  0.
     999903    2    3    3    0    0 -0.86508608908E-01  0.51455379033E-01 -0.79407263401E-01  0.12968259021E+00  0.19510645184E-01 0.  0.
         14    1    1    2    0    0 -0.64535136488E-02 -0.12186255198E-01 -0.18512588839E-01  0.23083946796E-01  0.00000000000E+00 0.  1.
     999901    1    3    3    0    0  0.92962122556E-01 -0.39269123835E-01  0.97919852240E-01  0.89116346300E+00  0.88000000000E+00 0. -1.
        -11    1    4    4    0    0 -0.29417834223E-01  0.11023391968E-01 -0.33917074710E-01  0.46233680567E-01  0.51100000000E-03 0. -1.
         11    1    4    4    0    0 -0.57090774684E-01  0.40431987065E-01 -0.45490188692E-01  0.83448909641E-01  0.51100000000E-03 0.  1.
</event>
<event>
 8    1  0.1157726E+005  0.1043930E+01  0.7957747E-01            NaN
         13   -1    0    0    0    0  0.00000000000E+00  0.00000000000E+00  0.74505805969E-08  0.10566000000E+00  0.10566000000E+00 0. -1.
     999900   -1    0    0    0    0 -0.00000000000E+00 -0.00000000000E+00 -0.74505805969E-08  0.93827000000E+00  0.93827000000E+00 0.  1.
     999902    2    1    2    0    0  0.59695048791E-02 -0.23105280668E-01  0.40339671683E-02  0.10197274821E+01  0.10194402267E+01 0.  0.
     999903    2    3    3    0    0  0.71228797046E-01 -0.53243287692E-01 -0.94426225003E-01  0.13132358511E+00  0.20522739228E-01 0.  0.
         14    1    1    2    0    0 -0.59695048791E-02  0.23105280668E-01 -0.40339671683E-02  0.24202517934E-01  0.00000000000E+00 0.  1.
     999901    1    3    3    0    0 -0.65259292166E-01  0.30138007025E-01  0.98460192171E-01  0.88840389695E+00  0.88000000000E+00 0. -1.
        -11    1    4    4    0    0  0.70184317609E-01 -0.49678522604E-01 -0.83855170728E-01  0.12010722220E+00  0.51100000000E-03 0. -1.
         11    1    4    4    0    0  0.10444794365E-02 -0.35647650879E-02 -0.10571054275E-01  0.11216362909E-01  0.51100000000E-03 0.  1.
</event>
<event>
 8    1  0.1157726E+005  0.1043930E+01  0.7957747E-01            NaN
         13   -1    0    0    0    0  0.00000000000E+00  0.00000000000E+00  0.74505805969E-08  0.10566000000E+00  0.10566000000E+00 0. -1.
     999900   -1    0    0    0    0 -0.00000000000E+00 -0.00000000000E+00 -0.74505805969E-08  0.93827000000E+00  0.93827000000E+00 0. -1.
     999902    2    1    2    0    0  0.42503502675E-02  0.18239171767E-01  0.14111243167E-01  0.10204809052E+01  0.10202114574E+01 0.  0.
     999903    2    3    3    0    0  0.42663216840E-01 -0.28455523410E-02  0.12405518832E+00  0.13255760614E+00  0.18803775066E-01 0.  0.
         14    1    1    2    0    0 -0.42503502675E-02 -0.18239171767E-01 -0.14111243167E-01  0.23449094820E-01  0.00000000000E+00 0. -1.
     999901    1    3    3    0    0 -0.38412866572E-01  0.21084724108E-01 -0.10994394515E+00  0.88792329904E+00  0.88000000000E+00 0. -1.
        -11    1    4    4    0    0  0.33953076376E-01  0.57330920050E-02  0.89181091132E-01  0.95599204368E-01  0.51100000000E-03 0.  1.
         11    1    4    4    0    0  0.87101404639E-02 -0.85786443460E-02  0.34874097186E-01  0.36958401768E-01  0.51100000000E-03 0. -1.
</event>
<event>
 8    1  0.1157726E+005  0.1043930E+01  0.7957747E-01            NaN
         13   -1    0    0    0    0  0.00000000000E+00  0.00000000000E+00  0.74505805969E-08  0.10566000000E+00  0.10566000000E+00 0.  1.
     999900   -1    0    0    0    0 -0.00000000000E+00 -0.00000000000E+00 -0.74505805969E-08  0.93827000000E+00  0.93827000000E+00 0.  1.
     999902    2    1    2    0    0  0.17769547460E-01  0.45059843608E-02 -0.16194751731E-01  0.10194692008E+01  0.10191757065E+01 0.  0.
     999903    2    3    3    0    0  0.11942468079E+00  0.39571010867E-01 -0.36832420670E-01  0.13268329906E+00  0.20496618100E-01 0.  0.
         14    1    1    2    0    0 -0.17769547460E-01 -0.45059843608E-02  0.16194751731E-01  0.24460799162E-01  0.00000000000E+00 0.  1.
     999901    1    3    3    0    0 -0.10165513333E+00 -0.35065026506E-01  0.20637668939E-01  0.88678590178E+00  0.88000000000E+00 0.  1.
        -11    1    4    4    0    0  0.61852811204E-01  0.21545214572E-01 -0.85587382220E-02  0.66056639679E-01  0.51100000000E-03 0.  1.
         11    1    4    4    0    0  0.57571869587E-01  0.18025796296E-01 -0.28273682448E-01  0.66626659379E-01  0.51100000000E-03 0. -1.
</event>
<event>
 8    1  0.1157726E+005  0.1043930E+01  0.7957747E-01            NaN
         13   -1    0    0    0    0  0.00000000000E+00  0.00000000000E+00  0.74505805969E-08  0.10566000000E+00  0.10566000000E+00 0. -1.
     999900   -1    0    0    0    0 -0.00000000000E+00 -0.00000000000E+00 -0.74505805969E-08  0.93827000000E+00  0.93827000000E+00 0. -1.
     999902    2    1    2    0    0  0.77536195026E-02  0.16246985632E-01  0.12251850612E-01  0.10221540729E+01  0.10219220899E+01 0.  0.
     999903    2    3    3    0    0 -0.62002370861E-01 -0.10535117074E+00  0.40931958098E-01  0.13059669483E+00  0.20902352469E-01 0.  0.
         14    1    1    2    0    0 -0.77536195026E-02 -0.16246985632E-01 -0.12251850612E-01  0.21775927097E-01  0.00000000000E+00 0.  1.
     999901    1    3    3    0    0  0.69755990363E-01  0.12159815637E+00 -0.28680107486E-01  0.89155737807E+00  0.88000000000E+00 0.  1.
        -11    1    4    4    0    0 -0.10274245008E-01 -0.28993563501E-01  0.17668637108E-01  0.35477157345E-01  0.51100000000E-03 0.  1.
         11    1    4    4    0    0 -0.51728125852E-01 -0.76357607240E-01  0.23263320990E-01  0.95119537489E-01  0.51100000000E-03 0. -1.
</event>
<event>
 8    1  0.1157726E+005  0.1043930E+01  0.7957747E-01            NaN
         13   -1    0    0    0    0  0.00000000000E+00  0.00000000000E+00  0.74505805969E-08  0.10566000000E+00  0.10566000000E+00 0. -1.
     999900   -1    0    0    0    0 -0.00000000000E+00 -0.00000000000E+00 -0.74505805969E-08  0.93827000000E+00  0.93827000000E+00 0.  1.
     999902    2    1    2    0    0 -0.20798018085E-01 -0.23596912967E-02  0.13349344354E-01  0.10191039916E+01  0.10188015582E+01 0.  0.
     999903    2    3    3    0    0  0.68302547792E-01  0.10630657076E+00  0.17740289063E-02  0.12787940974E+00  0.19587527545E-01 0.  0.
         14    1    1    2    0    0  0.20798018085E-01  0.23596912967E-02 -0.13349344354E-01  0.24826008418E-01  0.00000000000E+00 0.  1.
     999901    1    3    3    0    0 -0.89100565877E-01 -0.10866626206E+00  0.11575315447E-01  0.89122458184E+00  0.88000000000E+00 0.  1.
        -11    1    4    4    0    0  0.34661945354E-01  0.59541758611E-01 -0.82973416877E-02  0.69395810207E-01  0.51100000000E-03 0. -1.
         11    1    4    4    0    0  0.33640602438E-01  0.46764812151E-01  0.10071370594E-01  0.58483599535E-01  0.51100000000E-03 0.  1.
</event>
<event>
 8    1  0.1157726E+005  0.1043930E+01  0.7957747E-01            NaN
         13   -1    0    0    0    0  0.00000000000E+00  0.00000000000E+00  0.74505805969E-08  0.10566000000E+00  0.10566000000E+00 0.  1.
     999900   -1    0    0    0    0 -0.00000000000E+00 -0.00000000000E+00 -0.74505805969E-08  0.93827000000E+00  0.93827000000E+00 0. -1.
     999902    2    1    2    0    0 -0.68972472935E-02 -0.18374761379E-01 -0.13029307088E-01  0.10203722684E+01  0.10201002889E+01 0.  0.
     999903    2    3    3    0    0 -0.47897124305E-01  0.11932856496E-01 -0.12097231338E+00  0.13231189080E+00  0.20871230468E-01 0.  0.
         14    1    1    2    0    0  0.68972472935E-02  0.18374761379E-01  0.13029307088E-01  0.23557731622E-01  0.00000000000E+00 0.  1.
     999901    1    3    3    0    0  0.40999877012E-01 -0.30307617875E-01  0.10794300629E+00  0.88806037758E+00  0.88000000000E+00 0. -1.
        -11    1    4    4    0    0 -0.30543779112E-01  0.10488042959E-01 -0.99786099438E-01  0.10488302174E+00  0.51100000000E-03 0.  1.
         11    1    4    4    0    0 -0.17353345194E-01  0.14448135366E-02 -0.21186213944E-01  0.27428869059E-01  0.51100000000E-03 0. -1.
</event>
<event>
 8    1  0.1157726E+005  0.1043930E+01  0.7957747E-01            NaN
         13   -1    0    0    0    0  0.00000000000E+00  0.00000000000E+00  0.74505805969E-08  0.10566000000E+00  0.10566000000E+00 0. -1.
     999900   -1    0    0    0    0 -0.00000000000E+00 -0.00000000000E+00 -0.74505805969E-08  0.93827000000E+00  0.93827000000E+00 0.  1.
     999902    2    1    2    0    0  0.13449309140E-01  0.14519296651E-02  0.19086673252E-01  0.10205357034E+01  0.10202675281E+01 0.  0.
     999903    2    3    3    0    0  0.60719358160E-01 -0.37951116604E-01  0.11092318653E+00  0.13361913308E+00  0.20566762228E-01 0.  0.
         14    1    1    2    0    0 -0.13449309140E-01 -0.14519296651E-02 -0.19086673252E-01  0.23394296568E-01  0.00000000000E+00 0.  1.
     999901    1    3    3    0    0 -0.47270049020E-01  0.39403046270E-01 -0.91836513279E-01  0.88691657035E+00  0.88000000000E+00 0.  1.
        -11    1    4    4    0    0  0.26796214228E-02 -0.74171197780E-02  0.61561986950E-02  0.10017681376E-01  0.51100000000E-03 0. -1.
         11    1    4    4    0    0  0.58039736737E-01 -0.30533996826E-01  0.10476698784E+00  0.12360145171E+00  0.51100000000E-03 0.  1.
</event>
<event>
 8    1  0.1157726E+005  0.1043930E+01  0.7957747E-01            NaN
         13   -1    0    0    0    0  0.00000000000E+00  0.00000000000E+00  0.74505805969E-08  0.10566000000E+00  0.10566000000E+00 0. -1.
     999900   -1    0    0    0    0 -0.00000000000E+00 -0.00000000000E+00 -0.74505805969E-08  0.93827000000E+00  0.93827000000E+00 0. -1.
     999902    2    1    2    0    0 -0.23460209919E-01  0.15073877419E-01 -0.18709680828E-02  0.10159817666E+01  0.10155972855E+01 0.  0.
     999903    2    3    3    0    0 -0.63049464038E-02 -0.12348405448E+00 -0.15909006485E-01  0.12486467546E+00  0.70729505922E-02 0.  0.
         14    1    1    2    0    0  0.23460209919E-01 -0.15073877419E-01  0.18709680828E-02  0.27948233423E-01  0.00000000000E+00 0.  1.
     999901    1    3    3    0    0 -0.17155263515E-01  0.13855793190E+00  0.14038038402E-01  0.89111709112E+00  0.88000000000E+00 0. -1.
        -11    1    4    4    0    0 -0.49673801600E-02 -0.50844439953E-01 -0.40486136137E-02  0.51249237389E-01  0.51100000000E-03 0. -1.
         11    1    4    4    0    0 -0.13375662437E-02 -0.72639614529E-01 -0.11860392871E-01  0.73615438071E-01  0.51100000000E-03 0.  1.
</event>
<event>
 8    1  0.1157726E+005  0.1043930E+01  0.7957747E-01            NaN
         13   -1    0    0    0    0  0.00000000000E+00  0.00000000000E+00  0.74505805969E-08  0.10566000000E+00  0.10566000000E+00 0. -1.
     999900   -1    0    0    0    0 -0.00000000000E+00 -0.00000000000E+00 -0.74505805969E-08  0.93827000000E+00  0.93827000000E+00 0.  1.
     999902    2    1    2    0    0  0.59673792241E-02  0.18123949922E-01  0.16093057550E-01  0.10189685562E+01  0.10186627729E+01 0.  0.
     999903    2    3    3    0    0 -0.95433127738E-01  0.58141284329E-01  0.65568330648E-01  0.13086312748E+00  0.18386444363E-01 0.  0.
         14    1    1    2    0    0 -0.59673792241E-02 -0.18123949922E-01 -0.16093057550E-01  0.24961443806E-01  0.00000000000E+00 0.  1.
     999901    1    3    3    0    0  0.10140050696E+00 -0.40017334407E-01 -0.49475273098E-01  0.88810542872E+00  0.88000000000E+00 0.  1.
        -11    1    4    4    0    0 -0.64012065804E-01  0.48551720942E-01  0.44717237753E-01  0.91949478782E-01  0.51100000000E-03 0. -1.
         11    1    4    4    0    0 -0.31421061934E-01  0.95895633863E-02  0.20851092895E-01  0.38913648697E-01  0.51100000000E-03 0.  1.
</event>
<event>
 8    1  0.1157726E+005  0.1043930E+01  0.7957747E-01            NaN
         13   -1    0    0    0    0  0.00000000000E+00  0.00000000000E+00  0.74505805969E-08  0.10566000000E+00  0.10566000000E+00 0.  1.
     999900   -1    0    0    0    0 -0.00000000000E+00 -0.00000000000E+00 -0.74505805969E-08  0.93827000000E+00  0.93827000000E+00 0. -1.
     999902    2    1    2    0    0  0.20401141822E-01 -0.46074647478E-02 -0.14548484155E-02  0.10229645069E+01  0.10227496421E+01 0.  0.
     999903    2    3    3    0    0  0.46255649994E-01 -0.12260503062E+00 -0.11586095851E-01  0.13465458159E+00  0.28740912251E-01 0.  0.
         14    1    1    2    0    0 -0.20401141822E-01  0.46074647478E-02  0.14548484155E-02  0.20965493149E-01  0.00000000000E+00 0. -1.
     999901    1    3    3    0    0 -0.25854508172E-01  0.11799756587E+00  0.10131247436E-01  0.88830992526E+00  0.88000000000E+00 0. -1.
        -11    1    4    4    0    0  0.18749085544E-01 -0.52802372120E-01 -0.19218645712E-01  0.59238806320E-01  0.51100000000E-03 0. -1.
         11    1    4    4    0    0  0.27506564450E-01 -0.69802658497E-01  0.76325498610E-02  0.75415775270E-01  0.51100000000E-03 0.  1.
</event>
<event>
 8    1  0.1157726E+005  0.1043930E+01  0.7957747E-01            NaN
         13   -1    0    0    0    0  0.00000000000E+00  0.00000000000E+00  0.74505805969E-08  0.10566000000E+00  0.10566000000E+00 0. -1.
     999900   -1    0    0    0    0 -0.00000000000E+00 -0.00000000000E+00 -0.74505805969E-08  0.93827000000E+00  0.93827000000E+00 0.  1.
     999902    2    1    2    0    0 -0.21972101176E-01  0.54646714170E-02  0.12071021748E-02  0.10212563819E+01  0.10210046545E+01 0.  0.
     999903    2    3    3    0    0  0.11138106611E+00 -0.54473825456E-01 -0.28277035633E-01  0.12870666055E+00  0.19816008126E-01 0.  0.
         14    1    1    2    0    0  0.21972101176E-01 -0.54646714170E-02 -0.12071021748E-02  0.22673618137E-01  0.00000000000E+00 0.  1.
     999901    1    3    3    0    0 -0.13335316729E+00  0.59938496873E-01  0.29484137807E-01  0.89254972131E+00  0.88000000000E+00 0.  1.
        -11    1    4    4    0    0  0.65850867754E-01 -0.21661245328E-01 -0.12898670533E-01  0.70513708991E-01  0.51100000000E-03 0. -1.
         11    1    4    4    0    0  0.45530198357E-01 -0.32812580128E-01 -0.15378365100E-01  0.58192951560E-01  0.51100000000E-03 0.  1.
</event>
<event>
 8    1  0.1157726E+005  0.1043930E+01  0.7957747E-01            NaN
         13   -1    0    0    0    0  0.00000000000E+00  0.00000000000E+00  0.74505805969E-08  0.10566000000E+00  0.10566000000E+00 0. -1.
     999900   -1    0    0    0    0 -0.00000000000E+00 -0.00000000000E+00 -0.74505805969E-08  0.93827000000E+00  0.93827000000E+00 0.  1.
     999902    2    1    2    0    0 -0.28794227955E-02  0.18114460857E-01  0.82430750766E-02  0.10238209708E+01  0.10236234695E+01 0.  0.
     999903    2    3    3    0    0  0.16040183459E-01  0.11556557275E+00 -0.65205432773E-01  0.13519880476E+00  0.20353851084E-01 0.  0.
         14    1    1    2    0    0  0.28794227955E-02 -0.18114460857E-01 -0.82430750766E-02  0.20109029179E-01  0.00000000000E+00 0. -1.
     999901    1    3    3    0    0 -0.18919606255E-01 -0.97451111897E-01  0.73448507849E-01  0.88862216606E+00  0.88000000000E+00 0. -1.
        -11    1    4    4    0    0  0.31760580732E-03  0.59640954144E-01 -0.40346773345E-01  0.72008801719E-01  0.51100000000E-03 0.  1.
         11    1    4    4    0    0  0.15722577652E-01  0.55924618611E-01 -0.24858659427E-01  0.63190003041E-01  0.51100000000E-03 0. -1.
</event>
<event>
 8    1  0.1157726E+005  0.1043930E+01  0.7957747E-01            NaN
         13   -1    0    0    0    0  0.00000000000E+00  0.00000000000E+00  0.74505805969E-08  0.10566000000E+00  0.10566000000E+00 0.  1.
     999900   -1    0    0    0    0 -0.00000000000E+00 -0.00000000000E+00 -0.74505805969E-08  0.93827000000E+00  0.93827000000E+00 0. -1.
     999902    2    1    2    0    0  0.12192185550E-01  0.11780636962E-01 -0.15867816401E-01  0.10207088805E+01  0.10204447061E+01 0.  0.
     999903    2    3    3    0    0  0.27449833164E-01  0.82530279787E-02 -0.12871141429E+00  0.13336513791E+00  0.19950589728E-01 0.  0.
         14    1    1    2    0    0 -0.12192185550E-01 -0.11780636962E-01  0.15867816401E-01  0.23221119548E-01  0.00000000000E+00 0.  1.
     999901    1    3    3    0    0 -0.15257647614E-01  0.35276089838E-02  0.11284359789E+00  0.88734374254E+00  0.88000000000E+00 0.  1.
        -11    1    4    4    0    0  0.12152723331E-01 -0.60116584786E-02 -0.40738891722E-01  0.42938876810E-01  0.51100000000E-03 0. -1.
         11    1    4    4    0    0  0.15297109833E-01  0.14264686457E-01 -0.87972522570E-01  0.90426261104E-01  0.51100000000E-03 0.  1.
</event>
<event>
 8    1  0.1157726E+005  0.1043930E+01  0.7957747E-01            NaN
         13   -1    0    0    0    0  0.00000000000E+00  0.00000000000E+00  0.74505805969E-08  0.10566000000E+00  0.10566000000E+00 0.  1.
     999900   -1    0    0    0    0 -0.00000000000E+00 -0.00000000000E+00 -0.74505805969E-08  0.93827000000E+00  0.93827000000E+00 0.  1.
     999902    2    1    2    0    0 -0.16993384493E-01 -0.15183880725E-01  0.70327043553E-02  0.10200808013E+01  0.10198019694E+01 0.  0.
     999903    2    3    3    0    0  0.60779721071E-01 -0.11304397307E+00 -0.14368897925E-01  0.13098953361E+00  0.21878718994E-01 0.  0.
         14    1    1    2    0    0  0.16993384493E-01  0.15183880725E-01 -0.70327043553E-02  0.23849198749E-01  0.00000000000E+00 0. -1.
     999901    1    3    3    0    0 -0.77773105563E-01  0.97860092349E-01  0.21401602280E-01  0.88909126765E+00  0.88000000000E+00 0. -1.
        -11    1    4    4    0    0  0.13130134432E-01 -0.15901293643E-01 -0.94157006053E-02  0.22675275271E-01  0.51100000000E-03 0.  1.
         11    1    4    4    0    0  0.47649586639E-01 -0.97142679432E-01 -0.49531973197E-02  0.10831425834E+00  0.51100000000E-03 0. -1.
</event>
<event>
 8    1  0.1157726E+005  0.1043930E+01  0.7957747E-01            NaN
         13   -1    0    0    0    0  0.00000000000E+00  0.00000000000E+00  0.74505805969E-08  0.10566000000E+00  0.10566000000E+00 0.  1.
     999900   -1    0    0    0    0 -0.00000000000E+00 -0.00000000000E+00 -0.74505805969E-08  0.93827000000E+00  0.93827000000E+00 0.  1.
     999902    2    1    2    0    0  0.16276020629E-01  0.95135797903E-02  0.13725158202E-01  0.10206105443E+01  0.10203441018E+01 0.  0.
     999903    2    3    3    0    0 -0.10527388797E+00 -0.35071191024E-01 -0.60771483139E-01  0.12802333192E+00  0.19601541441E-01 0.  0.
         14    1    1    2    0    0 -0.16276020629E-01 -0.95135797903E-02 -0.13725158202E-01  0.23319455732E-01  0.00000000000E+00 0. -1.
     999901    1    3    3    0    0  0.12154990859E+00  0.44584770815E-01  0.74496641341E-01  0.89258721234E+00  0.88000000000E+00 0. -1.
        -11    1    4    4    0    0 -0.78971871788E-01 -0.17345697768E-01 -0.46081695981E-01  0.93065641298E-01  0.51100000000E-03 0. -1.
         11    1    4    4    0    0 -0.26302016178E-01 -0.17725493256E-01 -0.14689787158E-01  0.34957690627E-01  0.51100000000E-03 0.  1.
</event>
<event>
 8    1  0.1157726E+005  0.1043930E+01  0.7957747E-01            NaN
         13   -1    0    0    0    0  0.00000000000E+00  0.00000000000E+00  0.74505805969E-08  0.10566000000E+00  0.10566000000E+00 0. -1.
     999900   -1    0    0    0    0 -0.00000000000E+00 -0.00000000000E+00 -0.74505805969E-08  0.93827000000E+00  0.93827000000E+00 0. -1.
     999902    2    1    2    0    0  0.22433608114E-01  0.23549208291E-02  0.13915869637E-01  0.10174259653E+01  0.10170806906E+01 0.  0.
     999903    2    3    3    0    0 -0.12074006390E+00 -0.25089604554E-01 -0.76841467046E-02  0.12517125786E+00  0.20028639381E-01 0.  0.
         14    1    1    2    0    0 -0.22433608114E-01 -0.23549208291E-02 -0.13915869637E-01  0.26504034653E-01  0.00000000000E+00 0.  1.
     999901    1    3    3    0    0  0.14317367202E+00  0.27444525383E-01  0.21600016342E-01  0.89225470749E+00  0.88000000000E+00 0. -1.
        -11    1    4    4    0    0 -0.39026176210E-01 -0.36532868651E-02  0.57823145027E-02  0.39624300833E-01  0.51100000000E-03 0.  1.
         11    1    4    4    0    0 -0.81713887691E-01 -0.21436317689E-01 -0.13466461207E-01  0.85546957024E-01  0.51100000000E-03 0. -1.
</event>
<event>
 8    1  0.1157726E+005  0.1043930E+01  0.7957747E-01            NaN
         13   -1    0    0    0    0  0.00000000000E+00  0.00000000000E+00  0.74505805969E-08  0.10566000000E+00  0.10566000000E+00 0.  1.
     999900   -1    0    0    0    0 -0.00000000000E+00 -0.00000000000E+00 -0.74505805969E-08  0.93827000000E+00  0.93827000000E+00 0. -1.
     999902    2    1    2    0    0 -0.23094239408E-01 -0.81752836269E-02  0.69246440651E-03  0.10194216614E+01  0.10191270112E+01 0.  0.
     999903    2    3    3    0    0  0.98720435897E-01  0.58433664587E-01 -0.51945813597E-01  0.12698322907E+00  0.16314266599E-01 0.  0.
         14    1    1    2    0    0  0.23094239408E-01  0.81752836269E-02 -0.69246440651E-03  0.24508338646E-01  0.00000000000E+00 0. -1.
     999901    1    3    3    0    0 -0.12181467531E+00 -0.66608948214E-01  0.52638278004E-01  0.89243843228E+00  0.88000000000E+00 0. -1.
        -11    1    4    4    0    0  0.51883106873E-01  0.24561793608E-01 -0.19103521687E-01  0.60500778060E-01  0.51100000000E-03 0.  1.
         11    1    4    4    0    0  0.46837329025E-01  0.33871870980E-01 -0.32842291910E-01  0.66482451013E-01  0.51100000000E-03 0. -1.
</event>
<event>
 8    1  0.1157726E+005  0.1043930E+01  0.7957747E-01            NaN
         13   -1    0    0    0    0  0.00000000000E+00  0.00000000000E+00  0.74505805969E-08  0.10566000000E+00  0.10566000000E+00 0. -1.
     999900   -1    0    0    0    0 -0.00000000000E+00 -0.00000000000E+00 -0.74505805969E-08  0.93827000000E+00  0.93827000000E+00 0.  1.
     999902    2    1    2    0    0 -0.19397743560E-01 -0.20013610827E-01  0.90301491916E-02  0.10146322071E+01  0.10142091279E+01 0.  0.
     999903    2    3    3    0    0  0.11112919711E+00 -0.49020298949E-01  0.18944024415E-01  0.12447662795E+00  0.19566979457E-01 0.  0.
         14    1    1    2    0    0  0.19397743560E-01  0.20013610827E-01 -0.90301491916E-02  0.29297792886E-01  0.00000000000E+00 0. -1.
     999901    1    3    3    0    0 -0.13052694067E+00  0.29006688122E-01 -0.99138752233E-02  0.89015557917E+00  0.88000000000E+00 0. -1.
        -11    1    4    4    0    0  0.53466015371E-01 -0.28824040152E-01  0.83134700609E-03  0.60748599566E-01  0.51100000000E-03 0.  1.
         11    1    4    4    0    0  0.57663181739E-01 -0.20196258796E-01  0.18112677409E-01  0.63728028383E-01  0.51100000000E-03 0. -1.
</event>
<event>
 8    1  0.1157726E+005  0.1043930E+01  0.7957747E-01            NaN
         13   -1    0    0    0    0  0.00000000000E+00  0.00000000000E+00  0.74505805969E-08  0.10566000000E+00  0.10566000000E+00 0.  1.
     999900   -1    0    0    0    0 -0.00000000000E+00 -0.00000000000E+00 -0.74505805969E-08  0.93827000000E+00  0.93827000000E+00 0. -1.
     999902    2    1    2    0    0  0.11737920574E-01 -0.18073662342E-01 -0.87691122235E-02  0.10206634279E+01  0.10203982064E+01 0.  0.
     999903    2    3    3    0    0 -0.79407478491E-01  0.97202481817E-01 -0.16143267109E-01  0.12844683345E+00  0.22002587097E-01 0.  0.
         14    1    1    2    0    0 -0.11737920574E-01  0.18073662342E-01  0.87691122235E-02  0.23266572138E-01  0.00000000000E+00 0.  1.
     999901    1    3    3    0    0  0.91145399065E-01 -0.11527614416E+00  0.73741548853E-02  0.89221659441E+00  0.88000000000E+00 0. -1.
        -11    1    4    4    0    0 -0.38269705171E-01  0.51287038218E-01  0.24891553314E-02  0.64042077092E-01  0.51100000000E-03 0. -1.
         11    1    4    4    0    0 -0.41137773320E-01  0.45915443599E-01 -0.18632422440E-01  0.64404756358E-01  0.51100000000E-03 0.  1.
</event>
<event>
 8    1  0.1157726E+005  0.1043930E+01  0.7957747E-01            NaN
         13   -1    0    0    0    0  0.00000000000E+00  0.00000000000E+00  0.74505805969E-08  0.10566000000E+00  0.10566000000E+00 0. -1.
     999900   -1    0    0    0    0 -0.00000000000E+00 -0.00000000000E+00 -0.74505805969E-08  0.93827000000E+00  0.93827000000E+00 0. -1.
     999902    2    1    2    0    0 -0.29715997769E-02  0.72248531883E-02  0.22740712193E-01  0.10198848570E+01  0.10196013695E+01 0.  0.
     999903    2    3    3    0    0 -0.95636881274E-01 -0.72167828767E-01 -0.43637291738E-01  0.12898862754E+00  0.19474194068E-01 0.  0.
         14    1    1    2    0    0  0.29715997769E-02 -0.72248531883E-02 -0.22740712193E-01  0.24045142958E-01  0.00000000000E+00 0.  1.
     999901    1    3    3    0    0  0.92665281497E-01  0.79392681956E-01  0.66378003930E-01  0.89089622951E+00  0.88000000000E+00 0.  1.
        -11    1    4    4    0    0 -0.52030427792E-01 -0.42235649831E-01 -0.14378864106E-01  0.68542165029E-01  0.51100000000E-03 0.  1.
         11    1    4    4    0    0 -0.43606453482E-01 -0.29932178937E-01 -0.29258427632E-01  0.60446462507E-01  0.51100000000E-03 0. -1.
</event>
<event>
 8    1  0.1157726E+005  0.1043930E+01  0.7957747E-01            NaN
         13   -1    0    0    0    0  0.00000000000E+00  0.00000000000E+00  0.74505805969E-08  0.10566000000E+00  0.10566000000E+00 0.  1.
     999900   -1    0    0    0    0 -0.00000000000E+00 -0.00000000000E+00 -0.74505805969E-08  0.93827000000E+00  0.93827000000E+00 0.  1.
     999902    2    1    2    0    0 -0.97233324069E-03 -0.22746170800E-01 -0.63661293345E-02  0.10202897521E+01  0.10200158415E+01 0.  0.
     999903    2    3    3    0    0  0.37615059901E-01 -0.98269408357E-01  0.77571425531E-01  0.13223667968E+00  0.19935998689E-01 0.  0.
         14    1    1    2    0    0  0.97233324069E-03  0.22746170800E-01  0.63661293345E-02  0.23640247898E-01  0.00000000000E+00 0. -1.
     999901    1    3    3    0    0 -0.38587393141E-01  0.75523237557E-01 -0.83937554865E-01  0.88805307242E+00  0.88000000000E+00 0.  1.
        -11    1    4    4    0    0  0.17064248647E-01 -0.55140644174E-01  0.31018037158E-01  0.65529069671E-01  0.51100000000E-03 0. -1.
         11    1    4    4    0    0  0.20550811253E-01 -0.43128764184E-01  0.46553388373E-01  0.66707610009E-01  0.51100000000E-03 0.  1.
</event>
<event>
 8    1  0.1157726E+005  0.1043930E+01  0.7957747E-01            NaN
         13   -1    0    0    0    0  0.00000000000E+00  0.00000000000E+00  0.74505805969E-08  0.10566000000E+00  0.10566000000E+00 0.  1.
     999900   -1    0    0    0    0 -0.00000000000E+00 -0.00000000000E+00 -0.74505805969E-08  0.93827000000E+00  0.93827000000E+00 0.  1.
     999902    2    1    2    0    0  0.13093833351E-01 -0.13929532789E-01  0.18073668873E-01  0.10176214869E+01  0.10172813538E+01 0.  0.
     999903    2    3    3    0    0 -0.62367833704E-01  0.55528367041E-01 -0.90868395546E-01  0.12499209210E+00  0.19819474034E-01 0.  0.
         14    1    1    2    0    0 -0.13093833351E-01  0.13929532789E-01 -0.18073668873E-01  0.26308513111E-01  0.00000000000E+00 0. -1.
     999901    1    3    3    0    0  0.75461667056E-01 -0.69457899830E-01  0.10894206442E+00  0.89262939479E+00  0.88000000000E+00 0. -1.
        -11    1    4    4    0    0 -0.45043802379E-02  0.11685990263E-02 -0.12867513594E-01  0.13692665632E-01  0.51100000000E-03 0.  1.
         11    1    4    4    0    0 -0.57863453466E-01  0.54359768015E-01 -0.78000881952E-01  0.11129942647E+00  0.51100000000E-03 0. -1.
</event>
<event>
 8    1  0.1157726E+005  0.1043930E+01  0.7957747E-01            NaN
         13   -1    0    0    0    0  0.00000000000E+00  0.00000000000E+00  0.74505805969E-08  0.10566000000E+00  0.10566000000E+00 0. -1.
     999900   -1    0    0    0    0 -0.00000000000E+00 -0.00000000000E+00 -0.74505805969E-08  0.93827000000E+00  0.93827000000E+00 0. -1.
     999902    2    1    2    0    0 -0.73696781451E-02  0.22440931541E-01 -0.44468755265E-02  0.10198949783E+01  0.10196117323E+01 0.  0.
     999903    2    3    3    0    0  0.10393919990E+00 -0.60536118734E-01 -0.39872515912E-01  0.12830660179E+00  0.20119333710E-01 0.  0.
         14    1    1    2    0    0  0.73696781451E-02 -0.22440931541E-01  0.44468755265E-02  0.24035021663E-01  0.00000000000E+00 0. -1.
     999901    1    3    3    0    0 -0.11130887805E+00  0.82977050275E-01  0.35425640386E-01  0.89158837655E+00  0.88000000000E+00 0. -1.
        -11    1    4    4    0    0  0.19001947902E-01 -0.86148032565E-02 -0.14983025026E-01  0.25691263479E-01  0.51100000000E-03 0. -1.
         11    1    4    4    0    0  0.84937252000E-01 -0.51921315477E-01 -0.24889490887E-01  0.10261533831E+00  0.51100000000E-03 0.  1.
</event>
<event>
 8    1  0.1157726E+005  0.1043930E+01  0.7957747E-01            NaN
         13   -1    0    0    0    0  0.00000000000E+00  0.00000000000E+00  0.74505805969E-08  0.10566000000E+00  0.10566000000E+00 0. -1.
     999900   -1    0    0    0    0 -0.00000000000E+00 -0.00000000000E+00 -0.74505805969E-08  0.93827000000E+00  0.93827000000E+00 0.  1.
     999902    2    1    2    0    0  0.10556351681E-01 -0.96991982881E-03  0.21119705223E-01  0.10202991038E+01  0.10200254124E+01 0.  0.
     999903    2    3    3    0    0 -0.10462993460E+00 -0.28613993413E-01  0.70716105768E-01  0.13097808288E+00  0.19705500406E-01 0.  0.
         14    1    1    2    0    0 -0.10556351681E-01  0.96991982881E-03 -0.21119705223E-01  0.23630896174E-01  0.00000000000E+00 0.  1.
     999901    1    3    3    0    0  0.11518628628E+00  0.27644073585E-01 -0.49596400545E-01  0.88932102095E+00  0.88000000000E+00 0.  1.
        -11    1    4    4    0    0 -0.55635284548E-01 -0.14699567201E-01  0.25791021795E-01  0.63061875082E-01  0.51100000000E-03 0. -1.
         11    1    4    4    0    0 -0.48994650051E-01 -0.13914426213E-01  0.44925083974E-01  0.67916207797E-01  0.51100000000E-03 0.  1.
</event>
<event>
 8    1  0.1157726E+005  0.1043930E+01  0.7957747E-01            NaN
         13   -1    0    0    0    0  0.00000000000E+00  0.00000000000E+00  0.74505805969E-08  0.10566000000E+00  0.10566000000E+00 0.  1.
     999900   -1    0    0    0    0 -0.00000000000E+00 -0.00000000000E+00 -0.74505805969E-08  0.93827000000E+00  0.93827000000E+00 0.  1.
     999902    2    1    2    0    0 -0.41378222574E-02  0.22452444436E-01 -0.31863910016E-02  0.10208781688E+01  0.10206178759E+01 0.  0.
     999903    2    3    3    0    0 -0.35210389739E-02  0.12759466222E+00 -0.37324961616E-01  0.13396176440E+00  0.16118499342E-01 0.  0.
         14    1    1    2    0    0  0.41378222574E-02 -0.22452444436E-01  0.31863910016E-02  0.23051831202E-01  0.00000000000E+00 0.  1.
     999901    1    3    3    0    0 -0.61678328355E-03 -0.10514221778E+00  0.34138570614E-01  0.88691640439E+00  0.88000000000E+00 0.  1.
        -11    1    4    4    0    0  0.49703509497E-02  0.69664159165E-01 -0.16040678730E-01  0.71661453766E-01  0.51100000000E-03 0. -1.
         11    1    4    4    0    0 -0.84913899236E-02  0.57930503050E-01 -0.21284282886E-01  0.62300310637E-01  0.51100000000E-03 0.  1.
</event>
<event>
 8    1  0.1157726E+005  0.1043930E+01  0.7957747E-01            NaN
         13   -1    0    0    0    0  0.00000000000E+00  0.00000000000E+00  0.74505805969E-08  0.10566000000E+00  0.10566000000E+00 0.  1.
     999900   -1    0    0    0    0 -0.00000000000E+00 -0.00000000000E+00 -0.74505805969E-08  0.93827000000E+00  0.93827000000E+00 0.  1.
     999902    2    1    2    0    0 -0.22110565139E-01  0.81294992963E-02 -0.76662735202E-03  0.10203598161E+01  0.10200875457E+01 0.  0.
     999903    2    3    3    0    0  0.20558717567E-01 -0.14075830377E-02  0.12700528928E+00  0.13005802107E+00  0.18976384835E-01 0.  0.
         14    1    1    2    0    0  0.22110565139E-01 -0.81294992963E-02  0.76662735202E-03  0.23570183858E-01  0.00000000000E+00 0. -1.
     999901    1    3    3    0    0 -0.42669282706E-01  0.95370823340E-02 -0.12777191663E+00  0.89030179507E+00  0.88000000000E+00 0.  1.
        -11    1    4    4    0    0  0.18706714799E-01 -0.76456873031E-02  0.11001886311E+00  0.11186066812E+00  0.51100000000E-03 0. -1.
         11    1    4    4    0    0  0.18520027679E-02  0.62381042655E-02  0.16986426177E-01  0.18197352949E-01  0.51100000000E-03 0.  1.
</event>
<event>
 8    1  0.1157726E+005  0.1043930E+01  0.7957747E-01            NaN
         13   -1    0    0    0    0  0.00000000000E+00  0.00000000000E+00  0.74505805969E-08  0.10566000000E+00  0.10566000000E+00 0. -1.
     999900   -1    0    0    0    0 -0.00000000000E+00 -0.00000000000E+00 -0.74505805969E-08  0.93827000000E+00  0.93827000000E+00 0. -1.
     999902    2    1    2    0    0 -0.19064969274E-01 -0.26985148288E-01 -0.21481482739E-02  0.10108197928E+01  0.10102773716E+01 0.  0.
     999903    2    3    3    0    0 -0.98541601481E-01 -0.10384978730E-01 -0.72176555540E-01  0.12431199330E+00  0.20633019750E-01 0.  0.
         14    1    1    2    0    0  0.19064969274E-01  0.26985148288E-01  0.21481482739E-02  0.33110207226E-01  0.00000000000E+00 0. -1.
     999901    1    3    3    0    0  0.79476632207E-01 -0.16600169558E-01  0.70028407267E-01  0.88650779947E+00  0.88000000000E+00 0.  1.
        -11    1    4    4    0    0 -0.23806735643E-01  0.34897215334E-02 -0.98154432196E-02  0.25991207455E-01  0.51100000000E-03 0.  1.
         11    1    4    4    0    0 -0.74734865838E-01 -0.13874700263E-01 -0.62361112321E-01  0.98320785850E-01  0.51100000000E-03 0. -1.
</event>
<event>
 8    1  0.1157726E+005  0.1043930E+01  0.7957747E-01            NaN
         13   -1    0    0    0    0  0.00000000000E+00  0.00000000000E+00  0.74505805969E-08  0.10566000000E+00  0.10566000000E+00 0. -1.
     999900   -1    0    0    0    0 -0.00000000000E+00 -0.00000000000E+00 -0.74505805969E-08  0.93827000000E+00  0.93827000000E+00 0.  1.
     999902    2    1    2    0    0 -0.22950238305E-01 -0.40682861748E-03 -0.14231220301E-01  0.10169224718E+01  0.10165637742E+01 0.  0.
     999903    2    3    3    0    0  0.19795400001E-01 -0.73190563663E-01  0.98279751719E-01  0.12575280193E+00  0.20152943347E-01 0.  0.
         14    1    1    2    0    0  0.22950238305E-01  0.40682861748E-03  0.14231220301E-01  0.27007528191E-01  0.00000000000E+00 0.  1.
     999901    1    3    3    0    0 -0.42745638306E-01  0.72783735046E-01 -0.11251097202E+00  0.89116966988E+00  0.88000000000E+00 0.  1.
        -11    1    4    4    0    0  0.10078091017E-01 -0.25759408456E-01  0.21746290524E-01  0.35189164740E-01  0.51100000000E-03 0. -1.
         11    1    4    4    0    0  0.97173089844E-02 -0.47431155208E-01  0.76533461195E-01  0.90563637193E-01  0.51100000000E-03 0.  1.
</event>
<event>
 8    1  0.1157726E+005  0.1043930E+01  0.7957747E-01            NaN
         13   -1    0    0    0    0  0.00000000000E+00  0.00000000000E+00  0.74505805969E-08  0.10566000000E+00  0.10566000000E+00 0. -1.
     999900   -1    0    0    0    0 -0.00000000000E+00 -0.00000000000E+00 -0.74505805969E-08  0.93827000000E+00  0.93827000000E+00 0.  1.
     999902    2    1    2    0    0 -0.15702484482E-01  0.50853712111E-02  0.17288356485E-01  0.10200277765E+01  0.10197476886E+01 0.  0.
     999903    2    3    3    0    0  0.38539645275E-01 -0.38368371432E-01  0.11786075020E+00  0.13157674082E+00  0.21537086691E-01 0.  0.
         14    1    1    2    0    0  0.15702484482E-01 -0.50853712111E-02 -0.17288356485E-01  0.23902223521E-01  0.00000000000E+00 0.  1.
     999901    1    3    3    0    0 -0.54242129757E-01  0.43453742643E-01 -0.10057239371E+00  0.88845103566E+00  0.88000000000E+00 0.  1.
        -11    1    4    4    0    0  0.26613030897E-01 -0.16612561581E-01  0.47131185597E-01  0.56620141227E-01  0.51100000000E-03 0.  1.
         11    1    4    4    0    0  0.11926614378E-01 -0.21755809851E-01  0.70729564600E-01  0.74956599591E-01  0.51100000000E-03 0. -1.
</event>
<event>
 8    1  0.1157726E+005  0.1043930E+01  0.7957747E-01            NaN
         13   -1    0    0    0    0  0.00000000000E+00  0.00000000000E+00  0.74505805969E-08  0.10566000000E+00  0.10566000000E+00 0.  1.
     999900   -1    0    0    0    0 -0.00000000000E+00 -0.00000000000E+00 -0.74505805969E-08  0.93827000000E+00  0.93827000000E+00 0.  1.
     999902    2    1    2    0    0 -0.20318904704E-01  0.13091954897E-01  0.29942461581E-02  0.10195738369E+01  0.10192828784E+01 0.  0.
     999903    2    3    3    0    0  0.81302084411E-01  0.60760517526E-01  0.76979858630E-01  0.12936431765E+00  0.22524622682E-01 0.  0.
         14    1    1    2    0    0  0.20318904704E-01 -0.13091954897E-01 -0.29942461581E-02  0.24356163110E-01  0.00000000000E+00 0.  1.
     999901    1    3    3    0    0 -0.10162098911E+00 -0.47668562629E-01 -0.73985612472E-01  0.89020951924E+00  0.88000000000E+00 0.  1.
        -11    1    4    4    0    0  0.41804251736E-01  0.23667012458E-01  0.48011669607E-01  0.67919838643E-01  0.51100000000E-03 0. -1.
         11    1    4    4    0    0  0.39497832675E-01  0.37093505067E-01  0.28968189023E-01  0.61444479007E-01  0.51100000000E-03 0.  1.
</event>
<event>
 8    1  0.1157726E+005  0.1043930E+01  0.7957747E-01            NaN
         13   -1    0    0    0    0  0.00000000000E+00  0.00000000000E+00  0.74505805969E-08  0.10566000000E+00  0.10566000000E+00 0.  1.
     999900   -1    0    0    0    0 -0.00000000000E+00 -0.00000000000E+00 -0.74505805969E-08  0.93827000000E+00  0.93827000000E+00 0.  1.
     999902    2    1    2    0    0  0.11256963646E-01  0.20361151558E-01 -0.98519782732E-03  0.10206433871E+01  0.10203777033E+01 0.  0.
     999903    2    3    3    0    0 -0.80123388901E-01  0.92896259276E-01  0.43489791491E-01  0.13182971975E+00  0.20934197107E-01 0.  0.
         14    1    1    2    0    0 -0.11256963646E-01 -0.20361151558E-01  0.98519782732E-03  0.23286612851E-01  0.00000000000E+00 0. -1.
     999901    1    3    3    0    0  0.91380352548E-01 -0.72535107717E-01 -0.44474989319E-01  0.88881366740E+00  0.88000000000E+00 0. -1.
        -11    1    4    4    0    0 -0.44016568951E-01  0.65166437243E-01  0.23260637565E-01  0.82008787737E-01  0.51100000000E-03 0.  1.
         11    1    4    4    0    0 -0.36106819950E-01  0.27729822032E-01  0.20229153927E-01  0.49820932011E-01  0.51100000000E-03 0. -1.
</event>
<event>
 8    1  0.1157726E+005  0.1043930E+01  0.7957747E-01            NaN
         13   -1    0    0    0    0  0.00000000000E+00  0.00000000000E+00  0.74505805969E-08  0.10566000000E+00  0.10566000000E+00 0.  1.
     999900   -1    0    0    0    0 -0.00000000000E+00 -0.00000000000E+00 -0.74505805969E-08  0.93827000000E+00  0.93827000000E+00 0. -1.
     999902    2    1    2    0    0  0.19304284034E-01 -0.65446546527E-02  0.10986887496E-01  0.10207740163E+01  0.10205113388E+01 0.  0.
     999903    2    3    3    0    0 -0.51904915268E-01 -0.52926259068E-01 -0.10397203430E+00  0.12923738941E+00  0.19920084771E-01 0.  0.
         14    1    1    2    0    0 -0.19304284034E-01  0.65446546527E-02 -0.10986887496E-01  0.23155983750E-01  0.00000000000E+00 0.  1.
     999901    1    3    3    0    0  0.71209199302E-01  0.46381604415E-01  0.11495892180E+00  0.89153662684E+00  0.88000000000E+00 0.  1.
        -11    1    4    4    0    0 -0.47921658723E-01 -0.37733177220E-01 -0.80768429546E-01  0.10121303459E+00  0.51100000000E-03 0.  1.
         11    1    4    4    0    0 -0.39832565457E-02 -0.15193081848E-01 -0.23203604756E-01  0.28024354826E-01  0.51100000000E-03 0. -1.
</event>
<event>
 8    1  0.1157726E+005  0.1043930E+01  0.7957747E-01            NaN
         13   -1    0    0    0    0  0.00000000000E+00  0.00000000000E+00  0.74505805969E-08  0.10566000000E+00  0.10566000000E+00 0.  1.
     999900   -1    0    0    0    0 -0.00000000000E+00 -0.00000000000E+00 -0.74505805969E-08  0.93827000000E+00  0.93827000000E+00 0.  1.
     999902    2    1    2    0    0  0.17918704817E-01 -0.63356924969E-02  0.13986824624E-01  0.10203322831E+01  0.10200593687E+01 0.  0.
     999903    2    3    3    0    0  0.11949752581E+00  0.71393226691E-02  0.55344094262E-01  0.13342177085E+00  0.20193354455E-01 0.  0.
         14    1    1    2    0    0 -0.17918704817E-01  0.63356924969E-02 -0.13986824624E-01  0.23597716941E-01  0.00000000000E+00 0.  1.
     999901    1    3    3    0    0 -0.10157882100E+00 -0.13475015166E-01 -0.41357269637E-01  0.88691051221E+00  0.88000000000E+00 0. -1.
        -11    1    4    4    0    0  0.26386969987E-01  0.37672200281E-02  0.21651484898E-01  0.34344024970E-01  0.51100000000E-03 0. -1.
         11    1    4    4    0    0  0.93110555827E-01  0.33721026410E-02  0.33692609364E-01  0.99077745884E-01  0.51100000000E-03 0.  1.
</event>
<event>
 8    1  0.1157726E+005  0.1043930E+01  0.7957747E-01            NaN
         13   -1    0    0    0    0  0.00000000000E+00  0.00000000000E+00  0.74505805969E-08  0.10566000000E+00  0.10566000000E+00 0. -1.
     999900   -1    0    0    0    0 -0.00000000000E+00 -0.00000000000E+00 -0.74505805969E-08  0.93827000000E+00  0.93827000000E+00 0. -1.
     999902    2    1    2    0    0 -0.22044978862E-01 -0.29326119155E-02  0.74548070491E-02  0.10204746071E+01  0.10202050129E+01 0.  0.
     999903    2    3    3    0    0 -0.12167399444E+00  0.27503928129E-01 -0.41337679237E-01  0.13298768869E+00  0.20393494866E-01 0.  0.
         14    1    1    2    0    0  0.22044978862E-01  0.29326119155E-02 -0.74548070491E-02  0.23455392851E-01  0.00000000000E+00 0.  1.
     999901    1    3    3    0    0  0.99629015580E-01 -0.30436540044E-01  0.48792486286E-01  0.88748691846E+00  0.88000000000E+00 0.  1.
        -11    1    4    4    0    0 -0.57616826374E-01  0.20960083787E-01 -0.27125638891E-01  0.67045396561E-01  0.51100000000E-03 0. -1.
         11    1    4    4    0    0 -0.64057168067E-01  0.65438443418E-02 -0.14212040347E-01  0.65942292130E-01  0.51100000000E-03 0.  1.
</event>
<event>
 8    1  0.1157726E+005  0.1043930E+01  0.7957747E-01            NaN
         13   -1    0    0    0    0  0.00000000000E+00  0.00000000000E+00  0.74505805969E-08  0.10566000000E+00  0.10566000000E+00 0. -1.
     999900   -1    0    0    0    0 -0.00000000000E+00 -0.00000000000E+00 -0.74505805969E-08  0.93827000000E+00  0.93827000000E+00 0.  1.
     999902    2    1    2    0    0  0.80281226571E-02 -0.21611869038E-01  0.14168719068E-04  0.10208751993E+01  0.10206148385E+01 0.  0.
     999903    2    3    3    0    0 -0.42492756482E-01  0.11963783128E+00  0.77281448184E-02  0.12814716536E+00  0.15592521927E-01 0.  0.
         14    1    1    2    0    0 -0.80281226571E-02  0.21611869038E-01 -0.14168719068E-04  0.23054800747E-01  0.00000000000E+00 0. -1.
     999901    1    3    3    0    0  0.50520879139E-01 -0.14124970032E+00 -0.77139760993E-02  0.89272803389E+00  0.88000000000E+00 0.  1.
        -11    1    4    4    0    0 -0.40474033623E-01  0.10172346443E+00  0.10149434299E-01  0.10995036495E+00  0.51100000000E-03 0.  1.
         11    1    4    4    0    0 -0.20187228597E-02  0.17914366849E-01 -0.24212894804E-02  0.18196800415E-01  0.51100000000E-03 0. -1.
</event>
<event>
 8    1  0.1157726E+005  0.1043930E+01  0.7957747E-01            NaN
         13   -1    0    0    0    0  0.00000000000E+00  0.00000000000E+00  0.74505805969E-08  0.10566000000E+00  0.10566000000E+00 0.  1.
     999900   -1    0    0    0    0 -0.00000000000E+00 -0.00000000000E+00 -0.74505805969E-08  0.93827000000E+00  0.93827000000E+00 0. -1.
     999902    2    1    2    0    0 -0.10075761979E-02  0.19807617568E-02 -0.23831467704E-01  0.10199951409E+01  0.10197142786E+01 0.  0.
     999903    2    3    3    0    0 -0.19289014927E-02 -0.81137149211E-01  0.96852258686E-01  0.12787743691E+00  0.19629600496E-01 0.  0.
         14    1    1    2    0    0  0.10075761979E-02 -0.19807617568E-02  0.23831467704E-01  0.23934859094E-01  0.00000000000E+00 0.  1.
     999901    1    3    3    0    0  0.92132529484E-03  0.83117910968E-01 -0.12068372639E+00  0.89211770399E+00  0.88000000000E+00 0. -1.
        -11    1    4    4    0    0 -0.95010882781E-02 -0.44308466172E-01  0.60354902016E-01  0.75475069866E-01  0.51100000000E-03 0. -1.
         11    1    4    4    0    0  0.75721867854E-02 -0.36828683040E-01  0.36497356670E-01  0.52402367046E-01  0.51100000000E-03 0.  1.
</event>
<event>
 8    1  0.1157726E+005  0.1043930E+01  0.7957747E-01            NaN
         13   -1    0    0    0    0  0.00000000000E+00  0.00000000000E+00  0.74505805969E-08  0.10566000000E+00  0.10566000000E+00 0.  1.
     999900   -1    0    0    0    0 -0.00000000000E+00 -0.00000000000E+00 -0.74505805969E-08  0.93827000000E+00  0.93827000000E+00 0.  1.
     999902    2    1    2    0    0  0.12306481277E-01 -0.10286389259E-01  0.19007583096E-01  0.10190593848E+01  0.10187558502E+01 0.  0.
     999903    2    3    3    0    0 -0.94089599910E-01 -0.30105990359E-01  0.82380268561E-01  0.13016735539E+00  0.19945132096E-01 0.  0.
         14    1    1    2    0    0 -0.12306481277E-01  0.10286389259E-01 -0.19007583096E-01  0.24870615203E-01  0.00000000000E+00 0. -1.
     999901    1    3    3    0    0  0.10639608119E+00  0.19819601100E-01 -0.63372685464E-01  0.88889202941E+00  0.88000000000E+00 0.  1.
        -11    1    4    4    0    0 -0.69147299559E-01 -0.12971839526E-01  0.60932486823E-01  0.93073340589E-01  0.51100000000E-03 0. -1.
         11    1    4    4    0    0 -0.24942300351E-01 -0.17134150833E-01  0.21447781737E-01  0.37094014801E-01  0.51100000000E-03 0.  1.
</event>
<event>
 8    1  0.1157726E+005  0.1043930E+01  0.7957747E-01            NaN
         13   -1    0    0    0    0  0.00000000000E+00  0.00000000000E+00  0.74505805969E-08  0.10566000000E+00  0.10566000000E+00 0. -1.
     999900   -1    0    0    0    0 -0.00000000000E+00 -0.00000000000E+00 -0.74505805969E-08  0.93827000000E+00  0.93827000000E+00 0. -1.
     999902    2    1    2    0    0 -0.13838861922E-01  0.13011074537E-01  0.13882239718E-01  0.10204030210E+01  0.10201317594E+01 0.  0.
     999903    2    3    3    0    0  0.11674135771E+00 -0.25653716431E-01  0.44166387148E-01  0.12941295969E+00  0.22591737766E-01 0.  0.
         14    1    1    2    0    0  0.13838861922E-01 -0.13011074537E-01 -0.13882239718E-01  0.23526978971E-01  0.00000000000E+00 0. -1.
     999901    1    3    3    0    0 -0.13058021963E+00  0.38664790968E-01 -0.30284147429E-01  0.89099006134E+00  0.88000000000E+00 0. -1.
        -11    1    4    4    0    0  0.76050006301E-01 -0.92492156355E-02  0.36534963082E-01  0.84877653695E-01  0.51100000000E-03 0. -1.
         11    1    4    4    0    0  0.40691351409E-01 -0.16404500795E-01  0.76314240656E-02  0.44535305995E-01  0.51100000000E-03 0.  1.
</event>
<event>
 8    1  0.1157726E+005  0.1043930E+01  0.7957747E-01            NaN
         13   -1    0    0    0    0  0.00000000000E+00  0.00000000000E+00  0.74505805969E-08  0.10566000000E+00  0.10566000000E+00 0.  1.
     999900   -1    0    0    0    0 -0.00000000000E+00 -0.00000000000E+00 -0.74505805969E-08  0.93827000000E+00  0.93827000000E+00 0.  1.
     999902    2    1    2    0    0 -0.81885278325E-02 -0.64685009700E-02  0.21620056111E-01  0.10199233276E+01  0.10196407573E+01 0.  0.
     999903    2    3    3    0    0 -0.10353595692E+00  0.58230975117E-01  0.56046964268E-01  0.13174408532E+00  0.10232349337E-01 0.  0.
         14    1    1    2    0    0  0.81885278325E-02  0.64685009700E-02 -0.21620056111E-01  0.24006672387E-01  0.00000000000E+00 0. -1.
     999901    1    3    3    0    0  0.95347429092E-01 -0.64699476087E-01 -0.34426908157E-01  0.88817924230E+00  0.88000000000E+00 0. -1.
        -11    1    4    4    0    0 -0.15351323706E-01  0.92564385818E-02  0.12574511843E-01  0.21902608608E-01  0.51100000000E-03 0. -1.
         11    1    4    4    0    0 -0.88184633219E-01  0.48974536535E-01  0.43472452425E-01  0.10984147671E+00  0.51100000000E-03 0.  1.
</event>
<event>
 8    1  0.1157726E+005  0.1043930E+01  0.7957747E-01            NaN
         13   -1    0    0    0    0  0.00000000000E+00  0.00000000000E+00  0.74505805969E-08  0.10566000000E+00  0.10566000000E+00 0. -1.
     999900   -1    0    0    0    0 -0.00000000000E+00 -0.00000000000E+00 -0.74505805969E-08  0.93827000000E+00  0.93827000000E+00 0. -1.
     999902    2    1    2    0    0 -0.24731593747E-01 -0.32582507709E-02  0.69725993758E-02  0.10180285508E+01  0.10176989954E+01 0.  0.
     999903    2    3    3    0    0 -0.50879501020E-01 -0.23168912404E-02  0.11863373255E+00  0.13058682999E+00  0.19618003454E-01 0.  0.
         14    1    1    2    0    0  0.24731593747E-01  0.32582507709E-02 -0.69725993758E-02  0.25901449176E-01  0.00000000000E+00 0.  1.
     999901    1    3    3    0    0  0.26147907273E-01 -0.94135953053E-03 -0.11166113317E+00  0.88744172083E+00  0.88000000000E+00 0. -1.
        -11    1    4    4    0    0 -0.30054570750E-01 -0.83794226794E-02  0.53507521475E-01  0.61941972222E-01  0.51100000000E-03 0.  1.
         11    1    4    4    0    0 -0.20824930269E-01  0.60625314390E-02  0.65126211075E-01  0.68644857769E-01  0.51100000000E-03 0. -1.
</event>
<event>
 8    1  0.1157726E+005  0.1043930E+01  0.7957747E-01            NaN
         13   -1    0    0    0    0  0.00000000000E+00  0.00000000000E+00  0.74505805969E-08  0.10566000000E+00  0.10566000000E+00 0.  1.
     999900   -1    0    0    0    0 -0.00000000000E+00 -0.00000000000E+00 -0.74505805969E-08  0.93827000000E+00  0.93827000000E+00 0. -1.
     999902    2    1    2    0    0 -0.39937402145E-02 -0.99045892540E-02  0.20435222586E-01  0.10208724812E+01  0.10206120584E+01 0.  0.
     999903    2    3    3    0    0  0.88546037944E-01  0.23990204199E-01  0.93398881688E-01  0.13237027915E+00  0.19560392879E-01 0.  0.
         14    1    1    2    0    0  0.39937402145E-02  0.99045892540E-02 -0.20435222586E-01  0.23057518759E-01  0.00000000000E+00 0. -1.
     999901    1    3    3    0    0 -0.92539778158E-01 -0.33894793453E-01 -0.72963659101E-01  0.88850220209E+00  0.88000000000E+00 0. -1.
        -11    1    4    4    0    0  0.54075732283E-01  0.23961566773E-01  0.55035076776E-01  0.80792711929E-01  0.51100000000E-03 0. -1.
         11    1    4    4    0    0  0.34470305661E-01  0.28637425718E-04  0.38363804912E-01  0.51577567224E-01  0.51100000000E-03 0.  1.
</event>
<event>
 8    1  0.1157726E+005  0.1043930E+01  0.7957747E-01            NaN
         13   -1    0    0    0    0  0.00000000000E+00  0.00000000000E+00  0.74505805969E-08  0.10566000000E+00  0.10566000000E+00 0. -1.
     999900   -1    0    0    0    0 -0.00000000000E+00 -0.00000000000E+00 -0.74505805969E-08  0.93827000000E+00  0.93827000000E+00 0. -1.
     999902    2    1    2    0    0 -0.36632185286E-02 -0.23152337130E-01 -0.49658333437E-02  0.10199694202E+01  0.10196879467E+01 0.  0.
     999903    2    3    3    0    0 -0.35783892991E-01 -0.12608023359E+00 -0.14151275593E-01  0.13334082717E+00  0.20070009686E-01 0.  0.
         14    1    1    2    0    0  0.36632185286E-02  0.23152337130E-01  0.49658333437E-02  0.23960579821E-01  0.00000000000E+00 0.  1.
     999901    1    3    3    0    0  0.32120674463E-01  0.10292789646E+00  0.91854422496E-02  0.88662859301E+00  0.88000000000E+00 0.  1.
        -11    1    4    4    0    0 -0.15091168574E-01 -0.79325971095E-01 -0.19498289010E-02  0.80773857236E-01  0.51100000000E-03 0. -1.
         11    1    4    4    0    0 -0.20692724417E-01 -0.46754262495E-01 -0.12201446692E-01  0.52566969931E-01  0.51100000000E-03 0.  1.
</event>
<event>
 8    1  0.1157726E+005  0.1043930E+01  0.7957747E-01            NaN
         13   -1    0    0    0    0  0.00000000000E+00  0.00000000000E+00  0.74505805969E-08  0.10566000000E+00  0.10566000000E+00 0.  1.
     999900   -1    0    0    0    0 -0.00000000000E+00 -0.00000000000E+00 -0.74505805969E-08  0.93827000000E+00  0.93827000000E+00 0. -1.
     999902    2    1    2    0    0 -0.59756078497E-02  0.78401570636E-02 -0.15731598463E-01  0.10253650022E+01  0.10251969219E+01 0.  0.
     999903    2    3    3    0    0 -0.44048511131E-01 -0.52476136725E-01  0.11237584098E+00  0.13323321976E+00  0.20706157373E-01 0.  0.
         14    1    1    2    0    0  0.59756078497E-02 -0.78401570636E-02  0.15731598463E-01  0.18564997769E-01  0.00000000000E+00 0.  1.
     999901    1    3    3    0    0  0.38072903281E-01  0.60316293789E-01 -0.12810743944E+00  0.89213178247E+00  0.88000000000E+00 0. -1.
        -11    1    4    4    0    0 -0.20140498276E-01 -0.28683506122E-01  0.75591541565E-01  0.83323018857E-01  0.51100000000E-03 0. -1.
         11    1    4    4    0    0 -0.23908012854E-01 -0.23792630603E-01  0.36784299411E-01  0.49910200900E-01  0.51100000000E-03 0.  1.
</event>
<event>
 8    1  0.1157726E+005  0.1043930E+01  0.7957747E-01            NaN
         13   -1    0    0    0    0  0.00000000000E+00  0.00000000000E+00  0.74505805969E-08  0.10566000000E+00  0.10566000000E+00 0. -1.
     999900   -1    0    0    0    0 -0.00000000000E+00 -0.00000000000E+00 -0.74505805969E-08  0.93827000000E+00  0.93827000000E+00 0. -1.
     999902    2    1    2    0    0 -0.36082680062E-02 -0.17017585244E-01  0.15734182112E-01  0.10204740350E+01  0.10202044275E+01 0.  0.
     999903    2    3    3    0    0  0.12680833406E-01  0.11187757707E+00  0.61376599981E-01  0.12976503205E+00  0.19861538963E-01 0.  0.
         14    1    1    2    0    0  0.36082680062E-02  0.17017585244E-01 -0.15734182112E-01  0.23455964962E-01  0.00000000000E+00 0.  1.
     999901    1    3    3    0    0 -0.16289101412E-01 -0.12889516232E+00 -0.45642417870E-01  0.89070900299E+00  0.88000000000E+00 0. -1.
        -11    1    4    4    0    0  0.10370669211E-01  0.21200906166E-01  0.11754087732E-01  0.26371365182E-01  0.51100000000E-03 0. -1.
         11    1    4    4    0    0  0.23101641947E-02  0.90676670909E-01  0.49622512249E-01  0.10339366687E+00  0.51100000000E-03 0.  1.
</event>
<event>
 8    1  0.1157726E+005  0.1043930E+01  0.7957747E-01            NaN
         13   -1    0    0    0    0  0.00000000000E+00  0.00000000000E+00  0.74505805969E-08  0.10566000000E+00  0.10566000000E+00 0. -1.
     999900   -1    0    0    0    0 -0.00000000000E+00 -0.00000000000E+00 -0.74505805969E-08  0.93827000000E+00  0.93827000000E+00 0. -1.
     999902    2    1    2    0    0  0.35669303869E-02  0.96225970397E-02 -0.21514559240E-01  0.10200931876E+01  0.10198146487E+01 0.  0.
     999903    2    3    3    0    0  0.11989245953E+00 -0.41255562306E-01 -0.25154022098E-01  0.13097370096E+00  0.21098868264E-01 0.  0.
         14    1    1    2    0    0 -0.35669303869E-02 -0.96225970397E-02  0.21514559240E-01  0.23836812401E-01  0.00000000000E+00 0. -1.
     999901    1    3    3    0    0 -0.11632552914E+00  0.50878159346E-01  0.36394628583E-02  0.88911948664E+00  0.88000000000E+00 0.  1.
        -11    1    4    4    0    0  0.55572133391E-01 -0.30262935831E-01 -0.12191800382E-01  0.64443839211E-01  0.51100000000E-03 0. -1.
         11    1    4    4    0    0  0.64320326140E-01 -0.10992626475E-01 -0.12962221716E-01  0.66529861750E-01  0.51100000000E-03 0.  1.
</event>
<event>
 8    1  0.1157726E+005  0.1043930E+01  0.7957747E-01            NaN
         13   -1    0    0    0    0  0.00000000000E+00  0.00000000000E+00  0.74505805969E-08  0.10566000000E+00  0.10566000000E+00 0. -1.
     999900   -1    0    0    0    0 -0.00000000000E+00 -0.00000000000E+00 -0.74505805969E-08  0.93827000000E+00  0.93827000000E+00 0. -1.
     999902    2    1    2    0    0 -0.17794769554E-01 -0.88483615751E-02 -0.13288096214E-01  0.10200234982E+01  0.10197433089E+01 0.  0.
     999903    2    3    3    0    0  0.64656833287E-01 -0.10613503743E-01  0.10770649286E+00  0.12792424751E+00  0.21697279671E-01 0.  0.
         14    1    1    2    0    0  0.17794769554E-01  0.88483615751E-02  0.13288096214E-01  0.23906501773E-01  0.00000000000E+00 0.  1.
     999901    1    3    3    0    0 -0.82451602840E-01  0.17651421683E-02 -0.12099458908E+00  0.89209925071E+00  0.88000000000E+00 0. -1.
        -11    1    4    4    0    0  0.17090651336E-01 -0.12505870942E-01  0.38135870186E-01  0.43624452856E-01  0.51100000000E-03 0.  1.
         11    1    4    4    0    0  0.47566181951E-01  0.18923671991E-02  0.69570622675E-01  0.84299794658E-01  0.51100000000E-03 0. -1.
</event>
<event>
 8    1  0.1157726E+005  0.1043930E+01  0.7957747E-01            NaN
         13   -1    0    0    0    0  0.00000000000E+00  0.00000000000E+00  0.74505805969E-08  0.10566000000E+00  0.10566000000E+00 0. -1.
     999900   -1    0    0    0    0 -0.00000000000E+00 -0.00000000000E+00 -0.74505805969E-08  0.93827000000E+00  0.93827000000E+00 0. -1.
     999902    2    1    2    0    0  0.23933234655E-02 -0.19237240631E-01  0.12900272324E-01  0.10206444583E+01  0.10203787992E+01 0.  0.
     999903    2    3    3    0    0 -0.86804765754E-01  0.71624598384E-01  0.61950866207E-01  0.13012880229E+00  0.20747166332E-01 0.  0.
         14    1    1    2    0    0 -0.23933234655E-02  0.19237240631E-01 -0.12900272324E-01  0.23285541659E-01  0.00000000000E+00 0.  1.
     999901    1    3    3    0    0  0.89198089219E-01 -0.90861839014E-01 -0.49050593883E-01  0.89051565605E+00  0.88000000000E+00 0. -1.
        -11    1    4    4    0    0 -0.36190460783E-01  0.18090985431E-01  0.17518093095E-01  0.44092832890E-01  0.51100000000E-03 0. -1.
         11    1    4    4    0    0 -0.50614304971E-01  0.53533612953E-01  0.44432773112E-01  0.86035969402E-01  0.51100000000E-03 0.  1.
</event>
<event>
 8    1  0.1157726E+005  0.1043930E+01  0.7957747E-01            NaN
         13   -1    0    0    0    0  0.00000000000E+00  0.00000000000E+00  0.74505805969E-08  0.10566000000E+00  0.10566000000E+00 0. -1.
     999900   -1    0    0    0    0 -0.00000000000E+00 -0.00000000000E+00 -0.74505805969E-08  0.93827000000E+00  0.93827000000E+00 0. -1.
     999902    2    1    2    0    0  0.18587381725E-02  0.12288620038E-01  0.19587486959E-01  0.10207322687E+01  0.10204686324E+01 0.  0.
     999903    2    3    3    0    0  0.30439539819E-01  0.14790642106E-01  0.12780493831E+00  0.13363918506E+00  0.19493610509E-01 0.  0.
         14    1    1    2    0    0 -0.18587381725E-02 -0.12288620038E-01 -0.19587486959E-01  0.23197731255E-01  0.00000000000E+00 0. -1.
     999901    1    3    3    0    0 -0.28580801646E-01 -0.25020220679E-02 -0.10821745135E+00  0.88709308368E+00  0.88000000000E+00 0. -1.
        -11    1    4    4    0    0  0.91891524382E-03  0.88746499274E-02  0.28211361120E-01  0.29593003123E-01  0.51100000000E-03 0.  1.
         11    1    4    4    0    0  0.29520624575E-01  0.59159921786E-02  0.99593577187E-01  0.10404618194E+00  0.51100000000E-03 0. -1.
</event>
<event>
 8    1  0.1157726E+005  0.1043930E+01  0.7957747E-01            NaN
         13   -1    0    0    0    0  0.00000000000E+00  0.00000000000E+00  0.74505805969E-08  0.10566000000E+00  0.10566000000E+00 0.  1.
     999900   -1    0    0    0    0 -0.00000000000E+00 -0.00000000000E+00 -0.74505805969E-08  0.93827000000E+00  0.93827000000E+00 0. -1.
     999902    2    1    2    0    0 -0.10115688220E-01  0.19911333199E-01  0.73340116316E-02  0.10204230635E+01  0.10201522692E+01 0.  0.
     999903    2    3    3    0    0  0.42234815858E-01  0.51280480376E-01 -0.11062972682E+00  0.13045674824E+00  0.19145740167E-01 0.  0.
         14    1    1    2    0    0  0.10115688220E-01 -0.19911333199E-01 -0.73340116316E-02  0.23506936520E-01  0.00000000000E+00 0. -1.
     999901    1    3    3    0    0 -0.52350504078E-01 -0.31369147176E-01  0.11796373845E+00  0.88996631524E+00  0.88000000000E+00 0. -1.
        -11    1    4    4    0    0  0.21582469017E-01  0.17138682378E-01 -0.59691705350E-01  0.65748750643E-01  0.51100000000E-03 0. -1.
         11    1    4    4    0    0  0.20652346842E-01  0.34141797998E-01 -0.50938021472E-01  0.64707997598E-01  0.51100000000E-03 0.  1.
</event>
<event>
 8    1  0.1157726E+005  0.1043930E+01  0.7957747E-01            NaN
         13   -1    0    0    0    0  0.00000000000E+00  0.00000000000E+00  0.74505805969E-08  0.10566000000E+00  0.10566000000E+00 0. -1.
     999900   -1    0    0    0    0 -0.00000000000E+00 -0.00000000000E+00 -0.74505805969E-08  0.93827000000E+00  0.93827000000E+00 0. -1.
     999902    2    1    2    0    0 -0.67697128683E-02  0.16607266090E-01 -0.19396335650E-01  0.10175131846E+01  0.10171702083E+01 0.  0.
     999903    2    3    3    0    0  0.29693265875E-01  0.10777636094E+00  0.59704168733E-01  0.12852598420E+00  0.21375379193E-01 0.  0.
         14    1    1    2    0    0  0.67697128683E-02 -0.16607266090E-01  0.19396335650E-01  0.26416815401E-01  0.00000000000E+00 0. -1.
     999901    1    3    3    0    0 -0.36462978743E-01 -0.91169094850E-01 -0.79100504382E-01  0.88898720040E+00  0.88000000000E+00 0. -1.
        -11    1    4    4    0    0  0.29957020740E-01  0.92823979709E-01  0.57961293469E-01  0.11346138974E+00  0.51100000000E-03 0.  1.
         11    1    4    4    0    0 -0.26375486491E-03  0.14952381230E-01  0.17428752637E-02  0.15064594461E-01  0.51100000000E-03 0. -1.
</event>
<event>
 8    1  0.1157726E+005  0.1043930E+01  0.7957747E-01            NaN
         13   -1    0    0    0    0  0.00000000000E+00  0.00000000000E+00  0.74505805969E-08  0.10566000000E+00  0.10566000000E+00 0. -1.
     999900   -1    0    0    0    0 -0.00000000000E+00 -0.00000000000E+00 -0.74505805969E-08  0.93827000000E+00  0.93827000000E+00 0.  1.
     999902    2    1    2    0    0 -0.17704766599E-01 -0.61249794311E-02  0.13678255824E-01  0.10207336896E+01  0.10204700859E+01 0.  0.
     999903    2    3    3    0    0 -0.35857685422E-01  0.15593566430E-01  0.12550580039E+00  0.13320531067E+00  0.21517805196E-01 0.  0.
         14    1    1    2    0    0  0.17704766599E-01  0.61249794311E-02 -0.13678255824E-01  0.23196310391E-01  0.00000000000E+00 0.  1.
     999901    1    3    3    0    0  0.18152918823E-01 -0.21718545861E-01 -0.11182754457E+00  0.88752837894E+00  0.88000000000E+00 0. -1.
        -11    1    4    4    0    0  0.46455990390E-03  0.30732820879E-02  0.31402249716E-01  0.31559836611E-01  0.51100000000E-03 0. -1.
         11    1    4    4    0    0 -0.36322245326E-01  0.12520284342E-01  0.94103550679E-01  0.10164547406E+00  0.51100000000E-03 0.  1.
</event>
<event>
 8    1  0.1157726E+005  0.1043930E+01  0.7957747E-01            NaN
         13   -1    0    0    0    0  0.00000000000E+00  0.00000000000E+00  0.74505805969E-08  0.10566000000E+00  0.10566000000E+00 0. -1.
     999900   -1    0    0    0    0 -0.00000000000E+00 -0.00000000000E+00 -0.74505805969E-08  0.93827000000E+00  0.93827000000E+00 0.  1.
     999902    2    1    2    0    0 -0.10151502438E-01 -0.88095718396E-02  0.19714158570E-01  0.10200697903E+01  0.10197906979E+01 0.  0.
     999903    2    3    3    0    0  0.47326400517E-02  0.80342513403E-01 -0.97164892736E-01  0.12775238904E+00  0.20058394320E-01 0.  0.
         14    1    1    2    0    0  0.10151502438E-01  0.88095718396E-02 -0.19714158570E-01  0.23860209678E-01  0.00000000000E+00 0.  1.
     999901    1    3    3    0    0 -0.14884142490E-01 -0.89152085243E-01  0.11687905131E+00  0.89231740128E+00  0.88000000000E+00 0. -1.
        -11    1    4    4    0    0  0.57346996321E-02  0.28344732127E-01 -0.48813125848E-01  0.56738813834E-01  0.51100000000E-03 0. -1.
         11    1    4    4    0    0 -0.10020595805E-02  0.51997781276E-01 -0.48351766888E-01  0.71013575204E-01  0.51100000000E-03 0.  1.
</event>
<event>
 8    1  0.1157726E+005  0.1043930E+01  0.7957747E-01            NaN
         13   -1    0    0    0    0  0.00000000000E+00  0.00000000000E+00  0.74505805969E-08  0.10566000000E+00  0.10566000000E+00 0.  1.
     999900   -1    0    0    0    0 -0.00000000000E+00 -0.00000000000E+00 -0.74505805969E-08  0.93827000000E+00  0.93827000000E+00 0.  1.
     999902    2    1    2    0    0 -0.27190744946E-01 -0.99326166510E-02 -0.19662336115E-02  0.10149151838E+01  0.10145003552E+01 0.  0.
     999903    2    3    3    0    0  0.54562271161E-02  0.99691048851E-01 -0.73039696401E-01  0.12467105440E+00  0.15491898522E-01 0.  0.
         14    1    1    2    0    0  0.27190744946E-01  0.99326166510E-02  0.19662336115E-02  0.29014816196E-01  0.00000000000E+00 0.  1.
     999901    1    3    3    0    0 -0.32646972062E-01 -0.10962366550E+00  0.71073462790E-01  0.89024412940E+00  0.88000000000E+00 0. -1.
        -11    1    4    4    0    0  0.32274313299E-03  0.69496756958E-01 -0.42764216726E-01  0.81602345211E-01  0.51100000000E-03 0. -1.
         11    1    4    4    0    0  0.51334839831E-02  0.30194291893E-01 -0.30275479675E-01  0.43068709190E-01  0.51100000000E-03 0.  1.
</event>
<event>
 8    1  0.1157726E+005  0.1043930E+01  0.7957747E-01            NaN
         13   -1    0    0    0    0  0.00000000000E+00  0.00000000000E+00  0.74505805969E-08  0.10566000000E+00  0.10566000000E+00 0. -1.
     999900   -1    0    0    0    0 -0.00000000000E+00 -0.00000000000E+00 -0.74505805969E-08  0.93827000000E+00  0.93827000000E+00 0.  1.
     999902    2    1    2    0    0 -0.22298611090E-01  0.66471675778E-02 -0.38537522962E-02  0.10203447440E+01  0.10200721211E+01 0.  0.
     999903    2    3    3    0    0 -0.83757143257E-01  0.33778136025E-02 -0.10137373646E+00  0.13282123043E+00  0.18389565952E-01 0.  0.
         14    1    1    2    0    0  0.22298611090E-01 -0.66471675778E-02  0.38537522962E-02  0.23585255990E-01  0.00000000000E+00 0.  1.
     999901    1    3    3    0    0  0.61458532167E-01  0.32693539754E-02  0.97519984168E-01  0.88752351358E+00  0.88000000000E+00 0. -1.
        -11    1    4    4    0    0 -0.60826957134E-01 -0.33170920432E-02 -0.63151981494E-01  0.87745972565E-01  0.51100000000E-03 0. -1.
         11    1    4    4    0    0 -0.22930186123E-01  0.66949056457E-02 -0.38221754970E-01  0.45075257861E-01  0.51100000000E-03 0.  1.
</event>
<event>
 8    1  0.1157726E+005  0.1043930E+01  0.7957747E-01            NaN
         13   -1    0    0    0    0  0.00000000000E+00  0.00000000000E+00  0.74505805969E-08  0.10566000000E+00  0.10566000000E+00 0.  1.
     999900   -1    0    0    0    0 -0.00000000000E+00 -0.00000000000E+00 -0.74505805969E-08  0.93827000000E+00  0.93827000000E+00 0. -1.
     999902    2    1    2    0    0  0.20875695808E-01 -0.68062754999E-02 -0.10588094755E-01  0.10195532116E+01  0.10192617542E+01 0.  0.
     999903    2    3    3    0    0 -0.47273200736E-01  0.97358388644E-01  0.64554936416E-01  0.12762214673E+00  0.20165841774E-01 0.  0.
         14    1    1    2    0    0 -0.20875695808E-01  0.68062754999E-02  0.10588094755E-01  0.24376788390E-01  0.00000000000E+00 0.  1.
     999901    1    3    3    0    0  0.68148896544E-01 -0.10416466414E+00 -0.75143031171E-01  0.89193106488E+00  0.88000000000E+00 0. -1.
        -11    1    4    4    0    0 -0.26783244832E-01  0.75522223130E-01  0.47761401571E-01  0.93286445914E-01  0.51100000000E-03 0.  1.
         11    1    4    4    0    0 -0.20489955904E-01  0.21836165514E-01  0.16793534845E-01  0.34335700821E-01  0.51100000000E-03 0. -1.
</event>
<event>
 8    1  0.1157726E+005  0.1043930E+01  0.7957747E-01            NaN
         13   -1    0    0    0    0  0.00000000000E+00  0.00000000000E+00  0.74505805969E-08  0.10566000000E+00  0.10566000000E+00 0. -1.
     999900   -1    0    0    0    0 -0.00000000000E+00 -0.00000000000E+00 -0.74505805969E-08  0.93827000000E+00  0.93827000000E+00 0. -1.
     999902    2    1    2    0    0  0.16660305637E-01  0.16119438372E-01  0.18359317386E-02  0.10206754795E+01  0.10204105359E+01 0.  0.
     999903    2    3    3    0    0  0.42243314793E-01 -0.98806651654E-01 -0.70258007012E-01  0.12991174399E+00  0.19839899751E-01 0.  0.
         14    1    1    2    0    0 -0.16660305637E-01 -0.16119438372E-01 -0.18359317386E-02  0.23254520479E-01  0.00000000000E+00 0. -1.
     999901    1    3    3    0    0 -0.25583009156E-01  0.11492609003E+00  0.72093938751E-01  0.89076373553E+00  0.88000000000E+00 0.  1.
        -11    1    4    4    0    0  0.29901717772E-01 -0.73911649983E-01 -0.41370943121E-01  0.89826837775E-01  0.51100000000E-03 0.  1.
         11    1    4    4    0    0  0.12341597021E-01 -0.24895001671E-01 -0.28887063892E-01  0.40084906219E-01  0.51100000000E-03 0. -1.
</event>
<event>
 8    1  0.1157726E+005  0.1043930E+01  0.7957747E-01            NaN
         13   -1    0    0    0    0  0.00000000000E+00  0.00000000000E+00  0.74505805969E-08  0.10566000000E+00  0.10566000000E+00 0. -1.
     999900   -1    0    0    0    0 -0.00000000000E+00 -0.00000000000E+00 -0.74505805969E-08  0.93827000000E+00  0.93827000000E+00 0.  1.
     999902    2    1    2    0    0  0.10436300850E-01 -0.21253622507E-01 -0.35509124554E-02  0.10199875309E+01  0.10197064879E+01 0.  0.
     999903    2    3    3    0    0  0.33839041759E-01  0.12159592005E+00 -0.10287552981E-01  0.12813605093E+00  0.19554162734E-01 0.  0.
         14    1    1    2    0    0 -0.10436300850E-01  0.21253622507E-01  0.35509124554E-02  0.23942469053E-01  0.00000000000E+00 0. -1.
     999901    1    3    3    0    0 -0.23402740908E-01 -0.14284954256E+00  0.67366405256E-02  0.89185148002E+00  0.88000000000E+00 0. -1.
        -11    1    4    4    0    0  0.89778306392E-02  0.22128565924E-01 -0.92153703738E-02  0.25601934399E-01  0.51100000000E-03 0.  1.
         11    1    4    4    0    0  0.24861211119E-01  0.99467354127E-01 -0.10721826072E-02  0.10253411653E+00  0.51100000000E-03 0. -1.
</event>
<event>
 8    1  0.1157726E+005  0.1043930E+01  0.7957747E-01            NaN
         13   -1    0    0    0    0  0.00000000000E+00  0.00000000000E+00  0.74505805969E-08  0.10566000000E+00  0.10566000000E+00 0.  1.
     999900   -1    0    0    0    0 -0.00000000000E+00 -0.00000000000E+00 -0.74505805969E-08  0.93827000000E+00  0.93827000000E+00 0. -1.
     999902    2    1    2    0    0  0.21767890335E-01  0.21418747680E-02  0.29213843590E-02  0.10218627581E+01  0.10216244581E+01 0.  0.
     999903    2    3    3    0    0 -0.93826502852E-02  0.11697776620E+00 -0.56829984348E-01  0.13184710422E+00  0.19549420944E-01 0.  0.
         14    1    1    2    0    0 -0.21767890335E-01 -0.21418747680E-02 -0.29213843590E-02  0.22067241870E-01  0.00000000000E+00 0.  1.
     999901    1    3    3    0    0  0.31150540620E-01 -0.11483589143E+00  0.59751368707E-01  0.89001565391E+00  0.88000000000E+00 0.  1.
        -11    1    4    4    0    0 -0.14673934315E-01  0.63993174229E-01 -0.33527062170E-01  0.73720931321E-01  0.51100000000E-03 0. -1.
         11    1    4    4    0    0  0.52912840300E-02  0.52984591970E-01 -0.23302922178E-01  0.58126172899E-01  0.51100000000E-03 0.  1.
</event>
<event>
 8    1  0.1157726E+005  0.1043930E+01  0.7957747E-01            NaN
         13   -1    0    0    0    0  0.00000000000E+00  0.00000000000E+00  0.74505805969E-08  0.10566000000E+00  0.10566000000E+00 0. -1.
     999900   -1    0    0    0    0 -0.00000000000E+00 -0.00000000000E+00 -0.74505805969E-08  0.93827000000E+00  0.93827000000E+00 0.  1.
     999902    2    1    2    0    0 -0.15722986413E-01 -0.13039366990E-01  0.99812505226E-02  0.10211953842E+01  0.10209422853E+01 0.  0.
     999903    2    3    3    0    0  0.59529334605E-01 -0.91518739760E-01 -0.69291454924E-01  0.13096727546E+00  0.20777394237E-01 0.  0.
         14    1    1    2    0    0  0.15722986413E-01  0.13039366990E-01 -0.99812505226E-02  0.22734615792E-01  0.00000000000E+00 0.  1.
     999901    1    3    3    0    0 -0.75252321018E-01  0.78479372770E-01  0.79272705447E-01  0.89022810874E+00  0.88000000000E+00 0. -1.
        -11    1    4    4    0    0  0.14848519491E-01 -0.41424223293E-01 -0.27528799856E-01  0.51908965979E-01  0.51100000000E-03 0. -1.
         11    1    4    4    0    0  0.44680815114E-01 -0.50094516466E-01 -0.41762655067E-01  0.79058309484E-01  0.51100000000E-03 0.  1.
</event>
<event>
 8    1  0.1157726E+005  0.1043930E+01  0.7957747E-01            NaN
         13   -1    0    0    0    0  0.00000000000E+00  0.00000000000E+00  0.74505805969E-08  0.10566000000E+00  0.10566000000E+00 0. -1.
     999900   -1    0    0    0    0 -0.00000000000E+00 -0.00000000000E+00 -0.74505805969E-08  0.93827000000E+00  0.93827000000E+00 0.  1.
     999902    2    1    2    0    0  0.88516113458E-02 -0.11363383855E-01 -0.24909580005E-01  0.10151556244E+01  0.10147477406E+01 0.  0.
     999903    2    3    3    0    0 -0.33531586681E-02  0.87463107855E-01 -0.90007317614E-01  0.12715036127E+00  0.20121089396E-01 0.  0.
         14    1    1    2    0    0 -0.88516113458E-02  0.11363383855E-01  0.24909580005E-01  0.28774375616E-01  0.00000000000E+00 0. -1.
     999901    1    3    3    0    0  0.12204770014E-01 -0.98826491710E-01  0.65097737609E-01  0.88800526311E+00  0.88000000000E+00 0. -1.
        -11    1    4    4    0    0  0.50851982976E-02  0.40643127563E-01 -0.52361385324E-01  0.66480815683E-01  0.51100000000E-03 0.  1.
         11    1    4    4    0    0 -0.84383569657E-02  0.46819980292E-01 -0.37645932290E-01  0.60669545587E-01  0.51100000000E-03 0. -1.
</event>
<event>
 8    1  0.1157726E+005  0.1043930E+01  0.7957747E-01            NaN
         13   -1    0    0    0    0  0.00000000000E+00  0.00000000000E+00  0.74505805969E-08  0.10566000000E+00  0.10566000000E+00 0.  1.
     999900   -1    0    0    0    0 -0.00000000000E+00 -0.00000000000E+00 -0.74505805969E-08  0.93827000000E+00  0.93827000000E+00 0.  1.
     999902    2    1    2    0    0 -0.17358587269E-01  0.16380141118E-01  0.22172418736E-01  0.10113532333E+01  0.10108284309E+01 0.  0.
     999903    2    3    3    0    0 -0.54979719126E-01 -0.84656106746E-01 -0.63164912727E-01  0.12067588821E+00  0.19581569668E-01 0.  0.
         14    1    1    2    0    0  0.17358587269E-01 -0.16380141118E-01 -0.22172418736E-01  0.32576766685E-01  0.00000000000E+00 0. -1.
     999901    1    3    3    0    0  0.37621131857E-01  0.10103624786E+00  0.85337331464E-01  0.89067734511E+00  0.88000000000E+00 0. -1.
        -11    1    4    4    0    0 -0.22610419026E-01 -0.46830747622E-01 -0.40778505510E-01  0.66087045659E-01  0.51100000000E-03 0.  1.
         11    1    4    4    0    0 -0.32369300100E-01 -0.37825359124E-01 -0.22386407218E-01  0.54588842549E-01  0.51100000000E-03 0. -1.
</event>
<event>
 8    1  0.1157726E+005  0.1043930E+01  0.7957747E-01            NaN
         13   -1    0    0    0    0  0.00000000000E+00  0.00000000000E+00  0.74505805969E-08  0.10566000000E+00  0.10566000000E+00 0.  1.
     999900   -1    0    0    0    0 -0.00000000000E+00 -0.00000000000E+00 -0.74505805969E-08  0.93827000000E+00  0.93827000000E+00 0. -1.
     999902    2    1    2    0    0  0.92913311638E-02  0.19168277011E-01 -0.63109578613E-02  0.10217133426E+01  0.10214717688E+01 0.  0.
     999903    2    3    3    0    0 -0.88587344537E-01  0.94635543494E-01  0.20480655251E-01  0.13267266071E+00  0.19467253410E-01 0.  0.
         14    1    1    2    0    0 -0.92913311638E-02 -0.19168277011E-01  0.63109578613E-02  0.22216657433E-01  0.00000000000E+00 0.  1.
     999901    1    3    3    0    0  0.97878675701E-01 -0.75467266483E-01 -0.26791613113E-01  0.88904068186E+00  0.88000000000E+00 0.  1.
        -11    1    4    4    0    0 -0.16062727869E-01  0.27324376084E-01  0.96307851041E-02  0.33130739468E-01  0.51100000000E-03 0.  1.
         11    1    4    4    0    0 -0.72524616668E-01  0.67311167410E-01  0.10849870147E-01  0.99541921240E-01  0.51100000000E-03 0. -1.
</event>
<event>
 8    1  0.1157726E+005  0.1043930E+01  0.7957747E-01            NaN
         13   -1    0    0    0    0  0.00000000000E+00  0.00000000000E+00  0.74505805969E-08  0.10566000000E+00  0.10566000000E+00 0. -1.
     999900   -1    0    0    0    0 -0.00000000000E+00 -0.00000000000E+00 -0.74505805969E-08  0.93827000000E+00  0.93827000000E+00 0.  1.
     999902    2    1    2    0    0 -0.11790492363E-01  0.17708652837E-01  0.10137577676E-01  0.10203634437E+01  0.10200912580E+01 0.  0.
     999903    2    3    3    0    0 -0.59708248640E-01  0.56727033743E-01 -0.10028538890E+00  0.13131238949E+00  0.20068709302E-01 0.  0.
         14    1    1    2    0    0  0.11790492363E-01 -0.17708652837E-01 -0.10137577676E-01  0.23566556316E-01  0.00000000000E+00 0.  1.
     999901    1    3    3    0    0  0.47917756276E-01 -0.39018380906E-01  0.11042296658E+00  0.88905105419E+00  0.88000000000E+00 0. -1.
        -11    1    4    4    0    0 -0.51904987555E-02  0.15167389546E-01 -0.22462274531E-01  0.27600831166E-01  0.51100000000E-03 0. -1.
         11    1    4    4    0    0 -0.54517749884E-01  0.41559644197E-01 -0.77823114373E-01  0.10371155832E+00  0.51100000000E-03 0.  1.
</event>
<event>
 8    1  0.1157726E+005  0.1043930E+01  0.7957747E-01            NaN
         13   -1    0    0    0    0  0.00000000000E+00  0.00000000000E+00  0.74505805969E-08  0.10566000000E+00  0.10566000000E+00 0. -1.
     999900   -1    0    0    0    0 -0.00000000000E+00 -0.00000000000E+00 -0.74505805969E-08  0.93827000000E+00  0.93827000000E+00 0. -1.
     999902    2    1    2    0    0  0.55619026864E-02  0.19147042963E-01  0.12458089636E-01  0.10204194064E+01  0.10201485269E+01 0.  0.
     999903    2    3    3    0    0 -0.44414924303E-01 -0.11800372275E+00  0.10260154432E-01  0.12839202635E+00  0.21947154249E-01 0.  0.
         14    1    1    2    0    0 -0.55619026864E-02 -0.19147042963E-01 -0.12458089636E-01  0.23510593636E-01  0.00000000000E+00 0.  1.
     999901    1    3    3    0    0  0.49976826989E-01  0.13715076571E+00  0.21979352042E-02  0.89202738001E+00  0.88000000000E+00 0. -1.
        -11    1    4    4    0    0 -0.32253540957E-01 -0.71649772712E-01  0.15794641855E-01  0.80148067140E-01  0.51100000000E-03 0.  1.
         11    1    4    4    0    0 -0.12161383346E-01 -0.46353950033E-01 -0.55344874230E-02  0.48243959214E-01  0.51100000000E-03 0. -1.
</event>
<event>
 8    1  0.1157726E+005  0.1043930E+01  0.7957747E-01            NaN
         13   -1    0    0    0    0  0.00000000000E+00  0.00000000000E+00  0.74505805969E-08  0.10566000000E+00  0.10566000000E+00 0.  1.
     999900   -1    0    0    0    0 -0.00000000000E+00 -0.00000000000E+00 -0.74505805969E-08  0.93827000000E+00  0.93827000000E+00 0. -1.
     999902    2    1    2    0    0 -0.19439953949E-01  0.99392814637E-02 -0.81937960779E-02  0.10206096351E+01  0.10203431716E+01 0.  0.
     999903    2    3    3    0    0  0.23904232324E-01 -0.90013840586E-01  0.86731041747E-01  0.12882486849E+00  0.19991731281E-01 0.  0.
         14    1    1    2    0    0  0.19439953949E-01 -0.99392814637E-02  0.81937960779E-02  0.23320364914E-01  0.00000000000E+00 0. -1.
     999901    1    3    3    0    0 -0.43344186273E-01  0.99953122050E-01 -0.94924837825E-01  0.89178476659E+00  0.88000000000E+00 0. -1.
        -11    1    4    4    0    0  0.49853108362E-02 -0.56559978328E-01  0.53486593513E-01  0.78006161803E-01  0.51100000000E-03 0.  1.
         11    1    4    4    0    0  0.18918921488E-01 -0.33453862258E-01  0.33244448234E-01  0.50818706690E-01  0.51100000000E-03 0. -1.
</event>
<event>
 8    1  0.1157726E+005  0.1043930E+01  0.7957747E-01            NaN
         13   -1    0    0    0    0  0.00000000000E+00  0.00000000000E+00  0.74505805969E-08  0.10566000000E+00  0.10566000000E+00 0. -1.
     999900   -1    0    0    0    0 -0.00000000000E+00 -0.00000000000E+00 -0.74505805969E-08  0.93827000000E+00  0.93827000000E+00 0. -1.
     999902    2    1    2    0    0 -0.42763884327E-02  0.37068561707E-02  0.25160612820E-01  0.10181407635E+01  0.10178140938E+01 0.  0.
     999903    2    3    3    0    0 -0.80252011122E-01 -0.98553219337E-01  0.23545777509E-02  0.12867489373E+00  0.19964015367E-01 0.  0.
         14    1    1    2    0    0  0.42763884327E-02 -0.37068561707E-02 -0.25160612820E-01  0.25789236479E-01  0.00000000000E+00 0.  1.
     999901    1    3    3    0    0  0.75975622689E-01  0.10226007551E+00  0.22806035069E-01  0.88946586979E+00  0.88000000000E+00 0. -1.
        -11    1    4    4    0    0 -0.46495197158E-01 -0.41708603032E-01 -0.10624494262E-02  0.62472400669E-01  0.51100000000E-03 0. -1.
         11    1    4    4    0    0 -0.33756813964E-01 -0.56844616304E-01  0.34170271771E-02  0.66202493061E-01  0.51100000000E-03 0.  1.
</event>
<event>
 8    1  0.1157726E+005  0.1043930E+01  0.7957747E-01            NaN
         13   -1    0    0    0    0  0.00000000000E+00  0.00000000000E+00  0.74505805969E-08  0.10566000000E+00  0.10566000000E+00 0.  1.
     999900   -1    0    0    0    0 -0.00000000000E+00 -0.00000000000E+00 -0.74505805969E-08  0.93827000000E+00  0.93827000000E+00 0.  1.
     999902    2    1    2    0    0  0.22511502706E-01  0.17188028426E-02  0.28522280811E-02  0.10211735231E+01  0.10209199317E+01 0.  0.
     999903    2    3    3    0    0 -0.44388297271E-01 -0.28870197726E-01 -0.11695939578E+00  0.13001355123E+00  0.20499121749E-01 0.  0.
         14    1    1    2    0    0 -0.22511502706E-01 -0.17188028426E-02 -0.28522280811E-02  0.22756476931E-01  0.00000000000E+00 0.  1.
     999901    1    3    3    0    0  0.66899799977E-01  0.30589000568E-01  0.11981162386E+00  0.89115997184E+00  0.88000000000E+00 0. -1.
        -11    1    4    4    0    0 -0.40706808239E-01 -0.17611300675E-01 -0.99137073262E-01  0.10860765426E+00  0.51100000000E-03 0. -1.
         11    1    4    4    0    0 -0.36814890323E-02 -0.11258897051E-01 -0.17822322513E-01  0.21405896969E-01  0.51100000000E-03 0.  1.
</event>
<event>
 8    1  0.1157726E+005  0.1043930E+01  0.7957747E-01            NaN
         13   -1    0    0    0    0  0.00000000000E+00  0.00000000000E+00  0.74505805969E-08  0.10566000000E+00  0.10566000000E+00 0.  1.
     999900   -1    0    0    0    0 -0.00000000000E+00 -0.00000000000E+00 -0.74505805969E-08  0.93827000000E+00  0.93827000000E+00 0. -1.
     999902    2    1    2    0    0 -0.17341094766E-02  0.15743747918E-01 -0.17759532026E-01  0.10201334937E+01  0.10198559071E+01 0.  0.
     999903    2    3    3    0    0  0.56563184249E-01  0.40395043355E-03  0.11348702653E+00  0.12836023610E+00  0.19937101882E-01 0.  0.
         14    1    1    2    0    0  0.17341094766E-02 -0.15743747918E-01  0.17759532026E-01  0.23796506297E-01  0.00000000000E+00 0. -1.
     999901    1    3    3    0    0 -0.58297293726E-01  0.15339797484E-01 -0.13124655856E+00  0.89177325760E+00  0.88000000000E+00 0. -1.
        -11    1    4    4    0    0  0.49623340231E-01 -0.48550405718E-02  0.10476129625E+00  0.11602257378E+00  0.51100000000E-03 0.  1.
         11    1    4    4    0    0  0.69398440187E-02  0.52589910054E-02  0.87257302845E-02  0.12337662315E-01  0.51100000000E-03 0. -1.
</event>
<event>
 8    1  0.1157726E+005  0.1043930E+01  0.7957747E-01            NaN
         13   -1    0    0    0    0  0.00000000000E+00  0.00000000000E+00  0.74505805969E-08  0.10566000000E+00  0.10566000000E+00 0. -1.
     999900   -1    0    0    0    0 -0.00000000000E+00 -0.00000000000E+00 -0.74505805969E-08  0.93827000000E+00  0.93827000000E+00 0. -1.
     999902    2    1    2    0    0  0.37884881881E-02  0.22940587575E-01 -0.17888278183E-02  0.10206099849E+01  0.10203435295E+01 0.  0.
     999903    2    3    3    0    0  0.44217250187E-01  0.10630333769E+00 -0.63088640126E-01  0.13362548675E+00  0.24900389124E-01 0.  0.
         14    1    1    2    0    0 -0.37884881881E-02 -0.22940587575E-01  0.17888278183E-02  0.23320015137E-01  0.00000000000E+00 0. -1.
     999901    1    3    3    0    0 -0.40428761999E-01 -0.83362750113E-01  0.61299812308E-01  0.88698449811E+00  0.88000000000E+00 0.  1.
        -11    1    4    4    0    0  0.45615465180E-01  0.90117174941E-01 -0.49721025305E-01  0.11258027075E+00  0.51100000000E-03 0.  1.
         11    1    4    4    0    0 -0.13982149930E-02  0.16186162747E-01 -0.13367614821E-01  0.21045216004E-01  0.51100000000E-03 0. -1.
</event>
<event>
 8    1  0.1157726E+005  0.1043930E+01  0.7957747E-01            NaN
         13   -1    0    0    0    0  0.00000000000E+00  0.00000000000E+00  0.74505805969E-08  0.10566000000E+00  0.10566000000E+00 0.  1.
     999900   -1    0    0    0    0 -0.00000000000E+00 -0.00000000000E+00 -0.74505805969E-08  0.93827000000E+00  0.93827000000E+00 0.  1.
     999902    2    1    2    0    0 -0.76030295039E-02  0.23465995152E-01 -0.14146315755E-02  0.10192225078E+01  0.10189229904E+01 0.  0.
     999903    2    3    3    0    0 -0.70479472468E-01 -0.78732557840E-01  0.69734031076E-01  0.12823422312E+00  0.20371774261E-01 0.  0.
         14    1    1    2    0    0  0.76030295039E-02 -0.23465995152E-01  0.14146315755E-02  0.24707492155E-01  0.00000000000E+00 0.  1.
     999901    1    3    3    0    0  0.62876442965E-01  0.10219855299E+00 -0.71148662651E-01  0.89098828472E+00  0.88000000000E+00 0. -1.
        -11    1    4    4    0    0 -0.31663436460E-01 -0.46240432787E-01  0.28126304667E-01  0.62706466716E-01  0.51100000000E-03 0. -1.
         11    1    4    4    0    0 -0.38816036008E-01 -0.32492125053E-01  0.41607726409E-01  0.65527756407E-01  0.51100000000E-03 0.  1.
</event>
<event>
 8    1  0.1157726E+005  0.1043930E+01  0.7957747E-01            NaN
         13   -1    0    0    0    0  0.00000000000E+00  0.00000000000E+00  0.74505805969E-08  0.10566000000E+00  0.10566000000E+00 0. -1.
     999900   -1    0    0    0    0 -0.00000000000E+00 -0.00000000000E+00 -0.74505805969E-08  0.93827000000E+00  0.93827000000E+00 0.  1.
     999902    2    1    2    0    0 -0.30009630002E-03 -0.27102432997E-01  0.15432635062E-01  0.10127402876E+01  0.10122598935E+01 0.  0.
     999903    2    3    3    0    0  0.62498356458E-01  0.13121661308E-01  0.10579046197E+00  0.12497558891E+00  0.18682971503E-01 0.  0.
         14    1    1    2    0    0  0.30009630002E-03  0.27102432997E-01 -0.15432635062E-01  0.31189712360E-01  0.00000000000E+00 0.  1.
     999901    1    3    3    0    0 -0.62798452758E-01 -0.40224094305E-01 -0.90357826905E-01  0.88776469873E+00  0.88000000000E+00 0.  1.
        -11    1    4    4    0    0  0.34780695579E-01  0.88775123971E-02  0.41741939049E-01  0.55055949795E-01  0.51100000000E-03 0. -1.
         11    1    4    4    0    0  0.27717660879E-01  0.42441489109E-02  0.64048522918E-01  0.69919639113E-01  0.51100000000E-03 0.  1.
</event>
<event>
 8    1  0.1157726E+005  0.1043930E+01  0.7957747E-01            NaN
         13   -1    0    0    0    0  0.00000000000E+00  0.00000000000E+00  0.74505805969E-08  0.10566000000E+00  0.10566000000E+00 0.  1.
     999900   -1    0    0    0    0 -0.00000000000E+00 -0.00000000000E+00 -0.74505805969E-08  0.93827000000E+00  0.93827000000E+00 0. -1.
     999902    2    1    2    0    0 -0.12267099074E-01  0.18526576354E-01  0.33484139519E-02  0.10214594053E+01  0.10212122155E+01 0.  0.
     999903    2    3    3    0    0 -0.11804423614E+00  0.42381307876E-01  0.42495055824E-01  0.13394021647E+00  0.20088177468E-01 0.  0.
         14    1    1    2    0    0  0.12267099074E-01 -0.18526576354E-01 -0.33484139519E-02  0.22470594720E-01  0.00000000000E+00 0. -1.
     999901    1    3    3    0    0  0.10577713707E+00 -0.23854731522E-01 -0.39146641873E-01  0.88751918881E+00  0.88000000000E+00 0. -1.
        -11    1    4    4    0    0 -0.27225761037E-01  0.53225310589E-02  0.17188318802E-01  0.32638486869E-01  0.51100000000E-03 0. -1.
         11    1    4    4    0    0 -0.90818475105E-01  0.37058776817E-01  0.25306737023E-01  0.10130172960E+00  0.51100000000E-03 0.  1.
</event>
<event>
 8    1  0.1157726E+005  0.1043930E+01  0.7957747E-01            NaN
         13   -1    0    0    0    0  0.00000000000E+00  0.00000000000E+00  0.74505805969E-08  0.10566000000E+00  0.10566000000E+00 0. -1.
     999900   -1    0    0    0    0 -0.00000000000E+00 -0.00000000000E+00 -0.74505805969E-08  0.93827000000E+00  0.93827000000E+00 0. -1.
     999902    2    1    2    0    0  0.14892549402E-02 -0.13906217838E-01 -0.16197594955E-01  0.10225299332E+01  0.10223059726E+01 0.  0.
     999903    2    3    3    0    0 -0.12219107788E+00 -0.19696271540E-01  0.40757907824E-01  0.13203890087E+00  0.21318106528E-01 0.  0.
         14    1    1    2    0    0 -0.14892549402E-02  0.13906217838E-01  0.16197594955E-01  0.21400066756E-01  0.00000000000E+00 0. -1.
     999901    1    3    3    0    0  0.12368033282E+00  0.57900537025E-02 -0.56955502779E-01  0.89049103238E+00  0.88000000000E+00 0. -1.
        -11    1    4    4    0    0 -0.54156553249E-01 -0.18419494230E-01  0.23438807468E-01  0.61821103548E-01  0.51100000000E-03 0.  1.
         11    1    4    4    0    0 -0.68034524631E-01 -0.12767773107E-02  0.17319100356E-01  0.70217797318E-01  0.51100000000E-03 0. -1.
</event>
<event>
 8    1  0.1157726E+005  0.1043930E+01  0.7957747E-01            NaN
         13   -1    0    0    0    0  0.00000000000E+00  0.00000000000E+00  0.74505805969E-08  0.10566000000E+00  0.10566000000E+00 0. -1.
     999900   -1    0    0    0    0 -0.00000000000E+00 -0.00000000000E+00 -0.74505805969E-08  0.93827000000E+00  0.93827000000E+00 0.  1.
     999902    2    1    2    0    0 -0.20752370863E-01  0.84689983427E-02 -0.68589734506E-02  0.10204900694E+01  0.10202208346E+01 0.  0.
     999903    2    3    3    0    0  0.90933593915E-01  0.11296848942E-01  0.87773089872E-01  0.12839311342E+00  0.19599463533E-01 0.  0.
         14    1    1    2    0    0  0.20752370863E-01 -0.84689983427E-02  0.68589734506E-02  0.23439930592E-01  0.00000000000E+00 0.  1.
     999901    1    3    3    0    0 -0.11168596478E+00 -0.28278505994E-02 -0.94632063323E-01  0.89209695598E+00  0.88000000000E+00 0.  1.
        -11    1    4    4    0    0  0.59828321402E-01  0.14396802099E-01  0.49512763287E-01  0.78983990795E-01  0.51100000000E-03 0.  1.
         11    1    4    4    0    0  0.31105272512E-01 -0.30999531567E-02  0.38260326585E-01  0.49409122630E-01  0.51100000000E-03 0. -1.
</event>
<event>
 8    1  0.1157726E+005  0.1043930E+01  0.7957747E-01            NaN
         13   -1    0    0    0    0  0.00000000000E+00  0.00000000000E+00  0.74505805969E-08  0.10566000000E+00  0.10566000000E+00 0.  1.
     999900   -1    0    0    0    0 -0.00000000000E+00 -0.00000000000E+00 -0.74505805969E-08  0.93827000000E+00  0.93827000000E+00 0. -1.
     999902    2    1    2    0    0 -0.55893557073E-02  0.18903904122E-01  0.13321142336E-01  0.10201381669E+01  0.10198606906E+01 0.  0.
     999903    2    3    3    0    0 -0.13815952773E-01  0.13009418754E+00 -0.98531594866E-02  0.13280057373E+00  0.20579831069E-01 0.  0.
         14    1    1    2    0    0  0.55893557073E-02 -0.18903904122E-01 -0.13321142336E-01  0.23791833083E-01  0.00000000000E+00 0. -1.
     999901    1    3    3    0    0  0.82265970657E-02 -0.11119028342E+00  0.23174301823E-01  0.88733759319E+00  0.88000000000E+00 0.  1.
        -11    1    4    4    0    0 -0.15426954828E-01  0.53212273269E-01 -0.12444838028E-02  0.55419733152E-01  0.51100000000E-03 0.  1.
         11    1    4    4    0    0  0.16110020546E-02  0.76881914273E-01 -0.86086756839E-02  0.77380840573E-01  0.51100000000E-03 0. -1.
</event>
<event>
 8    1  0.1157726E+005  0.1043930E+01  0.7957747E-01            NaN
         13   -1    0    0    0    0  0.00000000000E+00  0.00000000000E+00  0.74505805969E-08  0.10566000000E+00  0.10566000000E+00 0. -1.
     999900   -1    0    0    0    0 -0.00000000000E+00 -0.00000000000E+00 -0.74505805969E-08  0.93827000000E+00  0.93827000000E+00 0.  1.
     999902    2    1    2    0    0 -0.99238896812E-02  0.56389995003E-02 -0.19480760004E-01  0.10213516495E+01  0.10211020566E+01 0.  0.
     999903    2    3    3    0    0 -0.12928154719E+00 -0.93434481703E-02 -0.23097363126E-01  0.13316033903E+00  0.19929105308E-01 0.  0.
         14    1    1    2    0    0  0.99238896812E-02 -0.56389995003E-02  0.19480760004E-01  0.22578350518E-01  0.00000000000E+00 0. -1.
     999901    1    3    3    0    0  0.11935765751E+00  0.14982447671E-01  0.36166031222E-02  0.88819131045E+00  0.88000000000E+00 0. -1.
        -11    1    4    4    0    0 -0.49578668565E-01 -0.12678143472E-01 -0.12540079061E-01  0.52690553256E-01  0.51100000000E-03 0. -1.
         11    1    4    4    0    0 -0.79702878630E-01  0.33346953020E-02 -0.10557284065E-01  0.80469785774E-01  0.51100000000E-03 0.  1.
</event>
<event>
 8    1  0.1157726E+005  0.1043930E+01  0.7957747E-01            NaN
         13   -1    0    0    0    0  0.00000000000E+00  0.00000000000E+00  0.74505805969E-08  0.10566000000E+00  0.10566000000E+00 0.  1.
     999900   -1    0    0    0    0 -0.00000000000E+00 -0.00000000000E+00 -0.74505805969E-08  0.93827000000E+00  0.93827000000E+00 0.  1.
     999902    2    1    2    0    0  0.13966094522E-01 -0.72422915372E-02  0.17629015435E-01  0.10203019495E+01  0.10200283248E+01 0.  0.
     999903    2    3    3    0    0 -0.93460883134E-02  0.11254016045E+00  0.62763670102E-01  0.13073552104E+00  0.19996527095E-01 0.  0.
         14    1    1    2    0    0 -0.13966094522E-01  0.72422915372E-02 -0.17629015435E-01  0.23628050451E-01  0.00000000000E+00 0. -1.
     999901    1    3    3    0    0  0.23312182836E-01 -0.11978245199E+00 -0.45134654666E-01  0.88956642851E+00  0.88000000000E+00 0.  1.
        -11    1    4    4    0    0 -0.97925512974E-02  0.29323345429E-01  0.11472430586E-01  0.32979242450E-01  0.51100000000E-03 0. -1.
         11    1    4    4    0    0  0.44646298400E-03  0.83216815025E-01  0.51291239515E-01  0.97756278592E-01  0.51100000000E-03 0.  1.
</event>
<event>
 8    1  0.1157726E+005  0.1043930E+01  0.7957747E-01            NaN
         13   -1    0    0    0    0  0.00000000000E+00  0.00000000000E+00  0.74505805969E-08  0.10566000000E+00  0.10566000000E+00 0. -1.
     999900   -1    0    0    0    0 -0.00000000000E+00 -0.00000000000E+00 -0.74505805969E-08  0.93827000000E+00  0.93827000000E+00 0.  1.
     999902    2    1    2    0    0 -0.19621787664E-01  0.12408000420E-01 -0.21852101625E-02  0.10206115916E+01  0.10203451734E+01 0.  0.
     999903    2    3    3    0    0 -0.12481856205E+00 -0.24599352740E-01  0.26033375658E-01  0.13312514434E+00  0.29321763611E-01 0.  0.
         14    1    1    2    0    0  0.19621787664E-01 -0.12408000420E-01  0.21852101625E-02  0.23318408372E-01  0.00000000000E+00 0.  1.
     999901    1    3    3    0    0  0.10519677438E+00  0.37007353160E-01 -0.28218585821E-01  0.88748644728E+00  0.88000000000E+00 0. -1.
        -11    1    4    4    0    0 -0.47842662220E-01 -0.19290178234E-01 -0.31911352960E-03  0.51588702824E-01  0.51100000000E-03 0.  1.
         11    1    4    4    0    0 -0.76975899828E-01 -0.53091745063E-02  0.26352489188E-01  0.81536441519E-01  0.51100000000E-03 0. -1.
</event>
<event>
 8    1  0.1157726E+005  0.1043930E+01  0.7957747E-01            NaN
         13   -1    0    0    0    0  0.00000000000E+00  0.00000000000E+00  0.74505805969E-08  0.10566000000E+00  0.10566000000E+00 0.  1.
     999900   -1    0    0    0    0 -0.00000000000E+00 -0.00000000000E+00 -0.74505805969E-08  0.93827000000E+00  0.93827000000E+00 0. -1.
     999902    2    1    2    0    0  0.15552888170E-01 -0.17832448316E-01  0.27912556417E-02  0.10201039711E+01  0.10198256872E+01 0.  0.
     999903    2    3    3    0    0 -0.10944302460E-02  0.71979915271E-01  0.10550841662E+00  0.12943331987E+00  0.20944028631E-01 0.  0.
         14    1    1    2    0    0 -0.15552888170E-01  0.17832448316E-01 -0.27912556417E-02  0.23826028864E-01  0.00000000000E+00 0.  1.
     999901    1    3    3    0    0  0.16647318416E-01 -0.89812363586E-01 -0.10271716098E+00  0.89067065126E+00  0.88000000000E+00 0. -1.
        -11    1    4    4    0    0  0.65298600756E-02  0.29672325148E-01  0.57159296404E-01  0.64734320408E-01  0.51100000000E-03 0. -1.
         11    1    4    4    0    0 -0.76242903216E-02  0.42307590122E-01  0.48349120217E-01  0.64698999464E-01  0.51100000000E-03 0.  1.
</event>
<event>
 8    1  0.1157726E+005  0.1043930E+01  0.7957747E-01            NaN
         13   -1    0    0    0    0  0.00000000000E+00  0.00000000000E+00  0.74505805969E-08  0.10566000000E+00  0.10566000000E+00 0.  1.
     999900   -1    0    0    0    0 -0.00000000000E+00 -0.00000000000E+00 -0.74505805969E-08  0.93827000000E+00  0.93827000000E+00 0.  1.
     999902    2    1    2    0    0 -0.13006794238E-01 -0.13984738616E-01  0.14654968879E-01  0.10198568256E+01  0.10195726689E+01 0.  0.
     999903    2    3    3    0    0  0.14123412939E-01  0.58301654329E-01  0.11465814069E+00  0.13083376345E+00  0.19298464781E-01 0.  0.
         14    1    1    2    0    0  0.13006794238E-01  0.13984738616E-01 -0.14654968879E-01  0.24073174352E-01  0.00000000000E+00 0. -1.
     999901    1    3    3    0    0 -0.27130207177E-01 -0.72286392945E-01 -0.10000317181E+00  0.88902306220E+00  0.88000000000E+00 0.  1.
        -11    1    4    4    0    0 -0.48144298472E-02  0.14658246084E-01  0.27802767336E-01  0.31800910452E-01  0.51100000000E-03 0.  1.
         11    1    4    4    0    0  0.18937842786E-01  0.43643408244E-01  0.86855373350E-01  0.99032853000E-01  0.51100000000E-03 0. -1.
</event>
<event>
 7    1  0.1157726E+005  0.1043930E+01  0.7957747E-01            NaN
         13   -1    0    0    0    0  0.00000000000E+00  0.00000000000E+00  0.74505805969E-08  0.10566000000E+00  0.10566000000E+00 0.  1.
     999900   -1    0    0    0    0 -0.00000000000E+00 -0.00000000000E+00 -0.74505805969E-08  0.93827000000E+00  0.93827000000E+00 0. -1.
     999903    2    1    2    0    0  0.96578940573E-01 -0.52852392600E-01  0.21792789815E-02  0.11193787291E+00  0.20111463631E-01 0.  0.
         14    1    1    2    0    0  0.28040047427E-01 -0.27705037855E-01  0.32510734406E-02  0.39552280096E-01  0.00000000000E+00 0.  1.
     999901    1    1    2    0    0 -0.12461898800E+00  0.80557430455E-01 -0.54303524221E-02  0.89243984699E+00  0.88000000000E+00 0.  1.
        -11    1    3    3    0    0  0.83061692185E-02 -0.59509778568E-02 -0.56216816227E-02  0.11673517456E-01  0.51100000000E-03 0.  1.
         11    1    3    3    0    0  0.88272771355E-01 -0.46901414743E-01  0.78009606042E-02  0.10026435546E+00  0.51100000000E-03 0. -1.
</event>
<event>
 8    1  0.1157726E+005  0.1043930E+01  0.7957747E-01            NaN
         13   -1    0    0    0    0  0.00000000000E+00  0.00000000000E+00  0.74505805969E-08  0.10566000000E+00  0.10566000000E+00 0.  1.
     999900   -1    0    0    0    0 -0.00000000000E+00 -0.00000000000E+00 -0.74505805969E-08  0.93827000000E+00  0.93827000000E+00 0.  1.
     999902    2    1    2    0    0 -0.27757318959E-02  0.13389211857E-01  0.21084472610E-01  0.10187997261E+01  0.10184897404E+01 0.  0.
     999903    2    3    3    0    0 -0.16815119207E-01 -0.93204971182E-01 -0.81377141160E-01  0.12635487818E+00  0.19323593099E-01 0.  0.
         14    1    1    2    0    0  0.27757318959E-02 -0.13389211857E-01 -0.21084472610E-01  0.25130273913E-01  0.00000000000E+00 0. -1.
     999901    1    3    3    0    0  0.14039387312E-01  0.10659418304E+00  0.10246161377E+00  0.89244484790E+00  0.88000000000E+00 0. -1.
        -11    1    4    4    0    0 -0.93352393903E-02 -0.29099835794E-01 -0.37178846166E-01  0.48129771046E-01  0.51100000000E-03 0. -1.
         11    1    4    4    0    0 -0.74798798171E-02 -0.64105135389E-01 -0.44198294994E-01  0.78225107137E-01  0.51100000000E-03 0.  1.
</event>
<event>
 8    1  0.1157726E+005  0.1043930E+01  0.7957747E-01            NaN
         13   -1    0    0    0    0  0.00000000000E+00  0.00000000000E+00  0.74505805969E-08  0.10566000000E+00  0.10566000000E+00 0.  1.
     999900   -1    0    0    0    0 -0.00000000000E+00 -0.00000000000E+00 -0.74505805969E-08  0.93827000000E+00  0.93827000000E+00 0.  1.
     999902    2    1    2    0    0 -0.78580683406E-02 -0.15718450768E-01 -0.16248604343E-01  0.10199960059E+01  0.10197151641E+01 0.  0.
     999903    2    3    3    0    0  0.10905302922E+00 -0.68819709107E-01 -0.22564331048E-02  0.13056712774E+00  0.20346198967E-01 0.  0.
         14    1    1    2    0    0  0.78580683406E-02  0.15718450768E-01  0.16248604343E-01  0.23933994144E-01  0.00000000000E+00 0.  1.
     999901    1    3    3    0    0 -0.11691109756E+00  0.53101258339E-01 -0.13992171238E-01  0.88942887812E+00  0.88000000000E+00 0. -1.
        -11    1    4    4    0    0  0.65257696985E-01 -0.30686086541E-01  0.35706091946E-02  0.72202585092E-01  0.51100000000E-03 0.  1.
         11    1    4    4    0    0  0.43795332235E-01 -0.38133622566E-01 -0.58270422994E-02  0.58364542648E-01  0.51100000000E-03 0. -1.
</event>
<event>
 8    1  0.1506511E+005  0.1043930E+01  0.7957747E-01            NaN
         13   -1    0    0    0    0  0.00000000000E+00  0.00000000000E+00  0.74505805969E-08  0.10566000000E+00  0.10566000000E+00 0.  1.
     999900   -1    0    0    0    0 -0.00000000000E+00 -0.00000000000E+00 -0.74505805969E-08  0.93827000000E+00  0.93827000000E+00 0. -1.
     999902    2    1    2    0    0  0.99438918558E-02  0.20665981462E-01 -0.45487293826E-02  0.10205493517E+01  0.10202814928E+01 0.  0.
     999903    2    3    3    0    0  0.80886432899E-01 -0.91849107266E-01  0.37628617670E-01  0.12955472888E+00  0.19739335736E-01 0.  0.
         14    1    1    2    0    0 -0.99438918558E-02 -0.20665981462E-01  0.45487293826E-02  0.23380648280E-01  0.00000000000E+00 0.  1.
     999901    1    3    3    0    0 -0.70942541043E-01  0.11251508873E+00 -0.42177347052E-01  0.89099462284E+00  0.88000000000E+00 0. -1.
        -11    1    4    4    0    0  0.24486245741E-01 -0.33058900729E-01  0.21795857011E-01  0.46559506567E-01  0.51100000000E-03 0.  1.
         11    1    4    4    0    0  0.56400187158E-01 -0.58790206537E-01  0.15832760659E-01  0.82995222315E-01  0.51100000000E-03 0. -1.
</event>
<event>
 8    1  0.1157726E+005  0.1043930E+01  0.7957747E-01            NaN
         13   -1    0    0    0    0  0.00000000000E+00  0.00000000000E+00  0.74505805969E-08  0.10566000000E+00  0.10566000000E+00 0. -1.
     999900   -1    0    0    0    0 -0.00000000000E+00 -0.00000000000E+00 -0.74505805969E-08  0.93827000000E+00  0.93827000000E+00 0. -1.
     999902    2    1    2    0    0  0.20657546118E-01  0.57062550619E-02  0.89879754420E-02  0.10206903946E+01  0.10204257946E+01 0.  0.
     999903    2    3    3    0    0 -0.94212250020E-01 -0.10769532825E-01 -0.84018549501E-01  0.12821253190E+00  0.19682626491E-01 0.  0.
         14    1    1    2    0    0 -0.20657546118E-01 -0.57062550619E-02 -0.89879754420E-02  0.23239605440E-01  0.00000000000E+00 0.  1.
     999901    1    3    3    0    0  0.11486979614E+00  0.16475787887E-01  0.93006524943E-01  0.89247786266E+00  0.88000000000E+00 0.  1.
        -11    1    4    4    0    0 -0.13119949770E-01  0.49266310897E-02 -0.15410922691E-01  0.20836564857E-01  0.51100000000E-03 0. -1.
         11    1    4    4    0    0 -0.81092300251E-01 -0.15696163915E-01 -0.68607626810E-01  0.10737596705E+00  0.51100000000E-03 0.  1.
</event>
<event>
 8    1  0.1157726E+005  0.1043930E+01  0.7957747E-01            NaN
         13   -1    0    0    0    0  0.00000000000E+00  0.00000000000E+00  0.74505805969E-08  0.10566000000E+00  0.10566000000E+00 0.  1.
     999900   -1    0    0    0    0 -0.00000000000E+00 -0.00000000000E+00 -0.74505805969E-08  0.93827000000E+00  0.93827000000E+00 0.  1.
     999902    2    1    2    0    0 -0.20783268367E-01  0.24011570070E-02 -0.19234161964E-01  0.10155105914E+01  0.10151128501E+01 0.  0.
     999903    2    3    3    0    0 -0.71245668556E-01 -0.88511303810E-01 -0.56606297691E-01  0.12860123532E+00  0.20586612090E-01 0.  0.
         14    1    1    2    0    0  0.20783268367E-01 -0.24011570070E-02  0.19234161964E-01  0.28419408605E-01  0.00000000000E+00 0.  1.
     999901    1    3    3    0    0  0.50462400190E-01  0.90912460817E-01  0.37372135726E-01  0.88690935608E+00  0.88000000000E+00 0. -1.
        -11    1    4    4    0    0 -0.23802500770E-01 -0.34630328109E-01 -0.10630696093E-01  0.43348488881E-01  0.51100000000E-03 0.  1.
         11    1    4    4    0    0 -0.47443167787E-01 -0.53880975701E-01 -0.45975601598E-01  0.85252746439E-01  0.51100000000E-03 0. -1.
</event>
<event>
 8    1  0.1157726E+005  0.1043930E+01  0.7957747E-01            NaN
         13   -1    0    0    0    0  0.00000000000E+00  0.00000000000E+00  0.74505805969E-08  0.10566000000E+00  0.10566000000E+00 0.  1.
     999900   -1    0    0    0    0 -0.00000000000E+00 -0.00000000000E+00 -0.74505805969E-08  0.93827000000E+00  0.93827000000E+00 0. -1.
     999902    2    1    2    0    0  0.51331675817E-02  0.18860006097E-01 -0.14472920685E-01  0.10196089253E+01  0.10193188147E+01 0.  0.
     999903    2    3    3    0    0 -0.96156573417E-02 -0.10474838020E+00  0.68308457439E-01  0.12700077079E+00  0.19961623277E-01 0.  0.
         14    1    1    2    0    0 -0.51331675817E-02 -0.18860006097E-01  0.14472920685E-01  0.24321074659E-01  0.00000000000E+00 0.  1.
     999901    1    3    3    0    0  0.14748824923E-01  0.12360838630E+00 -0.82781378125E-01  0.89260815455E+00  0.88000000000E+00 0. -1.
        -11    1    4    4    0    0 -0.92890982979E-02 -0.22011435188E-01  0.20209991178E-01  0.31296892667E-01  0.51100000000E-03 0.  1.
         11    1    4    4    0    0 -0.32655904378E-03 -0.82736945012E-01  0.48098466261E-01  0.95703878127E-01  0.51100000000E-03 0. -1.
</event>
<event>
 8    1  0.1157726E+005  0.1043930E+01  0.7957747E-01            NaN
         13   -1    0    0    0    0  0.00000000000E+00  0.00000000000E+00  0.74505805969E-08  0.10566000000E+00  0.10566000000E+00 0. -1.
     999900   -1    0    0    0    0 -0.00000000000E+00 -0.00000000000E+00 -0.74505805969E-08  0.93827000000E+00  0.93827000000E+00 0. -1.
     999902    2    1    2    0    0 -0.65353646936E-02  0.22426268671E-01  0.13959757052E-02  0.10205292037E+01  0.10202608776E+01 0.  0.
     999903    2    3    3    0    0  0.12215208962E+00  0.17880535616E-01 -0.36088050152E-01  0.13036844477E+00  0.21277628496E-01 0.  0.
         14    1    1    2    0    0  0.65353646936E-02 -0.22426268671E-01 -0.13959757052E-02  0.23400796276E-01  0.00000000000E+00 0. -1.
     999901    1    3    3    0    0 -0.12868745432E+00  0.45457330553E-02  0.37484025857E-01  0.89016075895E+00  0.88000000000E+00 0. -1.
        -11    1    4    4    0    0  0.67711253638E-01  0.18302815647E-02 -0.12397813136E-01  0.68863130130E-01  0.51100000000E-03 0.  1.
         11    1    4    4    0    0  0.54440835987E-01  0.16050254051E-01 -0.23690237016E-01  0.61505314639E-01  0.51100000000E-03 0. -1.
</event>
<event>
 8    1  0.1157726E+005  0.1043930E+01  0.7957747E-01            NaN
         13   -1    0    0    0    0  0.00000000000E+00  0.00000000000E+00  0.74505805969E-08  0.10566000000E+00  0.10566000000E+00 0.  1.
     999900   -1    0    0    0    0 -0.00000000000E+00 -0.00000000000E+00 -0.74505805969E-08  0.93827000000E+00  0.93827000000E+00 0. -1.
     999902    2    1    2    0    0  0.46665911225E-02 -0.23077837612E-01  0.13569221886E-01  0.10167548745E+01  0.10163916506E+01 0.  0.
     999903    2    3    3    0    0  0.46994498005E-01 -0.11981790615E+00  0.61571635398E-02  0.13041113130E+00  0.20108183073E-01 0.  0.
         14    1    1    2    0    0 -0.46665911225E-02  0.23077837612E-01 -0.13569221886E-01  0.27175125466E-01  0.00000000000E+00 0. -1.
     999901    1    3    3    0    0 -0.42327906883E-01  0.96740068540E-01  0.74120583459E-02  0.88634374323E+00  0.88000000000E+00 0. -1.
        -11    1    4    4    0    0  0.25770447134E-01 -0.52813450509E-01  0.11643249126E-01  0.59909956362E-01  0.51100000000E-03 0.  1.
         11    1    4    4    0    0  0.21224050872E-01 -0.67004455643E-01 -0.54860855865E-02  0.70501174937E-01  0.51100000000E-03 0. -1.
</event>
<event>
 8    1  0.1194796E+005  0.1043930E+01  0.7957747E-01            NaN
         13   -1    0    0    0    0  0.00000000000E+00  0.00000000000E+00  0.74505805969E-08  0.10566000000E+00  0.10566000000E+00 0.  1.
     999900   -1    0    0    0    0 -0.00000000000E+00 -0.00000000000E+00 -0.74505805969E-08  0.93827000000E+00  0.93827000000E+00 0.  1.
     999902    2    1    2    0    0 -0.30757626650E-02  0.23446000228E-01  0.29937221052E-02  0.10200943625E+01  0.10198158514E+01 0.  0.
     999903    2    3    3    0    0 -0.37268644218E-01 -0.77214832466E-01 -0.94578826433E-01  0.12834206584E+00  0.13245726075E-01 0.  0.
         14    1    1    2    0    0  0.30757626650E-02 -0.23446000228E-01 -0.29937221052E-02  0.23835637493E-01  0.00000000000E+00 0. -1.
     999901    1    3    3    0    0  0.34192881553E-01  0.10066083269E+00  0.97572548539E-01  0.89175229667E+00  0.88000000000E+00 0. -1.
        -11    1    4    4    0    0 -0.13365184200E-01 -0.42840341441E-01 -0.48298823964E-01  0.65931483532E-01  0.51100000000E-03 0.  1.
         11    1    4    4    0    0 -0.23903460018E-01 -0.34374491025E-01 -0.46280002470E-01  0.62410582305E-01  0.51100000000E-03 0. -1.
</event>
<event>
 8    1  0.1157726E+005  0.1043930E+01  0.7957747E-01            NaN
         13   -1    0    0    0    0  0.00000000000E+00  0.00000000000E+00  0.74505805969E-08  0.10566000000E+00  0.10566000000E+00 0.  1.
     999900   -1    0    0    0    0 -0.00000000000E+00 -0.00000000000E+00 -0.74505805969E-08  0.93827000000E+00  0.93827000000E+00 0. -1.
     999902    2    1    2    0    0 -0.13406589973E-01 -0.15096673618E-01 -0.13060603471E-01  0.10198836786E+01  0.10196001630E+01 0.  0.
     999903    2    3    3    0    0  0.20214776356E-01  0.89293471285E-01  0.86454783128E-01  0.12750987197E+00  0.20059330147E-01 0.  0.
         14    1    1    2    0    0  0.13406589973E-01  0.15096673618E-01  0.13060603471E-01  0.24046321383E-01  0.00000000000E+00 0. -1.
     999901    1    3    3    0    0 -0.33621366328E-01 -0.10439014490E+00 -0.99515386598E-01  0.89237380665E+00  0.88000000000E+00 0. -1.
        -11    1    4    4    0    0  0.99297944619E-02  0.24461002638E-01  0.14555319157E-01  0.30150620306E-01  0.51100000000E-03 0. -1.
         11    1    4    4    0    0  0.10284981894E-01  0.64832468647E-01  0.71899463971E-01  0.97359251660E-01  0.51100000000E-03 0.  1.
</event>
<event>
 8    1  0.1157726E+005  0.1043930E+01  0.7957747E-01            NaN
         13   -1    0    0    0    0  0.00000000000E+00  0.00000000000E+00  0.74505805969E-08  0.10566000000E+00  0.10566000000E+00 0.  1.
     999900   -1    0    0    0    0 -0.00000000000E+00 -0.00000000000E+00 -0.74505805969E-08  0.93827000000E+00  0.93827000000E+00 0.  1.
     999902    2    1    2    0    0  0.11218635636E-01  0.16997098122E-01  0.12431288262E-01  0.10200700742E+01  0.10197909885E+01 0.  0.
     999903    2    3    3    0    0 -0.32769781192E-01  0.14667512418E-01  0.12526165270E+00  0.13177333387E+00  0.19614673115E-01 0.  0.
         14    1    1    2    0    0 -0.11218635636E-01 -0.16997098122E-01 -0.12431288262E-01  0.23859925774E-01  0.00000000000E+00 0. -1.
     999901    1    3    3    0    0  0.43988416828E-01  0.23295857040E-02 -0.11283036444E+00  0.88829674035E+00  0.88000000000E+00 0.  1.
        -11    1    4    4    0    0 -0.62938929569E-02  0.56178420275E-02  0.62325728229E-01  0.62896190329E-01  0.51100000000E-03 0.  1.
         11    1    4    4    0    0 -0.26475888235E-01  0.90496703901E-02  0.62935924476E-01  0.68877143543E-01  0.51100000000E-03 0. -1.
</event>
<event>
 8    1  0.1157726E+005  0.1043930E+01  0.7957747E-01            NaN
         13   -1    0    0    0    0  0.00000000000E+00  0.00000000000E+00  0.74505805969E-08  0.10566000000E+00  0.10566000000E+00 0. -1.
     999900   -1    0    0    0    0 -0.00000000000E+00 -0.00000000000E+00 -0.74505805969E-08  0.93827000000E+00  0.93827000000E+00 0. -1.
     999902    2    1    2    0    0 -0.18165679153E-02 -0.78531127389E-02  0.22726982331E-01  0.10198159579E+01  0.10195308240E+01 0.  0.
     999903    2    3    3    0    0 -0.46722077857E-01 -0.12049808973E+00 -0.77244238400E-02  0.13097813032E+00  0.19820739429E-01 0.  0.
         14    1    1    2    0    0  0.18165679153E-02  0.78531127389E-02 -0.22726982331E-01  0.24114042062E-01  0.00000000000E+00 0.  1.
     999901    1    3    3    0    0  0.44905509942E-01  0.11264497699E+00  0.30451406171E-01  0.88883782762E+00  0.88000000000E+00 0. -1.
        -11    1    4    4    0    0 -0.11171564644E-02 -0.21799390507E-01 -0.39324990301E-02  0.22185290953E-01  0.51100000000E-03 0.  1.
         11    1    4    4    0    0 -0.45604921393E-01 -0.98698699221E-01 -0.37919248100E-02  0.10879283937E+00  0.51100000000E-03 0. -1.
</event>
<event>
 8    1  0.1157726E+005  0.1043930E+01  0.7957747E-01            NaN
         13   -1    0    0    0    0  0.00000000000E+00  0.00000000000E+00  0.74505805969E-08  0.10566000000E+00  0.10566000000E+00 0. -1.
     999900   -1    0    0    0    0 -0.00000000000E+00 -0.00000000000E+00 -0.74505805969E-08  0.93827000000E+00  0.93827000000E+00 0.  1.
     999902    2    1    2    0    0  0.83305025565E-02  0.17616266763E-01 -0.11715886862E-01  0.10211925390E+01  0.10209393761E+01 0.  0.
     999903    2    3    3    0    0  0.34375432324E-01 -0.12215171834E+00 -0.19164451692E-01  0.12975049987E+00  0.19110294757E-01 0.  0.
         14    1    1    2    0    0 -0.83305025565E-02 -0.17616266763E-01  0.11715886862E-01  0.22737460994E-01  0.00000000000E+00 0. -1.
     999901    1    3    3    0    0 -0.26044929767E-01  0.13976798510E+00  0.74485648298E-02  0.89144203914E+00  0.88000000000E+00 0. -1.
        -11    1    4    4    0    0  0.16343212664E-01 -0.55218367231E-01 -0.18290617460E-01  0.60423310799E-01  0.51100000000E-03 0.  1.
         11    1    4    4    0    0  0.18032219660E-01 -0.66933351110E-01 -0.87383423206E-03  0.69327189067E-01  0.51100000000E-03 0. -1.
</event>
<event>
 8    1  0.1157726E+005  0.1043930E+01  0.7957747E-01            NaN
         13   -1    0    0    0    0  0.00000000000E+00  0.00000000000E+00  0.74505805969E-08  0.10566000000E+00  0.10566000000E+00 0.  1.
     999900   -1    0    0    0    0 -0.00000000000E+00 -0.00000000000E+00 -0.74505805969E-08  0.93827000000E+00  0.93827000000E+00 0. -1.
     999902    2    1    2    0    0  0.21991300529E-01  0.12044541058E-02  0.10144664617E-01  0.10196816551E+01  0.10193932978E+01 0.  0.
     999903    2    3    3    0    0  0.38252859618E-01 -0.71589299528E-01 -0.99019833692E-01  0.12980511506E+00  0.21357231947E-01 0.  0.
         14    1    1    2    0    0 -0.21991300529E-01 -0.12044541058E-02 -0.10144664617E-01  0.24248344869E-01  0.00000000000E+00 0. -1.
     999901    1    3    3    0    0 -0.16261559089E-01  0.72793753634E-01  0.10916449831E+00  0.88987654007E+00  0.88000000000E+00 0.  1.
        -11    1    4    4    0    0  0.14830854701E-01 -0.36858528097E-01 -0.33173617357E-01  0.51761523878E-01  0.51100000000E-03 0. -1.
         11    1    4    4    0    0  0.23422004917E-01 -0.34730771431E-01 -0.65846216334E-01  0.78043591185E-01  0.51100000000E-03 0.  1.
</event>
<event>
 8    1  0.1157726E+005  0.1043930E+01  0.7957747E-01            NaN
         13   -1    0    0    0    0  0.00000000000E+00  0.00000000000E+00  0.74505805969E-08  0.10566000000E+00  0.10566000000E+00 0.  1.
     999900   -1    0    0    0    0 -0.00000000000E+00 -0.00000000000E+00 -0.74505805969E-08  0.93827000000E+00  0.93827000000E+00 0. -1.
     999902    2    1    2    0    0 -0.12798498961E-01 -0.17140611886E-01 -0.96261879832E-02  0.10204722583E+01  0.10202026094E+01 0.  0.
     999903    2    3    3    0    0 -0.17011383021E-01 -0.38385494368E-01  0.12147939107E+00  0.13049598540E+00  0.22563829939E-01 0.  0.
         14    1    1    2    0    0  0.12798498961E-01  0.17140611886E-01  0.96261879832E-02  0.23457741720E-01  0.00000000000E+00 0.  1.
     999901    1    3    3    0    0  0.42128840602E-02  0.21244882481E-01 -0.13110557905E+00  0.88997627288E+00  0.88000000000E+00 0. -1.
        -11    1    4    4    0    0  0.18813449088E-02  0.20372911386E-02  0.10743843512E-01  0.11107713908E-01  0.51100000000E-03 0. -1.
         11    1    4    4    0    0 -0.18892727930E-01 -0.40422785506E-01  0.11073554756E+00  0.11938827150E+00  0.51100000000E-03 0.  1.
</event>
<event>
 8    1  0.1157726E+005  0.1043930E+01  0.7957747E-01            NaN
         13   -1    0    0    0    0  0.00000000000E+00  0.00000000000E+00  0.74505805969E-08  0.10566000000E+00  0.10566000000E+00 0.  1.
     999900   -1    0    0    0    0 -0.00000000000E+00 -0.00000000000E+00 -0.74505805969E-08  0.93827000000E+00  0.93827000000E+00 0.  1.
     999902    2    1    2    0    0 -0.92245006811E-02  0.20381864125E-01  0.80297569791E-02  0.10201605070E+01  0.10198835577E+01 0.  0.
     999903    2    3    3    0    0  0.12284831969E+00  0.34624888740E-01  0.16850079366E-01  0.13014708484E+00  0.19072124833E-01 0.  0.
         14    1    1    2    0    0  0.92245006811E-02 -0.20381864125E-01 -0.80297569791E-02  0.23769492951E-01  0.00000000000E+00 0. -1.
     999901    1    3    3    0    0 -0.13207282037E+00 -0.14243024616E-01 -0.88203223869E-02  0.89001342221E+00  0.88000000000E+00 0.  1.
        -11    1    4    4    0    0  0.78522796125E-01  0.20569150739E-01  0.15407012077E-02  0.81188388053E-01  0.51100000000E-03 0. -1.
         11    1    4    4    0    0  0.44325523566E-01  0.14055738001E-01  0.15309378158E-01  0.48958696784E-01  0.51100000000E-03 0.  1.
</event>
<event>
 8    1  0.1157726E+005  0.1043930E+01  0.7957747E-01            NaN
         13   -1    0    0    0    0  0.00000000000E+00  0.00000000000E+00  0.74505805969E-08  0.10566000000E+00  0.10566000000E+00 0. -1.
     999900   -1    0    0    0    0 -0.00000000000E+00 -0.00000000000E+00 -0.74505805969E-08  0.93827000000E+00  0.93827000000E+00 0.  1.
     999902    2    1    2    0    0  0.17174202603E-01 -0.12457109203E-01 -0.91611424340E-02  0.10208202762E+01  0.10205586592E+01 0.  0.
     999903    2    3    3    0    0  0.80799438195E-01  0.98438574890E-02  0.10107744298E+00  0.13138334787E+00  0.20481305481E-01 0.  0.
         14    1    1    2    0    0 -0.17174202603E-01  0.12457109203E-01  0.91611424340E-02  0.23109723829E-01  0.00000000000E+00 0. -1.
     999901    1    3    3    0    0 -0.63625235592E-01 -0.22300966692E-01 -0.11023858541E+00  0.88943692831E+00  0.88000000000E+00 0.  1.
        -11    1    4    4    0    0  0.36712688887E-01 -0.28301318261E-02  0.34013000762E-01  0.50129597179E-01  0.51100000000E-03 0. -1.
         11    1    4    4    0    0  0.44086749307E-01  0.12673989315E-01  0.67064442218E-01  0.81253750687E-01  0.51100000000E-03 0.  1.
</event>
<event>
 8    1  0.1157726E+005  0.1043930E+01  0.7957747E-01            NaN
         13   -1    0    0    0    0  0.00000000000E+00  0.00000000000E+00  0.74505805969E-08  0.10566000000E+00  0.10566000000E+00 0.  1.
     999900   -1    0    0    0    0 -0.00000000000E+00 -0.00000000000E+00 -0.74505805969E-08  0.93827000000E+00  0.93827000000E+00 0.  1.
     999902    2    1    2    0    0 -0.10687595721E-01 -0.23969444617E-01 -0.39894354004E-03  0.10176827500E+01  0.10173442198E+01 0.  0.
     999903    2    3    3    0    0  0.81484215143E-01  0.68390617735E-01 -0.64032441485E-01  0.12578856013E+00  0.20140863556E-01 0.  0.
         14    1    1    2    0    0  0.10687595721E-01  0.23969444617E-01  0.39894354004E-03  0.26247250018E-01  0.00000000000E+00 0.  1.
     999901    1    3    3    0    0 -0.92171810863E-01 -0.92360062353E-01  0.63633497945E-01  0.89189418985E+00  0.88000000000E+00 0. -1.
        -11    1    4    4    0    0  0.49079452586E-01  0.28102942065E-01 -0.32706082884E-01  0.65333888584E-01  0.51100000000E-03 0.  1.
         11    1    4    4    0    0  0.32404762556E-01  0.40287675670E-01 -0.31326358601E-01  0.60454671544E-01  0.51100000000E-03 0. -1.
</event>
<event>
 8    1  0.1157726E+005  0.1043930E+01  0.7957747E-01            NaN
         13   -1    0    0    0    0  0.00000000000E+00  0.00000000000E+00  0.74505805969E-08  0.10566000000E+00  0.10566000000E+00 0. -1.
     999900   -1    0    0    0    0 -0.00000000000E+00 -0.00000000000E+00 -0.74505805969E-08  0.93827000000E+00  0.93827000000E+00 0. -1.
     999902    2    1    2    0    0  0.23157771045E-01 -0.27124789765E-01 -0.11088218897E-02  0.10082471461E+01  0.10076155226E+01 0.  0.
     999903    2    3    3    0    0  0.80505079908E-01 -0.13451614657E-01  0.88184987618E-01  0.12176586934E+00  0.19705863778E-01 0.  0.
         14    1    1    2    0    0 -0.23157771045E-01  0.27124789765E-01  0.11088218897E-02  0.35682853944E-01  0.00000000000E+00 0.  1.
     999901    1    3    3    0    0 -0.57347308863E-01 -0.13673175108E-01 -0.89293809507E-01  0.88648127672E+00  0.88000000000E+00 0. -1.
        -11    1    4    4    0    0  0.16419984624E-01 -0.59803100577E-02  0.30808785771E-01  0.35423472516E-01  0.51100000000E-03 0. -1.
         11    1    4    4    0    0  0.64085095284E-01 -0.74713045993E-02  0.57376201847E-01  0.86342396824E-01  0.51100000000E-03 0.  1.
</event>
<event>
 8    1  0.1157726E+005  0.1043930E+01  0.7957747E-01            NaN
         13   -1    0    0    0    0  0.00000000000E+00  0.00000000000E+00  0.74505805969E-08  0.10566000000E+00  0.10566000000E+00 0.  1.
     999900   -1    0    0    0    0 -0.00000000000E+00 -0.00000000000E+00 -0.74505805969E-08  0.93827000000E+00  0.93827000000E+00 0. -1.
     999902    2    1    2    0    0 -0.11457552467E-01  0.80753922077E-02 -0.19362562306E-01  0.10200261031E+01  0.10197459756E+01 0.  0.
     999903    2    3    3    0    0 -0.89815931071E-01  0.83048084456E-01 -0.47777557462E-01  0.13291373591E+00  0.20481220424E-01 0.  0.
         14    1    1    2    0    0  0.11457552467E-01 -0.80753922077E-02  0.19362562306E-01  0.23903896898E-01  0.00000000000E+00 0.  1.
     999901    1    3    3    0    0  0.78358378604E-01 -0.74972692248E-01  0.28414995156E-01  0.88711236719E+00  0.88000000000E+00 0.  1.
        -11    1    4    4    0    0 -0.16573085281E-01  0.60403421060E-02 -0.87448485735E-02  0.19694831456E-01  0.51100000000E-03 0. -1.
         11    1    4    4    0    0 -0.73242845790E-01  0.77007742350E-01 -0.39032708888E-01  0.11321890445E+00  0.51100000000E-03 0.  1.
</event>
<event>
 8    1  0.1157726E+005  0.1043930E+01  0.7957747E-01            NaN
         13   -1    0    0    0    0  0.00000000000E+00  0.00000000000E+00  0.74505805969E-08  0.10566000000E+00  0.10566000000E+00 0.  1.
     999900   -1    0    0    0    0 -0.00000000000E+00 -0.00000000000E+00 -0.74505805969E-08  0.93827000000E+00  0.93827000000E+00 0.  1.
     999902    2    1    2    0    0  0.20074879201E-01 -0.10658901408E-01 -0.11085053429E-01  0.10186418335E+01  0.10183278910E+01 0.  0.
     999903    2    3    3    0    0 -0.61361517747E-01  0.94763413159E-01  0.52996728199E-01  0.12631217141E+00  0.20019268527E-01 0.  0.
         14    1    1    2    0    0 -0.20074879201E-01  0.10658901408E-01  0.11085053429E-01  0.25288166475E-01  0.00000000000E+00 0. -1.
     999901    1    3    3    0    0  0.81436396948E-01 -0.10542231457E+00 -0.64081781628E-01  0.89232966212E+00  0.88000000000E+00 0.  1.
        -11    1    4    4    0    0 -0.58668396942E-01  0.89981230639E-01  0.54697996863E-01  0.12054349692E+00  0.51100000000E-03 0. -1.
         11    1    4    4    0    0 -0.26931208045E-02  0.47821825198E-02 -0.17012686642E-02  0.57686744914E-02  0.51100000000E-03 0.  1.
</event>
<event>
 8    1  0.1157726E+005  0.1043930E+01  0.7957747E-01            NaN
         13   -1    0    0    0    0  0.00000000000E+00  0.00000000000E+00  0.74505805969E-08  0.10566000000E+00  0.10566000000E+00 0.  1.
     999900   -1    0    0    0    0 -0.00000000000E+00 -0.00000000000E+00 -0.74505805969E-08  0.93827000000E+00  0.93827000000E+00 0. -1.
     999902    2    1    2    0    0  0.88256821099E-02  0.88935339772E-02 -0.19309580665E-01  0.10209115831E+01  0.10206520528E+01 0.  0.
     999903    2    3    3    0    0 -0.83540545746E-01 -0.91090921364E-01 -0.35967480624E-01  0.13029050936E+00  0.20134011708E-01 0.  0.
         14    1    1    2    0    0 -0.88256821099E-02 -0.88935339772E-02  0.19309580665E-01  0.23018416904E-01  0.00000000000E+00 0.  1.
     999901    1    3    3    0    0  0.92366227856E-01  0.99984455341E-01  0.16657899960E-01  0.89062107374E+00  0.88000000000E+00 0.  1.
        -11    1    4    4    0    0 -0.51971314878E-01 -0.70289030035E-01 -0.25175449892E-01  0.90970488135E-01  0.51100000000E-03 0. -1.
         11    1    4    4    0    0 -0.31569230869E-01 -0.20801891329E-01 -0.10792030733E-01  0.39320021221E-01  0.51100000000E-03 0.  1.
</event>
<event>
 7    1  0.1157726E+005  0.1043930E+01  0.7957747E-01            NaN
         13   -1    0    0    0    0  0.00000000000E+00  0.00000000000E+00  0.74505805969E-08  0.10566000000E+00  0.10566000000E+00 0. -1.
     999900   -1    0    0    0    0 -0.00000000000E+00 -0.00000000000E+00 -0.74505805969E-08  0.93827000000E+00  0.93827000000E+00 0.  1.
     999903    2    1    2    0    0  0.11103671793E-01 -0.93317948939E-01 -0.50272302844E-01  0.10830961827E+00  0.19290874932E-01 0.  0.
         14    1    1    2    0    0  0.31829790845E-01  0.31031560340E-01 -0.21661926695E-01  0.49450302229E-01  0.00000000000E+00 0. -1.
     999901    1    1    2    0    0 -0.42933462638E-01  0.62286388599E-01  0.71934229539E-01  0.88617007950E+00  0.88000000000E+00 0.  1.
        -11    1    3    3    0    0 -0.25875172594E-02 -0.53904789389E-01 -0.32132007377E-01  0.62810417796E-01  0.51100000000E-03 0.  1.
         11    1    3    3    0    0  0.13691189052E-01 -0.39413159550E-01 -0.18140295467E-01  0.45499200477E-01  0.51100000000E-03 0. -1.
</event>
<event>
 8    1  0.1157726E+005  0.1043930E+01  0.7957747E-01            NaN
         13   -1    0    0    0    0  0.00000000000E+00  0.00000000000E+00  0.74505805969E-08  0.10566000000E+00  0.10566000000E+00 0.  1.
     999900   -1    0    0    0    0 -0.00000000000E+00 -0.00000000000E+00 -0.74505805969E-08  0.93827000000E+00  0.93827000000E+00 0.  1.
     999902    2    1    2    0    0  0.15164886250E-01 -0.39821473190E-02 -0.19570429310E-01  0.10188534577E+01  0.10185448126E+01 0.  0.
     999903    2    3    3    0    0 -0.70982549262E-01  0.92988381245E-01 -0.50129325847E-01  0.12882058736E+00  0.19910627125E-01 0.  0.
         14    1    1    2    0    0 -0.15164886250E-01  0.39821473190E-02  0.19570429310E-01  0.25076542337E-01  0.00000000000E+00 0.  1.
     999901    1    3    3    0    0  0.86147435511E-01 -0.96970528564E-01  0.30558896538E-01  0.89003287030E+00  0.88000000000E+00 0. -1.
        -11    1    4    4    0    0 -0.16719413418E-01  0.99477418258E-02 -0.86936333007E-02  0.21315176130E-01  0.51100000000E-03 0.  1.
         11    1    4    4    0    0 -0.54263135844E-01  0.83040639419E-01 -0.41435692547E-01  0.10750541123E+00  0.51100000000E-03 0. -1.
</event>
<event>
 8    1  0.1157726E+005  0.1043930E+01  0.7957747E-01            NaN
         13   -1    0    0    0    0  0.00000000000E+00  0.00000000000E+00  0.74505805969E-08  0.10566000000E+00  0.10566000000E+00 0. -1.
     999900   -1    0    0    0    0 -0.00000000000E+00 -0.00000000000E+00 -0.74505805969E-08  0.93827000000E+00  0.93827000000E+00 0.  1.
     999902    2    1    2    0    0 -0.18218534128E-02 -0.92698486895E-02  0.21584032665E-01  0.10203690214E+01  0.10200969661E+01 0.  0.
     999903    2    3    3    0    0 -0.10454785371E+00  0.35451950647E-01  0.70117581611E-01  0.13193884644E+00  0.17443893786E-01 0.  0.
         14    1    1    2    0    0  0.18218534128E-02  0.92698486895E-02 -0.21584032665E-01  0.23560978559E-01  0.00000000000E+00 0. -1.
     999901    1    3    3    0    0  0.10272600029E+00 -0.44721799336E-01 -0.48533548946E-01  0.88843017500E+00  0.88000000000E+00 0.  1.
        -11    1    4    4    0    0 -0.43545361853E-01  0.87409631551E-02  0.35635291790E-01  0.56945044716E-01  0.51100000000E-03 0.  1.
         11    1    4    4    0    0 -0.61002491854E-01  0.26710987492E-01  0.34482289822E-01  0.74993801727E-01  0.51100000000E-03 0. -1.
</event>
<event>
 8    1  0.1157726E+005  0.1043930E+01  0.7957747E-01            NaN
         13   -1    0    0    0    0  0.00000000000E+00  0.00000000000E+00  0.74505805969E-08  0.10566000000E+00  0.10566000000E+00 0.  1.
     999900   -1    0    0    0    0 -0.00000000000E+00 -0.00000000000E+00 -0.74505805969E-08  0.93827000000E+00  0.93827000000E+00 0. -1.
     999902    2    1    2    0    0  0.90078034231E-02 -0.20288909576E-01  0.70220832463E-02  0.10206471731E+01  0.10203815767E+01 0.  0.
     999903    2    3    3    0    0  0.11980631815E+00  0.15894415852E-01 -0.47327256300E-01  0.13129943764E+00  0.19836501960E-01 0.  0.
         14    1    1    2    0    0 -0.90078034231E-02  0.20288909576E-01 -0.70220832463E-02  0.23282826877E-01  0.00000000000E+00 0. -1.
     999901    1    3    3    0    0 -0.11079851473E+00 -0.36183325427E-01  0.54349339546E-01  0.88934773549E+00  0.88000000000E+00 0. -1.
        -11    1    4    4    0    0  0.15978855025E-01 -0.34943275005E-02 -0.24884852853E-02  0.16552577219E-01  0.51100000000E-03 0. -1.
         11    1    4    4    0    0  0.10382746313E+00  0.19388743352E-01 -0.44838771014E-01  0.11474686042E+00  0.51100000000E-03 0.  1.
</event>
<event>
 8    1  0.1157726E+005  0.1043930E+01  0.7957747E-01            NaN
         13   -1    0    0    0    0  0.00000000000E+00  0.00000000000E+00  0.74505805969E-08  0.10566000000E+00  0.10566000000E+00 0.  1.
     999900   -1    0    0    0    0 -0.00000000000E+00 -0.00000000000E+00 -0.74505805969E-08  0.93827000000E+00  0.93827000000E+00 0.  1.
     999902    2    1    2    0    0  0.21879653051E-01 -0.84004525709E-02 -0.78951375737E-02  0.10191990474E+01  0.10188989538E+01 0.  0.
     999903    2    3    3    0    0  0.28913497060E-01 -0.10686575886E+00  0.66021070486E-01  0.13059987039E+00  0.21006276875E-01 0.  0.
         14    1    1    2    0    0 -0.21879653051E-01  0.84004525709E-02  0.78951375737E-02  0.24730952637E-01  0.00000000000E+00 0.  1.
     999901    1    3    3    0    0 -0.70338440091E-02  0.98465306291E-01 -0.73916208060E-01  0.88859917697E+00  0.88000000000E+00 0.  1.
        -11    1    4    4    0    0  0.18705385761E-01 -0.31585763863E-01  0.21417976694E-01  0.42503444354E-01  0.51100000000E-03 0.  1.
         11    1    4    4    0    0  0.10208111298E-01 -0.75279994999E-01  0.44603093793E-01  0.88096426035E-01  0.51100000000E-03 0. -1.
</event>
<event>
 8    1  0.1274171E+005  0.1043930E+01  0.7957747E-01            NaN
         13   -1    0    0    0    0  0.00000000000E+00  0.00000000000E+00  0.74505805969E-08  0.10566000000E+00  0.10566000000E+00 0.  1.
     999900   -1    0    0    0    0 -0.00000000000E+00 -0.00000000000E+00 -0.74505805969E-08  0.93827000000E+00  0.93827000000E+00 0.  1.
     999902    2    1    2    0    0 -0.13124701810E-01 -0.55548126090E-02 -0.19425053032E-01  0.10198375442E+01  0.10195529266E+01 0.  0.
     999903    2    3    3    0    0 -0.53512556432E-01 -0.10483460150E+00 -0.57525874350E-01  0.13251610985E+00  0.19935039082E-01 0.  0.
         14    1    1    2    0    0  0.13124701810E-01  0.55548126090E-02  0.19425053032E-01  0.24092455790E-01  0.00000000000E+00 0.  1.
     999901    1    3    3    0    0  0.40387854622E-01  0.99279788892E-01  0.38100821318E-01  0.88732143436E+00  0.88000000000E+00 0. -1.
        -11    1    4    4    0    0 -0.33470848881E-01 -0.49201421227E-01 -0.21514594123E-01  0.63278878442E-01  0.51100000000E-03 0. -1.
         11    1    4    4    0    0 -0.20041707551E-01 -0.55633180274E-01 -0.36011280227E-01  0.69237231411E-01  0.51100000000E-03 0.  1.
</event>
<event>
 8    1  0.1157726E+005  0.1043930E+01  0.7957747E-01            NaN
         13   -1    0    0    0    0  0.00000000000E+00  0.00000000000E+00  0.74505805969E-08  0.10566000000E+00  0.10566000000E+00 0. -1.
     999900   -1    0    0    0    0 -0.00000000000E+00 -0.00000000000E+00 -0.74505805969E-08  0.93827000000E+00  0.93827000000E+00 0. -1.
     999902    2    1    2    0    0 -0.24044156550E-01  0.13671822002E-01  0.11118382015E-01  0.10141196226E+01  0.10136813850E+01 0.  0.
     999903    2    3    3    0    0  0.78029350260E-01  0.86556087731E-01 -0.37007388124E-01  0.12392458403E+00  0.20179690898E-01 0.  0.
         14    1    1    2    0    0  0.24044156550E-01 -0.13671822002E-01 -0.11118382015E-01  0.29810377382E-01  0.00000000000E+00 0.  1.
     999901    1    3    3    0    0 -0.10207350681E+00 -0.72884265730E-01  0.48125770139E-01  0.89019503859E+00  0.88000000000E+00 0. -1.
        -11    1    4    4    0    0  0.14827885179E-01  0.17828694762E-01 -0.16119140757E-01  0.28245643126E-01  0.51100000000E-03 0.  1.
         11    1    4    4    0    0  0.63201465080E-01  0.68727392969E-01 -0.20888247366E-01  0.95678940899E-01  0.51100000000E-03 0. -1.
</event>
<event>
 8    1  0.1157726E+005  0.1043930E+01  0.7957747E-01            NaN
         13   -1    0    0    0    0  0.00000000000E+00  0.00000000000E+00  0.74505805969E-08  0.10566000000E+00  0.10566000000E+00 0.  1.
     999900   -1    0    0    0    0 -0.00000000000E+00 -0.00000000000E+00 -0.74505805969E-08  0.93827000000E+00  0.93827000000E+00 0.  1.
     999902    2    1    2    0    0 -0.57172093534E-02 -0.22635720892E-01  0.33563591722E-02  0.10203434044E+01  0.10200707502E+01 0.  0.
     999903    2    3    3    0    0 -0.84726965485E-01 -0.58620496817E-01 -0.80197928332E-01  0.13213241339E+00  0.20303832958E-01 0.  0.
         14    1    1    2    0    0  0.57172093534E-02  0.22635720892E-01 -0.33563591722E-02  0.23586595558E-01  0.00000000000E+00 0.  1.
     999901    1    3    3    0    0  0.79009756131E-01  0.35984775924E-01  0.83554287504E-01  0.88821099105E+00  0.88000000000E+00 0. -1.
        -11    1    4    4    0    0 -0.40970725883E-01 -0.39376520093E-01 -0.49122925965E-01  0.75116134687E-01  0.51100000000E-03 0. -1.
         11    1    4    4    0    0 -0.43756239601E-01 -0.19243976724E-01 -0.31075002367E-01  0.57016278705E-01  0.51100000000E-03 0.  1.
</event>
<event>
 8    1  0.1157726E+005  0.1043930E+01  0.7957747E-01            NaN
         13   -1    0    0    0    0  0.00000000000E+00  0.00000000000E+00  0.74505805969E-08  0.10566000000E+00  0.10566000000E+00 0.  1.
     999900   -1    0    0    0    0 -0.00000000000E+00 -0.00000000000E+00 -0.74505805969E-08  0.93827000000E+00  0.93827000000E+00 0.  1.
     999902    2    1    2    0    0  0.19106214650E-01 -0.72878287960E-02  0.11974389603E-01  0.10202330404E+01  0.10199577986E+01 0.  0.
     999903    2    3    3    0    0  0.74809851674E-01 -0.74216125389E-01  0.79150182558E-01  0.13338757518E+00  0.20565666494E-01 0.  0.
         14    1    1    2    0    0 -0.19106214650E-01  0.72878287960E-02 -0.11974389603E-01  0.23696959577E-01  0.00000000000E+00 0. -1.
     999901    1    3    3    0    0 -0.55703637024E-01  0.66928296593E-01 -0.67175792955E-01  0.88684546524E+00  0.88000000000E+00 0.  1.
        -11    1    4    4    0    0  0.64279094753E-01 -0.55078783848E-01  0.55679724833E-01  0.10132111000E+00  0.51100000000E-03 0. -1.
         11    1    4    4    0    0  0.10530756921E-01 -0.19137341541E-01  0.23470457725E-01  0.32066465184E-01  0.51100000000E-03 0.  1.
</event>
<event>
 8    1  0.1157726E+005  0.1043930E+01  0.7957747E-01            NaN
         13   -1    0    0    0    0  0.00000000000E+00  0.00000000000E+00  0.74505805969E-08  0.10566000000E+00  0.10566000000E+00 0.  1.
     999900   -1    0    0    0    0 -0.00000000000E+00 -0.00000000000E+00 -0.74505805969E-08  0.93827000000E+00  0.93827000000E+00 0.  1.
     999902    2    1    2    0    0 -0.20889814579E-01 -0.79434914862E-02 -0.75964415149E-02  0.10203251417E+01  0.10200520602E+01 0.  0.
     999903    2    3    3    0    0  0.73426238077E-01  0.75528217743E-01 -0.71522247792E-01  0.12906224408E+00  0.21111769304E-01 0.  0.
         14    1    1    2    0    0  0.20889814579E-01  0.79434914862E-02  0.75964415149E-02  0.23604858268E-01  0.00000000000E+00 0.  1.
     999901    1    3    3    0    0 -0.94316052657E-01 -0.83471709229E-01  0.63925806277E-01  0.89126289766E+00  0.88000000000E+00 0. -1.
        -11    1    4    4    0    0  0.31874240489E-01  0.33636674699E-01 -0.19069914213E-01  0.50113030647E-01  0.51100000000E-03 0.  1.
         11    1    4    4    0    0  0.41551997588E-01  0.41891543044E-01 -0.52452333579E-01  0.78949213429E-01  0.51100000000E-03 0. -1.
</event>
<event>
 8    1  0.1157726E+005  0.1043930E+01  0.7957747E-01            NaN
         13   -1    0    0    0    0  0.00000000000E+00  0.00000000000E+00  0.74505805969E-08  0.10566000000E+00  0.10566000000E+00 0. -1.
     999900   -1    0    0    0    0 -0.00000000000E+00 -0.00000000000E+00 -0.74505805969E-08  0.93827000000E+00  0.93827000000E+00 0. -1.
     999902    2    1    2    0    0  0.56417290476E-02 -0.59368699887E-02 -0.22084591824E-01  0.10203757068E+01  0.10201038076E+01 0.  0.
     999903    2    3    3    0    0  0.24321837455E-01 -0.10744405460E+00 -0.72840852488E-01  0.13289114188E+00  0.14781378632E-01 0.  0.
         14    1    1    2    0    0 -0.56417290476E-02  0.59368699887E-02  0.22084591824E-01  0.23554293196E-01  0.00000000000E+00 0. -1.
     999901    1    3    3    0    0 -0.18680108408E-01  0.10150718461E+00  0.50756260663E-01  0.88748456492E+00  0.88000000000E+00 0.  1.
        -11    1    4    4    0    0  0.12647626704E-01 -0.37243352527E-01 -0.32912892303E-01  0.51288881539E-01  0.51100000000E-03 0. -1.
         11    1    4    4    0    0  0.11674210751E-01 -0.70200702070E-01 -0.39927960184E-01  0.81602260344E-01  0.51100000000E-03 0.  1.
</event>
<event>
 8    1  0.1157726E+005  0.1043930E+01  0.7957747E-01            NaN
         13   -1    0    0    0    0  0.00000000000E+00  0.00000000000E+00  0.74505805969E-08  0.10566000000E+00  0.10566000000E+00 0.  1.
     999900   -1    0    0    0    0 -0.00000000000E+00 -0.00000000000E+00 -0.74505805969E-08  0.93827000000E+00  0.93827000000E+00 0.  1.
     999902    2    1    2    0    0 -0.22487228357E-01 -0.72719353547E-02 -0.28583116065E-02  0.10201239834E+01  0.10198461722E+01 0.  0.
     999903    2    3    3    0    0  0.98525712163E-01  0.70302527151E-01 -0.36433377593E-01  0.12782962943E+00  0.19059430098E-01 0.  0.
         14    1    1    2    0    0  0.22487228357E-01  0.72719353547E-02  0.28583116065E-02  0.23806016639E-01  0.00000000000E+00 0.  1.
     999901    1    3    3    0    0 -0.12101294052E+00 -0.77574462506E-01  0.33575065986E-01  0.89229435393E+00  0.88000000000E+00 0. -1.
        -11    1    4    4    0    0  0.31748286600E-01  0.18078139089E-01 -0.19366610670E-01  0.41353349862E-01  0.51100000000E-03 0. -1.
         11    1    4    4    0    0  0.66777425563E-01  0.52224388062E-01 -0.17066766923E-01  0.86476279565E-01  0.51100000000E-03 0.  1.
</event>
<event>
 8    1  0.1157726E+005  0.1043930E+01  0.7957747E-01            NaN
         13   -1    0    0    0    0  0.00000000000E+00  0.00000000000E+00  0.74505805969E-08  0.10566000000E+00  0.10566000000E+00 0.  1.
     999900   -1    0    0    0    0 -0.00000000000E+00 -0.00000000000E+00 -0.74505805969E-08  0.93827000000E+00  0.93827000000E+00 0. -1.
     999902    2    1    2    0    0  0.18633803673E-01 -0.11252944448E-01 -0.13596353555E-01  0.10182646882E+01  0.10179411904E+01 0.  0.
     999903    2    3    3    0    0 -0.87269456648E-01  0.68221673586E-02 -0.91619455658E-01  0.12830411907E+00  0.20132617391E-01 0.  0.
         14    1    1    2    0    0 -0.18633803673E-01  0.11252944448E-01  0.13596353555E-01  0.25665311766E-01  0.00000000000E+00 0.  1.
     999901    1    3    3    0    0  0.10590326032E+00 -0.18075111807E-01  0.78023102103E-01  0.88996056917E+00  0.88000000000E+00 0.  1.
        -11    1    4    4    0    0 -0.54158356710E-01 -0.55173791256E-02 -0.57432501130E-01  0.79134836709E-01  0.51100000000E-03 0. -1.
         11    1    4    4    0    0 -0.33111099938E-01  0.12339546484E-01 -0.34186954528E-01  0.49169282356E-01  0.51100000000E-03 0.  1.
</event>
<event>
 8    1  0.1157726E+005  0.1043930E+01  0.7957747E-01            NaN
         13   -1    0    0    0    0  0.00000000000E+00  0.00000000000E+00  0.74505805969E-08  0.10566000000E+00  0.10566000000E+00 0. -1.
     999900   -1    0    0    0    0 -0.00000000000E+00 -0.00000000000E+00 -0.74505805969E-08  0.93827000000E+00  0.93827000000E+00 0. -1.
     999902    2    1    2    0    0 -0.18291705079E-01  0.71423905094E-02 -0.13978974498E-01  0.10198258106E+01  0.10195409124E+01 0.  0.
     999903    2    3    3    0    0  0.11948470965E+00 -0.29271620677E-01  0.25670673765E-01  0.12748035327E+00  0.21420395951E-01 0.  0.
         14    1    1    2    0    0  0.18291705079E-01 -0.71423905094E-02  0.13978974498E-01  0.24104189364E-01  0.00000000000E+00 0. -1.
     999901    1    3    3    0    0 -0.13777641473E+00  0.36414011186E-01 -0.39649648263E-01  0.89234545736E+00  0.88000000000E+00 0. -1.
        -11    1    4    4    0    0  0.79370498351E-01 -0.29648982103E-01  0.18505133952E-01  0.86726231624E-01  0.51100000000E-03 0. -1.
         11    1    4    4    0    0  0.40114211298E-01  0.37736142623E-03  0.71655398125E-02  0.40754121650E-01  0.51100000000E-03 0.  1.
</event>
<event>
 8    1  0.1157726E+005  0.1043930E+01  0.7957747E-01            NaN
         13   -1    0    0    0    0  0.00000000000E+00  0.00000000000E+00  0.74505805969E-08  0.10566000000E+00  0.10566000000E+00 0. -1.
     999900   -1    0    0    0    0 -0.00000000000E+00 -0.00000000000E+00 -0.74505805969E-08  0.93827000000E+00  0.93827000000E+00 0.  1.
     999902    2    1    2    0    0 -0.59351769610E-02 -0.18065191329E-02  0.23533560482E-01  0.10195924096E+01  0.10193019000E+01 0.  0.
     999903    2    3    3    0    0 -0.68726521537E-01 -0.10744896131E+00  0.22522742126E-01  0.13105197705E+00  0.19968293063E-01 0.  0.
         14    1    1    2    0    0  0.59351769610E-02  0.18065191329E-02 -0.23533560482E-01  0.24337590388E-01  0.00000000000E+00 0.  1.
     999901    1    3    3    0    0  0.62791344576E-01  0.10564244217E+00  0.10108183563E-02  0.88854043256E+00  0.88000000000E+00 0.  1.
        -11    1    4    4    0    0 -0.25723341139E-01 -0.45062567865E-01  0.18787782874E-01  0.55186657883E-01  0.51100000000E-03 0.  1.
         11    1    4    4    0    0 -0.43003180398E-01 -0.62386393440E-01  0.37349592517E-02  0.75865319168E-01  0.51100000000E-03 0. -1.
</event>
<event>
 8    1  0.1157726E+005  0.1043930E+01  0.7957747E-01            NaN
         13   -1    0    0    0    0  0.00000000000E+00  0.00000000000E+00  0.74505805969E-08  0.10566000000E+00  0.10566000000E+00 0.  1.
     999900   -1    0    0    0    0 -0.00000000000E+00 -0.00000000000E+00 -0.74505805969E-08  0.93827000000E+00  0.93827000000E+00 0.  1.
     999902    2    1    2    0    0 -0.53063811205E-03  0.16933199651E-01 -0.15367313241E-01  0.10210571090E+01  0.10208008869E+01 0.  0.
     999903    2    3    3    0    0  0.57944158292E-01  0.11813888389E+00  0.37493575679E-02  0.13312279866E+00  0.19831804623E-01 0.  0.
         14    1    1    2    0    0  0.53063811205E-03 -0.16933199651E-01  0.15367313241E-01  0.22872891017E-01  0.00000000000E+00 0. -1.
     999901    1    3    3    0    0 -0.58474796404E-01 -0.10120568424E+00 -0.19116670809E-01  0.88793431032E+00  0.88000000000E+00 0. -1.
        -11    1    4    4    0    0  0.21463122924E-01  0.63556315973E-01 -0.28035556657E-02  0.67143071057E-01  0.51100000000E-03 0. -1.
         11    1    4    4    0    0  0.36481035369E-01  0.54582567920E-01  0.65529132337E-02  0.65979727607E-01  0.51100000000E-03 0.  1.
</event>
<event>
 8    1  0.1157726E+005  0.1043930E+01  0.7957747E-01            NaN
         13   -1    0    0    0    0  0.00000000000E+00  0.00000000000E+00  0.74505805969E-08  0.10566000000E+00  0.10566000000E+00 0.  1.
     999900   -1    0    0    0    0 -0.00000000000E+00 -0.00000000000E+00 -0.74505805969E-08  0.93827000000E+00  0.93827000000E+00 0.  1.
     999902    2    1    2    0    0  0.23714701234E-02 -0.23075931286E-01  0.65684379808E-03  0.10207232355E+01  0.10204593914E+01 0.  0.
     999903    2    3    3    0    0 -0.41609660679E-01  0.60333997594E-01  0.10503366750E+00  0.12955205248E+00  0.19496355167E-01 0.  0.
         14    1    1    2    0    0 -0.23714701234E-02  0.23075931286E-01 -0.65684379808E-03  0.23206764510E-01  0.00000000000E+00 0.  1.
     999901    1    3    3    0    0  0.43981130802E-01 -0.83409928880E-01 -0.10437682371E+00  0.89117118301E+00  0.88000000000E+00 0.  1.
        -11    1    4    4    0    0 -0.20683161080E-01  0.29821099415E-01  0.68671019903E-01  0.77672782994E-01  0.51100000000E-03 0. -1.
         11    1    4    4    0    0 -0.20926499599E-01  0.30512898179E-01  0.36362647601E-01  0.51879269485E-01  0.51100000000E-03 0.  1.
</event>
<event>
 8    1  0.1157726E+005  0.1043930E+01  0.7957747E-01            NaN
         13   -1    0    0    0    0  0.00000000000E+00  0.00000000000E+00  0.74505805969E-08  0.10566000000E+00  0.10566000000E+00 0.  1.
     999900   -1    0    0    0    0 -0.00000000000E+00 -0.00000000000E+00 -0.74505805969E-08  0.93827000000E+00  0.93827000000E+00 0. -1.
     999902    2    1    2    0    0  0.40339994425E-03 -0.22380008254E-01  0.74946265086E-02  0.10203249809E+01  0.10200518956E+01 0.  0.
     999903    2    3    3    0    0 -0.15959476899E-01 -0.59770726121E-01  0.11596466330E+00  0.13272622108E+00  0.18471654636E-01 0.  0.
         14    1    1    2    0    0 -0.40339994425E-03  0.22380008254E-01 -0.74946265086E-02  0.23605019116E-01  0.00000000000E+00 0. -1.
     999901    1    3    3    0    0  0.16362876844E-01  0.37390717868E-01 -0.10847003679E+00  0.88759875980E+00  0.88000000000E+00 0. -1.
        -11    1    4    4    0    0 -0.13078095579E-01 -0.23803921306E-01  0.36945375864E-01  0.45857225954E-01  0.51100000000E-03 0. -1.
         11    1    4    4    0    0 -0.28813813206E-02 -0.35966804815E-01  0.79019287434E-01  0.86868995128E-01  0.51100000000E-03 0.  1.
</event>
<event>
 8    1  0.1157726E+005  0.1043930E+01  0.7957747E-01            NaN
         13   -1    0    0    0    0  0.00000000000E+00  0.00000000000E+00  0.74505805969E-08  0.10566000000E+00  0.10566000000E+00 0. -1.
     999900   -1    0    0    0    0 -0.00000000000E+00 -0.00000000000E+00 -0.74505805969E-08  0.93827000000E+00  0.93827000000E+00 0.  1.
     999902    2    1    2    0    0 -0.12233259428E-01 -0.19654258184E-01  0.22340914891E-02  0.10206720193E+01  0.10204069959E+01 0.  0.
     999903    2    3    3    0    0  0.61319551194E-01  0.36403199630E-01  0.10631727493E+00  0.12972546446E+00  0.20977437389E-01 0.  0.
         14    1    1    2    0    0  0.12233259428E-01  0.19654258184E-01 -0.22340914891E-02  0.23257980690E-01  0.00000000000E+00 0.  1.
     999901    1    3    3    0    0 -0.73552810622E-01 -0.56057457814E-01 -0.10408318344E+00  0.89094655485E+00  0.88000000000E+00 0.  1.
        -11    1    4    4    0    0  0.24588028933E-01  0.23640010175E-01  0.37611200580E-01  0.50776813389E-01  0.51100000000E-03 0. -1.
         11    1    4    4    0    0  0.36731522261E-01  0.12763189455E-01  0.68706074347E-01  0.78948651070E-01  0.51100000000E-03 0.  1.
</event>
<event>
 8    1  0.1157726E+005  0.1043930E+01  0.7957747E-01            NaN
         13   -1    0    0    0    0  0.00000000000E+00  0.00000000000E+00  0.74505805969E-08  0.10566000000E+00  0.10566000000E+00 0. -1.
     999900   -1    0    0    0    0 -0.00000000000E+00 -0.00000000000E+00 -0.74505805969E-08  0.93827000000E+00  0.93827000000E+00 0.  1.
     999902    2    1    2    0    0 -0.10136820303E-01  0.10522862807E-01  0.18227431323E-01  0.10205692419E+01  0.10203018438E+01 0.  0.
     999903    2    3    3    0    0  0.12306177461E+00  0.10139107892E-01  0.36596696738E-01  0.13035609725E+00  0.20159166587E-01 0.  0.
         14    1    1    2    0    0  0.10136820303E-01 -0.10522862807E-01 -0.18227431323E-01  0.23360758125E-01  0.00000000000E+00 0.  1.
     999901    1    3    3    0    0 -0.13319859492E+00  0.38375491479E-03 -0.18369265414E-01  0.89021314463E+00  0.88000000000E+00 0. -1.
        -11    1    4    4    0    0  0.17515308319E-01  0.21292407607E-02  0.12958652061E-01  0.21897659144E-01  0.51100000000E-03 0. -1.
         11    1    4    4    0    0  0.10554646630E+00  0.80098671316E-02  0.23638044677E-01  0.10845843810E+00  0.51100000000E-03 0.  1.
</event>
<event>
 8    1  0.1157726E+005  0.1043930E+01  0.7957747E-01            NaN
         13   -1    0    0    0    0  0.00000000000E+00  0.00000000000E+00  0.74505805969E-08  0.10566000000E+00  0.10566000000E+00 0.  1.
     999900   -1    0    0    0    0 -0.00000000000E+00 -0.00000000000E+00 -0.74505805969E-08  0.93827000000E+00  0.93827000000E+00 0.  1.
     999902    2    1    2    0    0  0.20250362862E-02  0.18596820771E-01  0.15537994685E-01  0.10196118629E+01  0.10193218231E+01 0.  0.
     999903    2    3    3    0    0 -0.30207805235E-01 -0.85285690293E-01 -0.86797773995E-01  0.12702957438E+00  0.20408300510E-01 0.  0.
         14    1    1    2    0    0 -0.20250362862E-02 -0.18596820771E-01 -0.15537994685E-01  0.24318137133E-01  0.00000000000E+00 0. -1.
     999901    1    3    3    0    0  0.32232841521E-01  0.10388251106E+00  0.10233576868E+00  0.89258228849E+00  0.88000000000E+00 0. -1.
        -11    1    4    4    0    0 -0.10738955974E-01 -0.10437849433E-01 -0.18856757493E-01  0.24085520554E-01  0.51100000000E-03 0.  1.
         11    1    4    4    0    0 -0.19468849261E-01 -0.74847840861E-01 -0.67941016502E-01  0.10294405382E+00  0.51100000000E-03 0. -1.
</event>
<event>
 8    1  0.1475695E+005  0.1043930E+01  0.7957747E-01            NaN
         13   -1    0    0    0    0  0.00000000000E+00  0.00000000000E+00  0.74505805969E-08  0.10566000000E+00  0.10566000000E+00 0. -1.
     999900   -1    0    0    0    0 -0.00000000000E+00 -0.00000000000E+00 -0.74505805969E-08  0.93827000000E+00  0.93827000000E+00 0.  1.
     999902    2    1    2    0    0  0.15946423235E-01 -0.15410407529E-01 -0.64178575123E-02  0.10208441175E+01  0.10205830463E+01 0.  0.
     999903    2    3    3    0    0 -0.66622313787E-01  0.47556875737E-01 -0.98666808915E-01  0.12994999132E+00  0.21252574843E-01 0.  0.
         14    1    1    2    0    0 -0.15946423235E-01  0.15410407529E-01  0.64178575123E-02  0.23085882466E-01  0.00000000000E+00 0.  1.
     999901    1    3    3    0    0  0.82568737022E-01 -0.62967283265E-01  0.92248951402E-01  0.89089412622E+00  0.88000000000E+00 0. -1.
        -11    1    4    4    0    0 -0.13966016244E-01  0.17205440408E-01 -0.38511063795E-01  0.44434670529E-01  0.51100000000E-03 0.  1.
         11    1    4    4    0    0 -0.52656297543E-01  0.30351435329E-01 -0.60155745119E-01  0.85515320787E-01  0.51100000000E-03 0. -1.
</event>
<event>
 8    1  0.1157726E+005  0.1043930E+01  0.7957747E-01            NaN
         13   -1    0    0    0    0  0.00000000000E+00  0.00000000000E+00  0.74505805969E-08  0.10566000000E+00  0.10566000000E+00 0. -1.
     999900   -1    0    0    0    0 -0.00000000000E+00 -0.00000000000E+00 -0.74505805969E-08  0.93827000000E+00  0.93827000000E+00 0.  1.
     999902    2    1    2    0    0 -0.29980312799E-02  0.20351962839E-01  0.11486063505E-01  0.10203690103E+01  0.10200969546E+01 0.  0.
     999903    2    3    3    0    0  0.47140900610E-02 -0.20964107827E-01 -0.12540396175E+00  0.12879435072E+00  0.20002867079E-01 0.  0.
         14    1    1    2    0    0  0.29980312799E-02 -0.20351962839E-01 -0.11486063505E-01  0.23560989745E-01  0.00000000000E+00 0.  1.
     999901    1    3    3    0    0 -0.77121213409E-02  0.41316070665E-01  0.13689002526E+00  0.89157465954E+00  0.88000000000E+00 0. -1.
        -11    1    4    4    0    0 -0.66198954951E-02 -0.14694395193E-02 -0.29488536058E-01  0.30262470962E-01  0.51100000000E-03 0. -1.
         11    1    4    4    0    0  0.11333985556E-01 -0.19494668307E-01 -0.95915425696E-01  0.98531879757E-01  0.51100000000E-03 0.  1.
</event>
<event>
 8    1  0.1157726E+005  0.1043930E+01  0.7957747E-01            NaN
         13   -1    0    0    0    0  0.00000000000E+00  0.00000000000E+00  0.74505805969E-08  0.10566000000E+00  0.10566000000E+00 0.  1.
     999900   -1    0    0    0    0 -0.00000000000E+00 -0.00000000000E+00 -0.74505805969E-08  0.93827000000E+00  0.93827000000E+00 0.  1.
     999902    2    1    2    0    0  0.23550656872E-01  0.19108000662E-02 -0.52332994346E-02  0.10197293385E+01  0.10194421277E+01 0.  0.
     999903    2    3    3    0    0 -0.38912583151E-01 -0.11896561362E+00 -0.22706961721E-01  0.12910141805E+00  0.22012807173E-01 0.  0.
         14    1    1    2    0    0 -0.23550656872E-01 -0.19108000662E-02  0.52332994346E-02  0.24200661540E-01  0.00000000000E+00 0. -1.
     999901    1    3    3    0    0  0.62463240023E-01  0.12087641369E+00  0.17473662286E-01  0.89062792041E+00  0.88000000000E+00 0.  1.
        -11    1    4    4    0    0 -0.21392395956E-01 -0.43058536599E-01 -0.16957143513E-01  0.50985076404E-01  0.51100000000E-03 0.  1.
         11    1    4    4    0    0 -0.17520187195E-01 -0.75907077025E-01 -0.57498182077E-02  0.78116341646E-01  0.51100000000E-03 0. -1.
</event>
<event>
 8    1  0.1157726E+005  0.1043930E+01  0.7957747E-01            NaN
         13   -1    0    0    0    0  0.00000000000E+00  0.00000000000E+00  0.74505805969E-08  0.10566000000E+00  0.10566000000E+00 0. -1.
     999900   -1    0    0    0    0 -0.00000000000E+00 -0.00000000000E+00 -0.74505805969E-08  0.93827000000E+00  0.93827000000E+00 0. -1.
     999902    2    1    2    0    0 -0.58560941739E-02  0.17542682183E-01 -0.14097409700E-01  0.10206753984E+01  0.10204104529E+01 0.  0.
     999903    2    3    3    0    0  0.53184535269E-01 -0.36527993149E-01 -0.11275035657E+00  0.13155120131E+00  0.20740939824E-01 0.  0.
         14    1    1    2    0    0  0.58560941739E-02 -0.17542682183E-01  0.14097409700E-01  0.23254601639E-01  0.00000000000E+00 0.  1.
     999901    1    3    3    0    0 -0.59040629443E-01  0.54070675333E-01  0.98652946867E-01  0.88912419705E+00  0.88000000000E+00 0.  1.
        -11    1    4    4    0    0  0.16592997281E-01 -0.18399944132E-02 -0.36457809605E-01  0.40101697475E-01  0.51100000000E-03 0.  1.
         11    1    4    4    0    0  0.36591537988E-01 -0.34687998736E-01 -0.76292546962E-01  0.91449503835E-01  0.51100000000E-03 0. -1.
</event>
<event>
 8    1  0.1157726E+005  0.1043930E+01  0.7957747E-01            NaN
         13   -1    0    0    0    0  0.00000000000E+00  0.00000000000E+00  0.74505805969E-08  0.10566000000E+00  0.10566000000E+00 0. -1.
     999900   -1    0    0    0    0 -0.00000000000E+00 -0.00000000000E+00 -0.74505805969E-08  0.93827000000E+00  0.93827000000E+00 0. -1.
     999902    2    1    2    0    0 -0.47975614293E-02 -0.21808254200E-01 -0.55116321586E-02  0.10209301166E+01  0.10206710089E+01 0.  0.
     999903    2    3    3    0    0  0.87842329826E-02 -0.10368975797E+00  0.80333890023E-01  0.13286564852E+00  0.19261827916E-01 0.  0.
         14    1    1    2    0    0  0.47975614293E-02  0.21808254200E-01  0.55116321586E-02  0.22999883391E-01  0.00000000000E+00 0.  1.
     999901    1    3    3    0    0 -0.13581794412E-01  0.81881503768E-01 -0.85845522181E-01  0.88806446809E+00  0.88000000000E+00 0. -1.
        -11    1    4    4    0    0  0.50413778538E-02 -0.75614872015E-01  0.47235555447E-01  0.89299961813E-01  0.51100000000E-03 0.  1.
         11    1    4    4    0    0  0.37428551289E-02 -0.28074885953E-01  0.33098334575E-01  0.43565686710E-01  0.51100000000E-03 0. -1.
</event>
<event>
 8    1  0.1157726E+005  0.1043930E+01  0.7957747E-01            NaN
         13   -1    0    0    0    0  0.00000000000E+00  0.00000000000E+00  0.74505805969E-08  0.10566000000E+00  0.10566000000E+00 0.  1.
     999900   -1    0    0    0    0 -0.00000000000E+00 -0.00000000000E+00 -0.74505805969E-08  0.93827000000E+00  0.93827000000E+00 0.  1.
     999902    2    1    2    0    0  0.28452214773E-01  0.16316408641E-01  0.13534932719E-01  0.10084483411E+01  0.10078239472E+01 0.  0.
     999903    2    3    3    0    0  0.30326010152E-01 -0.11297050100E+00 -0.46280609099E-02  0.11881442173E+00  0.20333393127E-01 0.  0.
         14    1    1    2    0    0 -0.28452214773E-01 -0.16316408641E-01 -0.13534932719E-01  0.35481658926E-01  0.00000000000E+00 0. -1.
     999901    1    3    3    0    0 -0.18737953790E-02  0.12928690964E+00  0.18162993629E-01  0.88963391935E+00  0.88000000000E+00 0. -1.
        -11    1    4    4    0    0  0.28473843787E-01 -0.89686656168E-01 -0.10615558586E-01  0.94696395284E-01  0.51100000000E-03 0. -1.
         11    1    4    4    0    0  0.18521663649E-02 -0.23283844827E-01  0.59874976763E-02  0.24118026445E-01  0.51100000000E-03 0.  1.
</event>
<event>
 8    1  0.1157726E+005  0.1043930E+01  0.7957747E-01            NaN
         13   -1    0    0    0    0  0.00000000000E+00  0.00000000000E+00  0.74505805969E-08  0.10566000000E+00  0.10566000000E+00 0.  1.
     999900   -1    0    0    0    0 -0.00000000000E+00 -0.00000000000E+00 -0.74505805969E-08  0.93827000000E+00  0.93827000000E+00 0. -1.
     999902    2    1    2    0    0 -0.18853893433E-01  0.23771469916E-02  0.13078912524E-01  0.10208610148E+01  0.10206003299E+01 0.  0.
     999903    2    3    3    0    0 -0.42118010202E-01  0.84817524287E-01  0.91726087024E-01  0.13321073851E+00  0.19065324655E-01 0.  0.
         14    1    1    2    0    0  0.18853893433E-01 -0.23771469916E-02 -0.13078912524E-01  0.23068985201E-01  0.00000000000E+00 0.  1.
     999901    1    3    3    0    0  0.23264116769E-01 -0.82440377296E-01 -0.78647174500E-01  0.88765027629E+00  0.88000000000E+00 0.  1.
        -11    1    4    4    0    0 -0.22998305701E-01  0.46169603816E-01  0.36725735131E-01  0.63321363879E-01  0.51100000000E-03 0.  1.
         11    1    4    4    0    0 -0.19119704501E-01  0.38647920471E-01  0.55000351893E-01  0.69889374631E-01  0.51100000000E-03 0. -1.
</event>
<event>
 8    1  0.1157726E+005  0.1043930E+01  0.7957747E-01            NaN
         13   -1    0    0    0    0  0.00000000000E+00  0.00000000000E+00  0.74505805969E-08  0.10566000000E+00  0.10566000000E+00 0. -1.
     999900   -1    0    0    0    0 -0.00000000000E+00 -0.00000000000E+00 -0.74505805969E-08  0.93827000000E+00  0.93827000000E+00 0.  1.
     999902    2    1    2    0    0 -0.40662577104E-02  0.20599533877E-01 -0.55006745598E-02  0.10222244093E+01  0.10219939385E+01 0.  0.
     999903    2    3    3    0    0 -0.10651027431E+00 -0.54375302552E-02 -0.76774937524E-01  0.13303785641E+00  0.20752709167E-01 0.  0.
         14    1    1    2    0    0  0.40662577104E-02 -0.20599533877E-01  0.55006745598E-02  0.21705590716E-01  0.00000000000E+00 0. -1.
     999901    1    3    3    0    0  0.10244401660E+00  0.26037064132E-01  0.71274262964E-01  0.88918655287E+00  0.88000000000E+00 0. -1.
        -11    1    4    4    0    0 -0.44343628589E-01 -0.31866602494E-02 -0.44699047823E-01  0.63045842030E-01  0.51100000000E-03 0. -1.
         11    1    4    4    0    0 -0.62166645723E-01 -0.22508700058E-02 -0.32075889701E-01  0.69992014383E-01  0.51100000000E-03 0.  1.
</event>
<event>
 8    1  0.1157726E+005  0.1043930E+01  0.7957747E-01            NaN
         13   -1    0    0    0    0  0.00000000000E+00  0.00000000000E+00  0.74505805969E-08  0.10566000000E+00  0.10566000000E+00 0.  1.
     999900   -1    0    0    0    0 -0.00000000000E+00 -0.00000000000E+00 -0.74505805969E-08  0.93827000000E+00  0.93827000000E+00 0.  1.
     999902    2    1    2    0    0  0.46075742813E-02  0.22433993261E-01 -0.30720542458E-03  0.10210256736E+01  0.10207687387E+01 0.  0.
     999903    2    3    3    0    0  0.10512993874E+00  0.34394625148E-02 -0.76849145153E-01  0.13179892718E+00  0.20025787697E-01 0.  0.
         14    1    1    2    0    0 -0.46075742813E-02 -0.22433993261E-01  0.30720542458E-03  0.22904326437E-01  0.00000000000E+00 0.  1.
     999901    1    3    3    0    0 -0.10052236445E+00  0.18994530746E-01  0.76541939728E-01  0.88922674639E+00  0.88000000000E+00 0. -1.
        -11    1    4    4    0    0  0.65731102470E-01  0.80695715333E-02 -0.57283306979E-01  0.87563315356E-01  0.51100000000E-03 0. -1.
         11    1    4    4    0    0  0.39398836265E-01 -0.46301090185E-02 -0.19565838174E-01  0.44235611819E-01  0.51100000000E-03 0.  1.
</event>
<event>
 8    1  0.1157726E+005  0.1043930E+01  0.7957747E-01            NaN
         13   -1    0    0    0    0  0.00000000000E+00  0.00000000000E+00  0.74505805969E-08  0.10566000000E+00  0.10566000000E+00 0. -1.
     999900   -1    0    0    0    0 -0.00000000000E+00 -0.00000000000E+00 -0.74505805969E-08  0.93827000000E+00  0.93827000000E+00 0.  1.
     999902    2    1    2    0    0  0.10635903173E-01 -0.17545856931E-01  0.14125195930E-01  0.10190201487E+01  0.10187156437E+01 0.  0.
     999903    2    3    3    0    0  0.59690812884E-01 -0.88666153166E-01 -0.72439211640E-01  0.13056200261E+00  0.19347280978E-01 0.  0.
         14    1    1    2    0    0 -0.10635903173E-01  0.17545856931E-01 -0.14125195930E-01  0.24909851300E-01  0.00000000000E+00 0. -1.
     999901    1    3    3    0    0 -0.49054909711E-01  0.71120296236E-01  0.86564407570E-01  0.88845814609E+00  0.88000000000E+00 0. -1.
        -11    1    4    4    0    0  0.23333914967E-01 -0.32195048844E-01 -0.16114108813E-01  0.42905924784E-01  0.51100000000E-03 0. -1.
         11    1    4    4    0    0  0.36356897917E-01 -0.56471104322E-01 -0.56325102827E-01  0.87656077821E-01  0.51100000000E-03 0.  1.
</event>
<event>
 8    1  0.1157726E+005  0.1043930E+01  0.7957747E-01            NaN
         13   -1    0    0    0    0  0.00000000000E+00  0.00000000000E+00  0.74505805969E-08  0.10566000000E+00  0.10566000000E+00 0.  1.
     999900   -1    0    0    0    0 -0.00000000000E+00 -0.00000000000E+00 -0.74505805969E-08  0.93827000000E+00  0.93827000000E+00 0. -1.
     999902    2    1    2    0    0  0.14462523833E-01 -0.10253232948E-01  0.17469904792E-01  0.10190404248E+01  0.10187364214E+01 0.  0.
     999903    2    3    3    0    0  0.10069012723E+00 -0.40959456377E-01  0.72950186849E-01  0.13255515505E+00  0.20807704803E-01 0.  0.
         14    1    1    2    0    0 -0.14462523833E-01  0.10253232948E-01 -0.17469904792E-01  0.24889575226E-01  0.00000000000E+00 0. -1.
     999901    1    3    3    0    0 -0.86227603400E-01  0.30706223430E-01 -0.55480282057E-01  0.88648526973E+00  0.88000000000E+00 0. -1.
        -11    1    4    4    0    0  0.70999465214E-01 -0.24395915115E-01  0.60236886069E-01  0.96253978096E-01  0.51100000000E-03 0.  1.
         11    1    4    4    0    0  0.29690662020E-01 -0.16563541262E-01  0.12713300780E-01  0.36301176951E-01  0.51100000000E-03 0. -1.
</event>
<event>
 8    1  0.1157726E+005  0.1043930E+01  0.7957747E-01            NaN
         13   -1    0    0    0    0  0.00000000000E+00  0.00000000000E+00  0.74505805969E-08  0.10566000000E+00  0.10566000000E+00 0. -1.
     999900   -1    0    0    0    0 -0.00000000000E+00 -0.00000000000E+00 -0.74505805969E-08  0.93827000000E+00  0.93827000000E+00 0. -1.
     999902    2    1    2    0    0  0.17792558432E-02  0.14276146969E-01 -0.19024236122E-01  0.10200784658E+01  0.10197995787E+01 0.  0.
     999903    2    3    3    0    0 -0.35646488778E-01  0.10234445208E+00  0.69485875496E-01  0.13047700864E+00  0.21234496859E-01 0.  0.
         14    1    1    2    0    0 -0.17792558432E-02 -0.14276146969E-01  0.19024236122E-01  0.23851534200E-01  0.00000000000E+00 0. -1.
     999901    1    3    3    0    0  0.37425744621E-01 -0.88068305107E-01 -0.88510111619E-01  0.88960145716E+00  0.88000000000E+00 0. -1.
        -11    1    4    4    0    0 -0.23694100653E-01  0.87297997427E-01  0.51181985729E-01  0.10393366897E+00  0.51100000000E-03 0.  1.
         11    1    4    4    0    0 -0.11952388124E-01  0.15046454650E-01  0.18303889767E-01  0.26543339673E-01  0.51100000000E-03 0. -1.
</event>
<event>
 8    1  0.1157726E+005  0.1043930E+01  0.7957747E-01            NaN
         13   -1    0    0    0    0  0.00000000000E+00  0.00000000000E+00  0.74505805969E-08  0.10566000000E+00  0.10566000000E+00 0.  1.
     999900   -1    0    0    0    0 -0.00000000000E+00 -0.00000000000E+00 -0.74505805969E-08  0.93827000000E+00  0.93827000000E+00 0. -1.
     999902    2    1    2    0    0  0.14799772334E-02 -0.18944540151E-01  0.14014345276E-01  0.10203188203E+01  0.10200455908E+01 0.  0.
     999903    2    3    3    0    0  0.42222241156E-01 -0.32254998686E-01  0.11929301631E+00  0.13300788327E+00  0.25242240053E-01 0.  0.
         14    1    1    2    0    0 -0.14799772334E-02  0.18944540151E-01 -0.14014345276E-01  0.23611179717E-01  0.00000000000E+00 0. -1.
     999901    1    3    3    0    0 -0.40742263922E-01  0.13310458536E-01 -0.10527867103E+00  0.88731093702E+00  0.88000000000E+00 0. -1.
        -11    1    4    4    0    0  0.37117481936E-01 -0.34769482250E-01  0.11535147747E+00  0.12606684273E+00  0.51100000000E-03 0. -1.
         11    1    4    4    0    0  0.51047592196E-02  0.25144835638E-02  0.39415388380E-02  0.69410405340E-02  0.51100000000E-03 0.  1.
</event>
<event>
 8    1  0.1157726E+005  0.1043930E+01  0.7957747E-01            NaN
         13   -1    0    0    0    0  0.00000000000E+00  0.00000000000E+00  0.74505805969E-08  0.10566000000E+00  0.10566000000E+00 0. -1.
     999900   -1    0    0    0    0 -0.00000000000E+00 -0.00000000000E+00 -0.74505805969E-08  0.93827000000E+00  0.93827000000E+00 0. -1.
     999902    2    1    2    0    0 -0.34437152777E-02  0.23882415719E-01 -0.48341753782E-02  0.10193210950E+01  0.10190239921E+01 0.  0.
     999903    2    3    3    0    0 -0.10920760988E+00 -0.64467376963E-01 -0.78724352027E-02  0.12859054183E+00  0.19778965175E-01 0.  0.
         14    1    1    2    0    0  0.34437152777E-02 -0.23882415719E-01  0.48341753782E-02  0.24608905036E-01  0.00000000000E+00 0. -1.
     999901    1    3    3    0    0  0.10576389460E+00  0.88349792682E-01  0.30382598245E-02  0.89073055314E+00  0.88000000000E+00 0. -1.
        -11    1    4    4    0    0 -0.73318545111E-01 -0.39405763077E-01 -0.13932605620E-01  0.84396693308E-01  0.51100000000E-03 0. -1.
         11    1    4    4    0    0 -0.35889064768E-01 -0.25061613885E-01  0.60601704175E-02  0.44193848519E-01  0.51100000000E-03 0.  1.
</event>
<event>
 8    1  0.1157726E+005  0.1043930E+01  0.7957747E-01            NaN
         13   -1    0    0    0    0  0.00000000000E+00  0.00000000000E+00  0.74505805969E-08  0.10566000000E+00  0.10566000000E+00 0. -1.
     999900   -1    0    0    0    0 -0.00000000000E+00 -0.00000000000E+00 -0.74505805969E-08  0.93827000000E+00  0.93827000000E+00 0. -1.
     999902    2    1    2    0    0 -0.43626543739E-02 -0.12073830602E-01 -0.19736091697E-01  0.10203859253E+01  0.10201142647E+01 0.  0.
     999903    2    3    3    0    0 -0.31120790391E-01  0.62480723218E-01 -0.11042352470E+00  0.13218629128E+00  0.20187036125E-01 0.  0.
         14    1    1    2    0    0  0.43626543739E-02  0.12073830602E-01  0.19736091697E-01  0.23544074713E-01  0.00000000000E+00 0. -1.
     999901    1    3    3    0    0  0.26758136017E-01 -0.74554553820E-01  0.90687433004E-01  0.88819963400E+00  0.88000000000E+00 0.  1.
        -11    1    4    4    0    0  0.27972172118E-04  0.13613449095E-01 -0.13008505707E-01  0.18836377583E-01  0.51100000000E-03 0.  1.
         11    1    4    4    0    0 -0.31148762563E-01  0.48867274123E-01 -0.97415018994E-01  0.11334991370E+00  0.51100000000E-03 0. -1.
</event>
<event>
 8    1  0.1157726E+005  0.1043930E+01  0.7957747E-01            NaN
         13   -1    0    0    0    0  0.00000000000E+00  0.00000000000E+00  0.74505805969E-08  0.10566000000E+00  0.10566000000E+00 0.  1.
     999900   -1    0    0    0    0 -0.00000000000E+00 -0.00000000000E+00 -0.74505805969E-08  0.93827000000E+00  0.93827000000E+00 0.  1.
     999902    2    1    2    0    0 -0.88092725160E-02 -0.35931173632E-02 -0.36358740457E-01  0.10063471345E+01  0.10056451080E+01 0.  0.
     999903    2    3    3    0    0  0.39266603846E-01  0.48149807474E-01  0.93507148747E-01  0.11401660750E+00  0.19897984381E-01 0.  0.
         14    1    1    2    0    0  0.88092725160E-02  0.35931173632E-02  0.36358740457E-01  0.37582865541E-01  0.00000000000E+00 0.  1.
     999901    1    3    3    0    0 -0.48075876362E-01 -0.51742924837E-01 -0.12986588920E+00  0.89233052696E+00  0.88000000000E+00 0.  1.
        -11    1    4    4    0    0  0.34123266352E-01  0.40512031271E-01  0.63868520718E-01  0.82976328214E-01  0.51100000000E-03 0.  1.
         11    1    4    4    0    0  0.51433374939E-02  0.76377762032E-02  0.29638628029E-01  0.31040279289E-01  0.51100000000E-03 0. -1.
</event>
<event>
 8    1  0.1157726E+005  0.1043930E+01  0.7957747E-01            NaN
         13   -1    0    0    0    0  0.00000000000E+00  0.00000000000E+00  0.74505805969E-08  0.10566000000E+00  0.10566000000E+00 0. -1.
     999900   -1    0    0    0    0 -0.00000000000E+00 -0.00000000000E+00 -0.74505805969E-08  0.93827000000E+00  0.93827000000E+00 0.  1.
     999902    2    1    2    0    0  0.17824846628E-01  0.72678500155E-03 -0.14486430929E-01  0.10209493548E+01  0.10206906853E+01 0.  0.
     999903    2    3    3    0    0 -0.11653378570E+00  0.16339162768E-01  0.47213520728E-01  0.12847925867E+00  0.20753600156E-01 0.  0.
         14    1    1    2    0    0 -0.17824846628E-01 -0.72678500155E-03  0.14486430929E-01  0.22980645222E-01  0.00000000000E+00 0. -1.
     999901    1    3    3    0    0  0.13435863232E+00 -0.15612377766E-01 -0.61699951657E-01  0.89247009611E+00  0.88000000000E+00 0. -1.
        -11    1    4    4    0    0 -0.16203237355E-01  0.97656632485E-02  0.82823452979E-02  0.20658447282E-01  0.51100000000E-03 0. -1.
         11    1    4    4    0    0 -0.10033054834E+00  0.65734995190E-02  0.38931175430E-01  0.10782081138E+00  0.51100000000E-03 0.  1.
</event>
<event>
 7    1  0.1157726E+005  0.1043930E+01  0.7957747E-01            NaN
         13   -1    0    0    0    0  0.00000000000E+00  0.00000000000E+00  0.74505805969E-08  0.10566000000E+00  0.10566000000E+00 0.  1.
     999900   -1    0    0    0    0 -0.00000000000E+00 -0.00000000000E+00 -0.74505805969E-08  0.93827000000E+00  0.93827000000E+00 0.  1.
     999903    2    1    2    0    0 -0.21676554141E-01  0.39789046691E-01  0.10670895075E+00  0.11762831446E+00  0.19914290250E-01 0.  0.
         14    1    1    2    0    0  0.26988852538E-01 -0.21384969418E-01 -0.24503784582E-01  0.42262874218E-01  0.00000000000E+00 0. -1.
     999901    1    1    2    0    0 -0.53122983974E-02 -0.18404077272E-01 -0.82205166172E-01  0.88403881132E+00  0.88000000000E+00 0.  1.
        -11    1    3    3    0    0 -0.89223163789E-02  0.26764606523E-01  0.43575254153E-01  0.51913541465E-01  0.51100000000E-03 0. -1.
         11    1    3    3    0    0 -0.12754237762E-01  0.13024440167E-01  0.63133696601E-01  0.65714772997E-01  0.51100000000E-03 0.  1.
</event>
<event>
 8    1  0.1157726E+005  0.1043930E+01  0.7957747E-01            NaN
         13   -1    0    0    0    0  0.00000000000E+00  0.00000000000E+00  0.74505805969E-08  0.10566000000E+00  0.10566000000E+00 0.  1.
     999900   -1    0    0    0    0 -0.00000000000E+00 -0.00000000000E+00 -0.74505805969E-08  0.93827000000E+00  0.93827000000E+00 0.  1.
     999902    2    1    2    0    0  0.56646120901E-02  0.21550181137E-01 -0.84117209481E-02  0.10201128804E+01  0.10198348070E+01 0.  0.
     999903    2    3    3    0    0  0.13369306254E-01 -0.10139705496E+00  0.73984893860E-01  0.12772026091E+00  0.19457631487E-01 0.  0.
         14    1    1    2    0    0 -0.56646120901E-02 -0.21550181137E-01  0.84117209481E-02  0.23817119609E-01  0.00000000000E+00 0. -1.
     999901    1    3    3    0    0 -0.77046941641E-02  0.12294723609E+00 -0.82396614808E-01  0.89239261948E+00  0.88000000000E+00 0.  1.
        -11    1    4    4    0    0 -0.10478622140E-02 -0.57476582668E-02  0.10469513174E-01  0.12000225743E-01  0.51100000000E-03 0. -1.
         11    1    4    4    0    0  0.14417168468E-01 -0.95649396691E-01  0.63515380686E-01  0.11572003517E+00  0.51100000000E-03 0.  1.
</event>
<event>
 8    1  0.1157726E+005  0.1043930E+01  0.7957747E-01            NaN
         13   -1    0    0    0    0  0.00000000000E+00  0.00000000000E+00  0.74505805969E-08  0.10566000000E+00  0.10566000000E+00 0. -1.
     999900   -1    0    0    0    0 -0.00000000000E+00 -0.00000000000E+00 -0.74505805969E-08  0.93827000000E+00  0.93827000000E+00 0.  1.
     999902    2    1    2    0    0 -0.36860077106E-03  0.15504447791E-01  0.17285083576E-01  0.10207072120E+01  0.10204429993E+01 0.  0.
     999903    2    3    3    0    0 -0.24965068518E-01 -0.46311868374E-01  0.11976271244E+00  0.13226593225E+00  0.19573598148E-01 0.  0.
         14    1    1    2    0    0  0.36860077106E-03 -0.15504447791E-01 -0.17285083576E-01  0.23222787991E-01  0.00000000000E+00 0.  1.
     999901    1    3    3    0    0  0.24596467747E-01  0.61816316164E-01 -0.10247762886E+00  0.88844127976E+00  0.88000000000E+00 0.  1.
        -11    1    4    4    0    0 -0.25882835475E-01 -0.33474188838E-01  0.80506081298E-01  0.90950166232E-01  0.51100000000E-03 0.  1.
         11    1    4    4    0    0  0.91776695648E-03 -0.12837679536E-01  0.39256631138E-01  0.41315766015E-01  0.51100000000E-03 0. -1.
</event>
<event>
 8    1  0.1157726E+005  0.1043930E+01  0.7957747E-01            NaN
         13   -1    0    0    0    0  0.00000000000E+00  0.00000000000E+00  0.74505805969E-08  0.10566000000E+00  0.10566000000E+00 0.  1.
     999900   -1    0    0    0    0 -0.00000000000E+00 -0.00000000000E+00 -0.74505805969E-08  0.93827000000E+00  0.93827000000E+00 0. -1.
     999902    2    1    2    0    0  0.22352602888E-03  0.12592411230E-01 -0.20715056360E-01  0.10196868083E+01  0.10193985750E+01 0.  0.
     999903    2    3    3    0    0  0.41200633964E-01 -0.11116165387E+00  0.43334077123E-01  0.12778071261E+00  0.19891273111E-01 0.  0.
         14    1    1    2    0    0 -0.22352602888E-03 -0.12592411230E-01  0.20715056360E-01  0.24243191714E-01  0.00000000000E+00 0.  1.
     999901    1    3    3    0    0 -0.40977107935E-01  0.12375406510E+00 -0.64049133483E-01  0.89190609568E+00  0.88000000000E+00 0. -1.
        -11    1    4    4    0    0  0.31580133411E-01 -0.10143212023E+00  0.41091953462E-01  0.11390605603E+00  0.51100000000E-03 0.  1.
         11    1    4    4    0    0  0.96205005527E-02 -0.97295336374E-02  0.22421236617E-02  0.13874656580E-01  0.51100000000E-03 0. -1.
</event>
<event>
 8    1  0.1157726E+005  0.1043930E+01  0.7957747E-01            NaN
         13   -1    0    0    0    0  0.00000000000E+00  0.00000000000E+00  0.74505805969E-08  0.10566000000E+00  0.10566000000E+00 0. -1.
     999900   -1    0    0    0    0 -0.00000000000E+00 -0.00000000000E+00 -0.74505805969E-08  0.93827000000E+00  0.93827000000E+00 0.  1.
     999902    2    1    2    0    0  0.24172986709E-01 -0.55088626775E-02 -0.11409699743E-02  0.10191110019E+01  0.10188087414E+01 0.  0.
     999903    2    3    3    0    0  0.90576074307E-01 -0.49751341875E-01  0.79438910960E-01  0.13183433466E+00  0.19761831025E-01 0.  0.
         14    1    1    2    0    0 -0.24172986709E-01  0.55088626775E-02  0.11409699743E-02  0.24818998105E-01  0.00000000000E+00 0. -1.
     999901    1    3    3    0    0 -0.66403087598E-01  0.44242479197E-01 -0.80579880934E-01  0.88727666723E+00  0.88000000000E+00 0.  1.
        -11    1    4    4    0    0  0.50310411515E-01 -0.37336549119E-01  0.53207600699E-01  0.82197720772E-01  0.51100000000E-03 0.  1.
         11    1    4    4    0    0  0.40265662793E-01 -0.12414792755E-01  0.26231310261E-01  0.49636613888E-01  0.51100000000E-03 0. -1.
</event>
<event>
 8    1  0.1157726E+005  0.1043930E+01  0.7957747E-01            NaN
         13   -1    0    0    0    0  0.00000000000E+00  0.00000000000E+00  0.74505805969E-08  0.10566000000E+00  0.10566000000E+00 0.  1.
     999900   -1    0    0    0    0 -0.00000000000E+00 -0.00000000000E+00 -0.74505805969E-08  0.93827000000E+00  0.93827000000E+00 0.  1.
     999902    2    1    2    0    0  0.16700559237E-01  0.17077666805E-01 -0.12280989219E-02  0.10200121487E+01  0.10197316902E+01 0.  0.
     999903    2    3    3    0    0 -0.27769421868E-01  0.12242898459E+00 -0.35704810919E-01  0.13194395144E+00  0.19348791689E-01 0.  0.
         14    1    1    2    0    0 -0.16700559237E-01 -0.17077666805E-01  0.12280989219E-02  0.23917851268E-01  0.00000000000E+00 0.  1.
     999901    1    3    3    0    0  0.44469981105E-01 -0.10535131778E+00  0.34476711997E-01  0.88806819730E+00  0.88000000000E+00 0. -1.
        -11    1    4    4    0    0 -0.10087244756E-01  0.14948823681E-01 -0.64268949530E-02  0.19151656220E-01  0.51100000000E-03 0.  1.
         11    1    4    4    0    0 -0.17682177111E-01  0.10748016091E+00 -0.29277915966E-01  0.11279229522E+00  0.51100000000E-03 0. -1.
</event>
<event>
 8    1  0.1157726E+005  0.1043930E+01  0.7957747E-01            NaN
         13   -1    0    0    0    0  0.00000000000E+00  0.00000000000E+00  0.74505805969E-08  0.10566000000E+00  0.10566000000E+00 0.  1.
     999900   -1    0    0    0    0 -0.00000000000E+00 -0.00000000000E+00 -0.74505805969E-08  0.93827000000E+00  0.93827000000E+00 0. -1.
     999902    2    1    2    0    0 -0.15409069998E-01  0.35554879109E-02  0.16177510604E-01  0.10213071624E+01  0.10210565739E+01 0.  0.
     999903    2    3    3    0    0  0.10637537033E+00 -0.53462707040E-01  0.50007651997E-01  0.13044970862E+00  0.18503533829E-01 0.  0.
         14    1    1    2    0    0  0.15409069998E-01 -0.35554879109E-02 -0.16177510604E-01  0.22622837616E-01  0.00000000000E+00 0. -1.
     999901    1    3    3    0    0 -0.12178444033E+00  0.57018194951E-01 -0.33830141393E-01  0.89085745376E+00  0.88000000000E+00 0. -1.
        -11    1    4    4    0    0  0.76122529515E-01 -0.33158471587E-01  0.26808488989E-01  0.87252965226E-01  0.51100000000E-03 0.  1.
         11    1    4    4    0    0  0.30252840813E-01 -0.20304235453E-01  0.23199163007E-01  0.43196743394E-01  0.51100000000E-03 0. -1.
</event>
<event>
 7    1  0.1157726E+005  0.1043930E+01  0.7957747E-01            NaN
         13   -1    0    0    0    0  0.00000000000E+00  0.00000000000E+00  0.74505805969E-08  0.10566000000E+00  0.10566000000E+00 0. -1.
     999900   -1    0    0    0    0 -0.00000000000E+00 -0.00000000000E+00 -0.74505805969E-08  0.93827000000E+00  0.93827000000E+00 0. -1.
     999902    2    1    2    0    0 -0.41700165973E-02 -0.17963231695E-01  0.13898934968E-01  0.10208378558E+01  0.10205766413E+01 0.  0.
         14    1    1    2    0    0  0.41700165973E-02  0.17963231695E-01 -0.13898934968E-01  0.23092144218E-01  0.00000000000E+00 0.  1.
     999901    1    3    3    0    0  0.49292495078E-01 -0.32306086837E-01  0.12052674253E+00  0.89016859582E+00  0.88000000000E+00 0.  1.
        -11    1    3    3    0    0 -0.33986528427E-01 -0.14473971617E-01 -0.34300196974E-01  0.50411750637E-01  0.51100000000E-03 0.  1.
         11    1    3    3    0    0 -0.19475983249E-01  0.28816826758E-01 -0.72327610592E-01  0.80257509324E-01  0.51100000000E-03 0. -1.
</event>
<event>
 8    1  0.1157726E+005  0.1043930E+01  0.7957747E-01            NaN
         13   -1    0    0    0    0  0.00000000000E+00  0.00000000000E+00  0.74505805969E-08  0.10566000000E+00  0.10566000000E+00 0. -1.
     999900   -1    0    0    0    0 -0.00000000000E+00 -0.00000000000E+00 -0.74505805969E-08  0.93827000000E+00  0.93827000000E+00 0.  1.
     999902    2    1    2    0    0 -0.84227357829E-02  0.76412923181E-02  0.19646764486E-01  0.10212291810E+01  0.10209768426E+01 0.  0.
     999903    2    3    3    0    0 -0.12535380788E+00  0.20304237493E-01  0.35487234973E-01  0.13326288309E+00  0.19334242995E-01 0.  0.
         14    1    1    2    0    0  0.84227357829E-02 -0.76412923181E-02 -0.19646764486E-01  0.22700818953E-01  0.00000000000E+00 0.  1.
     999901    1    3    3    0    0  0.11693107210E+00 -0.12662945175E-01 -0.15840470487E-01  0.88796629796E+00  0.88000000000E+00 0.  1.
        -11    1    4    4    0    0 -0.74524628382E-01  0.19885119990E-01  0.15707403779E-01  0.78716719234E-01  0.51100000000E-03 0.  1.
         11    1    4    4    0    0 -0.50829179501E-01  0.41911750359E-03  0.19779831195E-01  0.54546163855E-01  0.51100000000E-03 0. -1.
</event>
<event>
 8    1  0.1157726E+005  0.1043930E+01  0.7957747E-01            NaN
         13   -1    0    0    0    0  0.00000000000E+00  0.00000000000E+00  0.74505805969E-08  0.10566000000E+00  0.10566000000E+00 0.  1.
     999900   -1    0    0    0    0 -0.00000000000E+00 -0.00000000000E+00 -0.74505805969E-08  0.93827000000E+00  0.93827000000E+00 0.  1.
     999902    2    1    2    0    0  0.91845420767E-03 -0.20130915350E-01 -0.11634867293E-01  0.10206605469E+01  0.10203952590E+01 0.  0.
     999903    2    3    3    0    0 -0.29036620481E-01  0.65507981548E-01  0.10453207659E+00  0.12840156767E+00  0.20629749560E-01 0.  0.
         14    1    1    2    0    0 -0.91845420767E-03  0.20130915350E-01  0.11634867293E-01  0.23269453106E-01  0.00000000000E+00 0.  1.
     999901    1    3    3    0    0  0.29955074689E-01 -0.85638896898E-01 -0.11616694388E+00  0.89225897923E+00  0.88000000000E+00 0.  1.
        -11    1    4    4    0    0 -0.46130608408E-02  0.25379193794E-01  0.51166671236E-01  0.57303343483E-01  0.51100000000E-03 0. -1.
         11    1    4    4    0    0 -0.24423559640E-01  0.40128787755E-01  0.53365405356E-01  0.71098224183E-01  0.51100000000E-03 0.  1.
</event>
<event>
 8    1  0.1157726E+005  0.1043930E+01  0.7957747E-01            NaN
         13   -1    0    0    0    0  0.00000000000E+00  0.00000000000E+00  0.74505805969E-08  0.10566000000E+00  0.10566000000E+00 0.  1.
     999900   -1    0    0    0    0 -0.00000000000E+00 -0.00000000000E+00 -0.74505805969E-08  0.93827000000E+00  0.93827000000E+00 0. -1.
     999902    2    1    2    0    0  0.12238744860E-01 -0.13252298734E-01 -0.14510936412E-01  0.10207788105E+01  0.10205162431E+01 0.  0.
     999903    2    3    3    0    0  0.11968551724E+00 -0.50329074604E-01 -0.19901481282E-01  0.13345217724E+00  0.23574899046E-01 0.  0.
         14    1    1    2    0    0 -0.12238744860E-01  0.13252298734E-01  0.14510936412E-01  0.23151189452E-01  0.00000000000E+00 0.  1.
     999901    1    3    3    0    0 -0.10744677238E+00  0.37076775870E-01  0.53905448703E-02  0.88732663331E+00  0.88000000000E+00 0.  1.
        -11    1    4    4    0    0  0.72826706677E-01 -0.20822909120E-01 -0.18885982073E-01  0.78065768359E-01  0.51100000000E-03 0. -1.
         11    1    4    4    0    0  0.46858810565E-01 -0.29506165484E-01 -0.10154992092E-02  0.55386408881E-01  0.51100000000E-03 0.  1.
</event>
<event>
 8    1  0.1157726E+005  0.1043930E+01  0.7957747E-01            NaN
         13   -1    0    0    0    0  0.00000000000E+00  0.00000000000E+00  0.74505805969E-08  0.10566000000E+00  0.10566000000E+00 0.  1.
     999900   -1    0    0    0    0 -0.00000000000E+00 -0.00000000000E+00 -0.74505805969E-08  0.93827000000E+00  0.93827000000E+00 0.  1.
     999902    2    1    2    0    0  0.22728758267E-01  0.35943551145E-02 -0.67336821684E-02  0.10199537969E+01  0.10196719519E+01 0.  0.
     999903    2    3    3    0    0 -0.58134018725E-01 -0.11110590112E+00 -0.21100692308E-01  0.12871794230E+00  0.19974585316E-01 0.  0.
         14    1    1    2    0    0 -0.22728758267E-01 -0.35943551145E-02  0.67336821684E-02  0.23976203132E-01  0.00000000000E+00 0. -1.
     999901    1    3    3    0    0  0.80862776992E-01  0.11470025623E+00  0.14367010140E-01  0.89123585457E+00  0.88000000000E+00 0.  1.
        -11    1    4    4    0    0 -0.16693491914E-01 -0.16250502352E-01 -0.13892370499E-02  0.23344005645E-01  0.51100000000E-03 0.  1.
         11    1    4    4    0    0 -0.41440526810E-01 -0.94855398766E-01 -0.19711455258E-01  0.10537393666E+00  0.51100000000E-03 0. -1.
</event>
<event>
 8    1  0.1157726E+005  0.1043930E+01  0.7957747E-01            NaN
         13   -1    0    0    0    0  0.00000000000E+00  0.00000000000E+00  0.74505805969E-08  0.10566000000E+00  0.10566000000E+00 0. -1.
     999900   -1    0    0    0    0 -0.00000000000E+00 -0.00000000000E+00 -0.74505805969E-08  0.93827000000E+00  0.93827000000E+00 0.  1.
     999902    2    1    2    0    0  0.53078116745E-02 -0.10537719438E-01 -0.20764956194E-01  0.10200469558E+01  0.10197673226E+01 0.  0.
     999903    2    3    3    0    0  0.12318703486E+00 -0.29532218936E-01  0.25857851586E-01  0.13076073162E+00  0.19558704725E-01 0.  0.
         14    1    1    2    0    0 -0.53078116745E-02  0.10537719438E-01  0.20764956194E-01  0.23883044226E-01  0.00000000000E+00 0.  1.
     999901    1    3    3    0    0 -0.11787922319E+00  0.18994499498E-01 -0.46622807780E-01  0.88928622416E+00  0.88000000000E+00 0.  1.
        -11    1    4    4    0    0  0.45005473095E-01 -0.24951873335E-02  0.13918942650E-01  0.47177501564E-01  0.51100000000E-03 0. -1.
         11    1    4    4    0    0  0.78181561769E-01 -0.27037031602E-01  0.11938908936E-01  0.83583230053E-01  0.51100000000E-03 0.  1.
</event>
<event>
 8    1  0.1157726E+005  0.1043930E+01  0.7957747E-01            NaN
         13   -1    0    0    0    0  0.00000000000E+00  0.00000000000E+00  0.74505805969E-08  0.10566000000E+00  0.10566000000E+00 0. -1.
     999900   -1    0    0    0    0 -0.00000000000E+00 -0.00000000000E+00 -0.74505805969E-08  0.93827000000E+00  0.93827000000E+00 0.  1.
     999902    2    1    2    0    0 -0.10064900615E-01 -0.84077067796E-02  0.25248025862E-01  0.10154790849E+01  0.10150804487E+01 0.  0.
     999903    2    3    3    0    0 -0.72581724336E-01 -0.76618098683E-01  0.72012044831E-01  0.12939337561E+00  0.20456571023E-01 0.  0.
         14    1    1    2    0    0  0.10064900615E-01  0.84077067796E-02 -0.25248025862E-01  0.28450915057E-01  0.00000000000E+00 0.  1.
     999901    1    3    3    0    0  0.62516823721E-01  0.68210391903E-01 -0.46764018969E-01  0.88608570933E+00  0.88000000000E+00 0.  1.
        -11    1    4    4    0    0 -0.56798232994E-01 -0.65806863239E-01  0.66585204626E-01  0.10950083615E+00  0.51100000000E-03 0. -1.
         11    1    4    4    0    0 -0.15783491342E-01 -0.10811235444E-01  0.54268402045E-02  0.19892539465E-01  0.51100000000E-03 0.  1.
</event>
<event>
 8    1  0.1157726E+005  0.1043930E+01  0.7957747E-01            NaN
         13   -1    0    0    0    0  0.00000000000E+00  0.00000000000E+00  0.74505805969E-08  0.10566000000E+00  0.10566000000E+00 0.  1.
     999900   -1    0    0    0    0 -0.00000000000E+00 -0.00000000000E+00 -0.74505805969E-08  0.93827000000E+00  0.93827000000E+00 0.  1.
     999902    2    1    2    0    0  0.33321674898E-02 -0.21290670353E-01  0.18859190614E-01  0.10152932220E+01  0.10148892854E+01 0.  0.
     999903    2    3    3    0    0  0.10476647338E+00 -0.15001319221E-01 -0.65101838097E-01  0.12547417932E+00  0.17448977885E-01 0.  0.
         14    1    1    2    0    0 -0.33321674898E-02  0.21290670353E-01 -0.18859190614E-01  0.28636778011E-01  0.00000000000E+00 0.  1.
     999901    1    3    3    0    0 -0.10143430589E+00 -0.62893511321E-02  0.83961028711E-01  0.88981904267E+00  0.88000000000E+00 0.  1.
        -11    1    4    4    0    0  0.64145325035E-01 -0.11578598513E-01 -0.49393644904E-01  0.81784350247E-01  0.51100000000E-03 0.  1.
         11    1    4    4    0    0  0.40621148349E-01 -0.34227207078E-02 -0.15708193193E-01  0.43689829075E-01  0.51100000000E-03 0. -1.
</event>
<event>
 8    1  0.1157726E+005  0.1043930E+01  0.7957747E-01            NaN
         13   -1    0    0    0    0  0.00000000000E+00  0.00000000000E+00  0.74505805969E-08  0.10566000000E+00  0.10566000000E+00 0.  1.
     999900   -1    0    0    0    0 -0.00000000000E+00 -0.00000000000E+00 -0.74505805969E-08  0.93827000000E+00  0.93827000000E+00 0. -1.
     999902    2    1    2    0    0 -0.20069029369E-01  0.11761394130E-01 -0.46927947351E-02  0.10201998788E+01  0.10199238569E+01 0.  0.
     999903    2    3    3    0    0 -0.10490195403E+00  0.27073067268E-01 -0.74998992134E-01  0.13319704120E+00  0.19473880796E-01 0.  0.
         14    1    1    2    0    0  0.20069029369E-01 -0.11761394130E-01  0.46927947351E-02  0.23730121241E-01  0.00000000000E+00 0. -1.
     999901    1    3    3    0    0  0.84832924662E-01 -0.15311673138E-01  0.70306197399E-01  0.88700283756E+00  0.88000000000E+00 0.  1.
        -11    1    4    4    0    0 -0.55835505546E-01  0.12916616054E-01 -0.27977328320E-01  0.63776442914E-01  0.51100000000E-03 0.  1.
         11    1    4    4    0    0 -0.49066448484E-01  0.14156451214E-01 -0.47021663814E-01  0.69420598288E-01  0.51100000000E-03 0. -1.
</event>
<event>
 8    1  0.1157726E+005  0.1043930E+01  0.7957747E-01            NaN
         13   -1    0    0    0    0  0.00000000000E+00  0.00000000000E+00  0.74505805969E-08  0.10566000000E+00  0.10566000000E+00 0.  1.
     999900   -1    0    0    0    0 -0.00000000000E+00 -0.00000000000E+00 -0.74505805969E-08  0.93827000000E+00  0.93827000000E+00 0.  1.
     999902    2    1    2    0    0 -0.17541939373E-01 -0.14289140834E-01  0.50097828341E-02  0.10207568020E+01  0.10204937294E+01 0.  0.
     999903    2    3    3    0    0 -0.99056823236E-01  0.72646798683E-01  0.43592945684E-01  0.13188606091E+00  0.20094192174E-01 0.  0.
         14    1    1    2    0    0  0.17541939373E-01  0.14289140834E-01 -0.50097828341E-02  0.23173198027E-01  0.00000000000E+00 0. -1.
     999901    1    3    3    0    0  0.81514883863E-01 -0.86935939517E-01 -0.38583162850E-01  0.88887074107E+00  0.88000000000E+00 0. -1.
        -11    1    4    4    0    0 -0.23734542572E-01  0.13402587940E-01  0.18095484353E-01  0.32721026108E-01  0.51100000000E-03 0.  1.
         11    1    4    4    0    0 -0.75322280664E-01  0.59244210743E-01  0.25497461331E-01  0.99165034797E-01  0.51100000000E-03 0. -1.
</event>
<event>
 8    1  0.1157726E+005  0.1043930E+01  0.7957747E-01            NaN
         13   -1    0    0    0    0  0.00000000000E+00  0.00000000000E+00  0.74505805969E-08  0.10566000000E+00  0.10566000000E+00 0. -1.
     999900   -1    0    0    0    0 -0.00000000000E+00 -0.00000000000E+00 -0.74505805969E-08  0.93827000000E+00  0.93827000000E+00 0.  1.
     999902    2    1    2    0    0  0.19178805210E-01  0.12058892839E-01  0.62890275450E-02  0.10204184000E+01  0.10201474971E+01 0.  0.
     999903    2    3    3    0    0  0.53025664330E-01 -0.32408921481E-01  0.11474430213E+00  0.13200096269E+00  0.19898241376E-01 0.  0.
         14    1    1    2    0    0 -0.19178805210E-01 -0.12058892839E-01 -0.62890275450E-02  0.23511599973E-01  0.00000000000E+00 0.  1.
     999901    1    3    3    0    0 -0.33846859119E-01  0.44467814320E-01 -0.10845527459E+00  0.88841743734E+00  0.88000000000E+00 0.  1.
        -11    1    4    4    0    0  0.24614798226E-01 -0.25698777275E-01  0.55104721615E-01  0.65598070935E-01  0.51100000000E-03 0. -1.
         11    1    4    4    0    0  0.28410866104E-01 -0.67101442063E-02  0.59639580517E-01  0.66402891754E-01  0.51100000000E-03 0.  1.
</event>
<event>
 8    1  0.1157726E+005  0.1043930E+01  0.7957747E-01            NaN
         13   -1    0    0    0    0  0.00000000000E+00  0.00000000000E+00  0.74505805969E-08  0.10566000000E+00  0.10566000000E+00 0. -1.
     999900   -1    0    0    0    0 -0.00000000000E+00 -0.00000000000E+00 -0.74505805969E-08  0.93827000000E+00  0.93827000000E+00 0. -1.
     999902    2    1    2    0    0 -0.22761034795E-01  0.52581838598E-03  0.81928322517E-02  0.10197336430E+01  0.10194465357E+01 0.  0.
     999903    2    3    3    0    0 -0.63249774576E-01  0.88775992793E-01  0.72376124808E-01  0.13206989681E+00  0.17956706816E-01 0.  0.
         14    1    1    2    0    0  0.22761034795E-01 -0.52581838598E-03 -0.81928322517E-02  0.24196356962E-01  0.00000000000E+00 0.  1.
     999901    1    3    3    0    0  0.40488739781E-01 -0.88250174408E-01 -0.64183292556E-01  0.88766374623E+00  0.88000000000E+00 0. -1.
        -11    1    4    4    0    0 -0.36043772327E-01  0.35690956699E-01  0.30575623995E-01  0.59229450591E-01  0.51100000000E-03 0.  1.
         11    1    4    4    0    0 -0.27206002249E-01  0.53085036094E-01  0.41800500813E-01  0.72840446214E-01  0.51100000000E-03 0. -1.
</event>
<event>
 8    1  0.1157726E+005  0.1043930E+01  0.7957747E-01            NaN
         13   -1    0    0    0    0  0.00000000000E+00  0.00000000000E+00  0.74505805969E-08  0.10566000000E+00  0.10566000000E+00 0.  1.
     999900   -1    0    0    0    0 -0.00000000000E+00 -0.00000000000E+00 -0.74505805969E-08  0.93827000000E+00  0.93827000000E+00 0. -1.
     999902    2    1    2    0    0 -0.20417972293E-01 -0.34257396753E-02  0.11706823498E-01  0.10201459927E+01  0.10198687011E+01 0.  0.
     999903    2    3    3    0    0 -0.92275062316E-01  0.73294232137E-01  0.57005437184E-01  0.13273325908E+00  0.21949182394E-01 0.  0.
         14    1    1    2    0    0  0.20417972293E-01  0.34257396753E-02 -0.11706823498E-01  0.23784007258E-01  0.00000000000E+00 0. -1.
     999901    1    3    3    0    0  0.71857090023E-01 -0.76719971812E-01 -0.45298613687E-01  0.88741273366E+00  0.88000000000E+00 0. -1.
        -11    1    4    4    0    0 -0.67890748819E-01  0.55638463986E-01  0.31455684135E-01  0.93244375891E-01  0.51100000000E-03 0.  1.
         11    1    4    4    0    0 -0.24384313497E-01  0.17655768151E-01  0.25549753049E-01  0.39488883190E-01  0.51100000000E-03 0. -1.
</event>
<event>
 8    1  0.1157726E+005  0.1043930E+01  0.7957747E-01            NaN
         13   -1    0    0    0    0  0.00000000000E+00  0.00000000000E+00  0.74505805969E-08  0.10566000000E+00  0.10566000000E+00 0.  1.
     999900   -1    0    0    0    0 -0.00000000000E+00 -0.00000000000E+00 -0.74505805969E-08  0.93827000000E+00  0.93827000000E+00 0. -1.
     999902    2    1    2    0    0  0.75929251662E-02  0.12948938950E-02  0.22653700821E-01  0.10200026219E+01  0.10197219372E+01 0.  0.
     999903    2    3    3    0    0 -0.15211043347E-01  0.12491454112E+00  0.30408199172E-01  0.13103582250E+00  0.20265975900E-01 0.  0.
         14    1    1    2    0    0 -0.75929251662E-02 -0.12948938950E-02 -0.22653700821E-01  0.23927378119E-01  0.00000000000E+00 0. -1.
     999901    1    3    3    0    0  0.22803968513E-01 -0.12361964722E+00 -0.77544983513E-02  0.88896679938E+00  0.88000000000E+00 0.  1.
        -11    1    4    4    0    0 -0.74016999008E-02  0.15993397043E-01 -0.17771603476E-03  0.17631409881E-01  0.51100000000E-03 0.  1.
         11    1    4    4    0    0 -0.78093434462E-02  0.10892114407E+00  0.30585915207E-01  0.11340441262E+00  0.51100000000E-03 0. -1.
</event>
<event>
 8    1  0.1157726E+005  0.1043930E+01  0.7957747E-01            NaN
         13   -1    0    0    0    0  0.00000000000E+00  0.00000000000E+00  0.74505805969E-08  0.10566000000E+00  0.10566000000E+00 0. -1.
     999900   -1    0    0    0    0 -0.00000000000E+00 -0.00000000000E+00 -0.74505805969E-08  0.93827000000E+00  0.93827000000E+00 0. -1.
     999902    2    1    2    0    0  0.28600112126E-01  0.14634428922E-01  0.12491425826E-01  0.10094601778E+01  0.10088714893E+01 0.  0.
     999903    2    3    3    0    0 -0.11084524068E+00 -0.30106319726E-01  0.13558214060E-01  0.11735711254E+00  0.19894944719E-01 0.  0.
         14    1    1    2    0    0 -0.28600112126E-01 -0.14634428922E-01 -0.12491425826E-01  0.34469822203E-01  0.00000000000E+00 0. -1.
     999901    1    3    3    0    0  0.13944535281E+00  0.44740748648E-01 -0.10667882335E-02  0.89210306526E+00  0.88000000000E+00 0.  1.
        -11    1    4    4    0    0 -0.76650735397E-01 -0.12337697517E-01  0.13582683309E-01  0.78818173183E-01  0.51100000000E-03 0.  1.
         11    1    4    4    0    0 -0.34194505284E-01 -0.17768622209E-01 -0.24469249111E-04  0.38538939355E-01  0.51100000000E-03 0. -1.
</event>
<event>
 8    1  0.1157726E+005  0.1043930E+01  0.7957747E-01            NaN
         13   -1    0    0    0    0  0.00000000000E+00  0.00000000000E+00  0.74505805969E-08  0.10566000000E+00  0.10566000000E+00 0.  1.
     999900   -1    0    0    0    0 -0.00000000000E+00 -0.00000000000E+00 -0.74505805969E-08  0.93827000000E+00  0.93827000000E+00 0.  1.
     999902    2    1    2    0    0  0.23436387723E-01  0.53204376167E-02 -0.41412309883E-02  0.10195430953E+01  0.10192513930E+01 0.  0.
     999903    2    3    3    0    0 -0.12459192464E+00 -0.79987709894E-03  0.13579159001E-01  0.12698281627E+00  0.20407218824E-01 0.  0.
         14    1    1    2    0    0 -0.23436387723E-01 -0.53204376167E-02  0.41412309883E-02  0.24386904683E-01  0.00000000000E+00 0.  1.
     999901    1    3    3    0    0  0.14802831236E+00  0.61203147156E-02 -0.17720389989E-01  0.89256027905E+00  0.88000000000E+00 0.  1.
        -11    1    4    4    0    0 -0.86958915692E-01 -0.91059057978E-02  0.55399015916E-02  0.87611198881E-01  0.51100000000E-03 0. -1.
         11    1    4    4    0    0 -0.37633008946E-01  0.83060286988E-02  0.80392574093E-02  0.39371617388E-01  0.51100000000E-03 0.  1.
</event>
<event>
 8    1  0.1157726E+005  0.1043930E+01  0.7957747E-01            NaN
         13   -1    0    0    0    0  0.00000000000E+00  0.00000000000E+00  0.74505805969E-08  0.10566000000E+00  0.10566000000E+00 0. -1.
     999900   -1    0    0    0    0 -0.00000000000E+00 -0.00000000000E+00 -0.74505805969E-08  0.93827000000E+00  0.93827000000E+00 0.  1.
     999902    2    1    2    0    0  0.12394331787E-02 -0.21981659106E-01 -0.84330569422E-02  0.10203536139E+01  0.10200811985E+01 0.  0.
     999903    2    3    3    0    0 -0.10956178978E+00  0.39983465021E-02  0.66663307469E-01  0.12985300434E+00  0.19950779888E-01 0.  0.
         14    1    1    2    0    0 -0.12394331787E-02  0.21981659106E-01  0.84330569422E-02  0.23576386089E-01  0.00000000000E+00 0. -1.
     999901    1    3    3    0    0  0.11080122296E+00 -0.25980005608E-01 -0.75096364411E-01  0.89050060957E+00  0.88000000000E+00 0.  1.
        -11    1    4    4    0    0 -0.70558100407E-01  0.71565531213E-02  0.52480091252E-01  0.88227449722E-01  0.51100000000E-03 0.  1.
         11    1    4    4    0    0 -0.39003689374E-01 -0.31582066192E-02  0.14183216217E-01  0.41625554616E-01  0.51100000000E-03 0. -1.
</event>
<event>
 8    1  0.1157726E+005  0.1043930E+01  0.7957747E-01            NaN
         13   -1    0    0    0    0  0.00000000000E+00  0.00000000000E+00  0.74505805969E-08  0.10566000000E+00  0.10566000000E+00 0. -1.
     999900   -1    0    0    0    0 -0.00000000000E+00 -0.00000000000E+00 -0.74505805969E-08  0.93827000000E+00  0.93827000000E+00 0. -1.
     999902    2    1    2    0    0  0.13177904285E-01 -0.17453288688E-03  0.18829056458E-01  0.10209469412E+01  0.10206882168E+01 0.  0.
     999903    2    3    3    0    0 -0.68499286523E-01 -0.73399539817E-01  0.82716204750E-01  0.13183804304E+00  0.21439551403E-01 0.  0.
         14    1    1    2    0    0 -0.13177904285E-01  0.17453288688E-03 -0.18829056458E-01  0.22983058764E-01  0.00000000000E+00 0.  1.
     999901    1    3    3    0    0  0.81677190808E-01  0.73225006930E-01 -0.63887148292E-01  0.88910889820E+00  0.88000000000E+00 0. -1.
        -11    1    4    4    0    0 -0.42875736548E-01 -0.30253637528E-01  0.42185588528E-01  0.67331243629E-01  0.51100000000E-03 0. -1.
         11    1    4    4    0    0 -0.25623549975E-01 -0.43145902289E-01  0.40530616222E-01  0.64506799409E-01  0.51100000000E-03 0.  1.
</event>
<event>
 8    1  0.1157726E+005  0.1043930E+01  0.7957747E-01            NaN
         13   -1    0    0    0    0  0.00000000000E+00  0.00000000000E+00  0.74505805969E-08  0.10566000000E+00  0.10566000000E+00 0.  1.
     999900   -1    0    0    0    0 -0.00000000000E+00 -0.00000000000E+00 -0.74505805969E-08  0.93827000000E+00  0.93827000000E+00 0.  1.
     999902    2    1    2    0    0 -0.21044032778E-01  0.33763327280E-02 -0.10413493665E-01  0.10202088746E+01  0.10199330645E+01 0.  0.
     999903    2    3    3    0    0  0.11510224290E+00  0.49765853257E-01  0.17030055660E-01  0.12810969607E+00  0.19922473783E-01 0.  0.
         14    1    1    2    0    0  0.21044032778E-01 -0.33763327280E-02  0.10413493665E-01  0.23721125365E-01  0.00000000000E+00 0.  1.
     999901    1    3    3    0    0 -0.13614627567E+00 -0.46389520529E-01 -0.27443549325E-01  0.89209917856E+00  0.88000000000E+00 0.  1.
        -11    1    4    4    0    0  0.46713865691E-01  0.28863201895E-01  0.13287290678E-01  0.56498521096E-01  0.51100000000E-03 0. -1.
         11    1    4    4    0    0  0.68388377205E-01  0.20902651362E-01  0.37427649822E-02  0.71611174976E-01  0.51100000000E-03 0.  1.
</event>
<event>
 8    1  0.1157726E+005  0.1043930E+01  0.7957747E-01            NaN
         13   -1    0    0    0    0  0.00000000000E+00  0.00000000000E+00  0.74505805969E-08  0.10566000000E+00  0.10566000000E+00 0. -1.
     999900   -1    0    0    0    0 -0.00000000000E+00 -0.00000000000E+00 -0.74505805969E-08  0.93827000000E+00  0.93827000000E+00 0. -1.
     999902    2    1    2    0    0 -0.21486151985E-02  0.14312949464E-01 -0.18539777934E-01  0.10204097867E+01  0.10201386829E+01 0.  0.
     999903    2    3    3    0    0  0.40819874403E-01  0.93947010063E-01 -0.83042934475E-01  0.13342132456E+00  0.20317923956E-01 0.  0.
         14    1    1    2    0    0  0.21486151985E-02 -0.14312949464E-01  0.18539777934E-01  0.23520213338E-01  0.00000000000E+00 0. -1.
     999901    1    3    3    0    0 -0.42968489601E-01 -0.79634060599E-01  0.64503156542E-01  0.88698846211E+00  0.88000000000E+00 0.  1.
        -11    1    4    4    0    0  0.19940072490E-01  0.23593695714E-01 -0.21450193469E-01  0.37611712128E-01  0.51100000000E-03 0. -1.
         11    1    4    4    0    0  0.20879801912E-01  0.70353314349E-01 -0.61592741007E-01  0.95809612427E-01  0.51100000000E-03 0.  1.
</event>
<event>
 8    1  0.1157726E+005  0.1043930E+01  0.7957747E-01            NaN
         13   -1    0    0    0    0  0.00000000000E+00  0.00000000000E+00  0.74505805969E-08  0.10566000000E+00  0.10566000000E+00 0.  1.
     999900   -1    0    0    0    0 -0.00000000000E+00 -0.00000000000E+00 -0.74505805969E-08  0.93827000000E+00  0.93827000000E+00 0.  1.
     999902    2    1    2    0    0  0.26601506861E-03 -0.20576673582E-01 -0.82197122204E-02  0.10217707146E+01  0.10215304006E+01 0.  0.
     999903    2    3    3    0    0  0.30243980960E-01 -0.27824944491E-01  0.12312288848E+00  0.13148868367E+00  0.21002436657E-01 0.  0.
         14    1    1    2    0    0 -0.26601506861E-03  0.20576673582E-01  0.82197122204E-02  0.22159285384E-01  0.00000000000E+00 0. -1.
     999901    1    3    3    0    0 -0.29977965892E-01  0.72482709084E-02 -0.13134260070E+00  0.89028203095E+00  0.88000000000E+00 0.  1.
        -11    1    4    4    0    0  0.13247507992E-01 -0.13643085244E-01  0.28193646899E-01  0.34011367063E-01  0.51100000000E-03 0. -1.
         11    1    4    4    0    0  0.16996472969E-01 -0.14181859246E-01  0.94929241579E-01  0.97477316606E-01  0.51100000000E-03 0.  1.
</event>
<event>
 8    1  0.1157726E+005  0.1043930E+01  0.7957747E-01            NaN
         13   -1    0    0    0    0  0.00000000000E+00  0.00000000000E+00  0.74505805969E-08  0.10566000000E+00  0.10566000000E+00 0.  1.
     999900   -1    0    0    0    0 -0.00000000000E+00 -0.00000000000E+00 -0.74505805969E-08  0.93827000000E+00  0.93827000000E+00 0. -1.
     999902    2    1    2    0    0 -0.16970316783E-01  0.56155080242E-02 -0.15310154366E-01  0.10203943588E+01  0.10201228950E+01 0.  0.
     999903    2    3    3    0    0  0.35282094317E-01 -0.12267864206E+00  0.46136435450E-02  0.12933506716E+00  0.20282960707E-01 0.  0.
         14    1    1    2    0    0  0.16970316783E-01 -0.56155080242E-02  0.15310154366E-01  0.23535641244E-01  0.00000000000E+00 0.  1.
     999901    1    3    3    0    0 -0.52252411100E-01  0.12829415008E+00 -0.19923797911E-01  0.89105929159E+00  0.88000000000E+00 0. -1.
        -11    1    4    4    0    0  0.24100476683E-01 -0.94305269083E-01  0.11651161118E-01  0.98032277488E-01  0.51100000000E-03 0.  1.
         11    1    4    4    0    0  0.11181617634E-01 -0.28373372974E-01 -0.70375175734E-02  0.31302789675E-01  0.51100000000E-03 0. -1.
</event>
<event>
 8    1  0.1157726E+005  0.1043930E+01  0.7957747E-01            NaN
         13   -1    0    0    0    0  0.00000000000E+00  0.00000000000E+00  0.74505805969E-08  0.10566000000E+00  0.10566000000E+00 0. -1.
     999900   -1    0    0    0    0 -0.00000000000E+00 -0.00000000000E+00 -0.74505805969E-08  0.93827000000E+00  0.93827000000E+00 0.  1.
     999902    2    1    2    0    0  0.82947229924E-02  0.14246623475E-01 -0.17129614237E-01  0.10201562247E+01  0.10198791744E+01 0.  0.
     999903    2    3    3    0    0  0.54649510924E-01 -0.10337721370E-01  0.11445200862E+00  0.12882750873E+00  0.20095452228E-01 0.  0.
         14    1    1    2    0    0 -0.82947229924E-02 -0.14246623475E-01  0.17129614237E-01  0.23773775339E-01  0.00000000000E+00 0. -1.
     999901    1    3    3    0    0 -0.46354787932E-01  0.24584344845E-01 -0.13158162286E+00  0.89132871593E+00  0.88000000000E+00 0.  1.
        -11    1    4    4    0    0  0.31730536350E-01 -0.97085740188E-02  0.86647951747E-01  0.92785839488E-01  0.51100000000E-03 0. -1.
         11    1    4    4    0    0  0.22918974574E-01 -0.62914735114E-03  0.27804056873E-01  0.36041669238E-01  0.51100000000E-03 0.  1.
</event>
<event>
 8    1  0.1157726E+005  0.1043930E+01  0.7957747E-01            NaN
         13   -1    0    0    0    0  0.00000000000E+00  0.00000000000E+00  0.74505805969E-08  0.10566000000E+00  0.10566000000E+00 0. -1.
     999900   -1    0    0    0    0 -0.00000000000E+00 -0.00000000000E+00 -0.74505805969E-08  0.93827000000E+00  0.93827000000E+00 0. -1.
     999902    2    1    2    0    0 -0.27803405174E-02  0.25309586915E-01  0.17547670084E-01  0.10130070925E+01  0.10125350084E+01 0.  0.
     999903    2    3    3    0    0 -0.91056834962E-01 -0.79227366791E-01  0.95707598195E-02  0.12239811811E+00  0.17926991683E-01 0.  0.
         14    1    1    2    0    0  0.27803405174E-02 -0.25309586915E-01 -0.17547670084E-01  0.30922907505E-01  0.00000000000E+00 0. -1.
     999901    1    3    3    0    0  0.88276494444E-01  0.10453695371E+00  0.79769102642E-02  0.89060897439E+00  0.88000000000E+00 0. -1.
        -11    1    4    4    0    0 -0.32303456956E-01 -0.26189680504E-01 -0.50868565577E-02  0.41899283130E-01  0.51100000000E-03 0. -1.
         11    1    4    4    0    0 -0.58753378006E-01 -0.53037686288E-01  0.14657616377E-01  0.80498834978E-01  0.51100000000E-03 0.  1.
</event>
<event>
 8    1  0.1157726E+005  0.1043930E+01  0.7957747E-01            NaN
         13   -1    0    0    0    0  0.00000000000E+00  0.00000000000E+00  0.74505805969E-08  0.10566000000E+00  0.10566000000E+00 0.  1.
     999900   -1    0    0    0    0 -0.00000000000E+00 -0.00000000000E+00 -0.74505805969E-08  0.93827000000E+00  0.93827000000E+00 0.  1.
     999902    2    1    2    0    0  0.19177302987E-01  0.11946484210E-01  0.17707307812E-01  0.10152239695E+01  0.10148180488E+01 0.  0.
     999903    2    3    3    0    0  0.18051637666E-01 -0.91760219598E-01  0.84542898975E-01  0.12661643875E+00  0.11765256927E-01 0.  0.
         14    1    1    2    0    0 -0.19177302987E-01 -0.11946484210E-01 -0.17707307812E-01  0.28706030460E-01  0.00000000000E+00 0. -1.
     999901    1    3    3    0    0  0.11256653211E-02  0.10370670381E+00 -0.66835591164E-01  0.88860753079E+00  0.88000000000E+00 0.  1.
        -11    1    4    4    0    0  0.88212139474E-02 -0.61815503827E-01  0.62131094607E-01  0.88088048946E-01  0.51100000000E-03 0. -1.
         11    1    4    4    0    0  0.92304237184E-02 -0.29944715771E-01  0.22411804368E-01  0.38528389801E-01  0.51100000000E-03 0.  1.
</event>
<event>
 8    1  0.1157726E+005  0.1043930E+01  0.7957747E-01            NaN
         13   -1    0    0    0    0  0.00000000000E+00  0.00000000000E+00  0.74505805969E-08  0.10566000000E+00  0.10566000000E+00 0. -1.
     999900   -1    0    0    0    0 -0.00000000000E+00 -0.00000000000E+00 -0.74505805969E-08  0.93827000000E+00  0.93827000000E+00 0.  1.
     999902    2    1    2    0    0  0.17770586820E-01 -0.14406631411E-01 -0.38726123747E-02  0.10207278037E+01  0.10204640647E+01 0.  0.
     999903    2    3    3    0    0  0.53884188453E-01 -0.66812962526E-02  0.11813507041E+00  0.13154292551E+00  0.19987518723E-01 0.  0.
         14    1    1    2    0    0 -0.17770586820E-01  0.14406631411E-01  0.38726123747E-02  0.23202196257E-01  0.00000000000E+00 0.  1.
     999901    1    3    3    0    0 -0.36113601632E-01 -0.77253351586E-02 -0.12200768279E+00  0.88918487824E+00  0.88000000000E+00 0.  1.
        -11    1    4    4    0    0  0.30768572292E-01 -0.33297930398E-02  0.43873243050E-01  0.53692784797E-01  0.51100000000E-03 0.  1.
         11    1    4    4    0    0  0.23115616161E-01 -0.33515032128E-02  0.74261827362E-01  0.77850140709E-01  0.51100000000E-03 0. -1.
</event>
<event>
 8    1  0.1157726E+005  0.1043930E+01  0.7957747E-01            NaN
         13   -1    0    0    0    0  0.00000000000E+00  0.00000000000E+00  0.74505805969E-08  0.10566000000E+00  0.10566000000E+00 0.  1.
     999900   -1    0    0    0    0 -0.00000000000E+00 -0.00000000000E+00 -0.74505805969E-08  0.93827000000E+00  0.93827000000E+00 0.  1.
     999902    2    1    2    0    0  0.11486269467E-01  0.15782423404E-01 -0.23320666791E-02  0.10242714698E+01  0.10240828023E+01 0.  0.
     999903    2    3    3    0    0 -0.92519666820E-01 -0.89343954204E-01  0.19857173110E-01  0.13165668591E+00  0.19923471567E-01 0.  0.
         14    1    1    2    0    0 -0.11486269467E-01 -0.15782423404E-01  0.23320666791E-02  0.19658530204E-01  0.00000000000E+00 0. -1.
     999901    1    3    3    0    0  0.10400593629E+00  0.10512637761E+00 -0.22189239789E-01  0.89261478389E+00  0.88000000000E+00 0.  1.
        -11    1    4    4    0    0 -0.74130074543E-01 -0.66608839283E-01  0.22884745665E-01  0.10225447730E+00  0.51100000000E-03 0. -1.
         11    1    4    4    0    0 -0.18389592277E-01 -0.22735114922E-01 -0.30275725557E-02  0.29402208611E-01  0.51100000000E-03 0.  1.
</event>
<event>
 8    1  0.1157726E+005  0.1043930E+01  0.7957747E-01            NaN
         13   -1    0    0    0    0  0.00000000000E+00  0.00000000000E+00  0.74505805969E-08  0.10566000000E+00  0.10566000000E+00 0.  1.
     999900   -1    0    0    0    0 -0.00000000000E+00 -0.00000000000E+00 -0.74505805969E-08  0.93827000000E+00  0.93827000000E+00 0.  1.
     999902    2    1    2    0    0 -0.45591461435E-02  0.11244086029E-01  0.20772452354E-01  0.10198736067E+01  0.10195898506E+01 0.  0.
     999903    2    3    3    0    0  0.20287222482E-01 -0.11584156753E+00  0.51583048526E-01  0.12986383243E+00  0.19312273687E-01 0.  0.
         14    1    1    2    0    0  0.45591461435E-02 -0.11244086029E-01 -0.20772452354E-01  0.24056393350E-01  0.00000000000E+00 0. -1.
     999901    1    3    3    0    0 -0.24846368626E-01  0.12708565355E+00 -0.30810596171E-01  0.89000977422E+00  0.88000000000E+00 0. -1.
        -11    1    4    4    0    0  0.21765109617E-01 -0.96556924382E-01  0.48664118540E-01  0.11029695008E+00  0.51100000000E-03 0.  1.
         11    1    4    4    0    0 -0.14778871353E-02 -0.19284643144E-01  0.29189299858E-02  0.19566882348E-01  0.51100000000E-03 0. -1.
</event>
<event>
 8    1  0.1157726E+005  0.1043930E+01  0.7957747E-01            NaN
         13   -1    0    0    0    0  0.00000000000E+00  0.00000000000E+00  0.74505805969E-08  0.10566000000E+00  0.10566000000E+00 0. -1.
     999900   -1    0    0    0    0 -0.00000000000E+00 -0.00000000000E+00 -0.74505805969E-08  0.93827000000E+00  0.93827000000E+00 0.  1.
     999902    2    1    2    0    0  0.13020161594E-01 -0.78199481819E-02 -0.17981812520E-01  0.10203923328E+01  0.10201208218E+01 0.  0.
     999903    2    3    3    0    0 -0.27011423007E-01  0.41435937992E-01  0.11646348151E+00  0.12792148888E+00  0.18804543660E-01 0.  0.
         14    1    1    2    0    0 -0.13020161594E-01  0.78199481819E-02  0.17981812520E-01  0.23537667238E-01  0.00000000000E+00 0. -1.
     999901    1    3    3    0    0  0.40031584600E-01 -0.49255886174E-01 -0.13444529403E+00  0.89247084388E+00  0.88000000000E+00 0.  1.
        -11    1    4    4    0    0 -0.84970508924E-02  0.27098290911E-01  0.50741110447E-01  0.58150138904E-01  0.51100000000E-03 0. -1.
         11    1    4    4    0    0 -0.18514372114E-01  0.14337647080E-01  0.65722371063E-01  0.69771349978E-01  0.51100000000E-03 0.  1.
</event>
<event>
 8    1  0.1157726E+005  0.1043930E+01  0.7957747E-01            NaN
         13   -1    0    0    0    0  0.00000000000E+00  0.00000000000E+00  0.74505805969E-08  0.10566000000E+00  0.10566000000E+00 0. -1.
     999900   -1    0    0    0    0 -0.00000000000E+00 -0.00000000000E+00 -0.74505805969E-08  0.93827000000E+00  0.93827000000E+00 0. -1.
     999902    2    1    2    0    0  0.19401499652E-01 -0.12987355026E-01 -0.21039981620E-02  0.10204882341E+01  0.10202189567E+01 0.  0.
     999903    2    3    3    0    0 -0.81652834122E-02  0.12668916329E+00  0.68810798137E-02  0.12900060721E+00  0.21840134019E-01 0.  0.
         14    1    1    2    0    0 -0.19401499652E-01  0.12987355026E-01  0.21039981620E-02  0.23441765881E-01  0.00000000000E+00 0. -1.
     999901    1    3    3    0    0  0.27566783064E-01 -0.13967651832E+00 -0.89850779757E-02  0.89148762690E+00  0.88000000000E+00 0.  1.
        -11    1    4    4    0    0 -0.41379611501E-03  0.10817307717E+00  0.13912614945E-02  0.10818402184E+00  0.51100000000E-03 0. -1.
         11    1    4    4    0    0 -0.77514872972E-02  0.18516086119E-01  0.54898183192E-02  0.20816585375E-01  0.51100000000E-03 0.  1.
</event>
<event>
 8    1  0.1157726E+005  0.1043930E+01  0.7957747E-01            NaN
         13   -1    0    0    0    0  0.00000000000E+00  0.00000000000E+00  0.74505805969E-08  0.10566000000E+00  0.10566000000E+00 0.  1.
     999900   -1    0    0    0    0 -0.00000000000E+00 -0.00000000000E+00 -0.74505805969E-08  0.93827000000E+00  0.93827000000E+00 0.  1.
     999902    2    1    2    0    0  0.12106331172E-01  0.57693358485E-02 -0.20485396896E-01  0.10194453114E+01  0.10191512365E+01 0.  0.
     999903    2    3    3    0    0  0.12389172319E+00  0.79271191053E-02 -0.39362589223E-01  0.13217028171E+00  0.22529350730E-01 0.  0.
         14    1    1    2    0    0 -0.12106331172E-01 -0.57693358485E-02  0.20485396896E-01  0.24484688615E-01  0.00000000000E+00 0.  1.
     999901    1    3    3    0    0 -0.11178539202E+00 -0.21577832567E-02  0.18877192327E-01  0.88727502968E+00  0.88000000000E+00 0.  1.
        -11    1    4    4    0    0  0.90798855460E-01  0.12252644826E-01 -0.20713290840E-01  0.93935408641E-01  0.51100000000E-03 0. -1.
         11    1    4    4    0    0  0.33092867730E-01 -0.43255257206E-02 -0.18649298383E-01  0.38234873068E-01  0.51100000000E-03 0.  1.
</event>
<event>
 8    1  0.1157726E+005  0.1043930E+01  0.7957747E-01            NaN
         13   -1    0    0    0    0  0.00000000000E+00  0.00000000000E+00  0.74505805969E-08  0.10566000000E+00  0.10566000000E+00 0.  1.
     999900   -1    0    0    0    0 -0.00000000000E+00 -0.00000000000E+00 -0.74505805969E-08  0.93827000000E+00  0.93827000000E+00 0. -1.
     999902    2    1    2    0    0  0.21943477867E-01 -0.33698184222E-02 -0.91827724781E-02  0.10199051127E+01  0.10196221083E+01 0.  0.
     999903    2    3    3    0    0  0.23729304674E-01  0.76356156460E-02  0.12556557805E+00  0.12957852844E+00  0.20062355643E-01 0.  0.
         14    1    1    2    0    0 -0.21943477867E-01  0.33698184222E-02  0.91827724781E-02  0.24024887253E-01  0.00000000000E+00 0.  1.
     999901    1    3    3    0    0 -0.17858268061E-02 -0.11005434068E-01 -0.13474835053E+00  0.89032658431E+00  0.88000000000E+00 0. -1.
        -11    1    4    4    0    0  0.20026454343E-01  0.57326152993E-02  0.53856914860E-01  0.57747295616E-01  0.51100000000E-03 0.  1.
         11    1    4    4    0    0  0.37028503303E-02  0.19030003467E-02  0.71708663193E-01  0.71831232823E-01  0.51100000000E-03 0. -1.
</event>
<event>
 8    1  0.1157726E+005  0.1043930E+01  0.7957747E-01            NaN
         13   -1    0    0    0    0  0.00000000000E+00  0.00000000000E+00  0.74505805969E-08  0.10566000000E+00  0.10566000000E+00 0.  1.
     999900   -1    0    0    0    0 -0.00000000000E+00 -0.00000000000E+00 -0.74505805969E-08  0.93827000000E+00  0.93827000000E+00 0.  1.
     999902    2    1    2    0    0  0.11522025676E-01  0.17745937370E-01 -0.65442405406E-02  0.10217827100E+01  0.10215426590E+01 0.  0.
     999903    2    3    3    0    0  0.36403024259E-01  0.40942411367E-01 -0.12053541976E+00  0.13377869572E+00  0.19143949066E-01 0.  0.
         14    1    1    2    0    0 -0.11522025676E-01 -0.17745937370E-01  0.65442405406E-02  0.22147289971E-01  0.00000000000E+00 0.  1.
     999901    1    3    3    0    0 -0.24880998583E-01 -0.23196473997E-01  0.11399117922E+00  0.88800401431E+00  0.88000000000E+00 0. -1.
        -11    1    4    4    0    0  0.22722954027E-01  0.11596292327E-01 -0.57697452516E-01  0.63087746697E-01  0.51100000000E-03 0.  1.
         11    1    4    4    0    0  0.13680070232E-01  0.29346119040E-01 -0.62837967248E-01  0.70690949018E-01  0.51100000000E-03 0. -1.
</event>
<event>
 8    1  0.1157726E+005  0.1043930E+01  0.7957747E-01            NaN
         13   -1    0    0    0    0  0.00000000000E+00  0.00000000000E+00  0.74505805969E-08  0.10566000000E+00  0.10566000000E+00 0. -1.
     999900   -1    0    0    0    0 -0.00000000000E+00 -0.00000000000E+00 -0.74505805969E-08  0.93827000000E+00  0.93827000000E+00 0.  1.
     999902    2    1    2    0    0 -0.17681039589E-01  0.50022830152E-02  0.16103062601E-01  0.10194974270E+01  0.10192046179E+01 0.  0.
     999903    2    3    3    0    0 -0.30750269611E-01  0.11392087859E+00 -0.51729703111E-01  0.13009574650E+00  0.18038719850E-01 0.  0.
         14    1    1    2    0    0  0.17681039589E-01 -0.50022830152E-02 -0.16103062601E-01  0.24432572960E-01  0.00000000000E+00 0.  1.
     999901    1    3    3    0    0  0.13069230023E-01 -0.10891859558E+00  0.67832765712E-01  0.88940168054E+00  0.88000000000E+00 0. -1.
        -11    1    4    4    0    0 -0.22365847617E-01  0.52076327514E-01 -0.29058326854E-01  0.63693190433E-01  0.51100000000E-03 0. -1.
         11    1    4    4    0    0 -0.83844219940E-02  0.61844551079E-01 -0.22671376257E-01  0.66402556071E-01  0.51100000000E-03 0.  1.
</event>
<event>
 8    1  0.1157726E+005  0.1043930E+01  0.7957747E-01            NaN
         13   -1    0    0    0    0  0.00000000000E+00  0.00000000000E+00  0.74505805969E-08  0.10566000000E+00  0.10566000000E+00 0.  1.
     999900   -1    0    0    0    0 -0.00000000000E+00 -0.00000000000E+00 -0.74505805969E-08  0.93827000000E+00  0.93827000000E+00 0. -1.
     999902    2    1    2    0    0  0.17367852801E-01  0.24403777469E-01 -0.75116264799E-02  0.10130494042E+01  0.10125786311E+01 0.  0.
     999903    2    3    3    0    0 -0.34149631655E-01 -0.50540736136E-01  0.10316323455E+00  0.12146673489E+00  0.19772490212E-01 0.  0.
         14    1    1    2    0    0 -0.17367852801E-01 -0.24403777469E-01  0.75116264799E-02  0.30880595817E-01  0.00000000000E+00 0.  1.
     999901    1    3    3    0    0  0.51517484456E-01  0.74944513605E-01 -0.11067486103E+00  0.89158266930E+00  0.88000000000E+00 0. -1.
        -11    1    4    4    0    0 -0.31391696328E-01 -0.32609729183E-01  0.81295673251E-01  0.93048807870E-01  0.51100000000E-03 0. -1.
         11    1    4    4    0    0 -0.27579353272E-02 -0.17931006952E-01  0.21867561303E-01  0.28417927017E-01  0.51100000000E-03 0.  1.
</event>
<event>
 8    1  0.1157726E+005  0.1043930E+01  0.7957747E-01            NaN
         13   -1    0    0    0    0  0.00000000000E+00  0.00000000000E+00  0.74505805969E-08  0.10566000000E+00  0.10566000000E+00 0.  1.
     999900   -1    0    0    0    0 -0.00000000000E+00 -0.00000000000E+00 -0.74505805969E-08  0.93827000000E+00  0.93827000000E+00 0.  1.
     999902    2    1    2    0    0 -0.19430449821E-01  0.11836442417E-01 -0.27668445255E-02  0.10210105939E+01  0.10207533167E+01 0.  0.
     999903    2    3    3    0    0 -0.69422074336E-01  0.89863791211E-01 -0.67707886287E-01  0.13376498604E+00  0.20341785798E-01 0.  0.
         14    1    1    2    0    0  0.19430449821E-01 -0.11836442417E-01  0.27668445255E-02  0.22919406143E-01  0.00000000000E+00 0. -1.
     999901    1    3    3    0    0  0.49991624515E-01 -0.78027348794E-01  0.64941041762E-01  0.88724560781E+00  0.88000000000E+00 0. -1.
        -11    1    4    4    0    0 -0.40550677292E-01  0.51106672419E-01 -0.27130035421E-01  0.70657974338E-01  0.51100000000E-03 0. -1.
         11    1    4    4    0    0 -0.28871397043E-01  0.38757118792E-01 -0.40577850866E-01  0.63107011704E-01  0.51100000000E-03 0.  1.
</event>
<event>
 8    1  0.1157726E+005  0.1043930E+01  0.7957747E-01            NaN
         13   -1    0    0    0    0  0.00000000000E+00  0.00000000000E+00  0.74505805969E-08  0.10566000000E+00  0.10566000000E+00 0.  1.
     999900   -1    0    0    0    0 -0.00000000000E+00 -0.00000000000E+00 -0.74505805969E-08  0.93827000000E+00  0.93827000000E+00 0. -1.
     999902    2    1    2    0    0  0.14866201443E-01  0.15645089930E-01  0.11594631704E-01  0.10194308517E+01  0.10191364252E+01 0.  0.
     999903    2    3    3    0    0  0.67641944105E-01 -0.89692769475E-01 -0.59483299969E-01  0.12873819087E+00  0.20372366471E-01 0.  0.
         14    1    1    2    0    0 -0.14866201443E-01 -0.15645089930E-01 -0.11594631704E-01  0.24499148324E-01  0.00000000000E+00 0. -1.
     999901    1    3    3    0    0 -0.52775742662E-01  0.10533785941E+00  0.71077931672E-01  0.89069266080E+00  0.88000000000E+00 0.  1.
        -11    1    4    4    0    0  0.44718868909E-01 -0.45874394330E-01 -0.40333288475E-01  0.75705168726E-01  0.51100000000E-03 0. -1.
         11    1    4    4    0    0  0.22923075196E-01 -0.43818375146E-01 -0.19150011493E-01  0.53033022147E-01  0.51100000000E-03 0.  1.
</event>
<event>
 8    1  0.1157726E+005  0.1043930E+01  0.7957747E-01            NaN
         13   -1    0    0    0    0  0.00000000000E+00  0.00000000000E+00  0.74505805969E-08  0.10566000000E+00  0.10566000000E+00 0.  1.
     999900   -1    0    0    0    0 -0.00000000000E+00 -0.00000000000E+00 -0.74505805969E-08  0.93827000000E+00  0.93827000000E+00 0. -1.
     999902    2    1    2    0    0 -0.26066382313E-02  0.17334014230E-01  0.15799608017E-01  0.10203314783E+01  0.10200585451E+01 0.  0.
     999903    2    3    3    0    0 -0.83153935619E-01  0.15450465042E-01  0.10025917132E+00  0.13262385037E+00  0.19593120619E-01 0.  0.
         14    1    1    2    0    0  0.26066382313E-02 -0.17334014230E-01 -0.15799608017E-01  0.23598521684E-01  0.00000000000E+00 0.  1.
     999901    1    3    3    0    0  0.80547297388E-01  0.18835491880E-02 -0.84459563302E-01  0.88770762794E+00  0.88000000000E+00 0. -1.
        -11    1    4    4    0    0 -0.36636167411E-01  0.16707232459E-01  0.45491886751E-01  0.60754532836E-01  0.51100000000E-03 0.  1.
         11    1    4    4    0    0 -0.46517768209E-01 -0.12567674176E-02  0.54767284568E-01  0.71869317538E-01  0.51100000000E-03 0. -1.
</event>
<event>
 8    1  0.1157726E+005  0.1043930E+01  0.7957747E-01            NaN
         13   -1    0    0    0    0  0.00000000000E+00  0.00000000000E+00  0.74505805969E-08  0.10566000000E+00  0.10566000000E+00 0.  1.
     999900   -1    0    0    0    0 -0.00000000000E+00 -0.00000000000E+00 -0.74505805969E-08  0.93827000000E+00  0.93827000000E+00 0.  1.
     999902    2    1    2    0    0 -0.49360755462E-03  0.14982415210E-01 -0.17616054213E-01  0.10207990299E+01  0.10205369261E+01 0.  0.
     999903    2    3    3    0    0  0.37786433231E-01  0.12576603514E+00  0.28580451768E-03  0.13284697680E+00  0.20083013510E-01 0.  0.
         14    1    1    2    0    0  0.49360755462E-03 -0.14982415210E-01  0.17616054213E-01  0.23130970148E-01  0.00000000000E+00 0.  1.
     999901    1    3    3    0    0 -0.38280040786E-01 -0.11078361992E+00 -0.17901858731E-01  0.88795205305E+00  0.88000000000E+00 0. -1.
        -11    1    4    4    0    0  0.89384819644E-02  0.63072353200E-01  0.30479676480E-02  0.63777499369E-01  0.51100000000E-03 0. -1.
         11    1    4    4    0    0  0.28847951267E-01  0.62693681935E-01 -0.27621631304E-02  0.69069477434E-01  0.51100000000E-03 0.  1.
</event>
<event>
 8    1  0.1157726E+005  0.1043930E+01  0.7957747E-01            NaN
         13   -1    0    0    0    0  0.00000000000E+00  0.00000000000E+00  0.74505805969E-08  0.10566000000E+00  0.10566000000E+00 0.  1.
     999900   -1    0    0    0    0 -0.00000000000E+00 -0.00000000000E+00 -0.74505805969E-08  0.93827000000E+00  0.93827000000E+00 0. -1.
     999902    2    1    2    0    0 -0.13097180316E-01  0.50937819677E-02 -0.16044110027E-01  0.10226017039E+01  0.10223792587E+01 0.  0.
     999903    2    3    3    0    0  0.98272133206E-01  0.72334740261E-01  0.43176323937E-01  0.13106845706E+00  0.20615981021E-01 0.  0.
         14    1    1    2    0    0  0.13097180316E-01 -0.50937819677E-02  0.16044110027E-01  0.21328296077E-01  0.00000000000E+00 0.  1.
     999901    1    3    3    0    0 -0.11136931352E+00 -0.67240958293E-01 -0.59220433965E-01  0.89153324686E+00  0.88000000000E+00 0. -1.
        -11    1    4    4    0    0  0.30648039923E-01  0.27754364430E-01  0.24075451048E-01  0.47848673546E-01  0.51100000000E-03 0.  1.
         11    1    4    4    0    0  0.67624093284E-01  0.44580375831E-01  0.19100872890E-01  0.83219783512E-01  0.51100000000E-03 0. -1.
</event>
<event>
 8    1  0.1157726E+005  0.1043930E+01  0.7957747E-01            NaN
         13   -1    0    0    0    0  0.00000000000E+00  0.00000000000E+00  0.74505805969E-08  0.10566000000E+00  0.10566000000E+00 0. -1.
     999900   -1    0    0    0    0 -0.00000000000E+00 -0.00000000000E+00 -0.74505805969E-08  0.93827000000E+00  0.93827000000E+00 0.  1.
     999902    2    1    2    0    0  0.19544286332E-01  0.99274880648E-02 -0.85028840947E-02  0.10204175951E+01  0.10201466734E+01 0.  0.
     999903    2    3    3    0    0  0.15357209692E-01  0.10635687641E+00  0.73128087174E-01  0.13138453944E+00  0.19145522178E-01 0.  0.
         14    1    1    2    0    0 -0.19544286332E-01 -0.99274880648E-02  0.85028840947E-02  0.23512404926E-01  0.00000000000E+00 0.  1.
     999901    1    3    3    0    0  0.41870766397E-02 -0.96429388346E-01 -0.81630971269E-01  0.88903305564E+00  0.88000000000E+00 0.  1.
        -11    1    4    4    0    0  0.19782218346E-01  0.86289740812E-01  0.57522749026E-01  0.10557643349E+00  0.51100000000E-03 0. -1.
         11    1    4    4    0    0 -0.44250086541E-02  0.20067135599E-01  0.15605338148E-01  0.25808105944E-01  0.51100000000E-03 0.  1.
</event>
<event>
 8    1  0.1157726E+005  0.1043930E+01  0.7957747E-01            NaN
         13   -1    0    0    0    0  0.00000000000E+00  0.00000000000E+00  0.74505805969E-08  0.10566000000E+00  0.10566000000E+00 0. -1.
     999900   -1    0    0    0    0 -0.00000000000E+00 -0.00000000000E+00 -0.74505805969E-08  0.93827000000E+00  0.93827000000E+00 0. -1.
     999902    2    1    2    0    0 -0.12975918626E-01 -0.66465356743E-02 -0.16773280701E-01  0.10217062774E+01  0.10214645483E+01 0.  0.
     999903    2    3    3    0    0 -0.12610665247E+00  0.17543802661E-01  0.32059799881E-01  0.13279210541E+00  0.19880635848E-01 0.  0.
         14    1    1    2    0    0  0.12975918626E-01  0.66465356743E-02  0.16773280701E-01  0.22223722598E-01  0.00000000000E+00 0. -1.
     999901    1    3    3    0    0  0.11313073384E+00 -0.24190338336E-01 -0.48833080581E-01  0.88891417199E+00  0.88000000000E+00 0.  1.
        -11    1    4    4    0    0 -0.16116133659E-01  0.63698511885E-02 -0.10909183889E-02  0.17371125243E-01  0.51100000000E-03 0. -1.
         11    1    4    4    0    0 -0.10999051881E+00  0.11173951473E-01  0.33150718270E-01  0.11542098017E+00  0.51100000000E-03 0.  1.
</event>
<event>
 8    1  0.1157726E+005  0.1043930E+01  0.7957747E-01            NaN
         13   -1    0    0    0    0  0.00000000000E+00  0.00000000000E+00  0.74505805969E-08  0.10566000000E+00  0.10566000000E+00 0. -1.
     999900   -1    0    0    0    0 -0.00000000000E+00 -0.00000000000E+00 -0.74505805969E-08  0.93827000000E+00  0.93827000000E+00 0.  1.
     999902    2    1    2    0    0 -0.19835613973E-01 -0.10114911199E-02  0.13271541753E-01  0.10200425867E+01  0.10197628499E+01 0.  0.
     999903    2    3    3    0    0 -0.94521485409E-01 -0.41025188321E-01  0.81291531447E-01  0.13336012130E+00  0.23648077906E-01 0.  0.
         14    1    1    2    0    0  0.19835613973E-01  0.10114911199E-02 -0.13271541753E-01  0.23887413348E-01  0.00000000000E+00 0.  1.
     999901    1    3    3    0    0  0.74685871436E-01  0.40013697201E-01 -0.68019989694E-01  0.88668246535E+00  0.88000000000E+00 0.  1.
        -11    1    4    4    0    0 -0.98830541989E-02  0.29483928844E-02  0.85453653636E-02  0.13403438779E-01  0.51100000000E-03 0. -1.
         11    1    4    4    0    0 -0.84638431210E-01 -0.43973581206E-01  0.72746166084E-01  0.11995668253E+00  0.51100000000E-03 0.  1.
</event>
<event>
 8    1  0.1295845E+005  0.1043930E+01  0.7957747E-01            NaN
         13   -1    0    0    0    0  0.00000000000E+00  0.00000000000E+00  0.74505805969E-08  0.10566000000E+00  0.10566000000E+00 0.  1.
     999900   -1    0    0    0    0 -0.00000000000E+00 -0.00000000000E+00 -0.74505805969E-08  0.93827000000E+00  0.93827000000E+00 0. -1.
     999902    2    1    2    0    0  0.64919507207E-02 -0.21432740271E-01  0.82708903853E-02  0.10200570989E+01  0.10197777060E+01 0.  0.
     999903    2    3    3    0    0 -0.22680000087E-01 -0.10412373812E+00 -0.74766628999E-01  0.13180936685E+00  0.20676680917E-01 0.  0.
         14    1    1    2    0    0 -0.64919507207E-02  0.21432740271E-01 -0.82708903853E-02  0.23872901111E-01  0.00000000000E+00 0.  1.
     999901    1    3    3    0    0  0.29171950807E-01  0.82690997853E-01  0.83037519384E-01  0.88824773203E+00  0.88000000000E+00 0.  1.
        -11    1    4    4    0    0 -0.21551873406E-01 -0.50436403277E-01 -0.37973366700E-01  0.66712455526E-01  0.51100000000E-03 0. -1.
         11    1    4    4    0    0 -0.11281266805E-02 -0.53687334847E-01 -0.36793262299E-01  0.65096911327E-01  0.51100000000E-03 0.  1.
</event>
<event>
 8    1  0.1157726E+005  0.1043930E+01  0.7957747E-01            NaN
         13   -1    0    0    0    0  0.00000000000E+00  0.00000000000E+00  0.74505805969E-08  0.10566000000E+00  0.10566000000E+00 0. -1.
     999900   -1    0    0    0    0 -0.00000000000E+00 -0.00000000000E+00 -0.74505805969E-08  0.93827000000E+00  0.93827000000E+00 0.  1.
     999902    2    1    2    0    0 -0.21390111434E-01 -0.10967876225E-01 -0.66411352937E-02  0.10189913582E+01  0.10186861402E+01 0.  0.
     999903    2    3    3    0    0 -0.69269297381E-01 -0.92754515766E-01 -0.60395766799E-01  0.13227210656E+00  0.21133522449E-01 0.  0.
         14    1    1    2    0    0  0.21390111434E-01  0.10967876225E-01  0.66411352937E-02  0.24938641784E-01  0.00000000000E+00 0. -1.
     999901    1    3    3    0    0  0.47879185948E-01  0.81786639541E-01  0.53754631505E-01  0.88671925166E+00  0.88000000000E+00 0. -1.
        -11    1    4    4    0    0 -0.43311393428E-01 -0.40567348567E-01 -0.32292819251E-01  0.67562370197E-01  0.51100000000E-03 0. -1.
         11    1    4    4    0    0 -0.25957903953E-01 -0.52187167199E-01 -0.28102947548E-01  0.64709736360E-01  0.51100000000E-03 0.  1.
</event>
<event>
 8    1  0.1157726E+005  0.1043930E+01  0.7957747E-01            NaN
         13   -1    0    0    0    0  0.00000000000E+00  0.00000000000E+00  0.74505805969E-08  0.10566000000E+00  0.10566000000E+00 0. -1.
     999900   -1    0    0    0    0 -0.00000000000E+00 -0.00000000000E+00 -0.74505805969E-08  0.93827000000E+00  0.93827000000E+00 0. -1.
     999902    2    1    2    0    0 -0.18619516757E-02 -0.10359722987E-01 -0.21751297404E-01  0.10197657772E+01  0.10194794410E+01 0.  0.
     999903    2    3    3    0    0 -0.22906943419E-01 -0.53034713693E-02 -0.12935888326E+00  0.13294682731E+00  0.19704906716E-01 0.  0.
         14    1    1    2    0    0  0.18619516757E-02  0.10359722987E-01  0.21751297404E-01  0.24164222793E-01  0.00000000000E+00 0. -1.
     999901    1    3    3    0    0  0.21044991744E-01 -0.50562516172E-02  0.10760758586E+00  0.88681894989E+00  0.88000000000E+00 0.  1.
        -11    1    4    4    0    0 -0.48400658914E-02  0.23716755135E-03 -0.79104207801E-01  0.79254143734E-01  0.51100000000E-03 0.  1.
         11    1    4    4    0    0 -0.18066877528E-01 -0.55406389207E-02 -0.50254675460E-01  0.53692683579E-01  0.51100000000E-03 0. -1.
</event>
<event>
 8    1  0.1157726E+005  0.1043930E+01  0.7957747E-01            NaN
         13   -1    0    0    0    0  0.00000000000E+00  0.00000000000E+00  0.74505805969E-08  0.10566000000E+00  0.10566000000E+00 0.  1.
     999900   -1    0    0    0    0 -0.00000000000E+00 -0.00000000000E+00 -0.74505805969E-08  0.93827000000E+00  0.93827000000E+00 0.  1.
     999902    2    1    2    0    0 -0.11540198030E-01 -0.45391635053E-02 -0.18109334278E-01  0.10219816934E+01  0.10217459828E+01 0.  0.
     999903    2    3    3    0    0  0.45081184669E-01 -0.11749310100E+00  0.32480084670E-01  0.13151896968E+00  0.20133094464E-01 0.  0.
         14    1    1    2    0    0  0.11540198030E-01  0.45391635053E-02  0.18109334278E-01  0.21948306629E-01  0.00000000000E+00 0.  1.
     999901    1    3    3    0    0 -0.56621382698E-01  0.11295393749E+00 -0.50589418948E-01  0.89046272369E+00  0.88000000000E+00 0.  1.
        -11    1    4    4    0    0  0.38675425021E-01 -0.90596376460E-01  0.32916849170E-01  0.10386179282E+00  0.51100000000E-03 0.  1.
         11    1    4    4    0    0  0.64057596475E-02 -0.26896724537E-01 -0.43676449983E-03  0.27657176857E-01  0.51100000000E-03 0. -1.
</event>
<event>
 8    1  0.1157726E+005  0.1043930E+01  0.7957747E-01            NaN
         13   -1    0    0    0    0  0.00000000000E+00  0.00000000000E+00  0.74505805969E-08  0.10566000000E+00  0.10566000000E+00 0. -1.
     999900   -1    0    0    0    0 -0.00000000000E+00 -0.00000000000E+00 -0.74505805969E-08  0.93827000000E+00  0.93827000000E+00 0.  1.
     999902    2    1    2    0    0 -0.23560568847E-01 -0.37458850949E-03 -0.21198600786E-02  0.10202712907E+01  0.10199969471E+01 0.  0.
     999903    2    3    3    0    0 -0.91094385772E-01  0.92190813006E-01  0.16116437825E-01  0.13265553339E+00  0.23246889028E-01 0.  0.
         14    1    1    2    0    0  0.23560568847E-01  0.37458850949E-03  0.21198600786E-02  0.23658709342E-01  0.00000000000E+00 0. -1.
     999901    1    3    3    0    0  0.67533816925E-01 -0.92565401516E-01 -0.18236297904E-01  0.88761575727E+00  0.88000000000E+00 0.  1.
        -11    1    4    4    0    0 -0.40499577717E-01  0.50664589565E-01  0.17503936811E-01  0.67184561887E-01  0.51100000000E-03 0. -1.
         11    1    4    4    0    0 -0.50594808055E-01  0.41526223441E-01 -0.13874989862E-02  0.65470971505E-01  0.51100000000E-03 0.  1.
</event>
<event>
 8    1  0.1157726E+005  0.1043930E+01  0.7957747E-01            NaN
         13   -1    0    0    0    0  0.00000000000E+00  0.00000000000E+00  0.74505805969E-08  0.10566000000E+00  0.10566000000E+00 0. -1.
     999900   -1    0    0    0    0 -0.00000000000E+00 -0.00000000000E+00 -0.74505805969E-08  0.93827000000E+00  0.93827000000E+00 0.  1.
     999902    2    1    2    0    0  0.17790059564E-01 -0.74851131978E-02 -0.11827444243E-01  0.10212937111E+01  0.10210428212E+01 0.  0.
     999903    2    3    3    0    0  0.12541701659E+00  0.38657778803E-01  0.11811250802E-01  0.13322191428E+00  0.19614303144E-01 0.  0.
         14    1    1    2    0    0 -0.17790059564E-01  0.74851131978E-02  0.11827444243E-01  0.22636288923E-01  0.00000000000E+00 0.  1.
     999901    1    3    3    0    0 -0.10762695702E+00 -0.46142892001E-01 -0.23638695046E-01  0.88807179680E+00  0.88000000000E+00 0. -1.
        -11    1    4    4    0    0  0.97762486001E-01  0.21556712802E-01  0.71026077993E-02  0.10036385651E+00  0.51100000000E-03 0. -1.
         11    1    4    4    0    0  0.27654530586E-01  0.17101066001E-01  0.47086430031E-02  0.32858057767E-01  0.51100000000E-03 0.  1.
</event>
<event>
 8    1  0.1157726E+005  0.1043930E+01  0.7957747E-01            NaN
         13   -1    0    0    0    0  0.00000000000E+00  0.00000000000E+00  0.74505805969E-08  0.10566000000E+00  0.10566000000E+00 0. -1.
     999900   -1    0    0    0    0 -0.00000000000E+00 -0.00000000000E+00 -0.74505805969E-08  0.93827000000E+00  0.93827000000E+00 0. -1.
     999902    2    1    2    0    0 -0.10748982632E-01 -0.20181543894E-01  0.75151993304E-02  0.10198610664E+01  0.10195770110E+01 0.  0.
     999903    2    3    3    0    0 -0.99455629020E-01  0.77667613581E-01 -0.21784965305E-01  0.12952302593E+00  0.19440915370E-01 0.  0.
         14    1    1    2    0    0  0.10748982632E-01  0.20181543894E-01 -0.75151993304E-02  0.24068933557E-01  0.00000000000E+00 0. -1.
     999901    1    3    3    0    0  0.88706646387E-01 -0.97849157475E-01  0.29300164635E-01  0.89033804051E+00  0.88000000000E+00 0. -1.
        -11    1    4    4    0    0 -0.86202732354E-01  0.58674067692E-01 -0.14770325992E-01  0.10531847386E+00  0.51100000000E-03 0. -1.
         11    1    4    4    0    0 -0.13252896666E-01  0.18993545889E-01 -0.70146393129E-02  0.24204552075E-01  0.51100000000E-03 0.  1.
</event>
<event>
 7    1  0.1157726E+005  0.1043930E+01  0.7957747E-01            NaN
         13   -1    0    0    0    0  0.00000000000E+00  0.00000000000E+00  0.74505805969E-08  0.10566000000E+00  0.10566000000E+00 0.  1.
     999900   -1    0    0    0    0 -0.00000000000E+00 -0.00000000000E+00 -0.74505805969E-08  0.93827000000E+00  0.93827000000E+00 0. -1.
     999902    2    1    2    0    0  0.18461258113E-01  0.11079889426E-01 -0.77261516038E-02  0.10210547859E+01  0.10207985112E+01 0.  0.
         14    1    1    2    0    0 -0.18461258113E-01 -0.11079889426E-01  0.77261516038E-02  0.22875214085E-01  0.00000000000E+00 0.  1.
     999901    1    3    3    0    0  0.13481546395E+00  0.24891382977E-01 -0.14974198573E-01  0.89074071249E+00  0.88000000000E+00 0.  1.
        -11    1    3    3    0    0 -0.36946192040E-01  0.13868133362E-01 -0.16731294519E-01  0.42866578665E-01  0.51100000000E-03 0.  1.
         11    1    3    3    0    0 -0.79408013793E-01 -0.27679626912E-01  0.23979341488E-01  0.87447494759E-01  0.51100000000E-03 0. -1.
</event>
<event>
 8    1  0.1157726E+005  0.1043930E+01  0.7957747E-01            NaN
         13   -1    0    0    0    0  0.00000000000E+00  0.00000000000E+00  0.74505805969E-08  0.10566000000E+00  0.10566000000E+00 0. -1.
     999900   -1    0    0    0    0 -0.00000000000E+00 -0.00000000000E+00 -0.74505805969E-08  0.93827000000E+00  0.93827000000E+00 0.  1.
     999902    2    1    2    0    0  0.60121846201E-02  0.22377373918E-01 -0.92912381067E-04  0.10207588572E+01  0.10204958318E+01 0.  0.
     999903    2    3    3    0    0  0.70991812826E-01  0.10139756617E+00  0.46023630175E-01  0.13363244094E+00  0.20448736503E-01 0.  0.
         14    1    1    2    0    0 -0.60121846201E-02 -0.22377373918E-01  0.92912381067E-04  0.23171142831E-01  0.00000000000E+00 0.  1.
     999901    1    3    3    0    0 -0.64979628206E-01 -0.79020192253E-01 -0.46116542556E-01  0.88712641622E+00  0.88000000000E+00 0.  1.
        -11    1    4    4    0    0  0.58906345428E-01  0.70891228657E-01  0.28782036270E-01  0.96561848393E-01  0.51100000000E-03 0. -1.
         11    1    4    4    0    0  0.12085467398E-01  0.30506337515E-01  0.17241593904E-01  0.37070592552E-01  0.51100000000E-03 0.  1.
</event>
<event>
 8    1  0.1157726E+005  0.1043930E+01  0.7957747E-01            NaN
         13   -1    0    0    0    0  0.00000000000E+00  0.00000000000E+00  0.74505805969E-08  0.10566000000E+00  0.10566000000E+00 0. -1.
     999900   -1    0    0    0    0 -0.00000000000E+00 -0.00000000000E+00 -0.74505805969E-08  0.93827000000E+00  0.93827000000E+00 0. -1.
     999902    2    1    2    0    0  0.11189162667E-01  0.11731565247E-01  0.25756574599E-01  0.10134960039E+01  0.10130389537E+01 0.  0.
     999903    2    3    3    0    0 -0.34984549269E-01 -0.10891140759E+00  0.43275027792E-01  0.12389292679E+00  0.19776650078E-01 0.  0.
         14    1    1    2    0    0 -0.11189162667E-01 -0.11731565247E-01 -0.25756574599E-01  0.30433996113E-01  0.00000000000E+00 0.  1.
     999901    1    3    3    0    0  0.46173711936E-01  0.12064297284E+00 -0.17518453193E-01  0.88960307709E+00  0.88000000000E+00 0. -1.
        -11    1    4    4    0    0 -0.31779283689E-01 -0.97614650333E-01  0.31811532138E-01  0.10747454363E+00  0.51100000000E-03 0. -1.
         11    1    4    4    0    0 -0.32052655799E-02 -0.11296757258E-01  0.11463495654E-01  0.16418383160E-01  0.51100000000E-03 0.  1.
</event>
<event>
 8    1  0.1157726E+005  0.1043930E+01  0.7957747E-01            NaN
         13   -1    0    0    0    0  0.00000000000E+00  0.00000000000E+00  0.74505805969E-08  0.10566000000E+00  0.10566000000E+00 0.  1.
     999900   -1    0    0    0    0 -0.00000000000E+00 -0.00000000000E+00 -0.74505805969E-08  0.93827000000E+00  0.93827000000E+00 0. -1.
     999902    2    1    2    0    0  0.10561690784E-01  0.19649118591E-01 -0.64794641599E-02  0.10207002641E+01  0.10204358914E+01 0.  0.
     999903    2    3    3    0    0 -0.13147875325E-01  0.69971148393E-01 -0.11049979246E+00  0.13282939574E+00  0.19094920962E-01 0.  0.
         14    1    1    2    0    0 -0.10561690784E-01 -0.19649118591E-01  0.64794641599E-02  0.23229735888E-01  0.00000000000E+00 0.  1.
     999901    1    3    3    0    0  0.23709566108E-01 -0.50322029802E-01  0.10402032830E+00  0.88787086837E+00  0.88000000000E+00 0.  1.
        -11    1    4    4    0    0  0.23728928646E-03  0.47664090575E-01 -0.69826588847E-01  0.84545463909E-01  0.51100000000E-03 0.  1.
         11    1    4    4    0    0 -0.13385164611E-01  0.22307057819E-01 -0.40673203608E-01  0.48283931830E-01  0.51100000000E-03 0. -1.
</event>
<event>
 8    1  0.1157726E+005  0.1043930E+01  0.7957747E-01            NaN
         13   -1    0    0    0    0  0.00000000000E+00  0.00000000000E+00  0.74505805969E-08  0.10566000000E+00  0.10566000000E+00 0. -1.
     999900   -1    0    0    0    0 -0.00000000000E+00 -0.00000000000E+00 -0.74505805969E-08  0.93827000000E+00  0.93827000000E+00 0.  1.
     999902    2    1    2    0    0 -0.51059508438E-03  0.22074389043E-01  0.10003131077E-01  0.10196894969E+01  0.10194013283E+01 0.  0.
     999903    2    3    3    0    0 -0.85016557495E-01  0.66556030939E-01  0.73543641234E-01  0.13224526171E+00  0.20557766811E-01 0.  0.
         14    1    1    2    0    0  0.51059508438E-03 -0.22074389043E-01 -0.10003131077E-01  0.24240503095E-01  0.00000000000E+00 0. -1.
     999901    1    3    3    0    0  0.84505962411E-01 -0.44481641896E-01 -0.63540510157E-01  0.88744423519E+00  0.88000000000E+00 0.  1.
        -11    1    4    4    0    0 -0.56411741598E-01  0.31372269316E-01  0.44147262835E-01  0.78203234006E-01  0.51100000000E-03 0. -1.
         11    1    4    4    0    0 -0.28604815897E-01  0.35183761623E-01  0.29396378399E-01  0.54042027705E-01  0.51100000000E-03 0.  1.
</event>
<event>
 8    1  0.1157726E+005  0.1043930E+01  0.7957747E-01            NaN
         13   -1    0    0    0    0  0.00000000000E+00  0.00000000000E+00  0.74505805969E-08  0.10566000000E+00  0.10566000000E+00 0. -1.
     999900   -1    0    0    0    0 -0.00000000000E+00 -0.00000000000E+00 -0.74505805969E-08  0.93827000000E+00  0.93827000000E+00 0.  1.
     999902    2    1    2    0    0 -0.16516535792E-02  0.10532234740E-01 -0.25625614038E-01  0.10161752162E+01  0.10157961124E+01 0.  0.
     999903    2    3    3    0    0 -0.10605992459E+00  0.31852034764E-01  0.56304031809E-01  0.12596844934E+00  0.20848177542E-01 0.  0.
         14    1    1    2    0    0  0.16516535792E-02 -0.10532234740E-01  0.25625614038E-01  0.27754783785E-01  0.00000000000E+00 0.  1.
     999901    1    3    3    0    0  0.10440827101E+00 -0.21319800025E-01 -0.81929645847E-01  0.89020676688E+00  0.88000000000E+00 0. -1.
        -11    1    4    4    0    0 -0.76946467357E-01  0.13391370659E-01  0.36553816962E-01  0.86235319344E-01  0.51100000000E-03 0.  1.
         11    1    4    4    0    0 -0.29113457236E-01  0.18460664106E-01  0.19750214847E-01  0.39733129992E-01  0.51100000000E-03 0. -1.
</event>
<event>
 8    1  0.1157726E+005  0.1043930E+01  0.7957747E-01            NaN
         13   -1    0    0    0    0  0.00000000000E+00  0.00000000000E+00  0.74505805969E-08  0.10566000000E+00  0.10566000000E+00 0. -1.
     999900   -1    0    0    0    0 -0.00000000000E+00 -0.00000000000E+00 -0.74505805969E-08  0.93827000000E+00  0.93827000000E+00 0. -1.
     999902    2    1    2    0    0 -0.80199267890E-02  0.13468193721E-01 -0.24924986879E-01  0.10144857062E+01  0.10140583226E+01 0.  0.
     999903    2    3    3    0    0 -0.71209577139E-01  0.47577173945E-01  0.87720769390E-01  0.12440401282E+00  0.21143170682E-01 0.  0.
         14    1    1    2    0    0  0.80199267890E-02 -0.13468193721E-01  0.24924986879E-01  0.29444293823E-01  0.00000000000E+00 0.  1.
     999901    1    3    3    0    0  0.63189650350E-01 -0.34108980224E-01 -0.11264575627E+00  0.89008169336E+00  0.88000000000E+00 0. -1.
        -11    1    4    4    0    0 -0.29844833386E-01  0.19748965297E-01  0.51768673049E-01  0.62936415058E-01  0.51100000000E-03 0.  1.
         11    1    4    4    0    0 -0.41364743753E-01  0.27828208648E-01  0.35952096341E-01  0.61467597762E-01  0.51100000000E-03 0. -1.
</event>
<event>
 8    1  0.1157726E+005  0.1043930E+01  0.7957747E-01            NaN
         13   -1    0    0    0    0  0.00000000000E+00  0.00000000000E+00  0.74505805969E-08  0.10566000000E+00  0.10566000000E+00 0. -1.
     999900   -1    0    0    0    0 -0.00000000000E+00 -0.00000000000E+00 -0.74505805969E-08  0.93827000000E+00  0.93827000000E+00 0.  1.
     999902    2    1    2    0    0  0.18078710160E-02 -0.36712079125E-02 -0.24459248240E-01  0.10191307865E+01  0.10188290136E+01 0.  0.
     999903    2    3    3    0    0 -0.44559998039E-01  0.97118640846E-01  0.66679748825E-01  0.12749471183E+00  0.19775965604E-01 0.  0.
         14    1    1    2    0    0 -0.18078710160E-02  0.36712079125E-02  0.24459248240E-01  0.24799213488E-01  0.00000000000E+00 0. -1.
     999901    1    3    3    0    0  0.46367869055E-01 -0.10078984876E+00 -0.91138997065E-01  0.89163607468E+00  0.88000000000E+00 0.  1.
        -11    1    4    4    0    0 -0.16791649689E-01  0.58206660367E-01  0.41780378636E-01  0.73592363532E-01  0.51100000000E-03 0. -1.
         11    1    4    4    0    0 -0.27768348350E-01  0.38911980479E-01  0.24899370189E-01  0.53902348295E-01  0.51100000000E-03 0.  1.
</event>
<event>
 8    1  0.1157726E+005  0.1043930E+01  0.7957747E-01            NaN
         13   -1    0    0    0    0  0.00000000000E+00  0.00000000000E+00  0.74505805969E-08  0.10566000000E+00  0.10566000000E+00 0.  1.
     999900   -1    0    0    0    0 -0.00000000000E+00 -0.00000000000E+00 -0.74505805969E-08  0.93827000000E+00  0.93827000000E+00 0. -1.
     999902    2    1    2    0    0  0.93617336064E-02  0.20560512009E-01 -0.82962528252E-02  0.10198633317E+01  0.10195793304E+01 0.  0.
     999903    2    3    3    0    0  0.85396320490E-01  0.10221690587E-01 -0.97680891754E-01  0.13201325244E+00  0.22111709459E-01 0.  0.
         14    1    1    2    0    0 -0.93617336064E-02 -0.20560512009E-01  0.82962528252E-02  0.24066668260E-01  0.00000000000E+00 0.  1.
     999901    1    3    3    0    0 -0.76034586883E-01  0.10338821421E-01  0.89384638929E-01  0.88785007930E+00  0.88000000000E+00 0.  1.
        -11    1    4    4    0    0  0.30749637890E-01  0.95818694862E-02 -0.50037122666E-01  0.59509051571E-01  0.51100000000E-03 0. -1.
         11    1    4    4    0    0  0.54646682600E-01  0.63982110129E-03 -0.47643769088E-01  0.72504200872E-01  0.51100000000E-03 0.  1.
</event>
<event>
 8    1  0.1157726E+005  0.1043930E+01  0.7957747E-01            NaN
         13   -1    0    0    0    0  0.00000000000E+00  0.00000000000E+00  0.74505805969E-08  0.10566000000E+00  0.10566000000E+00 0. -1.
     999900   -1    0    0    0    0 -0.00000000000E+00 -0.00000000000E+00 -0.74505805969E-08  0.93827000000E+00  0.93827000000E+00 0.  1.
     999902    2    1    2    0    0  0.23202984763E-01 -0.54777033757E-02 -0.27736202929E-02  0.10199284020E+01  0.10196459525E+01 0.  0.
     999903    2    3    3    0    0 -0.17265810523E-01 -0.90606698798E-01 -0.89165528021E-01  0.13068814710E+00  0.24924251722E-01 0.  0.
         14    1    1    2    0    0 -0.23202984763E-01  0.54777033757E-02  0.27736202929E-02  0.24001597982E-01  0.00000000000E+00 0. -1.
     999901    1    3    3    0    0  0.40468795286E-01  0.85128995422E-01  0.86391907728E-01  0.88924025492E+00  0.88000000000E+00 0. -1.
        -11    1    4    4    0    0 -0.15566238941E-01 -0.61147780863E-01 -0.44733737893E-01  0.77348091936E-01  0.51100000000E-03 0.  1.
         11    1    4    4    0    0 -0.16995715822E-02 -0.29458917935E-01 -0.44431790128E-01  0.53340055159E-01  0.51100000000E-03 0. -1.
</event>
<event>
 8    1  0.1157726E+005  0.1043930E+01  0.7957747E-01            NaN
         13   -1    0    0    0    0  0.00000000000E+00  0.00000000000E+00  0.74505805969E-08  0.10566000000E+00  0.10566000000E+00 0. -1.
     999900   -1    0    0    0    0 -0.00000000000E+00 -0.00000000000E+00 -0.74505805969E-08  0.93827000000E+00  0.93827000000E+00 0.  1.
     999902    2    1    2    0    0  0.79745865780E-02  0.11262556802E-01 -0.19049177771E-01  0.10204074493E+01  0.10201362910E+01 0.  0.
     999903    2    3    3    0    0 -0.11453885728E+00  0.26562496128E-01 -0.54290899141E-01  0.13108995202E+00  0.20306594087E-01 0.  0.
         14    1    1    2    0    0 -0.79745865780E-02 -0.11262556802E-01  0.19049177771E-01  0.23522550681E-01  0.00000000000E+00 0. -1.
     999901    1    3    3    0    0  0.12251344386E+00 -0.15299939326E-01  0.35241721370E-01  0.88931749730E+00  0.88000000000E+00 0.  1.
        -11    1    4    4    0    0 -0.93327778987E-01  0.13551812193E-01 -0.40506822937E-01  0.10263912397E+00  0.51100000000E-03 0. -1.
         11    1    4    4    0    0 -0.21211078297E-01  0.13010683935E-01 -0.13784076204E-01  0.28450828051E-01  0.51100000000E-03 0.  1.
</event>
<event>
 8    1  0.1157726E+005  0.1043930E+01  0.7957747E-01            NaN
         13   -1    0    0    0    0  0.00000000000E+00  0.00000000000E+00  0.74505805969E-08  0.10566000000E+00  0.10566000000E+00 0.  1.
     999900   -1    0    0    0    0 -0.00000000000E+00 -0.00000000000E+00 -0.74505805969E-08  0.93827000000E+00  0.93827000000E+00 0. -1.
     999902    2    1    2    0    0  0.80886863411E-02  0.18001584549E-01 -0.13031716161E-01  0.10202802744E+01  0.10200061416E+01 0.  0.
     999903    2    3    3    0    0 -0.59151671152E-01 -0.62435388552E-02 -0.11553437424E+00  0.13145189584E+00  0.19837018713E-01 0.  0.
         14    1    1    2    0    0 -0.80886863411E-02 -0.18001584549E-01  0.13031716161E-01  0.23649725560E-01  0.00000000000E+00 0.  1.
     999901    1    3    3    0    0  0.67240357493E-01  0.24245123404E-01  0.10250265808E+00  0.88882837860E+00  0.88000000000E+00 0.  1.
        -11    1    4    4    0    0 -0.20066916170E-01 -0.39887337391E-02 -0.60824699696E-01  0.64175511961E-01  0.51100000000E-03 0. -1.
         11    1    4    4    0    0 -0.39084754981E-01 -0.22548051162E-02 -0.54709674548E-01  0.67276383882E-01  0.51100000000E-03 0.  1.
</event>
<event>
 8    1  0.1157726E+005  0.1043930E+01  0.7957747E-01            NaN
         13   -1    0    0    0    0  0.00000000000E+00  0.00000000000E+00  0.74505805969E-08  0.10566000000E+00  0.10566000000E+00 0.  1.
     999900   -1    0    0    0    0 -0.00000000000E+00 -0.00000000000E+00 -0.74505805969E-08  0.93827000000E+00  0.93827000000E+00 0.  1.
     999902    2    1    2    0    0  0.21349647975E-01  0.69421039305E-02 -0.58284086166E-02  0.10207358063E+01  0.10204722513E+01 0.  0.
     999903    2    3    3    0    0  0.79783636957E-01 -0.92969500596E-01  0.43977489231E-01  0.13176027947E+00  0.20444924085E-01 0.  0.
         14    1    1    2    0    0 -0.21349647975E-01 -0.69421039305E-02  0.58284086166E-02  0.23194193727E-01  0.00000000000E+00 0.  1.
     999901    1    3    3    0    0 -0.58433988982E-01  0.99911604527E-01 -0.49805897847E-01  0.88897552680E+00  0.88000000000E+00 0.  1.
        -11    1    4    4    0    0  0.38712960815E-01 -0.50080478461E-01  0.12407063762E-01  0.64505379699E-01  0.51100000000E-03 0.  1.
         11    1    4    4    0    0  0.41070676142E-01 -0.42889022135E-01  0.31570425468E-01  0.67254899775E-01  0.51100000000E-03 0. -1.
</event>
<event>
 8    1  0.1157726E+005  0.1043930E+01  0.7957747E-01            NaN
         13   -1    0    0    0    0  0.00000000000E+00  0.00000000000E+00  0.74505805969E-08  0.10566000000E+00  0.10566000000E+00 0.  1.
     999900   -1    0    0    0    0 -0.00000000000E+00 -0.00000000000E+00 -0.74505805969E-08  0.93827000000E+00  0.93827000000E+00 0.  1.
     999902    2    1    2    0    0 -0.14641207466E-02 -0.11473885594E-01  0.19403677658E-01  0.10213402588E+01  0.10210904112E+01 0.  0.
     999903    2    3    3    0    0 -0.10360340877E+00  0.15403364361E-01 -0.74500678066E-01  0.13006429215E+00  0.19885651049E-01 0.  0.
         14    1    1    2    0    0  0.14641207466E-02  0.11473885594E-01 -0.19403677658E-01  0.22589741186E-01  0.00000000000E+00 0. -1.
     999901    1    3    3    0    0  0.10213928803E+00 -0.26877249955E-01  0.93904355725E-01  0.89127596666E+00  0.88000000000E+00 0. -1.
        -11    1    4    4    0    0 -0.43336998682E-01  0.59831015950E-02 -0.43269635492E-01  0.61533856015E-01  0.51100000000E-03 0.  1.
         11    1    4    4    0    0 -0.60266410092E-01  0.94202627664E-02 -0.31231042574E-01  0.68530436137E-01  0.51100000000E-03 0. -1.
</event>
<event>
 8    1  0.1157726E+005  0.1043930E+01  0.7957747E-01            NaN
         13   -1    0    0    0    0  0.00000000000E+00  0.00000000000E+00  0.74505805969E-08  0.10566000000E+00  0.10566000000E+00 0. -1.
     999900   -1    0    0    0    0 -0.00000000000E+00 -0.00000000000E+00 -0.74505805969E-08  0.93827000000E+00  0.93827000000E+00 0. -1.
     999902    2    1    2    0    0  0.12003501063E-01  0.16309863419E-01 -0.12861041445E-01  0.10199403758E+01  0.10196582114E+01 0.  0.
     999903    2    3    3    0    0 -0.77052356617E-01  0.95125610192E-01 -0.43172000460E-01  0.13142384699E+00  0.20553796691E-01 0.  0.
         14    1    1    2    0    0 -0.12003501063E-01 -0.16309863419E-01  0.12861041445E-01  0.23989624207E-01  0.00000000000E+00 0. -1.
     999901    1    3    3    0    0  0.89055857680E-01 -0.78815746773E-01  0.30310959015E-01  0.88851652881E+00  0.88000000000E+00 0.  1.
        -11    1    4    4    0    0 -0.50040917637E-01  0.73790773982E-01 -0.25534683599E-01  0.92744018407E-01  0.51100000000E-03 0.  1.
         11    1    4    4    0    0 -0.27011438980E-01  0.21334836210E-01 -0.17637316861E-01  0.38679828579E-01  0.51100000000E-03 0. -1.
</event>
<event>
 8    1  0.1157726E+005  0.1043930E+01  0.7957747E-01            NaN
         13   -1    0    0    0    0  0.00000000000E+00  0.00000000000E+00  0.74505805969E-08  0.10566000000E+00  0.10566000000E+00 0.  1.
     999900   -1    0    0    0    0 -0.00000000000E+00 -0.00000000000E+00 -0.74505805969E-08  0.93827000000E+00  0.93827000000E+00 0. -1.
     999902    2    1    2    0    0 -0.71158901866E-02  0.21282924588E-01 -0.83173361638E-02  0.10199972431E+01  0.10197164307E+01 0.  0.
     999903    2    3    3    0    0 -0.40190570069E-01  0.73343452385E-01  0.10011516321E+00  0.13119926834E+00  0.13987786772E-01 0.  0.
         14    1    1    2    0    0  0.71158901866E-02 -0.21282924588E-01  0.83173361638E-02  0.23932756904E-01  0.00000000000E+00 0.  1.
     999901    1    3    3    0    0  0.33074679882E-01 -0.52060527797E-01 -0.10843249937E+00  0.88879797475E+00  0.88000000000E+00 0. -1.
        -11    1    4    4    0    0 -0.30958972352E-01  0.56948056773E-01  0.85893185995E-01  0.10760780483E+00  0.51100000000E-03 0.  1.
         11    1    4    4    0    0 -0.92315977169E-02  0.16395395612E-01  0.14221977216E-01  0.23591463512E-01  0.51100000000E-03 0. -1.
</event>
<event>
 8    1  0.1256992E+005  0.1043930E+01  0.7957747E-01            NaN
         13   -1    0    0    0    0  0.00000000000E+00  0.00000000000E+00  0.74505805969E-08  0.10566000000E+00  0.10566000000E+00 0.  1.
     999900   -1    0    0    0    0 -0.00000000000E+00 -0.00000000000E+00 -0.74505805969E-08  0.93827000000E+00  0.93827000000E+00 0. -1.
     999902    2    1    2    0    0  0.41267666507E-02  0.92519611129E-02  0.20697079503E-01  0.10208866043E+01  0.10206265040E+01 0.  0.
     999903    2    3    3    0    0  0.40115831498E-01 -0.12088541540E+00  0.20962446232E-01  0.13058832841E+00  0.19781905187E-01 0.  0.
         14    1    1    2    0    0 -0.41267666507E-02 -0.92519611129E-02 -0.20697079503E-01  0.23043395743E-01  0.00000000000E+00 0.  1.
     999901    1    3    3    0    0 -0.35989064847E-01  0.13013737651E+00 -0.26536672881E-03  0.89029827585E+00  0.88000000000E+00 0.  1.
        -11    1    4    4    0    0  0.20322537149E-01 -0.88321562515E-01  0.11841955083E-01  0.91401296175E-01  0.51100000000E-03 0. -1.
         11    1    4    4    0    0  0.19793294349E-01 -0.32563852882E-01  0.91204911492E-02  0.39187032237E-01  0.51100000000E-03 0.  1.
</event>
<event>
 8    1  0.1157726E+005  0.1043930E+01  0.7957747E-01            NaN
         13   -1    0    0    0    0  0.00000000000E+00  0.00000000000E+00  0.74505805969E-08  0.10566000000E+00  0.10566000000E+00 0. -1.
     999900   -1    0    0    0    0 -0.00000000000E+00 -0.00000000000E+00 -0.74505805969E-08  0.93827000000E+00  0.93827000000E+00 0.  1.
     999902    2    1    2    0    0  0.28710417061E-02  0.18373263334E-01 -0.12914490309E-01  0.10212892459E+01  0.10210382559E+01 0.  0.
     999903    2    3    3    0    0  0.12156691427E+00  0.37595361940E-01 -0.32801700180E-01  0.13288972972E+00  0.19794010382E-01 0.  0.
         14    1    1    2    0    0 -0.28710417061E-02 -0.18373263334E-01  0.12914490309E-01  0.22640754095E-01  0.00000000000E+00 0. -1.
     999901    1    3    3    0    0 -0.11869587256E+00 -0.19222098606E-01  0.19887209870E-01  0.88839951618E+00  0.88000000000E+00 0.  1.
        -11    1    4    4    0    0  0.59632057005E-01  0.92619591443E-02 -0.10752125222E-01  0.61299554873E-01  0.51100000000E-03 0.  1.
         11    1    4    4    0    0  0.61934857263E-01  0.28333402796E-01 -0.22049574958E-01  0.71590174849E-01  0.51100000000E-03 0. -1.
</event>
<event>
 8    1  0.1157726E+005  0.1043930E+01  0.7957747E-01            NaN
         13   -1    0    0    0    0  0.00000000000E+00  0.00000000000E+00  0.74505805969E-08  0.10566000000E+00  0.10566000000E+00 0.  1.
     999900   -1    0    0    0    0 -0.00000000000E+00 -0.00000000000E+00 -0.74505805969E-08  0.93827000000E+00  0.93827000000E+00 0.  1.
     999902    2    1    2    0    0  0.20685349494E-01 -0.25429120914E-02  0.86449511601E-02  0.10213670821E+01  0.10211178341E+01 0.  0.
     999903    2    3    3    0    0 -0.97058061997E-01 -0.83242423079E-01  0.10080531062E-01  0.12986386674E+00  0.20333184213E-01 0.  0.
         14    1    1    2    0    0 -0.20685349494E-01  0.25429120914E-02 -0.86449511601E-02  0.22562917944E-01  0.00000000000E+00 0. -1.
     999901    1    3    3    0    0  0.11774341149E+00  0.80699510988E-01 -0.14355799017E-02  0.89150321531E+00  0.88000000000E+00 0. -1.
        -11    1    4    4    0    0 -0.12558368384E-01 -0.14457520991E-01 -0.51735609820E-02  0.19843371284E-01  0.51100000000E-03 0. -1.
         11    1    4    4    0    0 -0.84499693614E-01 -0.68784902088E-01  0.15254092044E-01  0.11002049546E+00  0.51100000000E-03 0.  1.
</event>
<event>
 8    1  0.1157726E+005  0.1043930E+01  0.7957747E-01            NaN
         13   -1    0    0    0    0  0.00000000000E+00  0.00000000000E+00  0.74505805969E-08  0.10566000000E+00  0.10566000000E+00 0.  1.
     999900   -1    0    0    0    0 -0.00000000000E+00 -0.00000000000E+00 -0.74505805969E-08  0.93827000000E+00  0.93827000000E+00 0. -1.
     999902    2    1    2    0    0  0.19793581561E-01  0.54221432255E-02 -0.11925286692E-01  0.10201939942E+01  0.10199178339E+01 0.  0.
     999903    2    3    3    0    0  0.10788457381E+00 -0.56469627487E-01 -0.49264626224E-01  0.13284691416E+00  0.19834291284E-01 0.  0.
         14    1    1    2    0    0 -0.19793581561E-01 -0.54221432255E-02  0.11925286692E-01  0.23736005790E-01  0.00000000000E+00 0.  1.
     999901    1    3    3    0    0 -0.88090992246E-01  0.61891770712E-01  0.37339339531E-01  0.88734708005E+00  0.88000000000E+00 0. -1.
        -11    1    4    4    0    0  0.25878476955E-01 -0.22243495681E-01 -0.90501041013E-02  0.35307707018E-01  0.51100000000E-03 0.  1.
         11    1    4    4    0    0  0.82006096852E-01 -0.34226131806E-01 -0.40214522123E-01  0.97539207142E-01  0.51100000000E-03 0. -1.
</event>
<event>
 8    1  0.1157726E+005  0.1043930E+01  0.7957747E-01            NaN
         13   -1    0    0    0    0  0.00000000000E+00  0.00000000000E+00  0.74505805969E-08  0.10566000000E+00  0.10566000000E+00 0.  1.
     999900   -1    0    0    0    0 -0.00000000000E+00 -0.00000000000E+00 -0.74505805969E-08  0.93827000000E+00  0.93827000000E+00 0.  1.
     999902    2    1    2    0    0 -0.58800595839E-02  0.15623444526E-01 -0.76555913170E-02  0.10255649463E+01  0.10254004992E+01 0.  0.
     999903    2    3    3    0    0 -0.11324895057E+00  0.70477166855E-01 -0.26108308086E-01  0.13715202857E+00  0.18348823886E-01 0.  0.
         14    1    1    2    0    0  0.58800595839E-02 -0.15623444526E-01  0.76555913170E-02  0.18365053715E-01  0.00000000000E+00 0. -1.
     999901    1    3    3    0    0  0.10736889098E+00 -0.54853722330E-01  0.18452716769E-01  0.88841291771E+00  0.88000000000E+00 0.  1.
        -11    1    4    4    0    0 -0.56248659073E-01  0.44585153661E-01 -0.18184517573E-01  0.74045157673E-01  0.51100000000E-03 0.  1.
         11    1    4    4    0    0 -0.57000291492E-01  0.25892013195E-01 -0.79237905129E-02  0.63106870898E-01  0.51100000000E-03 0. -1.
</event>
<event>
 8    1  0.1157726E+005  0.1043930E+01  0.7957747E-01            NaN
         13   -1    0    0    0    0  0.00000000000E+00  0.00000000000E+00  0.74505805969E-08  0.10566000000E+00  0.10566000000E+00 0. -1.
     999900   -1    0    0    0    0 -0.00000000000E+00 -0.00000000000E+00 -0.74505805969E-08  0.93827000000E+00  0.93827000000E+00 0. -1.
     999902    2    1    2    0    0  0.16546727473E-01  0.81993353451E-02  0.12575259026E-01  0.10215881015E+01  0.10213437661E+01 0.  0.
     999903    2    3    3    0    0 -0.75723992575E-01 -0.10364939843E+00  0.21535764812E-02  0.12966173877E+00  0.18171619671E-01 0.  0.
         14    1    1    2    0    0 -0.16546727473E-01 -0.81993353451E-02 -0.12575259026E-01  0.22341898525E-01  0.00000000000E+00 0.  1.
     999901    1    3    3    0    0  0.92270720047E-01  0.11184873378E+00  0.10421682544E-01  0.89192636271E+00  0.88000000000E+00 0.  1.
        -11    1    4    4    0    0 -0.42568549603E-01 -0.66693455593E-01 -0.59809053423E-02  0.79348161818E-01  0.51100000000E-03 0.  1.
         11    1    4    4    0    0 -0.33155442971E-01 -0.36955942840E-01  0.81344818235E-02  0.50313576949E-01  0.51100000000E-03 0. -1.
</event>
<event>
 8    1  0.1157726E+005  0.1043930E+01  0.7957747E-01            NaN
         13   -1    0    0    0    0  0.00000000000E+00  0.00000000000E+00  0.74505805969E-08  0.10566000000E+00  0.10566000000E+00 0. -1.
     999900   -1    0    0    0    0 -0.00000000000E+00 -0.00000000000E+00 -0.74505805969E-08  0.93827000000E+00  0.93827000000E+00 0.  1.
     999902    2    1    2    0    0  0.42897162000E-02  0.81205946357E-02  0.22224909742E-01  0.10198822904E+01  0.10195987417E+01 0.  0.
     999903    2    3    3    0    0 -0.19855970667E-01 -0.90464348604E-01 -0.85313238447E-01  0.12754465336E+00  0.20278856138E-01 0.  0.
         14    1    1    2    0    0 -0.42897162000E-02 -0.81205946357E-02 -0.22224909742E-01  0.24047709566E-01  0.00000000000E+00 0.  1.
     999901    1    3    3    0    0  0.24145686867E-01  0.98584943239E-01  0.10753814819E+00  0.89233763708E+00  0.88000000000E+00 0. -1.
        -11    1    4    4    0    0 -0.67579417818E-02 -0.62227504449E-01 -0.47574010263E-01  0.78622386511E-01  0.51100000000E-03 0. -1.
         11    1    4    4    0    0 -0.13098028885E-01 -0.28236844154E-01 -0.37739228184E-01  0.48922266847E-01  0.51100000000E-03 0.  1.
</event>
<event>
 8    1  0.1157726E+005  0.1043930E+01  0.7957747E-01            NaN
         13   -1    0    0    0    0  0.00000000000E+00  0.00000000000E+00  0.74505805969E-08  0.10566000000E+00  0.10566000000E+00 0.  1.
     999900   -1    0    0    0    0 -0.00000000000E+00 -0.00000000000E+00 -0.74505805969E-08  0.93827000000E+00  0.93827000000E+00 0.  1.
     999902    2    1    2    0    0 -0.10982061674E-01 -0.15189339686E-01  0.14118120356E-01  0.10204642155E+01  0.10201943796E+01 0.  0.
     999903    2    3    3    0    0  0.98728732172E-01 -0.83302632425E-01 -0.57387695718E-02  0.13081812015E+00  0.19843284974E-01 0.  0.
         14    1    1    2    0    0  0.10982061674E-01  0.15189339686E-01 -0.14118120356E-01  0.23465784476E-01  0.00000000000E+00 0. -1.
     999901    1    3    3    0    0 -0.10971079385E+00  0.68113292739E-01  0.19856889927E-01  0.88964609537E+00  0.88000000000E+00 0.  1.
        -11    1    4    4    0    0  0.27938217118E-01 -0.19448782606E-01  0.66268602469E-02  0.34683937468E-01  0.51100000000E-03 0.  1.
         11    1    4    4    0    0  0.70790515054E-01 -0.63853849819E-01 -0.12365629819E-01  0.96134182683E-01  0.51100000000E-03 0. -1.
</event>
<event>
 8    1  0.1157726E+005  0.1043930E+01  0.7957747E-01            NaN
         13   -1    0    0    0    0  0.00000000000E+00  0.00000000000E+00  0.74505805969E-08  0.10566000000E+00  0.10566000000E+00 0.  1.
     999900   -1    0    0    0    0 -0.00000000000E+00 -0.00000000000E+00 -0.74505805969E-08  0.93827000000E+00  0.93827000000E+00 0. -1.
     999902    2    1    2    0    0  0.38420064874E-02  0.40327766544E-02  0.22966763722E-01  0.10202974687E+01  0.10200237390E+01 0.  0.
     999903    2    3    3    0    0 -0.12244421204E-02 -0.12158596454E+00 -0.38778731282E-01  0.12922045561E+00  0.20235862140E-01 0.  0.
         14    1    1    2    0    0 -0.38420064874E-02 -0.40327766544E-02 -0.22966763722E-01  0.23632531334E-01  0.00000000000E+00 0. -1.
     999901    1    3    3    0    0  0.50664486078E-02  0.12561874120E+00  0.61745495004E-01  0.89107701305E+00  0.88000000000E+00 0.  1.
        -11    1    4    4    0    0 -0.79602480964E-02 -0.24617506847E-01 -0.53126191386E-02  0.26417271551E-01  0.51100000000E-03 0. -1.
         11    1    4    4    0    0  0.67358059760E-02 -0.96968457695E-01 -0.33466112143E-01  0.10280318406E+00  0.51100000000E-03 0.  1.
</event>
<event>
 8    1  0.1157726E+005  0.1043930E+01  0.7957747E-01            NaN
         13   -1    0    0    0    0  0.00000000000E+00  0.00000000000E+00  0.74505805969E-08  0.10566000000E+00  0.10566000000E+00 0.  1.
     999900   -1    0    0    0    0 -0.00000000000E+00 -0.00000000000E+00 -0.74505805969E-08  0.93827000000E+00  0.93827000000E+00 0. -1.
     999902    2    1    2    0    0  0.23203675163E-01  0.26062293128E-02 -0.53818861516E-02  0.10199682039E+01  0.10196867016E+01 0.  0.
     999903    2    3    3    0    0  0.10908206182E+00  0.48049693471E-01 -0.55875429468E-01  0.13318198186E+00  0.20191766174E-01 0.  0.
         14    1    1    2    0    0 -0.23203675163E-01 -0.26062293128E-02  0.53818861516E-02  0.23961796069E-01  0.00000000000E+00 0.  1.
     999901    1    3    3    0    0 -0.85878386659E-01 -0.45443464159E-01  0.50493543317E-01  0.88678622207E+00  0.88000000000E+00 0.  1.
        -11    1    4    4    0    0  0.14361423223E-01  0.57918409744E-02 -0.26990385829E-03  0.15496124288E-01  0.51100000000E-03 0.  1.
         11    1    4    4    0    0  0.94720638599E-01  0.42257852497E-01 -0.55605525610E-01  0.11768585758E+00  0.51100000000E-03 0. -1.
</event>
<event>
 8    1  0.1680135E+005  0.1043930E+01  0.7957747E-01            NaN
         13   -1    0    0    0    0  0.00000000000E+00  0.00000000000E+00  0.74505805969E-08  0.10566000000E+00  0.10566000000E+00 0. -1.
     999900   -1    0    0    0    0 -0.00000000000E+00 -0.00000000000E+00 -0.74505805969E-08  0.93827000000E+00  0.93827000000E+00 0. -1.
     999902    2    1    2    0    0 -0.18993518606E-01 -0.90996706234E-02 -0.15611289820E-01  0.10177141627E+01  0.10173764529E+01 0.  0.
     999903    2    3    3    0    0 -0.12145389399E-01 -0.20733426689E-01 -0.12686562537E+00  0.13060663354E+00  0.19642310397E-01 0.  0.
         14    1    1    2    0    0  0.18993518606E-01  0.90996706234E-02  0.15611289820E-01  0.26215837281E-01  0.00000000000E+00 0. -1.
     999901    1    3    3    0    0 -0.68481292072E-02  0.11633756066E-01  0.11125433555E+00  0.88710752918E+00  0.88000000000E+00 0.  1.
        -11    1    4    4    0    0 -0.14655430620E-01 -0.11168331153E-01 -0.53735141269E-01  0.56808800336E-01  0.51100000000E-03 0.  1.
         11    1    4    4    0    0  0.25100412205E-02 -0.95650955364E-02 -0.73130484099E-01  0.73797833201E-01  0.51100000000E-03 0. -1.
</event>
<event>
 8    1  0.1157726E+005  0.1043930E+01  0.7957747E-01            NaN
         13   -1    0    0    0    0  0.00000000000E+00  0.00000000000E+00  0.74505805969E-08  0.10566000000E+00  0.10566000000E+00 0.  1.
     999900   -1    0    0    0    0 -0.00000000000E+00 -0.00000000000E+00 -0.74505805969E-08  0.93827000000E+00  0.93827000000E+00 0.  1.
     999902    2    1    2    0    0  0.29812227764E-02  0.74343845492E-02  0.22803986990E-01  0.10197601927E+01  0.10194737226E+01 0.  0.
     999903    2    3    3    0    0 -0.21880156131E-01  0.12670744668E+00  0.16608923598E-01  0.13134445086E+00  0.21023561879E-01 0.  0.
         14    1    1    2    0    0 -0.29812227764E-02 -0.74343845492E-02 -0.22803986990E-01  0.24169807312E-01  0.00000000000E+00 0. -1.
     999901    1    3    3    0    0  0.24861378908E-01 -0.11927306213E+00  0.61950633920E-02  0.88841574182E+00  0.88000000000E+00 0.  1.
        -11    1    4    4    0    0 -0.41005573713E-02  0.77139976419E-01  0.14771624130E-01  0.78650190929E-01  0.51100000000E-03 0.  1.
         11    1    4    4    0    0 -0.17779598760E-01  0.49567470257E-01  0.18372994686E-02  0.52694259935E-01  0.51100000000E-03 0. -1.
</event>
<event>
 8    1  0.1157726E+005  0.1043930E+01  0.7957747E-01            NaN
         13   -1    0    0    0    0  0.00000000000E+00  0.00000000000E+00  0.74505805969E-08  0.10566000000E+00  0.10566000000E+00 0. -1.
     999900   -1    0    0    0    0 -0.00000000000E+00 -0.00000000000E+00 -0.74505805969E-08  0.93827000000E+00  0.93827000000E+00 0.  1.
     999902    2    1    2    0    0 -0.54367463200E-02 -0.32292212205E-02  0.22810308189E-01  0.10202594225E+01  0.10199848003E+01 0.  0.
     999903    2    3    3    0    0 -0.65563348052E-01  0.10406918432E+00 -0.36126709950E-01  0.12975297771E+00  0.20043660354E-01 0.  0.
         14    1    1    2    0    0  0.54367463200E-02  0.32292212205E-02 -0.22810308189E-01  0.23670577516E-01  0.00000000000E+00 0.  1.
     999901    1    3    3    0    0  0.60126601732E-01 -0.10729840554E+00  0.58937018139E-01  0.89050644477E+00  0.88000000000E+00 0. -1.
        -11    1    4    4    0    0 -0.44992011797E-01  0.82333801615E-01 -0.20710059633E-01  0.96084877608E-01  0.51100000000E-03 0.  1.
         11    1    4    4    0    0 -0.20571336255E-01  0.21735382709E-01 -0.15416650316E-01  0.33668100107E-01  0.51100000000E-03 0. -1.
</event>
<event>
 8    1  0.1157726E+005  0.1043930E+01  0.7957747E-01            NaN
         13   -1    0    0    0    0  0.00000000000E+00  0.00000000000E+00  0.74505805969E-08  0.10566000000E+00  0.10566000000E+00 0. -1.
     999900   -1    0    0    0    0 -0.00000000000E+00 -0.00000000000E+00 -0.74505805969E-08  0.93827000000E+00  0.93827000000E+00 0. -1.
     999902    2    1    2    0    0 -0.62513862164E-02  0.22375058334E-01 -0.57372451727E-02  0.10200001223E+01  0.10197193783E+01 0.  0.
     999903    2    3    3    0    0  0.79999128534E-01  0.96160875670E-01 -0.37803246461E-01  0.13213091651E+00  0.19563207271E-01 0.  0.
         14    1    1    2    0    0  0.62513862164E-02 -0.22375058334E-01  0.57372451727E-02  0.23929877710E-01  0.00000000000E+00 0. -1.
     999901    1    3    3    0    0 -0.86250514751E-01 -0.73785817336E-01  0.32066001288E-01  0.88786920578E+00  0.88000000000E+00 0.  1.
        -11    1    4    4    0    0  0.72281074006E-02  0.19488949327E-01 -0.82379693465E-02  0.22364926614E-01  0.51100000000E-03 0.  1.
         11    1    4    4    0    0  0.72771021134E-01  0.76671926342E-01 -0.29565277114E-01  0.10976598990E+00  0.51100000000E-03 0. -1.
</event>
<event>
 8    1  0.1157726E+005  0.1043930E+01  0.7957747E-01            NaN
         13   -1    0    0    0    0  0.00000000000E+00  0.00000000000E+00  0.74505805969E-08  0.10566000000E+00  0.10566000000E+00 0.  1.
     999900   -1    0    0    0    0 -0.00000000000E+00 -0.00000000000E+00 -0.74505805969E-08  0.93827000000E+00  0.93827000000E+00 0.  1.
     999902    2    1    2    0    0 -0.18924413124E-01 -0.13556143100E-01  0.65865699048E-02  0.10197373290E+01  0.10194503101E+01 0.  0.
     999903    2    3    3    0    0  0.16779885067E-01 -0.81778310255E-01 -0.97804214880E-01  0.13022819640E+00  0.20602478448E-01 0.  0.
         14    1    1    2    0    0  0.18924413124E-01  0.13556143100E-01 -0.65865699048E-02  0.24192671017E-01  0.00000000000E+00 0. -1.
     999901    1    3    3    0    0 -0.35704298191E-01  0.68222167156E-01  0.10439078478E+00  0.88950913258E+00  0.88000000000E+00 0. -1.
        -11    1    4    4    0    0  0.13902732296E-01 -0.57247236305E-01 -0.81746835700E-01  0.10076377473E+00  0.51100000000E-03 0.  1.
         11    1    4    4    0    0  0.28771527712E-02 -0.24531073950E-01 -0.16057379180E-01  0.29464421670E-01  0.51100000000E-03 0. -1.
</event>
<event>
 8    1  0.1157726E+005  0.1043930E+01  0.7957747E-01            NaN
         13   -1    0    0    0    0  0.00000000000E+00  0.00000000000E+00  0.74505805969E-08  0.10566000000E+00  0.10566000000E+00 0.  1.
     999900   -1    0    0    0    0 -0.00000000000E+00 -0.00000000000E+00 -0.74505805969E-08  0.93827000000E+00  0.93827000000E+00 0. -1.
     999902    2    1    2    0    0  0.17030868530E-01  0.12225354633E-01  0.10996508350E-01  0.10202565344E+01  0.10199818444E+01 0.  0.
     999903    2    3    3    0    0  0.64395104245E-01  0.10211311991E+00  0.53074289066E-01  0.13341172225E+00  0.20198731727E-01 0.  0.
         14    1    1    2    0    0 -0.17030868530E-01 -0.12225354633E-01 -0.10996508350E-01  0.23673465625E-01  0.00000000000E+00 0. -1.
     999901    1    3    3    0    0 -0.47364235715E-01 -0.89887765280E-01 -0.42077780716E-01  0.88684481213E+00  0.88000000000E+00 0. -1.
        -11    1    4    4    0    0  0.49413351181E-01  0.61309672735E-01  0.37684052114E-01  0.87297790067E-01  0.51100000000E-03 0. -1.
         11    1    4    4    0    0  0.14981753064E-01  0.40803447178E-01  0.15390236952E-01  0.46113932178E-01  0.51100000000E-03 0.  1.
</event>
<event>
 8    1  0.1157726E+005  0.1043930E+01  0.7957747E-01            NaN
         13   -1    0    0    0    0  0.00000000000E+00  0.00000000000E+00  0.74505805969E-08  0.10566000000E+00  0.10566000000E+00 0. -1.
     999900   -1    0    0    0    0 -0.00000000000E+00 -0.00000000000E+00 -0.74505805969E-08  0.93827000000E+00  0.93827000000E+00 0.  1.
     999902    2    1    2    0    0  0.23816812832E-01 -0.24169613308E-03 -0.59843676535E-02  0.10193716685E+01  0.10190758004E+01 0.  0.
     999903    2    3    3    0    0 -0.60048597394E-01  0.58649854479E-01 -0.95757693009E-01  0.12888816403E+00  0.19924446716E-01 0.  0.
         14    1    1    2    0    0 -0.23816812832E-01  0.24169613308E-03  0.59843676535E-02  0.24558331513E-01  0.00000000000E+00 0. -1.
     999901    1    3    3    0    0  0.83865410226E-01 -0.58891550612E-01  0.89773325355E-01  0.89048350446E+00  0.88000000000E+00 0. -1.
        -11    1    4    4    0    0 -0.48306411541E-01  0.35327852957E-01 -0.71525100428E-01  0.93261287267E-01  0.51100000000E-03 0. -1.
         11    1    4    4    0    0 -0.11742185853E-01  0.23322001522E-01 -0.24232592581E-01  0.35626876761E-01  0.51100000000E-03 0.  1.
</event>
<event>
 8    1  0.1157726E+005  0.1043930E+01  0.7957747E-01            NaN
         13   -1    0    0    0    0  0.00000000000E+00  0.00000000000E+00  0.74505805969E-08  0.10566000000E+00  0.10566000000E+00 0.  1.
     999900   -1    0    0    0    0 -0.00000000000E+00 -0.00000000000E+00 -0.74505805969E-08  0.93827000000E+00  0.93827000000E+00 0. -1.
     999902    2    1    2    0    0 -0.10895195283E-01 -0.10300964934E-01  0.17594546751E-01  0.10208132694E+01  0.10205514920E+01 0.  0.
     999903    2    3    3    0    0 -0.29309230581E-01 -0.40466296358E-01  0.12269511369E+00  0.13385489771E+00  0.19143943656E-01 0.  0.
         14    1    1    2    0    0  0.10895195283E-01  0.10300964934E-01 -0.17594546751E-01  0.23116730612E-01  0.00000000000E+00 0. -1.
     999901    1    3    3    0    0  0.18414035298E-01  0.30165331424E-01 -0.10510056694E+00  0.88695837168E+00  0.88000000000E+00 0. -1.
        -11    1    4    4    0    0 -0.17939147446E-01 -0.32879040831E-01  0.69754837096E-01  0.79176023873E-01  0.51100000000E-03 0. -1.
         11    1    4    4    0    0 -0.11370083134E-01 -0.75872555270E-02  0.52940276598E-01  0.54678873838E-01  0.51100000000E-03 0.  1.
</event>
<event>
 8    1  0.1157726E+005  0.1043930E+01  0.7957747E-01            NaN
         13   -1    0    0    0    0  0.00000000000E+00  0.00000000000E+00  0.74505805969E-08  0.10566000000E+00  0.10566000000E+00 0. -1.
     999900   -1    0    0    0    0 -0.00000000000E+00 -0.00000000000E+00 -0.74505805969E-08  0.93827000000E+00  0.93827000000E+00 0.  1.
     999902    2    1    2    0    0 -0.12123649961E-01  0.12993949275E-01 -0.15922015692E-01  0.10200692333E+01  0.10197901276E+01 0.  0.
     999903    2    3    3    0    0  0.64164632771E-01  0.10426983495E+00  0.38553215413E-01  0.13039584364E+00  0.22965779770E-01 0.  0.
         14    1    1    2    0    0  0.12123649961E-01 -0.12993949275E-01  0.15922015692E-01  0.23860766749E-01  0.00000000000E+00 0. -1.
     999901    1    3    3    0    0 -0.76288282731E-01 -0.91275885671E-01 -0.54475231106E-01  0.88967338962E+00  0.88000000000E+00 0. -1.
        -11    1    4    4    0    0  0.47064069242E-01  0.73031062670E-01  0.37854428221E-01  0.94772261687E-01  0.51100000000E-03 0.  1.
         11    1    4    4    0    0  0.17100563529E-01  0.31238772276E-01  0.69878719243E-03  0.35623581949E-01  0.51100000000E-03 0. -1.
</event>
<event>
 8    1  0.1157726E+005  0.1043930E+01  0.7957747E-01            NaN
         13   -1    0    0    0    0  0.00000000000E+00  0.00000000000E+00  0.74505805969E-08  0.10566000000E+00  0.10566000000E+00 0.  1.
     999900   -1    0    0    0    0 -0.00000000000E+00 -0.00000000000E+00 -0.74505805969E-08  0.93827000000E+00  0.93827000000E+00 0.  1.
     999902    2    1    2    0    0  0.69929368971E-02  0.21416923125E-01 -0.98512099179E-02  0.10193407320E+01  0.10190441089E+01 0.  0.
     999903    2    3    3    0    0 -0.11592989163E+00  0.10423954001E-01  0.50844140546E-01  0.12865852568E+00  0.20481479698E-01 0.  0.
         14    1    1    2    0    0 -0.69929368971E-02 -0.21416923125E-01  0.98512099179E-02  0.24589267973E-01  0.00000000000E+00 0.  1.
     999901    1    3    3    0    0  0.12292282853E+00  0.10992969124E-01 -0.60695350464E-01  0.89068220635E+00  0.88000000000E+00 0. -1.
        -11    1    4    4    0    0 -0.50060625413E-01  0.36079263371E-02  0.33014156369E-01  0.60077275163E-01  0.51100000000E-03 0.  1.
         11    1    4    4    0    0 -0.65869266217E-01  0.68160276641E-02  0.17829984177E-01  0.68581250513E-01  0.51100000000E-03 0. -1.
</event>
<event>
 8    1  0.1157726E+005  0.1043930E+01  0.7957747E-01            NaN
         13   -1    0    0    0    0  0.00000000000E+00  0.00000000000E+00  0.74505805969E-08  0.10566000000E+00  0.10566000000E+00 0. -1.
     999900   -1    0    0    0    0 -0.00000000000E+00 -0.00000000000E+00 -0.74505805969E-08  0.93827000000E+00  0.93827000000E+00 0. -1.
     999902    2    1    2    0    0 -0.11301770862E-01  0.89500565035E-02  0.18916229246E-01  0.10201464497E+01  0.10198691688E+01 0.  0.
     999903    2    3    3    0    0 -0.97654999078E-01 -0.81122481578E-01  0.26848734731E-01  0.13130851915E+00  0.20092704705E-01 0.  0.
         14    1    1    2    0    0  0.11301770862E-01 -0.89500565035E-02 -0.18916229246E-01  0.23783550301E-01  0.00000000000E+00 0. -1.
     999901    1    3    3    0    0  0.86353228216E-01  0.90072538081E-01 -0.79325054850E-02  0.88883793055E+00  0.88000000000E+00 0.  1.
        -11    1    4    4    0    0 -0.33319756247E-01 -0.34641755043E-01  0.18866485117E-02  0.48104863709E-01  0.51100000000E-03 0.  1.
         11    1    4    4    0    0 -0.64335242831E-01 -0.46480726534E-01  0.24962086219E-01  0.83203655441E-01  0.51100000000E-03 0. -1.
</event>
<event>
 8    1  0.1157726E+005  0.1043930E+01  0.7957747E-01            NaN
         13   -1    0    0    0    0  0.00000000000E+00  0.00000000000E+00  0.74505805969E-08  0.10566000000E+00  0.10566000000E+00 0. -1.
     999900   -1    0    0    0    0 -0.00000000000E+00 -0.00000000000E+00 -0.74505805969E-08  0.93827000000E+00  0.93827000000E+00 0. -1.
     999902    2    1    2    0    0  0.49395905289E-02 -0.19237565027E-01 -0.11543373486E-01  0.10209575614E+01  0.10206990787E+01 0.  0.
     999903    2    3    3    0    0 -0.19241841778E-01  0.24323691742E-01 -0.12687340195E+00  0.13203498874E+00  0.19351684041E-01 0.  0.
         14    1    1    2    0    0 -0.49395905289E-02  0.19237565027E-01  0.11543373486E-01  0.22972438578E-01  0.00000000000E+00 0.  1.
     999901    1    3    3    0    0  0.24181432307E-01 -0.43561256769E-01  0.11533002846E+00  0.88892257268E+00  0.88000000000E+00 0.  1.
        -11    1    4    4    0    0 -0.24284908037E-02  0.13038594861E-01 -0.26499365162E-01  0.29637476251E-01  0.51100000000E-03 0. -1.
         11    1    4    4    0    0 -0.16813350975E-01  0.11285096881E-01 -0.10037403678E+00  0.10239751249E+00  0.51100000000E-03 0.  1.
</event>
<event>
 8    1  0.1157726E+005  0.1043930E+01  0.7957747E-01            NaN
         13   -1    0    0    0    0  0.00000000000E+00  0.00000000000E+00  0.74505805969E-08  0.10566000000E+00  0.10566000000E+00 0.  1.
     999900   -1    0    0    0    0 -0.00000000000E+00 -0.00000000000E+00 -0.74505805969E-08  0.93827000000E+00  0.93827000000E+00 0. -1.
     999902    2    1    2    0    0  0.23069585919E-01 -0.44694721137E-03  0.31809342335E-02  0.10206378576E+01  0.10203720461E+01 0.  0.
     999903    2    3    3    0    0 -0.95255934485E-01  0.42608731250E-01 -0.72417196359E-01  0.12846646284E+00  0.19240184853E-01 0.  0.
         14    1    1    2    0    0 -0.23069585919E-01  0.44694721137E-03 -0.31809342335E-02  0.23292142428E-01  0.00000000000E+00 0.  1.
     999901    1    3    3    0    0  0.11832552040E+00 -0.43055678461E-01  0.75598130593E-01  0.89217139473E+00  0.88000000000E+00 0.  1.
        -11    1    4    4    0    0 -0.62754140849E-01  0.23500525001E-01 -0.56044639086E-01  0.87359141252E-01  0.51100000000E-03 0.  1.
         11    1    4    4    0    0 -0.32501793637E-01  0.19108206248E-01 -0.16372557273E-01  0.41107321590E-01  0.51100000000E-03 0. -1.
</event>
<event>
 8    1  0.1157726E+005  0.1043930E+01  0.7957747E-01            NaN
         13   -1    0    0    0    0  0.00000000000E+00  0.00000000000E+00  0.74505805969E-08  0.10566000000E+00  0.10566000000E+00 0. -1.
     999900   -1    0    0    0    0 -0.00000000000E+00 -0.00000000000E+00 -0.74505805969E-08  0.93827000000E+00  0.93827000000E+00 0. -1.
     999902    2    1    2    0    0 -0.17314582849E-01 -0.12262277771E-01  0.15966399391E-01  0.10173765794E+01  0.10170299997E+01 0.  0.
     999903    2    3    3    0    0 -0.56650888717E-01  0.72324603715E-01 -0.85295828956E-01  0.12667105885E+00  0.18166100756E-01 0.  0.
         14    1    1    2    0    0  0.17314582849E-01  0.12262277771E-01 -0.15966399391E-01  0.26553420588E-01  0.00000000000E+00 0.  1.
     999901    1    3    3    0    0  0.39336305868E-01 -0.84586881486E-01  0.10126222835E+00  0.89070552057E+00  0.88000000000E+00 0.  1.
        -11    1    4    4    0    0 -0.39315003946E-01  0.51014165868E-01 -0.47901903650E-01  0.80268101690E-01  0.51100000000E-03 0. -1.
         11    1    4    4    0    0 -0.17335884771E-01  0.21310437847E-01 -0.37393925306E-01  0.46402957156E-01  0.51100000000E-03 0.  1.
</event>
<event>
 8    1  0.1157726E+005  0.1043930E+01  0.7957747E-01            NaN
         13   -1    0    0    0    0  0.00000000000E+00  0.00000000000E+00  0.74505805969E-08  0.10566000000E+00  0.10566000000E+00 0.  1.
     999900   -1    0    0    0    0 -0.00000000000E+00 -0.00000000000E+00 -0.74505805969E-08  0.93827000000E+00  0.93827000000E+00 0.  1.
     999902    2    1    2    0    0 -0.19499503994E-01  0.12143246266E-01 -0.30222478093E-02  0.10207605575E+01  0.10204975711E+01 0.  0.
     999903    2    3    3    0    0  0.92600620457E-01 -0.37462146516E-01 -0.79031184575E-01  0.12901816676E+00  0.20529780534E-01 0.  0.
         14    1    1    2    0    0  0.19499503994E-01 -0.12143246266E-01  0.30222478093E-02  0.23169442542E-01  0.00000000000E+00 0.  1.
     999901    1    3    3    0    0 -0.11210012445E+00  0.49605392782E-01  0.76008936765E-01  0.89174239070E+00  0.88000000000E+00 0. -1.
        -11    1    4    4    0    0  0.57026509266E-01 -0.23786724490E-01 -0.61089988898E-01  0.86891189919E-01  0.51100000000E-03 0.  1.
         11    1    4    4    0    0  0.35574111191E-01 -0.13675422026E-01 -0.17941195677E-01  0.42126976843E-01  0.51100000000E-03 0. -1.
</event>
<event>
 8    1  0.1157726E+005  0.1043930E+01  0.7957747E-01            NaN
         13   -1    0    0    0    0  0.00000000000E+00  0.00000000000E+00  0.74505805969E-08  0.10566000000E+00  0.10566000000E+00 0. -1.
     999900   -1    0    0    0    0 -0.00000000000E+00 -0.00000000000E+00 -0.74505805969E-08  0.93827000000E+00  0.93827000000E+00 0. -1.
     999902    2    1    2    0    0 -0.19070775021E-01 -0.11588867866E-01 -0.50217876618E-02  0.10210561138E+01  0.10207998692E+01 0.  0.
     999903    2    3    3    0    0  0.18091622804E-01  0.90297326077E-01  0.88535551343E-01  0.12947615889E+00  0.21085965868E-01 0.  0.
         14    1    1    2    0    0  0.19070775021E-01  0.11588867866E-01  0.50217876618E-02  0.22873886194E-01  0.00000000000E+00 0. -1.
     999901    1    3    3    0    0 -0.37162397825E-01 -0.10188619394E+00 -0.93557339005E-01  0.89157995492E+00  0.88000000000E+00 0. -1.
        -11    1    4    4    0    0 -0.31034322515E-02  0.33195362916E-01  0.35606242486E-01  0.48781441510E-01  0.51100000000E-03 0.  1.
         11    1    4    4    0    0  0.21195055056E-01  0.57101963162E-01  0.52929308857E-01  0.80694717379E-01  0.51100000000E-03 0. -1.
</event>
<event>
 7    1  0.1157726E+005  0.1043930E+01  0.7957747E-01            NaN
         13   -1    0    0    0    0  0.00000000000E+00  0.00000000000E+00  0.74505805969E-08  0.10566000000E+00  0.10566000000E+00 0.  1.
     999900   -1    0    0    0    0 -0.00000000000E+00 -0.00000000000E+00 -0.74505805969E-08  0.93827000000E+00  0.93827000000E+00 0.  1.
     999903    2    1    2    0    0  0.25952194782E-01  0.60878213681E-02  0.57558019897E-01  0.66433644890E-01  0.19746532250E-01 0.  0.
         14    1    1    2    0    0 -0.14879796715E-01  0.31719732931E-01  0.78692686639E-01  0.86139936951E-01  0.00000000000E+00 0.  1.
     999901    1    1    2    0    0 -0.11072398067E-01 -0.37807554299E-01 -0.13625070654E+00  0.89135641816E+00  0.88000000000E+00 0.  1.
        -11    1    3    3    0    0  0.19973396147E-01 -0.15360985917E-02  0.22835889502E-01  0.30381493098E-01  0.51100000000E-03 0.  1.
         11    1    3    3    0    0  0.59787986353E-02  0.76239199598E-02  0.34722130396E-01  0.36052151793E-01  0.51100000000E-03 0. -1.
</event>
<event>
 8    1  0.1157726E+005  0.1043930E+01  0.7957747E-01            NaN
         13   -1    0    0    0    0  0.00000000000E+00  0.00000000000E+00  0.74505805969E-08  0.10566000000E+00  0.10566000000E+00 0.  1.
     999900   -1    0    0    0    0 -0.00000000000E+00 -0.00000000000E+00 -0.74505805969E-08  0.93827000000E+00  0.93827000000E+00 0. -1.
     999902    2    1    2    0    0 -0.19575754524E-01 -0.40649313203E-02  0.68148031554E-02  0.10228071362E+01  0.10225889998E+01 0.  0.
     999903    2    3    3    0    0 -0.71442671581E-01  0.51357077060E-01  0.99986086946E-01  0.13463898536E+00  0.19718876967E-01 0.  0.
         14    1    1    2    0    0  0.19575754524E-01  0.40649313203E-02 -0.68148031554E-02  0.21122863770E-01  0.00000000000E+00 0. -1.
     999901    1    3    3    0    0  0.51866917057E-01 -0.55422008380E-01 -0.93171283791E-01  0.88816815087E+00  0.88000000000E+00 0. -1.
        -11    1    4    4    0    0 -0.34322905428E-02  0.24279829064E-02  0.13820249858E-01  0.14454623706E-01  0.51100000000E-03 0.  1.
         11    1    4    4    0    0 -0.68010381038E-01  0.48929094153E-01  0.86165837089E-01  0.12018436165E+00  0.51100000000E-03 0. -1.
</event>
<event>
 8    1  0.1157726E+005  0.1043930E+01  0.7957747E-01            NaN
         13   -1    0    0    0    0  0.00000000000E+00  0.00000000000E+00  0.74505805969E-08  0.10566000000E+00  0.10566000000E+00 0.  1.
     999900   -1    0    0    0    0 -0.00000000000E+00 -0.00000000000E+00 -0.74505805969E-08  0.93827000000E+00  0.93827000000E+00 0. -1.
     999902    2    1    2    0    0  0.45026263291E-02  0.19079394318E-02 -0.23780021219E-01  0.10196523707E+01  0.10193633080E+01 0.  0.
     999903    2    3    3    0    0  0.10777419190E+00  0.69757687279E-01 -0.17650856659E-01  0.13099823593E+00  0.19172211663E-01 0.  0.
         14    1    1    2    0    0 -0.45026263291E-02 -0.19079394318E-02  0.23780021219E-01  0.24277629330E-01  0.00000000000E+00 0.  1.
     999901    1    3    3    0    0 -0.10327156557E+00 -0.67849747847E-01 -0.61291645596E-02  0.88865413474E+00  0.88000000000E+00 0. -1.
        -11    1    4    4    0    0  0.95028106937E-01  0.59915040742E-01 -0.89745683541E-02  0.11269852356E+00  0.51100000000E-03 0.  1.
         11    1    4    4    0    0  0.12746084966E-01  0.98426465362E-02 -0.86762883051E-02  0.18299712362E-01  0.51100000000E-03 0. -1.
</event>
<event>
 8    1  0.1157726E+005  0.1043930E+01  0.7957747E-01            NaN
         13   -1    0    0    0    0  0.00000000000E+00  0.00000000000E+00  0.74505805969E-08  0.10566000000E+00  0.10566000000E+00 0.  1.
     999900   -1    0    0    0    0 -0.00000000000E+00 -0.00000000000E+00 -0.74505805969E-08  0.93827000000E+00  0.93827000000E+00 0. -1.
     999902    2    1    2    0    0 -0.17013785007E-01  0.14066613214E-01  0.20061981765E-03  0.10218533441E+01  0.10216148384E+01 0.  0.
     999903    2    3    3    0    0 -0.32928819159E-01  0.12712203866E+00  0.19008343422E-01  0.13427881314E+00  0.20619473681E-01 0.  0.
         14    1    1    2    0    0  0.17013785007E-01 -0.14066613214E-01 -0.20061981765E-03  0.22076655903E-01  0.00000000000E+00 0.  1.
     999901    1    3    3    0    0  0.15915034152E-01 -0.11305542544E+00 -0.18807723604E-01  0.88757453096E+00  0.88000000000E+00 0.  1.
        -11    1    4    4    0    0 -0.84765090402E-02  0.73319072045E-01  0.11601795596E-01  0.74715462343E-01  0.51100000000E-03 0. -1.
         11    1    4    4    0    0 -0.24452310119E-01  0.53802966614E-01  0.74065478262E-02  0.59563350798E-01  0.51100000000E-03 0.  1.
</event>
<event>
 8    1  0.1157726E+005  0.1043930E+01  0.7957747E-01            NaN
         13   -1    0    0    0    0  0.00000000000E+00  0.00000000000E+00  0.74505805969E-08  0.10566000000E+00  0.10566000000E+00 0. -1.
     999900   -1    0    0    0    0 -0.00000000000E+00 -0.00000000000E+00 -0.74505805969E-08  0.93827000000E+00  0.93827000000E+00 0.  1.
     999902    2    1    2    0    0 -0.51704621286E-02  0.15173542821E-01 -0.12856202313E-01  0.10233812283E+01  0.10231749051E+01 0.  0.
     999903    2    3    3    0    0 -0.12799793393E+00  0.21726628514E-02  0.31700080764E-01  0.13363920217E+00  0.21595130979E-01 0.  0.
         14    1    1    2    0    0  0.51704621286E-02 -0.15173542821E-01  0.12856202313E-01  0.20548771697E-01  0.00000000000E+00 0. -1.
     999901    1    3    3    0    0  0.12282747180E+00  0.13000879969E-01 -0.44556283077E-01  0.88974202613E+00  0.88000000000E+00 0. -1.
        -11    1    4    4    0    0 -0.11104469194E+00 -0.10501448103E-02  0.20141106034E-01  0.11286253446E+00  0.51100000000E-03 0. -1.
         11    1    4    4    0    0 -0.16953241991E-01  0.32228076617E-02  0.11558974731E-01  0.20776667709E-01  0.51100000000E-03 0.  1.
</event>
<event>
 8    1  0.1157726E+005  0.1043930E+01  0.7957747E-01            NaN
         13   -1    0    0    0    0  0.00000000000E+00  0.00000000000E+00  0.74505805969E-08  0.10566000000E+00  0.10566000000E+00 0. -1.
     999900   -1    0    0    0    0 -0.00000000000E+00 -0.00000000000E+00 -0.74505805969E-08  0.93827000000E+00  0.93827000000E+00 0. -1.
     999902    2    1    2    0    0 -0.32397011043E-02 -0.66842719046E-02  0.22584996218E-01  0.10201548616E+01  0.10198777791E+01 0.  0.
     999903    2    3    3    0    0 -0.65688932108E-01 -0.22927778784E-01 -0.10610032626E+00  0.12845778844E+00  0.20084953004E-01 0.  0.
         14    1    1    2    0    0  0.32397011043E-02  0.66842719046E-02 -0.22584996218E-01  0.23775138450E-01  0.00000000000E+00 0.  1.
     999901    1    3    3    0    0  0.62449231004E-01  0.16243506880E-01  0.12868532248E+00  0.89169707311E+00  0.88000000000E+00 0.  1.
        -11    1    4    4    0    0 -0.22288827819E-01 -0.17970028697E-01 -0.45269586565E-01  0.53565944085E-01  0.51100000000E-03 0. -1.
         11    1    4    4    0    0 -0.43400104290E-01 -0.49577500871E-02 -0.60830739696E-01  0.74891844357E-01  0.51100000000E-03 0.  1.
</event>
<event>
 8    1  0.1157726E+005  0.1043930E+01  0.7957747E-01            NaN
         13   -1    0    0    0    0  0.00000000000E+00  0.00000000000E+00  0.74505805969E-08  0.10566000000E+00  0.10566000000E+00 0.  1.
     999900   -1    0    0    0    0 -0.00000000000E+00 -0.00000000000E+00 -0.74505805969E-08  0.93827000000E+00  0.93827000000E+00 0.  1.
     999902    2    1    2    0    0 -0.17140617663E-01 -0.14615508955E-01  0.58673886715E-02  0.10206525404E+01  0.10203870678E+01 0.  0.
     999903    2    3    3    0    0 -0.48560390560E-01 -0.89830646208E-01 -0.81947841171E-01  0.13253316013E+00  0.20541015872E-01 0.  0.
         14    1    1    2    0    0  0.17140617663E-01  0.14615508955E-01 -0.58673886715E-02  0.23277459606E-01  0.00000000000E+00 0. -1.
     999901    1    3    3    0    0  0.31419772897E-01  0.75215137252E-01  0.87815229843E-01  0.88811938026E+00  0.88000000000E+00 0.  1.
        -11    1    4    4    0    0 -0.54770967127E-02 -0.13097575276E-01 -0.34747723985E-02  0.14624644636E-01  0.51100000000E-03 0. -1.
         11    1    4    4    0    0 -0.43083293847E-01 -0.76733070932E-01 -0.78473068772E-01  0.11790851550E+00  0.51100000000E-03 0.  1.
</event>
<event>
 8    1  0.1157726E+005  0.1043930E+01  0.7957747E-01            NaN
         13   -1    0    0    0    0  0.00000000000E+00  0.00000000000E+00  0.74505805969E-08  0.10566000000E+00  0.10566000000E+00 0.  1.
     999900   -1    0    0    0    0 -0.00000000000E+00 -0.00000000000E+00 -0.74505805969E-08  0.93827000000E+00  0.93827000000E+00 0.  1.
     999902    2    1    2    0    0  0.21285521415E-01 -0.70088261727E-02  0.70040770794E-02  0.10204511976E+01  0.10201810587E+01 0.  0.
     999903    2    3    3    0    0 -0.40719801963E-01  0.49686546908E-03  0.12256453114E+00  0.13070111242E+00  0.20059096366E-01 0.  0.
         14    1    1    2    0    0 -0.21285521415E-01  0.70088261727E-02 -0.70040770794E-02  0.23478802396E-01  0.00000000000E+00 0.  1.
     999901    1    3    3    0    0  0.62005323378E-01 -0.75056916418E-02 -0.11556045406E+00  0.88975008518E+00  0.88000000000E+00 0.  1.
        -11    1    4    4    0    0  0.41977995508E-04  0.43451653378E-02  0.97889839714E-02  0.10722292300E-01  0.51100000000E-03 0. -1.
         11    1    4    4    0    0 -0.40761779959E-01 -0.38482998687E-02  0.11277554717E+00  0.11997882012E+00  0.51100000000E-03 0.  1.
</event>
<event>
 8    1  0.1157726E+005  0.1043930E+01  0.7957747E-01            NaN
         13   -1    0    0    0    0  0.00000000000E+00  0.00000000000E+00  0.74505805969E-08  0.10566000000E+00  0.10566000000E+00 0.  1.
     999900   -1    0    0    0    0 -0.00000000000E+00 -0.00000000000E+00 -0.74505805969E-08  0.93827000000E+00  0.93827000000E+00 0.  1.
     999902    2    1    2    0    0 -0.45524276453E-02  0.24431307366E-01  0.26693858408E-03  0.10190767380E+01  0.10187736320E+01 0.  0.
     999903    2    3    3    0    0  0.49161065257E-01  0.50452994826E-01 -0.10730825168E+00  0.13051909263E+00  0.23619010126E-01 0.  0.
         14    1    1    2    0    0  0.45524276453E-02 -0.24431307366E-01 -0.26693858408E-03  0.24853262025E-01  0.00000000000E+00 0. -1.
     999901    1    3    3    0    0 -0.53713492902E-01 -0.26021687460E-01  0.10757519026E+00  0.88855764534E+00  0.88000000000E+00 0.  1.
        -11    1    4    4    0    0  0.28647752623E-01  0.29340882002E-01 -0.41103402404E-01  0.58063171608E-01  0.51100000000E-03 0.  1.
         11    1    4    4    0    0  0.20513312634E-01  0.21112112824E-01 -0.66204849273E-01  0.72455921024E-01  0.51100000000E-03 0. -1.
</event>
<event>
 8    1  0.1157726E+005  0.1043930E+01  0.7957747E-01            NaN
         13   -1    0    0    0    0  0.00000000000E+00  0.00000000000E+00  0.74505805969E-08  0.10566000000E+00  0.10566000000E+00 0. -1.
     999900   -1    0    0    0    0 -0.00000000000E+00 -0.00000000000E+00 -0.74505805969E-08  0.93827000000E+00  0.93827000000E+00 0.  1.
     999902    2    1    2    0    0  0.42275642579E-02  0.22592748080E-01 -0.10652380037E-02  0.10209204520E+01  0.10206611240E+01 0.  0.
     999903    2    3    3    0    0 -0.72213830751E-01 -0.10332795443E+00 -0.15341048804E-01  0.12856227901E+00  0.20035176282E-01 0.  0.
         14    1    1    2    0    0 -0.42275642579E-02 -0.22592748080E-01  0.10652380037E-02  0.23009547961E-01  0.00000000000E+00 0.  1.
     999901    1    3    3    0    0  0.76441395008E-01  0.12592070251E+00  0.14275810800E-01  0.89235817303E+00  0.88000000000E+00 0. -1.
        -11    1    4    4    0    0 -0.40436949766E-01 -0.47625495118E-01 -0.15736165735E-01  0.64429983119E-01  0.51100000000E-03 0. -1.
         11    1    4    4    0    0 -0.31776880985E-01 -0.55702459311E-01  0.39511693122E-03  0.64132295895E-01  0.51100000000E-03 0.  1.
</event>
<event>
 8    1  0.1157726E+005  0.1043930E+01  0.7957747E-01            NaN
         13   -1    0    0    0    0  0.00000000000E+00  0.00000000000E+00  0.74505805969E-08  0.10566000000E+00  0.10566000000E+00 0.  1.
     999900   -1    0    0    0    0 -0.00000000000E+00 -0.00000000000E+00 -0.74505805969E-08  0.93827000000E+00  0.93827000000E+00 0. -1.
     999902    2    1    2    0    0  0.11306927094E-01 -0.15642158366E-01  0.14658303564E-01  0.10196938786E+01  0.10194058154E+01 0.  0.
     999903    2    3    3    0    0  0.51403837776E-01  0.70602331571E-01 -0.91561252011E-01  0.12821843400E+00  0.20723421169E-01 0.  0.
         14    1    1    2    0    0 -0.11306927094E-01  0.15642158366E-01 -0.14658303564E-01  0.24236121431E-01  0.00000000000E+00 0. -1.
     999901    1    3    3    0    0 -0.40096910682E-01 -0.86244489937E-01  0.10621955558E+00  0.89147544457E+00  0.88000000000E+00 0.  1.
        -11    1    4    4    0    0  0.49937080371E-01  0.56380997953E-01 -0.74282644278E-01  0.10578611104E+00  0.51100000000E-03 0.  1.
         11    1    4    4    0    0  0.14667574054E-02  0.14221333618E-01 -0.17278607733E-01  0.22432322959E-01  0.51100000000E-03 0. -1.
</event>
<event>
 8    1  0.1157726E+005  0.1043930E+01  0.7957747E-01            NaN
         13   -1    0    0    0    0  0.00000000000E+00  0.00000000000E+00  0.74505805969E-08  0.10566000000E+00  0.10566000000E+00 0.  1.
     999900   -1    0    0    0    0 -0.00000000000E+00 -0.00000000000E+00 -0.74505805969E-08  0.93827000000E+00  0.93827000000E+00 0.  1.
     999902    2    1    2    0    0 -0.20246238868E-01 -0.12970785408E-01 -0.32739822240E-02  0.10196633475E+01  0.10193745494E+01 0.  0.
     999903    2    3    3    0    0 -0.76211981039E-01  0.97403404772E-01  0.35730215547E-01  0.13014889931E+00  0.19141535293E-01 0.  0.
         14    1    1    2    0    0  0.20246238868E-01  0.12970785408E-01  0.32739822240E-02  0.24266652468E-01  0.00000000000E+00 0.  1.
     999901    1    3    3    0    0  0.55965742171E-01 -0.11037419018E+00 -0.39004197771E-01  0.88951444822E+00  0.88000000000E+00 0.  1.
        -11    1    4    4    0    0 -0.21415308866E-01  0.42383543255E-01  0.12993336089E-01  0.49234826052E-01  0.51100000000E-03 0. -1.
         11    1    4    4    0    0 -0.54796672173E-01  0.55019861517E-01  0.22736879457E-01  0.80914073257E-01  0.51100000000E-03 0.  1.
</event>
<event>
 8    1  0.1157726E+005  0.1043930E+01  0.7957747E-01            NaN
         13   -1    0    0    0    0  0.00000000000E+00  0.00000000000E+00  0.74505805969E-08  0.10566000000E+00  0.10566000000E+00 0.  1.
     999900   -1    0    0    0    0 -0.00000000000E+00 -0.00000000000E+00 -0.74505805969E-08  0.93827000000E+00  0.93827000000E+00 0. -1.
     999902    2    1    2    0    0 -0.76722005311E-02  0.83220573972E-02 -0.16867485698E-01  0.10236166700E+01  0.10234150946E+01 0.  0.
     999903    2    3    3    0    0  0.66915473048E-01 -0.11181849270E+00 -0.10542053975E-01  0.13230466860E+00  0.20306023439E-01 0.  0.
         14    1    1    2    0    0  0.76722005311E-02 -0.83220573972E-02  0.16867485698E-01  0.20313329960E-01  0.00000000000E+00 0.  1.
     999901    1    3    3    0    0 -0.74587673579E-01  0.12014055010E+00 -0.63254317227E-02  0.89131200144E+00  0.88000000000E+00 0. -1.
        -11    1    4    4    0    0  0.23753798985E-01 -0.58437522387E-01 -0.82199470444E-02  0.63616158634E-01  0.51100000000E-03 0. -1.
         11    1    4    4    0    0  0.43161674063E-01 -0.53380970313E-01 -0.23221069309E-02  0.68688509964E-01  0.51100000000E-03 0.  1.
</event>
<event>
 8    1  0.1157726E+005  0.1043930E+01  0.7957747E-01            NaN
         13   -1    0    0    0    0  0.00000000000E+00  0.00000000000E+00  0.74505805969E-08  0.10566000000E+00  0.10566000000E+00 0.  1.
     999900   -1    0    0    0    0 -0.00000000000E+00 -0.00000000000E+00 -0.74505805969E-08  0.93827000000E+00  0.93827000000E+00 0. -1.
     999902    2    1    2    0    0 -0.21806253480E-01 -0.62856636297E-02  0.75097561099E-02  0.10200256344E+01  0.10197454958E+01 0.  0.
     999903    2    3    3    0    0 -0.51725497419E-01 -0.11819960435E+00  0.21425126438E-01  0.13232437338E+00  0.20100502325E-01 0.  0.
         14    1    1    2    0    0  0.21806253480E-01  0.62856636297E-02 -0.75097561099E-02  0.23904365604E-01  0.00000000000E+00 0. -1.
     999901    1    3    3    0    0  0.29919243939E-01  0.11191394072E+00 -0.13915370328E-01  0.88770126102E+00  0.88000000000E+00 0.  1.
        -11    1    4    4    0    0 -0.29431784505E-01 -0.77460353968E-01  0.22512599323E-01  0.85868589282E-01  0.51100000000E-03 0.  1.
         11    1    4    4    0    0 -0.22293712914E-01 -0.40739250385E-01 -0.10874728843E-02  0.46455784093E-01  0.51100000000E-03 0. -1.
</event>
<event>
 8    1  0.1157726E+005  0.1043930E+01  0.7957747E-01            NaN
         13   -1    0    0    0    0  0.00000000000E+00  0.00000000000E+00  0.74505805969E-08  0.10566000000E+00  0.10566000000E+00 0. -1.
     999900   -1    0    0    0    0 -0.00000000000E+00 -0.00000000000E+00 -0.74505805969E-08  0.93827000000E+00  0.93827000000E+00 0.  1.
     999902    2    1    2    0    0  0.29870205793E-02 -0.14770348252E-01  0.18309386287E-01  0.10202167314E+01  0.10199411061E+01 0.  0.
     999903    2    3    3    0    0 -0.15976273217E-02 -0.12321223852E+00 -0.41424539078E-01  0.13153860951E+00  0.20065024811E-01 0.  0.
         14    1    1    2    0    0 -0.29870205793E-02  0.14770348252E-01 -0.18309386287E-01  0.23713268557E-01  0.00000000000E+00 0.  1.
     999901    1    3    3    0    0  0.45846479010E-02  0.10844189027E+00  0.59733925365E-01  0.88867812193E+00  0.88000000000E+00 0. -1.
        -11    1    4    4    0    0 -0.58789438439E-02 -0.79520672222E-01 -0.35323156300E-01  0.87212876248E-01  0.51100000000E-03 0. -1.
         11    1    4    4    0    0  0.42813165222E-02 -0.43691566296E-01 -0.61013827772E-02  0.44325733264E-01  0.51100000000E-03 0.  1.
</event>
<event>
 7    1  0.1157726E+005  0.1043930E+01  0.7957747E-01            NaN
         13   -1    0    0    0    0  0.00000000000E+00  0.00000000000E+00  0.74505805969E-08  0.10566000000E+00  0.10566000000E+00 0. -1.
     999900   -1    0    0    0    0 -0.00000000000E+00 -0.00000000000E+00 -0.74505805969E-08  0.93827000000E+00  0.93827000000E+00 0. -1.
     999903    2    1    2    0    0  0.10811924119E-01 -0.66621150348E-01  0.84458945807E-01  0.10990109566E+00  0.19739856224E-01 0.  0.
         14    1    1    2    0    0 -0.32914167004E-01  0.73649371827E-02 -0.37607044182E-01  0.50516081216E-01  0.00000000000E+00 0.  1.
     999901    1    1    2    0    0  0.22102242885E-01  0.59256213165E-01 -0.46851901624E-01  0.88351282312E+00  0.88000000000E+00 0. -1.
        -11    1    3    3    0    0 -0.54740758898E-02 -0.12850121891E-01  0.13995720275E-01  0.19779596722E-01  0.51100000000E-03 0. -1.
         11    1    3    3    0    0  0.16286000009E-01 -0.53771028457E-01  0.70463225532E-01  0.90121498938E-01  0.51100000000E-03 0.  1.
</event>
<event>
 8    1  0.1157726E+005  0.1043930E+01  0.7957747E-01            NaN
         13   -1    0    0    0    0  0.00000000000E+00  0.00000000000E+00  0.74505805969E-08  0.10566000000E+00  0.10566000000E+00 0.  1.
     999900   -1    0    0    0    0 -0.00000000000E+00 -0.00000000000E+00 -0.74505805969E-08  0.93827000000E+00  0.93827000000E+00 0.  1.
     999902    2    1    2    0    0  0.91106474982E-02  0.62622810802E-02 -0.20046604622E-01  0.10210370662E+01  0.10207803897E+01 0.  0.
     999903    2    3    3    0    0 -0.38320013176E-01  0.72256865574E-01  0.98389351992E-01  0.12939138062E+00  0.19292142456E-01 0.  0.
         14    1    1    2    0    0 -0.91106474982E-02 -0.62622810802E-02  0.20046604622E-01  0.22892933823E-01  0.00000000000E+00 0.  1.
     999901    1    3    3    0    0  0.47430660675E-01 -0.65994584494E-01 -0.11843595661E+00  0.89164568556E+00  0.88000000000E+00 0.  1.
        -11    1    4    4    0    0 -0.33638308440E-01  0.63257390501E-01  0.74146786622E-01  0.10310693641E+00  0.51100000000E-03 0.  1.
         11    1    4    4    0    0 -0.46817047366E-02  0.89994750728E-02  0.24242565370E-01  0.26284444213E-01  0.51100000000E-03 0. -1.
</event>
<event>
 8    1  0.1157726E+005  0.1043930E+01  0.7957747E-01            NaN
         13   -1    0    0    0    0  0.00000000000E+00  0.00000000000E+00  0.74505805969E-08  0.10566000000E+00  0.10566000000E+00 0.  1.
     999900   -1    0    0    0    0 -0.00000000000E+00 -0.00000000000E+00 -0.74505805969E-08  0.93827000000E+00  0.93827000000E+00 0.  1.
     999902    2    1    2    0    0 -0.40494470255E-02  0.13890484135E-01  0.15818683512E-01  0.10224923155E+01  0.10222675583E+01 0.  0.
     999903    2    3    3    0    0  0.49100824923E-01 -0.36082353310E-01 -0.11320996200E+00  0.13009631185E+00  0.19892904041E-01 0.  0.
         14    1    1    2    0    0  0.40494470255E-02 -0.13890484135E-01 -0.15818683512E-01  0.21437684548E-01  0.00000000000E+00 0.  1.
     999901    1    3    3    0    0 -0.53150271948E-01  0.49972837446E-01  0.12902864551E+00  0.89239600361E+00  0.88000000000E+00 0. -1.
        -11    1    4    4    0    0  0.23859904450E-01 -0.60546609571E-02 -0.38208164887E-01  0.45454141118E-01  0.51100000000E-03 0.  1.
         11    1    4    4    0    0  0.25240920472E-01 -0.30027692353E-01 -0.75001797113E-01  0.84642170728E-01  0.51100000000E-03 0. -1.
</event>
<event>
 8    1  0.1157726E+005  0.1043930E+01  0.7957747E-01            NaN
         13   -1    0    0    0    0  0.00000000000E+00  0.00000000000E+00  0.74505805969E-08  0.10566000000E+00  0.10566000000E+00 0.  1.
     999900   -1    0    0    0    0 -0.00000000000E+00 -0.00000000000E+00 -0.74505805969E-08  0.93827000000E+00  0.93827000000E+00 0. -1.
     999902    2    1    2    0    0  0.10448717650E-01 -0.16028011851E-01  0.14131047792E-01  0.10201443031E+01  0.10198669716E+01 0.  0.
     999903    2    3    3    0    0 -0.72168160126E-01 -0.91367705906E-02 -0.10385315036E+00  0.12840818256E+00  0.20284491500E-01 0.  0.
         14    1    1    2    0    0 -0.10448717650E-01  0.16028011851E-01 -0.14131047792E-01  0.23785696881E-01  0.00000000000E+00 0. -1.
     999901    1    3    3    0    0  0.82616877776E-01 -0.68912412607E-02  0.11798419815E+00  0.89173612056E+00  0.88000000000E+00 0. -1.
        -11    1    4    4    0    0 -0.30230094526E-01 -0.13867345089E-01 -0.48085633831E-01  0.58469232737E-01  0.51100000000E-03 0. -1.
         11    1    4    4    0    0 -0.41938065600E-01  0.47305744985E-02 -0.55767516528E-01  0.69938949821E-01  0.51100000000E-03 0.  1.
</event>
<event>
 8    1  0.1157726E+005  0.1043930E+01  0.7957747E-01            NaN
         13   -1    0    0    0    0  0.00000000000E+00  0.00000000000E+00  0.74505805969E-08  0.10566000000E+00  0.10566000000E+00 0.  1.
     999900   -1    0    0    0    0 -0.00000000000E+00 -0.00000000000E+00 -0.74505805969E-08  0.93827000000E+00  0.93827000000E+00 0.  1.
     999902    2    1    2    0    0 -0.19892258270E-01 -0.16277588981E-01  0.12393871497E-01  0.10153945853E+01  0.10149935438E+01 0.  0.
     999903    2    3    3    0    0 -0.98244772567E-01 -0.47531536590E-01  0.67061967872E-01  0.12967198396E+00  0.20155237095E-01 0.  0.
         14    1    1    2    0    0  0.19892258270E-01  0.16277588981E-01 -0.12393871497E-01  0.28535414712E-01  0.00000000000E+00 0.  1.
     999901    1    3    3    0    0  0.78352514297E-01  0.31253947609E-01 -0.54668096375E-01  0.88572260133E+00  0.88000000000E+00 0. -1.
        -11    1    4    4    0    0 -0.82308754192E-01 -0.35599453867E-01  0.46386624606E-01  0.10096550003E+00  0.51100000000E-03 0.  1.
         11    1    4    4    0    0 -0.15936018375E-01 -0.11932082723E-01  0.20675343266E-01  0.28706483935E-01  0.51100000000E-03 0. -1.
</event>
<event>
 8    1  0.1157726E+005  0.1043930E+01  0.7957747E-01            NaN
         13   -1    0    0    0    0  0.00000000000E+00  0.00000000000E+00  0.74505805969E-08  0.10566000000E+00  0.10566000000E+00 0.  1.
     999900   -1    0    0    0    0 -0.00000000000E+00 -0.00000000000E+00 -0.74505805969E-08  0.93827000000E+00  0.93827000000E+00 0.  1.
     999902    2    1    2    0    0 -0.56855069500E-03  0.21725176830E-01  0.10159710279E-01  0.10199398714E+01  0.10196576950E+01 0.  0.
     999903    2    3    3    0    0  0.24272975376E-01 -0.97464673440E-01  0.78143830472E-01  0.12895998248E+00  0.20872923570E-01 0.  0.
         14    1    1    2    0    0  0.56855069500E-03 -0.21725176830E-01 -0.10159710279E-01  0.23990128619E-01  0.00000000000E+00 0. -1.
     999901    1    3    3    0    0 -0.24841526071E-01  0.11918985027E+00 -0.67984120193E-01  0.89097988890E+00  0.88000000000E+00 0.  1.
        -11    1    4    4    0    0  0.22574112461E-02 -0.82508223316E-02  0.15614993426E-01  0.17811825156E-01  0.51100000000E-03 0.  1.
         11    1    4    4    0    0  0.22015564130E-01 -0.89213851109E-01  0.62528837046E-01  0.11114815733E+00  0.51100000000E-03 0. -1.
</event>
<event>
 8    1  0.1157726E+005  0.1043930E+01  0.7957747E-01            NaN
         13   -1    0    0    0    0  0.00000000000E+00  0.00000000000E+00  0.74505805969E-08  0.10566000000E+00  0.10566000000E+00 0.  1.
     999900   -1    0    0    0    0 -0.00000000000E+00 -0.00000000000E+00 -0.74505805969E-08  0.93827000000E+00  0.93827000000E+00 0. -1.
     999902    2    1    2    0    0  0.35814614499E-02 -0.14296450441E-01  0.17146524716E-01  0.10213198547E+01  0.10210695505E+01 0.  0.
     999903    2    3    3    0    0 -0.86235430777E-01 -0.59702974988E-01 -0.75508650587E-01  0.13075048169E+00  0.19827692901E-01 0.  0.
         14    1    1    2    0    0 -0.35814614499E-02  0.14296450441E-01 -0.17146524716E-01  0.22610145315E-01  0.00000000000E+00 0. -1.
     999901    1    3    3    0    0  0.89816892227E-01  0.45406524547E-01  0.92655175303E-01  0.89056937299E+00  0.88000000000E+00 0. -1.
        -11    1    4    4    0    0 -0.51229504590E-01 -0.46925255549E-01 -0.49281968117E-01  0.85178725345E-01  0.51100000000E-03 0. -1.
         11    1    4    4    0    0 -0.35005926187E-01 -0.12777719438E-01 -0.26226682469E-01  0.45571756348E-01  0.51100000000E-03 0.  1.
</event>
<event>
 8    1  0.1157726E+005  0.1043930E+01  0.7957747E-01            NaN
         13   -1    0    0    0    0  0.00000000000E+00  0.00000000000E+00  0.74505805969E-08  0.10566000000E+00  0.10566000000E+00 0.  1.
     999900   -1    0    0    0    0 -0.00000000000E+00 -0.00000000000E+00 -0.74505805969E-08  0.93827000000E+00  0.93827000000E+00 0. -1.
     999902    2    1    2    0    0  0.23873422978E-01 -0.23086282568E-02 -0.36987910136E-02  0.10196616844E+01  0.10193728461E+01 0.  0.
     999903    2    3    3    0    0  0.10632940477E+00  0.76097505463E-01 -0.67247288036E-02  0.13233104303E+00  0.19222651120E-01 0.  0.
         14    1    1    2    0    0 -0.23873422978E-01  0.23086282568E-02  0.36987910136E-02  0.24268315641E-01  0.00000000000E+00 0.  1.
     999901    1    3    3    0    0 -0.82455981792E-01 -0.78406133720E-01  0.30259377900E-02  0.88733064133E+00  0.88000000000E+00 0.  1.
        -11    1    4    4    0    0  0.55969603615E-01  0.30679503672E-01 -0.90902755874E-02  0.64472650834E-01  0.51100000000E-03 0. -1.
         11    1    4    4    0    0  0.50359801154E-01  0.45418001791E-01  0.23655467838E-02  0.67858392197E-01  0.51100000000E-03 0.  1.
</event>
<event>
 7    1  0.1157726E+005  0.1043930E+01  0.7957747E-01            NaN
         13   -1    0    0    0    0  0.00000000000E+00  0.00000000000E+00  0.74505805969E-08  0.10566000000E+00  0.10566000000E+00 0. -1.
     999900   -1    0    0    0    0 -0.00000000000E+00 -0.00000000000E+00 -0.74505805969E-08  0.93827000000E+00  0.93827000000E+00 0. -1.
     999903    2    1    2    0    0 -0.25052488743E-01 -0.59253281532E-01 -0.31595679748E-01  0.74346912880E-01  0.19763550074E-01 0.  0.
         14    1    1    2    0    0 -0.60747406509E-01 -0.40600028005E-01  0.32058763292E-01  0.79789560566E-01  0.00000000000E+00 0. -1.
     999901    1    1    2    0    0  0.85799895251E-01  0.99853309537E-01 -0.46308354351E-03  0.88979352655E+00  0.88000000000E+00 0. -1.
        -11    1    3    3    0    0 -0.46430468347E-02 -0.85029097629E-02 -0.13707977030E-01  0.16793662900E-01  0.51100000000E-03 0. -1.
         11    1    3    3    0    0 -0.20409441908E-01 -0.50750371769E-01 -0.17887702718E-01  0.57553249979E-01  0.51100000000E-03 0.  1.
</event>
<event>
 8    1  0.1157726E+005  0.1043930E+01  0.7957747E-01            NaN
         13   -1    0    0    0    0  0.00000000000E+00  0.00000000000E+00  0.74505805969E-08  0.10566000000E+00  0.10566000000E+00 0.  1.
     999900   -1    0    0    0    0 -0.00000000000E+00 -0.00000000000E+00 -0.74505805969E-08  0.93827000000E+00  0.93827000000E+00 0.  1.
     999902    2    1    2    0    0  0.35583031199E-02 -0.23207924414E-03 -0.15198915921E-01  0.10283183881E+01  0.10281998759E+01 0.  0.
     999903    2    3    3    0    0 -0.31025125259E-02 -0.66085769028E-01 -0.12093811508E+00  0.13952040587E+00  0.21516540690E-01 0.  0.
         14    1    1    2    0    0 -0.35583031199E-02  0.23207924414E-03  0.15198915921E-01  0.15611611929E-01  0.00000000000E+00 0.  1.
     999901    1    3    3    0    0  0.66608156458E-02  0.65853689783E-01  0.10573919916E+00  0.88879798220E+00  0.88000000000E+00 0. -1.
        -11    1    4    4    0    0 -0.42728908147E-02 -0.56158239402E-01 -0.11454569129E+00  0.12764396563E+00  0.51100000000E-03 0.  1.
         11    1    4    4    0    0  0.11703782888E-02 -0.99275296257E-02 -0.63924237926E-02  0.11876440239E-01  0.51100000000E-03 0. -1.
</event>
<event>
 8    1  0.1157726E+005  0.1043930E+01  0.7957747E-01            NaN
         13   -1    0    0    0    0  0.00000000000E+00  0.00000000000E+00  0.74505805969E-08  0.10566000000E+00  0.10566000000E+00 0. -1.
     999900   -1    0    0    0    0 -0.00000000000E+00 -0.00000000000E+00 -0.74505805969E-08  0.93827000000E+00  0.93827000000E+00 0.  1.
     999902    2    1    2    0    0 -0.22229560020E-01 -0.12241000477E-01  0.13071662051E-01  0.10153841810E+01  0.10149828429E+01 0.  0.
     999903    2    3    3    0    0  0.11158792959E+00 -0.33086999644E-01 -0.36788212954E-01  0.12362878669E+00  0.19598181312E-01 0.  0.
         14    1    1    2    0    0  0.22229560020E-01  0.12241000477E-01 -0.13071662051E-01  0.28545818961E-01  0.00000000000E+00 0.  1.
     999901    1    3    3    0    0 -0.13381748961E+00  0.20845999167E-01  0.49859875005E-01  0.89175539434E+00  0.88000000000E+00 0. -1.
        -11    1    4    4    0    0  0.73953849169E-01 -0.29315031258E-01 -0.18808177512E-01  0.81746874723E-01  0.51100000000E-03 0. -1.
         11    1    4    4    0    0  0.37634080425E-01 -0.37719683853E-02 -0.17980035442E-01  0.41881911972E-01  0.51100000000E-03 0.  1.
</event>
<event>
 8    1  0.1157726E+005  0.1043930E+01  0.7957747E-01            NaN
         13   -1    0    0    0    0  0.00000000000E+00  0.00000000000E+00  0.74505805969E-08  0.10566000000E+00  0.10566000000E+00 0.  1.
     999900   -1    0    0    0    0 -0.00000000000E+00 -0.00000000000E+00 -0.74505805969E-08  0.93827000000E+00  0.93827000000E+00 0. -1.
     999902    2    1    2    0    0 -0.85165239071E-02  0.21074832907E-01 -0.69299647457E-02  0.10201664949E+01  0.10198896868E+01 0.  0.
     999903    2    3    3    0    0  0.12327145949E+00 -0.38327630923E-02 -0.34275890320E-01  0.12958451637E+00  0.20168476082E-01 0.  0.
         14    1    1    2    0    0  0.85165239071E-02 -0.21074832907E-01  0.69299647457E-02  0.23763505063E-01  0.00000000000E+00 0. -1.
     999901    1    3    3    0    0 -0.13178798340E+00  0.24907595999E-01  0.27345925574E-01  0.89058197857E+00  0.88000000000E+00 0.  1.
        -11    1    4    4    0    0  0.50820858850E-01 -0.11767345600E-04 -0.40416439636E-02  0.50983878233E-01  0.51100000000E-03 0.  1.
         11    1    4    4    0    0  0.72450600640E-01 -0.38209957467E-02 -0.30234246356E-01  0.78600638135E-01  0.51100000000E-03 0. -1.
</event>
<event>
 8    1  0.1157726E+005  0.1043930E+01  0.7957747E-01            NaN
         13   -1    0    0    0    0  0.00000000000E+00  0.00000000000E+00  0.74505805969E-08  0.10566000000E+00  0.10566000000E+00 0. -1.
     999900   -1    0    0    0    0 -0.00000000000E+00 -0.00000000000E+00 -0.74505805969E-08  0.93827000000E+00  0.93827000000E+00 0. -1.
     999902    2    1    2    0    0  0.53776665668E-02 -0.10208083444E-01 -0.20145227984E-01  0.10207146069E+01  0.10204505644E+01 0.  0.
     999903    2    3    3    0    0 -0.68049775691E-01  0.98818342178E-01 -0.47181418700E-01  0.13054085626E+00  0.20469297978E-01 0.  0.
         14    1    1    2    0    0 -0.53776665668E-02  0.10208083444E-01  0.20145227984E-01  0.23215393079E-01  0.00000000000E+00 0. -1.
     999901    1    3    3    0    0  0.73427442258E-01 -0.10902642562E+00  0.27036190716E-01  0.89017375066E+00  0.88000000000E+00 0. -1.
        -11    1    4    4    0    0 -0.36300757016E-01  0.51783568989E-01 -0.13898484712E-01  0.64751154241E-01  0.51100000000E-03 0. -1.
         11    1    4    4    0    0 -0.31749018675E-01  0.47034773188E-01 -0.33282933987E-01  0.65789702017E-01  0.51100000000E-03 0.  1.
</event>
<event>
 8    1  0.1157726E+005  0.1043930E+01  0.7957747E-01            NaN
         13   -1    0    0    0    0  0.00000000000E+00  0.00000000000E+00  0.74505805969E-08  0.10566000000E+00  0.10566000000E+00 0. -1.
     999900   -1    0    0    0    0 -0.00000000000E+00 -0.00000000000E+00 -0.74505805969E-08  0.93827000000E+00  0.93827000000E+00 0.  1.
     999902    2    1    2    0    0 -0.11949241261E-01  0.73881624088E-02 -0.19689959797E-01  0.10197419073E+01  0.10194549984E+01 0.  0.
     999903    2    3    3    0    0 -0.96933317370E-01  0.19119291519E-01 -0.86772140516E-01  0.13302891455E+00  0.20141311088E-01 0.  0.
         14    1    1    2    0    0  0.11949241261E-01 -0.73881624088E-02  0.19689959797E-01  0.24188092676E-01  0.00000000000E+00 0. -1.
     999901    1    3    3    0    0  0.84984076109E-01 -0.11731129111E-01  0.67082180720E-01  0.88671299277E+00  0.88000000000E+00 0. -1.
        -11    1    4    4    0    0 -0.71015232435E-01  0.22666354790E-01 -0.61311602928E-01  0.96520985552E-01  0.51100000000E-03 0.  1.
         11    1    4    4    0    0 -0.25918084935E-01 -0.35470632711E-02 -0.25460537589E-01  0.36507929000E-01  0.51100000000E-03 0. -1.
</event>
<event>
 8    1  0.1157726E+005  0.1043930E+01  0.7957747E-01            NaN
         13   -1    0    0    0    0  0.00000000000E+00  0.00000000000E+00  0.74505805969E-08  0.10566000000E+00  0.10566000000E+00 0. -1.
     999900   -1    0    0    0    0 -0.00000000000E+00 -0.00000000000E+00 -0.74505805969E-08  0.93827000000E+00  0.93827000000E+00 0.  1.
     999902    2    1    2    0    0  0.11772646190E-01  0.17194783072E-01  0.86470753156E-02  0.10213683583E+01  0.10211191389E+01 0.  0.
     999903    2    3    3    0    0  0.73746203051E-01  0.96746834826E-01 -0.50793857569E-01  0.13361699945E+00  0.21795276168E-01 0.  0.
         14    1    1    2    0    0 -0.11772646190E-01 -0.17194783072E-01 -0.86470753156E-02  0.22561641667E-01  0.00000000000E+00 0.  1.
     999901    1    3    3    0    0 -0.61973556861E-01 -0.79552051754E-01  0.59440932885E-01  0.88775135888E+00  0.88000000000E+00 0. -1.
        -11    1    4    4    0    0  0.52369269697E-01  0.72840101166E-01 -0.27024703133E-01  0.93695338448E-01  0.51100000000E-03 0.  1.
         11    1    4    4    0    0  0.21376933354E-01  0.23906733660E-01 -0.23769154436E-01  0.39921661007E-01  0.51100000000E-03 0. -1.
</event>
<event>
 8    1  0.1157726E+005  0.1043930E+01  0.7957747E-01            NaN
         13   -1    0    0    0    0  0.00000000000E+00  0.00000000000E+00  0.74505805969E-08  0.10566000000E+00  0.10566000000E+00 0.  1.
     999900   -1    0    0    0    0 -0.00000000000E+00 -0.00000000000E+00 -0.74505805969E-08  0.93827000000E+00  0.93827000000E+00 0. -1.
     999902    2    1    2    0    0  0.42412096080E-02 -0.17153368645E-01 -0.15625644600E-01  0.10203421497E+01  0.10200694661E+01 0.  0.
     999903    2    3    3    0    0  0.73648659117E-01 -0.10453194900E+00  0.27947679252E-01  0.13222557797E+00  0.18747728942E-01 0.  0.
         14    1    1    2    0    0 -0.42412096080E-02  0.17153368645E-01  0.15625644600E-01  0.23587850347E-01  0.00000000000E+00 0. -1.
     999901    1    3    3    0    0 -0.69407449509E-01  0.87378580359E-01 -0.43573323852E-01  0.88811657169E+00  0.88000000000E+00 0.  1.
        -11    1    4    4    0    0  0.52952131396E-01 -0.76114163842E-01  0.28684560343E-01  0.97058535327E-01  0.51100000000E-03 0. -1.
         11    1    4    4    0    0  0.20696527722E-01 -0.28417785163E-01 -0.73688109040E-03  0.35167042640E-01  0.51100000000E-03 0.  1.
</event>
<event>
 8    1  0.1157726E+005  0.1043930E+01  0.7957747E-01            NaN
         13   -1    0    0    0    0  0.00000000000E+00  0.00000000000E+00  0.74505805969E-08  0.10566000000E+00  0.10566000000E+00 0.  1.
     999900   -1    0    0    0    0 -0.00000000000E+00 -0.00000000000E+00 -0.74505805969E-08  0.93827000000E+00  0.93827000000E+00 0.  1.
     999902    2    1    2    0    0 -0.79553446736E-02 -0.22603485386E-01 -0.27378988695E-03  0.10199658597E+01  0.10196843016E+01 0.  0.
     999903    2    3    3    0    0  0.97891442078E-01 -0.34283409422E-01  0.76688106166E-01  0.13021134503E+00  0.17771948503E-01 0.  0.
         14    1    1    2    0    0  0.79553446736E-02  0.22603485386E-01  0.27378988695E-03  0.23964140322E-01  0.00000000000E+00 0. -1.
     999901    1    3    3    0    0 -0.10584678675E+00  0.11679924035E-01 -0.76961896053E-01  0.88975451465E+00  0.88000000000E+00 0.  1.
        -11    1    4    4    0    0  0.80089173363E-01 -0.20561839834E-01  0.58434289848E-01  0.10125162862E+00  0.51100000000E-03 0. -1.
         11    1    4    4    0    0  0.17802268715E-01 -0.13721569587E-01  0.18253816318E-01  0.28959716409E-01  0.51100000000E-03 0.  1.
</event>
<event>
 8    1  0.1157726E+005  0.1043930E+01  0.7957747E-01            NaN
         13   -1    0    0    0    0  0.00000000000E+00  0.00000000000E+00  0.74505805969E-08  0.10566000000E+00  0.10566000000E+00 0. -1.
     999900   -1    0    0    0    0 -0.00000000000E+00 -0.00000000000E+00 -0.74505805969E-08  0.93827000000E+00  0.93827000000E+00 0. -1.
     999902    2    1    2    0    0 -0.82406592162E-02  0.17333770122E-01  0.13445320885E-01  0.10204961633E+01  0.10202270701E+01 0.  0.
     999903    2    3    3    0    0  0.92829563582E-01  0.13502195536E-01 -0.86448026451E-01  0.12908797856E+00  0.19768858638E-01 0.  0.
         14    1    1    2    0    0  0.82406592162E-02 -0.17333770122E-01 -0.13445320885E-01  0.23433836747E-01  0.00000000000E+00 0. -1.
     999901    1    3    3    0    0 -0.10107022280E+00  0.38315745861E-02  0.99893347336E-01  0.89140818470E+00  0.88000000000E+00 0.  1.
        -11    1    4    4    0    0  0.31125980992E-01  0.10371808676E-01 -0.40312468002E-01  0.51978431155E-01  0.51100000000E-03 0.  1.
         11    1    4    4    0    0  0.61703582589E-01  0.31303868604E-02 -0.46135558449E-01  0.77109547402E-01  0.51100000000E-03 0. -1.
</event>
<event>
 8    1  0.1157726E+005  0.1043930E+01  0.7957747E-01            NaN
         13   -1    0    0    0    0  0.00000000000E+00  0.00000000000E+00  0.74505805969E-08  0.10566000000E+00  0.10566000000E+00 0.  1.
     999900   -1    0    0    0    0 -0.00000000000E+00 -0.00000000000E+00 -0.74505805969E-08  0.93827000000E+00  0.93827000000E+00 0.  1.
     999902    2    1    2    0    0 -0.86066937935E-02 -0.50283277792E-02 -0.21878341918E-01  0.10198879306E+01  0.10196045164E+01 0.  0.
     999903    2    3    3    0    0  0.40790511936E-01  0.11647018079E+00  0.29914445840E-01  0.12866154832E+00  0.20730438211E-01 0.  0.
         14    1    1    2    0    0  0.86066937935E-02  0.50283277792E-02  0.21878341918E-01  0.24042069449E-01  0.00000000000E+00 0.  1.
     999901    1    3    3    0    0 -0.49397205730E-01 -0.12149850857E+00 -0.51792787759E-01  0.89122638223E+00  0.88000000000E+00 0.  1.
        -11    1    4    4    0    0  0.22969774613E-01  0.39536057117E-01  0.58264602310E-02  0.46096844989E-01  0.51100000000E-03 0. -1.
         11    1    4    4    0    0  0.17820737323E-01  0.76934123676E-01  0.24087985609E-01  0.82564703331E-01  0.51100000000E-03 0.  1.
</event>
<event>
 8    1  0.1157726E+005  0.1043930E+01  0.7957747E-01            NaN
         13   -1    0    0    0    0  0.00000000000E+00  0.00000000000E+00  0.74505805969E-08  0.10566000000E+00  0.10566000000E+00 0.  1.
     999900   -1    0    0    0    0 -0.00000000000E+00 -0.00000000000E+00 -0.74505805969E-08  0.93827000000E+00  0.93827000000E+00 0. -1.
     999902    2    1    2    0    0  0.22303680195E-01  0.80190495256E-02 -0.34297948180E-02  0.10199816640E+01  0.10197004815E+01 0.  0.
     999903    2    3    3    0    0  0.12319020314E+00 -0.16506985056E-01  0.41983726947E-01  0.13271507223E+00  0.20058672987E-01 0.  0.
         14    1    1    2    0    0 -0.22303680195E-01 -0.80190495256E-02  0.34297948180E-02  0.23948336018E-01  0.00000000000E+00 0.  1.
     999901    1    3    3    0    0 -0.10088652295E+00  0.24526034581E-01 -0.45413521765E-01  0.88726659175E+00  0.88000000000E+00 0. -1.
        -11    1    4    4    0    0  0.55034254931E-01 -0.13094968403E-01  0.10414567241E-01  0.57523662480E-01  0.51100000000E-03 0. -1.
         11    1    4    4    0    0  0.68155948211E-01 -0.34120166525E-02  0.31569159706E-01  0.75191409747E-01  0.51100000000E-03 0.  1.
</event>
<event>
 8    1  0.1157726E+005  0.1043930E+01  0.7957747E-01            NaN
         13   -1    0    0    0    0  0.00000000000E+00  0.00000000000E+00  0.74505805969E-08  0.10566000000E+00  0.10566000000E+00 0. -1.
     999900   -1    0    0    0    0 -0.00000000000E+00 -0.00000000000E+00 -0.74505805969E-08  0.93827000000E+00  0.93827000000E+00 0. -1.
     999902    2    1    2    0    0 -0.85657287723E-02 -0.55924859076E-03 -0.22968419868E-01  0.10194099515E+01  0.10191150163E+01 0.  0.
     999903    2    3    3    0    0  0.11703503987E+00 -0.41942852372E-01 -0.30102919994E-01  0.12950037358E+00  0.20193007268E-01 0.  0.
         14    1    1    2    0    0  0.85657287723E-02  0.55924859076E-03  0.22968419868E-01  0.24520048524E-01  0.00000000000E+00 0. -1.
     999901    1    3    3    0    0 -0.12560076864E+00  0.41383603782E-01  0.71345001262E-02  0.88990957790E+00  0.88000000000E+00 0. -1.
        -11    1    4    4    0    0  0.10864544150E+00 -0.44079804084E-01 -0.27279276164E-01  0.12037973715E+00  0.51100000000E-03 0. -1.
         11    1    4    4    0    0  0.83895983694E-02  0.21369517120E-02 -0.28236438296E-02  0.91206364304E-02  0.51100000000E-03 0.  1.
</event>
<event>
 8    1  0.1157726E+005  0.1043930E+01  0.7957747E-01            NaN
         13   -1    0    0    0    0  0.00000000000E+00  0.00000000000E+00  0.74505805969E-08  0.10566000000E+00  0.10566000000E+00 0. -1.
     999900   -1    0    0    0    0 -0.00000000000E+00 -0.00000000000E+00 -0.74505805969E-08  0.93827000000E+00  0.93827000000E+00 0. -1.
     999902    2    1    2    0    0 -0.28653820324E-02  0.15624401280E-01 -0.18537287396E-01  0.10195176393E+01  0.10192253203E+01 0.  0.
     999903    2    3    3    0    0 -0.89403125672E-01 -0.83425936815E-01  0.29741425261E-01  0.12843370128E+00  0.25648731637E-01 0.  0.
         14    1    1    2    0    0  0.28653820324E-02 -0.15624401280E-01  0.18537287396E-01  0.24412360671E-01  0.00000000000E+00 0. -1.
     999901    1    3    3    0    0  0.86537743640E-01  0.99050338096E-01 -0.48278712656E-01  0.89108393805E+00  0.88000000000E+00 0. -1.
        -11    1    4    4    0    0 -0.28880633501E-01 -0.44215258441E-01  0.11677121639E-01  0.54089706610E-01  0.51100000000E-03 0.  1.
         11    1    4    4    0    0 -0.60522492172E-01 -0.39210678375E-01  0.18064303622E-01  0.74343994671E-01  0.51100000000E-03 0. -1.
</event>
<event>
 8    1  0.1157726E+005  0.1043930E+01  0.7957747E-01            NaN
         13   -1    0    0    0    0  0.00000000000E+00  0.00000000000E+00  0.74505805969E-08  0.10566000000E+00  0.10566000000E+00 0. -1.
     999900   -1    0    0    0    0 -0.00000000000E+00 -0.00000000000E+00 -0.74505805969E-08  0.93827000000E+00  0.93827000000E+00 0.  1.
     999902    2    1    2    0    0  0.12231592387E-01 -0.16024366514E-01  0.14079949534E-01  0.10193406293E+01  0.10190440036E+01 0.  0.
     999903    2    3    3    0    0  0.63613597989E-01  0.19208119129E-01  0.11126659653E+00  0.13180094964E+00  0.23991522122E-01 0.  0.
         14    1    1    2    0    0 -0.12231592387E-01  0.16024366514E-01 -0.14079949534E-01  0.24589370740E-01  0.00000000000E+00 0.  1.
     999901    1    3    3    0    0 -0.51382005601E-01 -0.35232485643E-01 -0.97186646995E-01  0.88753967962E+00  0.88000000000E+00 0.  1.
        -11    1    4    4    0    0  0.50699106382E-01  0.24007550457E-01  0.80854703315E-01  0.98409887898E-01  0.51100000000E-03 0. -1.
         11    1    4    4    0    0  0.12914491607E-01 -0.47994313280E-02  0.30411893213E-01  0.33391061743E-01  0.51100000000E-03 0.  1.
</event>
<event>
 8    1  0.1157726E+005  0.1043930E+01  0.7957747E-01            NaN
         13   -1    0    0    0    0  0.00000000000E+00  0.00000000000E+00  0.74505805969E-08  0.10566000000E+00  0.10566000000E+00 0. -1.
     999900   -1    0    0    0    0 -0.00000000000E+00 -0.00000000000E+00 -0.74505805969E-08  0.93827000000E+00  0.93827000000E+00 0.  1.
     999902    2    1    2    0    0 -0.80709200520E-02 -0.16773647625E-01 -0.14728716690E-01  0.10201933174E+01  0.10199171411E+01 0.  0.
     999903    2    3    3    0    0  0.12653522080E+00 -0.10937069907E-01  0.15871557679E-01  0.12941317866E+00  0.19107141792E-01 0.  0.
         14    1    1    2    0    0  0.80709200520E-02  0.16773647625E-01  0.14728716690E-01  0.23736682592E-01  0.00000000000E+00 0. -1.
     999901    1    3    3    0    0 -0.13460614085E+00 -0.58365777180E-02 -0.30600274369E-01  0.89078013875E+00  0.88000000000E+00 0. -1.
        -11    1    4    4    0    0  0.48407278067E-01 -0.13413484208E-01  0.76515646610E-02  0.50813321986E-01  0.51100000000E-03 0.  1.
         11    1    4    4    0    0  0.78127942731E-01  0.24764143013E-02  0.82199930184E-02  0.78599856676E-01  0.51100000000E-03 0. -1.
</event>
<event>
 8    1  0.1157726E+005  0.1043930E+01  0.7957747E-01            NaN
         13   -1    0    0    0    0  0.00000000000E+00  0.00000000000E+00  0.74505805969E-08  0.10566000000E+00  0.10566000000E+00 0.  1.
     999900   -1    0    0    0    0 -0.00000000000E+00 -0.00000000000E+00 -0.74505805969E-08  0.93827000000E+00  0.93827000000E+00 0.  1.
     999902    2    1    2    0    0  0.14092117868E-01 -0.36095125869E-02  0.18541600516E-01  0.10203629188E+01  0.10200907208E+01 0.  0.
     999903    2    3    3    0    0  0.62738078188E-01 -0.41820583759E-01 -0.10385243207E+00  0.12974132988E+00  0.19038312740E-01 0.  0.
         14    1    1    2    0    0 -0.14092117868E-01  0.36095125869E-02 -0.18541600516E-01  0.23567081212E-01  0.00000000000E+00 0. -1.
     999901    1    3    3    0    0 -0.48645960320E-01  0.38211071172E-01  0.12239403258E+00  0.89062158891E+00  0.88000000000E+00 0. -1.
        -11    1    4    4    0    0  0.28476580210E-01 -0.27771190504E-01 -0.43622776637E-01  0.59036957959E-01  0.51100000000E-03 0.  1.
         11    1    4    4    0    0  0.34261497978E-01 -0.14049393256E-01 -0.60229655431E-01  0.70704371922E-01  0.51100000000E-03 0. -1.
</event>
<event>
 8    1  0.1157726E+005  0.1043930E+01  0.7957747E-01            NaN
         13   -1    0    0    0    0  0.00000000000E+00  0.00000000000E+00  0.74505805969E-08  0.10566000000E+00  0.10566000000E+00 0. -1.
     999900   -1    0    0    0    0 -0.00000000000E+00 -0.00000000000E+00 -0.74505805969E-08  0.93827000000E+00  0.93827000000E+00 0. -1.
     999902    2    1    2    0    0 -0.76172237980E-03  0.12150337605E-01 -0.19210065000E-01  0.10211871435E+01  0.10209338590E+01 0.  0.
     999903    2    3    3    0    0 -0.75283973186E-01  0.10794316614E+00 -0.63971959512E-02  0.13276494573E+00  0.16315727443E-01 0.  0.
         14    1    1    2    0    0  0.76172237980E-03 -0.12150337605E-01  0.19210065000E-01  0.22742856510E-01  0.00000000000E+00 0. -1.
     999901    1    3    3    0    0  0.74522250807E-01 -0.95792828539E-01 -0.12812869049E-01  0.88842219776E+00  0.88000000000E+00 0. -1.
        -11    1    4    4    0    0 -0.30911582666E-01  0.37937870635E-01  0.45932894809E-02  0.49154525738E-01  0.51100000000E-03 0.  1.
         11    1    4    4    0    0 -0.44372390520E-01  0.70005295509E-01 -0.10990485432E-01  0.83610419989E-01  0.51100000000E-03 0. -1.
</event>
<event>
 8    1  0.1157726E+005  0.1043930E+01  0.7957747E-01            NaN
         13   -1    0    0    0    0  0.00000000000E+00  0.00000000000E+00  0.74505805969E-08  0.10566000000E+00  0.10566000000E+00 0.  1.
     999900   -1    0    0    0    0 -0.00000000000E+00 -0.00000000000E+00 -0.74505805969E-08  0.93827000000E+00  0.93827000000E+00 0. -1.
     999902    2    1    2    0    0  0.65410728316E-02 -0.23204550934E-01 -0.42939480085E-02  0.10194417414E+01  0.10191475798E+01 0.  0.
     999903    2    3    3    0    0 -0.40747339936E-01  0.90878709118E-01 -0.77628463763E-01  0.12779767826E+00  0.19666791780E-01 0.  0.
         14    1    1    2    0    0 -0.65410728316E-02  0.23204550934E-01  0.42939480085E-02  0.24488258561E-01  0.00000000000E+00 0. -1.
     999901    1    3    3    0    0  0.47288412768E-01 -0.11408326005E+00  0.73334515755E-01  0.89164406318E+00  0.88000000000E+00 0. -1.
        -11    1    4    4    0    0 -0.39942113573E-01  0.70087573594E-01 -0.63032947448E-01  0.10237701888E+00  0.51100000000E-03 0.  1.
         11    1    4    4    0    0 -0.80522636312E-03  0.20791135524E-01 -0.14595516315E-01  0.25420659381E-01  0.51100000000E-03 0. -1.
</event>
<event>
 8    1  0.1157726E+005  0.1043930E+01  0.7957747E-01            NaN
         13   -1    0    0    0    0  0.00000000000E+00  0.00000000000E+00  0.74505805969E-08  0.10566000000E+00  0.10566000000E+00 0. -1.
     999900   -1    0    0    0    0 -0.00000000000E+00 -0.00000000000E+00 -0.74505805969E-08  0.93827000000E+00  0.93827000000E+00 0.  1.
     999902    2    1    2    0    0 -0.74289534981E-02  0.14667169746E-01 -0.16664160168E-01  0.10205203983E+01  0.10202518679E+01 0.  0.
     999903    2    3    3    0    0 -0.69672881982E-01 -0.89630161417E-01  0.58085893421E-01  0.12903859228E+00  0.19725895780E-01 0.  0.
         14    1    1    2    0    0  0.74289534981E-02 -0.14667169746E-01  0.16664160168E-01  0.23409601717E-01  0.00000000000E+00 0. -1.
     999901    1    3    3    0    0  0.62243928483E-01  0.10429733116E+00 -0.74750053589E-01  0.89148180600E+00  0.88000000000E+00 0.  1.
        -11    1    4    4    0    0 -0.36530069532E-01 -0.31336833633E-01  0.22698137383E-01  0.53215690204E-01  0.51100000000E-03 0.  1.
         11    1    4    4    0    0 -0.33142812449E-01 -0.58293327784E-01  0.35387756038E-01  0.75822902078E-01  0.51100000000E-03 0. -1.
</event>
<event>
 8    1  0.1157726E+005  0.1043930E+01  0.7957747E-01            NaN
         13   -1    0    0    0    0  0.00000000000E+00  0.00000000000E+00  0.74505805969E-08  0.10566000000E+00  0.10566000000E+00 0. -1.
     999900   -1    0    0    0    0 -0.00000000000E+00 -0.00000000000E+00 -0.74505805969E-08  0.93827000000E+00  0.93827000000E+00 0.  1.
     999902    2    1    2    0    0  0.27431184514E-02  0.19213069325E-01 -0.13594094660E-01  0.10202347232E+01  0.10199595209E+01 0.  0.
     999903    2    3    3    0    0 -0.11844810282E+00  0.35972365519E-01  0.35720784382E-01  0.13040319793E+00  0.20125989403E-01 0.  0.
         14    1    1    2    0    0 -0.27431184514E-02 -0.19213069325E-01  0.13594094660E-01  0.23695276772E-01  0.00000000000E+00 0. -1.
     999901    1    3    3    0    0  0.12119122127E+00 -0.16759296194E-01 -0.49314879042E-01  0.88983152530E+00  0.88000000000E+00 0.  1.
        -11    1    4    4    0    0 -0.69355741221E-01  0.11531475752E-01  0.24249611675E-01  0.74374044940E-01  0.51100000000E-03 0. -1.
         11    1    4    4    0    0 -0.49092361602E-01  0.24440889766E-01  0.11471172708E-01  0.56029152987E-01  0.51100000000E-03 0.  1.
</event>
<event>
 8    1  0.1157726E+005  0.1043930E+01  0.7957747E-01            NaN
         13   -1    0    0    0    0  0.00000000000E+00  0.00000000000E+00  0.74505805969E-08  0.10566000000E+00  0.10566000000E+00 0.  1.
     999900   -1    0    0    0    0 -0.00000000000E+00 -0.00000000000E+00 -0.74505805969E-08  0.93827000000E+00  0.93827000000E+00 0. -1.
     999902    2    1    2    0    0 -0.74210173502E-02  0.25383043211E-01  0.37570034673E-02  0.10172188515E+01  0.10168680870E+01 0.  0.
     999903    2    3    3    0    0 -0.10251702054E+00 -0.27994354619E-01  0.68819715873E-01  0.12810381224E+00  0.19519478121E-01 0.  0.
         14    1    1    2    0    0  0.74210173502E-02 -0.25383043211E-01 -0.37570034673E-02  0.26711148538E-01  0.00000000000E+00 0. -1.
     999901    1    3    3    0    0  0.95096003194E-01  0.53377397830E-01 -0.65062712406E-01  0.88911503922E+00  0.88000000000E+00 0. -1.
        -11    1    4    4    0    0 -0.98238994284E-01 -0.22415074695E-01  0.66287771662E-01  0.12061370305E+00  0.51100000000E-03 0.  1.
         11    1    4    4    0    0 -0.42780262606E-02 -0.55792799236E-02  0.25319442111E-02  0.74901091875E-02  0.51100000000E-03 0. -1.
</event>
<event>
 8    1  0.1157726E+005  0.1043930E+01  0.7957747E-01            NaN
         13   -1    0    0    0    0  0.00000000000E+00  0.00000000000E+00  0.74505805969E-08  0.10566000000E+00  0.10566000000E+00 0. -1.
     999900   -1    0    0    0    0 -0.00000000000E+00 -0.00000000000E+00 -0.74505805969E-08  0.93827000000E+00  0.93827000000E+00 0.  1.
     999902    2    1    2    0    0 -0.19121990244E-01 -0.12380162827E-01  0.72686358484E-02  0.10200186636E+01  0.10197383596E+01 0.  0.
     999903    2    3    3    0    0 -0.56958441622E-01 -0.46554705474E-01 -0.10675348301E+00  0.13119891807E+00  0.20130705219E-01 0.  0.
         14    1    1    2    0    0  0.19121990244E-01  0.12380162827E-01 -0.72686358484E-02  0.23911336425E-01  0.00000000000E+00 0. -1.
     999901    1    3    3    0    0  0.37836451378E-01  0.34174542646E-01  0.11402211886E+00  0.88881974551E+00  0.88000000000E+00 0. -1.
        -11    1    4    4    0    0 -0.18782218259E-01 -0.28057091554E-01 -0.50239245323E-01  0.60532759732E-01  0.51100000000E-03 0. -1.
         11    1    4    4    0    0 -0.38176223363E-01 -0.18497613919E-01 -0.56514237690E-01  0.70666158333E-01  0.51100000000E-03 0.  1.
</event>
<event>
 8    1  0.1157726E+005  0.1043930E+01  0.7957747E-01            NaN
         13   -1    0    0    0    0  0.00000000000E+00  0.00000000000E+00  0.74505805969E-08  0.10566000000E+00  0.10566000000E+00 0. -1.
     999900   -1    0    0    0    0 -0.00000000000E+00 -0.00000000000E+00 -0.74505805969E-08  0.93827000000E+00  0.93827000000E+00 0. -1.
     999902    2    1    2    0    0  0.15962552813E-01 -0.83063627029E-02  0.13854863321E-01  0.10212197382E+01  0.10209671874E+01 0.  0.
     999903    2    3    3    0    0 -0.52373815747E-01 -0.11905670813E+00  0.18134038316E-01  0.13163904505E+00  0.90817679248E-02 0.  0.
         14    1    1    2    0    0 -0.15962552813E-01  0.83063627029E-02 -0.13854863321E-01  0.22710261806E-01  0.00000000000E+00 0.  1.
     999901    1    3    3    0    0  0.68336368559E-01  0.11075034543E+00 -0.42791749950E-02  0.88958069315E+00  0.88000000000E+00 0.  1.
        -11    1    4    4    0    0 -0.50093330900E-01 -0.11514842762E+00  0.15930481110E-01  0.12658018618E+00  0.51100000000E-03 0.  1.
         11    1    4    4    0    0 -0.22804848466E-02 -0.39082805145E-02  0.22035572061E-02  0.50588588709E-02  0.51100000000E-03 0. -1.
</event>
<event>
 8    1  0.1157726E+005  0.1043930E+01  0.7957747E-01            NaN
         13   -1    0    0    0    0  0.00000000000E+00  0.00000000000E+00  0.74505805969E-08  0.10566000000E+00  0.10566000000E+00 0.  1.
     999900   -1    0    0    0    0 -0.00000000000E+00 -0.00000000000E+00 -0.74505805969E-08  0.93827000000E+00  0.93827000000E+00 0.  1.
     999902    2    1    2    0    0 -0.17739050377E-02 -0.16870296902E-01  0.16296891520E-01  0.10204067704E+01  0.10201355963E+01 0.  0.
     999903    2    3    3    0    0 -0.89851541892E-01 -0.10045740404E-01  0.94877099253E-01  0.13249962790E+00  0.19500537202E-01 0.  0.
         14    1    1    2    0    0  0.17739050377E-02  0.16870296902E-01 -0.16296891520E-01  0.23523229580E-01  0.00000000000E+00 0. -1.
     999901    1    3    3    0    0  0.88077636855E-01 -0.68245564977E-02 -0.78580207733E-01  0.88790714252E+00  0.88000000000E+00 0.  1.
        -11    1    4    4    0    0 -0.37698857280E-02  0.25752297181E-02  0.97481081449E-02  0.10776389929E-01  0.51100000000E-03 0.  1.
         11    1    4    4    0    0 -0.86081656164E-01 -0.12620970122E-01  0.85128991108E-01  0.12172323797E+00  0.51100000000E-03 0. -1.
</event>
<event>
 8    1  0.1157726E+005  0.1043930E+01  0.7957747E-01            NaN
         13   -1    0    0    0    0  0.00000000000E+00  0.00000000000E+00  0.74505805969E-08  0.10566000000E+00  0.10566000000E+00 0. -1.
     999900   -1    0    0    0    0 -0.00000000000E+00 -0.00000000000E+00 -0.74505805969E-08  0.93827000000E+00  0.93827000000E+00 0. -1.
     999902    2    1    2    0    0  0.22148490510E-02 -0.22520079387E-01  0.47146838769E-02  0.10208153342E+01  0.10205536040E+01 0.  0.
     999903    2    3    3    0    0  0.71867042029E-01 -0.72765783222E-01  0.83265092136E-01  0.13315198280E+00  0.18347861397E-01 0.  0.
         14    1    1    2    0    0 -0.22148490510E-02  0.22520079387E-01 -0.47146838769E-02  0.23114665820E-01  0.00000000000E+00 0.  1.
     999901    1    3    3    0    0 -0.69652192978E-01  0.50245703835E-01 -0.78550408260E-01  0.88766335138E+00  0.88000000000E+00 0. -1.
        -11    1    4    4    0    0  0.26038458511E-01 -0.38883169198E-01  0.40604030277E-01  0.61958458375E-01  0.51100000000E-03 0.  1.
         11    1    4    4    0    0  0.45828583519E-01 -0.33882614024E-01  0.42661061860E-01  0.71193524428E-01  0.51100000000E-03 0. -1.
</event>
<event>
 8    1  0.1157726E+005  0.1043930E+01  0.7957747E-01            NaN
         13   -1    0    0    0    0  0.00000000000E+00  0.00000000000E+00  0.74505805969E-08  0.10566000000E+00  0.10566000000E+00 0.  1.
     999900   -1    0    0    0    0 -0.00000000000E+00 -0.00000000000E+00 -0.74505805969E-08  0.93827000000E+00  0.93827000000E+00 0. -1.
     999902    2    1    2    0    0 -0.10599569368E-01 -0.52624506505E-02 -0.16752719218E-01  0.10234190795E+01  0.10232135234E+01 0.  0.
     999903    2    3    3    0    0  0.57160336094E-02 -0.89725686592E-01  0.94617507666E-01  0.13223808524E+00  0.21238327559E-01 0.  0.
         14    1    1    2    0    0  0.10599569368E-01  0.52624506505E-02  0.16752719218E-01  0.20510920478E-01  0.00000000000E+00 0.  1.
     999901    1    3    3    0    0 -0.16315602977E-01  0.84463235941E-01 -0.11137022688E+00  0.89118099428E+00  0.88000000000E+00 0.  1.
        -11    1    4    4    0    0  0.25724023456E-02 -0.70556245255E-01  0.60525194759E-01  0.92996566173E-01  0.51100000000E-03 0. -1.
         11    1    4    4    0    0  0.31436312638E-02 -0.19169441337E-01  0.34092312907E-01  0.39241519071E-01  0.51100000000E-03 0.  1.
</event>
<event>
 8    1  0.1157726E+005  0.1043930E+01  0.7957747E-01            NaN
         13   -1    0    0    0    0  0.00000000000E+00  0.00000000000E+00  0.74505805969E-08  0.10566000000E+00  0.10566000000E+00 0.  1.
     999900   -1    0    0    0    0 -0.00000000000E+00 -0.00000000000E+00 -0.74505805969E-08  0.93827000000E+00  0.93827000000E+00 0. -1.
     999902    2    1    2    0    0  0.18107875861E-01  0.50270464342E-02  0.12869093040E-01  0.10211532592E+01  0.10208992110E+01 0.  0.
     999903    2    3    3    0    0 -0.80247090391E-01  0.86372258016E-01 -0.50568875366E-01  0.12968530206E+00  0.19007996860E-01 0.  0.
         14    1    1    2    0    0 -0.18107875861E-01 -0.50270464342E-02 -0.12869093040E-01  0.22776740762E-01  0.00000000000E+00 0. -1.
     999901    1    3    3    0    0  0.98354966252E-01 -0.81345211581E-01  0.63437968406E-01  0.89146795717E+00  0.88000000000E+00 0. -1.
        -11    1    4    4    0    0 -0.29910160264E-01  0.44650735374E-01 -0.27342487123E-01  0.60300734486E-01  0.51100000000E-03 0. -1.
         11    1    4    4    0    0 -0.50336930127E-01  0.41721522641E-01 -0.23226388243E-01  0.69384567578E-01  0.51100000000E-03 0.  1.
</event>
<event>
 8    1  0.1157726E+005  0.1043930E+01  0.7957747E-01            NaN
         13   -1    0    0    0    0  0.00000000000E+00  0.00000000000E+00  0.74505805969E-08  0.10566000000E+00  0.10566000000E+00 0. -1.
     999900   -1    0    0    0    0 -0.00000000000E+00 -0.00000000000E+00 -0.74505805969E-08  0.93827000000E+00  0.93827000000E+00 0.  1.
     999902    2    1    2    0    0  0.72637249637E-02  0.20534392431E-01 -0.56706624367E-02  0.10214226815E+01  0.10211746741E+01 0.  0.
     999903    2    3    3    0    0 -0.90405742568E-01  0.59429531090E-01 -0.74080933231E-01  0.13252891854E+00  0.19257780959E-01 0.  0.
         14    1    1    2    0    0 -0.72637249637E-02 -0.20534392431E-01  0.56706624367E-02  0.22507318484E-01  0.00000000000E+00 0. -1.
     999901    1    3    3    0    0  0.97669467531E-01 -0.38895138659E-01  0.68410270794E-01  0.88889376297E+00  0.88000000000E+00 0. -1.
        -11    1    4    4    0    0 -0.48442057587E-01  0.23161431026E-01 -0.28840419175E-01  0.60951749192E-01  0.51100000000E-03 0. -1.
         11    1    4    4    0    0 -0.41963684981E-01  0.36268100064E-01 -0.45240514056E-01  0.71577169352E-01  0.51100000000E-03 0.  1.
</event>
<event>
 8    1  0.1157726E+005  0.1043930E+01  0.7957747E-01            NaN
         13   -1    0    0    0    0  0.00000000000E+00  0.00000000000E+00  0.74505805969E-08  0.10566000000E+00  0.10566000000E+00 0.  1.
     999900   -1    0    0    0    0 -0.00000000000E+00 -0.00000000000E+00 -0.74505805969E-08  0.93827000000E+00  0.93827000000E+00 0. -1.
     999902    2    1    2    0    0  0.73490760148E-02 -0.22174622298E-01  0.73565882710E-02  0.10194383242E+01  0.10191440794E+01 0.  0.
     999903    2    3    3    0    0 -0.60275199356E-01 -0.11460811028E+00 -0.14053197222E-01  0.13175855580E+00  0.19867211061E-01 0.  0.
         14    1    1    2    0    0 -0.73490760148E-02  0.22174622298E-01 -0.73565882710E-02  0.24491675796E-01  0.00000000000E+00 0.  1.
     999901    1    3    3    0    0  0.67624275371E-01  0.92433487980E-01  0.21409785493E-01  0.88767976840E+00  0.88000000000E+00 0. -1.
        -11    1    4    4    0    0 -0.48361445283E-01 -0.74723001115E-01 -0.49583004556E-02  0.89147081556E-01  0.51100000000E-03 0.  1.
         11    1    4    4    0    0 -0.11913754073E-01 -0.39885109162E-01 -0.90948967664E-02  0.42611474243E-01  0.51100000000E-03 0. -1.
</event>
<event>
 8    1  0.1157726E+005  0.1043930E+01  0.7957747E-01            NaN
         13   -1    0    0    0    0  0.00000000000E+00  0.00000000000E+00  0.74505805969E-08  0.10566000000E+00  0.10566000000E+00 0. -1.
     999900   -1    0    0    0    0 -0.00000000000E+00 -0.00000000000E+00 -0.74505805969E-08  0.93827000000E+00  0.93827000000E+00 0.  1.
     999902    2    1    2    0    0 -0.70625228654E-02  0.26994413344E-01 -0.63997638604E-02  0.10153024860E+01  0.10148988144E+01 0.  0.
     999903    2    3    3    0    0 -0.10445019344E+00  0.11113268342E-01  0.68010934776E-01  0.12666672190E+00  0.19637299814E-01 0.  0.
         14    1    1    2    0    0  0.70625228654E-02 -0.26994413344E-01  0.63997638604E-02  0.28627514012E-01  0.00000000000E+00 0. -1.
     999901    1    3    3    0    0  0.97387670577E-01  0.15881145002E-01 -0.74410698636E-01  0.88863576409E+00  0.88000000000E+00 0.  1.
        -11    1    4    4    0    0 -0.63670376984E-01  0.43777487455E-02  0.30043112362E-01  0.70540281476E-01  0.51100000000E-03 0. -1.
         11    1    4    4    0    0 -0.40779816459E-01  0.67355195964E-02  0.37967822414E-01  0.56126440423E-01  0.51100000000E-03 0.  1.
</event>
<event>
 8    1  0.1157726E+005  0.1043930E+01  0.7957747E-01            NaN
         13   -1    0    0    0    0  0.00000000000E+00  0.00000000000E+00  0.74505805969E-08  0.10566000000E+00  0.10566000000E+00 0.  1.
     999900   -1    0    0    0    0 -0.00000000000E+00 -0.00000000000E+00 -0.74505805969E-08  0.93827000000E+00  0.93827000000E+00 0.  1.
     999902    2    1    2    0    0 -0.11696868733E-02  0.28577879562E-01  0.74888728426E-02  0.10143640300E+01  0.10139330543E+01 0.  0.
     999903    2    3    3    0    0  0.12140618815E+00  0.25445240171E-01  0.78597895714E-02  0.12586259713E+00  0.19816515728E-01 0.  0.
         14    1    1    2    0    0  0.11696868733E-02 -0.28577879562E-01 -0.74888728426E-02  0.29565970035E-01  0.00000000000E+00 0. -1.
     999901    1    3    3    0    0 -0.12257587503E+00  0.31326393908E-02 -0.37091672882E-03  0.88850143283E+00  0.88000000000E+00 0. -1.
        -11    1    4    4    0    0  0.22152215645E-01  0.12274774037E-01  0.41504637290E-02  0.25668622982E-01  0.51100000000E-03 0. -1.
         11    1    4    4    0    0  0.99253972507E-01  0.13170466135E-01  0.37093258424E-02  0.10019397415E+00  0.51100000000E-03 0.  1.
</event>
<event>
 8    1  0.1157726E+005  0.1043930E+01  0.7957747E-01            NaN
         13   -1    0    0    0    0  0.00000000000E+00  0.00000000000E+00  0.74505805969E-08  0.10566000000E+00  0.10566000000E+00 0.  1.
     999900   -1    0    0    0    0 -0.00000000000E+00 -0.00000000000E+00 -0.74505805969E-08  0.93827000000E+00  0.93827000000E+00 0.  1.
     999902    2    1    2    0    0 -0.17206418076E-01 -0.10708497051E-01  0.12451609432E-01  0.10201439682E+01  0.10198666288E+01 0.  0.
     999903    2    3    3    0    0 -0.41010671857E-01 -0.69605866238E-01  0.10403616844E+00  0.13311337455E+00  0.19204018288E-01 0.  0.
         14    1    1    2    0    0  0.17206418076E-01  0.10708497051E-01 -0.12451609432E-01  0.23786031816E-01  0.00000000000E+00 0. -1.
     999901    1    3    3    0    0  0.23804253781E-01  0.58897369187E-01 -0.91584559012E-01  0.88703059364E+00  0.88000000000E+00 0. -1.
        -11    1    4    4    0    0 -0.19466496380E-01 -0.23278247783E-01  0.26697878285E-01  0.40421023330E-01  0.51100000000E-03 0.  1.
         11    1    4    4    0    0 -0.21544175477E-01 -0.46327618454E-01  0.77338290159E-01  0.92692351219E-01  0.51100000000E-03 0. -1.
</event>
<event>
 8    1  0.1157726E+005  0.1043930E+01  0.7957747E-01            NaN
         13   -1    0    0    0    0  0.00000000000E+00  0.00000000000E+00  0.74505805969E-08  0.10566000000E+00  0.10566000000E+00 0. -1.
     999900   -1    0    0    0    0 -0.00000000000E+00 -0.00000000000E+00 -0.74505805969E-08  0.93827000000E+00  0.93827000000E+00 0. -1.
     999902    2    1    2    0    0  0.13109498425E-01 -0.75026508205E-02 -0.17276124203E-01  0.10209819459E+01  0.10207240179E+01 0.  0.
     999903    2    3    3    0    0 -0.72577985998E-01  0.30010497798E-01 -0.10383978189E+00  0.13180094740E+00  0.20508422770E-01 0.  0.
         14    1    1    2    0    0 -0.13109498425E-01  0.75026508205E-02  0.17276124203E-01  0.22948054074E-01  0.00000000000E+00 0. -1.
     999901    1    3    3    0    0  0.85687484422E-01 -0.37513148618E-01  0.86563657682E-01  0.88918099852E+00  0.88000000000E+00 0.  1.
        -11    1    4    4    0    0 -0.43102561304E-01  0.89715336043E-02 -0.66732293416E-01  0.79948604188E-01  0.51100000000E-03 0.  1.
         11    1    4    4    0    0 -0.29475424694E-01  0.21038964193E-01 -0.37107488469E-01  0.51852343213E-01  0.51100000000E-03 0. -1.
</event>
<event>
 8    1  0.1157726E+005  0.1043930E+01  0.7957747E-01            NaN
         13   -1    0    0    0    0  0.00000000000E+00  0.00000000000E+00  0.74505805969E-08  0.10566000000E+00  0.10566000000E+00 0. -1.
     999900   -1    0    0    0    0 -0.00000000000E+00 -0.00000000000E+00 -0.74505805969E-08  0.93827000000E+00  0.93827000000E+00 0.  1.
     999902    2    1    2    0    0  0.21948215860E-01 -0.99608152353E-02 -0.39349654215E-02  0.10195081661E+01  0.10192156174E+01 0.  0.
     999903    2    3    3    0    0  0.33157256923E-01 -0.39445336232E-02  0.12412536720E+00  0.13014812254E+00  0.20407449257E-01 0.  0.
         14    1    1    2    0    0 -0.21948215860E-01  0.99608152353E-02  0.39349654215E-02  0.24421833929E-01  0.00000000000E+00 0.  1.
     999901    1    3    3    0    0 -0.11209041063E-01 -0.60162816121E-02 -0.12806033262E+00  0.88936004354E+00  0.88000000000E+00 0.  1.
        -11    1    4    4    0    0  0.77668401123E-02 -0.97328660048E-02  0.51718102969E-01  0.53198456573E-01  0.51100000000E-03 0. -1.
         11    1    4    4    0    0  0.25390416811E-01  0.57883323816E-02  0.72407264229E-01  0.76949665963E-01  0.51100000000E-03 0.  1.
</event>
<event>
 8    1  0.1157726E+005  0.1043930E+01  0.7957747E-01            NaN
         13   -1    0    0    0    0  0.00000000000E+00  0.00000000000E+00  0.74505805969E-08  0.10566000000E+00  0.10566000000E+00 0. -1.
     999900   -1    0    0    0    0 -0.00000000000E+00 -0.00000000000E+00 -0.74505805969E-08  0.93827000000E+00  0.93827000000E+00 0.  1.
     999902    2    1    2    0    0  0.88523832525E-02 -0.20998149650E-01 -0.80702118409E-02  0.10197553170E+01  0.10194687299E+01 0.  0.
     999903    2    3    3    0    0  0.11167460346E+00 -0.58150268153E-01  0.34312457711E-01  0.13197776630E+00  0.19700642113E-01 0.  0.
         14    1    1    2    0    0 -0.88523832525E-02  0.20998149650E-01  0.80702118409E-02  0.24174682978E-01  0.00000000000E+00 0. -1.
     999901    1    3    3    0    0 -0.10282222021E+00  0.37152118504E-01 -0.42382669552E-01  0.88777755072E+00  0.88000000000E+00 0.  1.
        -11    1    4    4    0    0  0.86259759835E-01 -0.45730057164E-01  0.34889448429E-01  0.10367988729E+00  0.51100000000E-03 0. -1.
         11    1    4    4    0    0  0.25414843629E-01 -0.12420210989E-01 -0.57699071742E-03  0.28297879019E-01  0.51100000000E-03 0.  1.
</event>
<event>
 8    1  0.1157726E+005  0.1043930E+01  0.7957747E-01            NaN
         13   -1    0    0    0    0  0.00000000000E+00  0.00000000000E+00  0.74505805969E-08  0.10566000000E+00  0.10566000000E+00 0. -1.
     999900   -1    0    0    0    0 -0.00000000000E+00 -0.00000000000E+00 -0.74505805969E-08  0.93827000000E+00  0.93827000000E+00 0. -1.
     999902    2    1    2    0    0 -0.14953025458E-01  0.14151958184E-01  0.11648145011E-01  0.10202751871E+01  0.10200009349E+01 0.  0.
     999903    2    3    3    0    0 -0.80103514675E-01  0.90956045577E-02  0.10410969036E+00  0.13302139572E+00  0.18882823080E-01 0.  0.
         14    1    1    2    0    0  0.14953025458E-01 -0.14151958184E-01 -0.11648145011E-01  0.23654812893E-01  0.00000000000E+00 0. -1.
     999901    1    3    3    0    0  0.65150489217E-01  0.50563536266E-02 -0.92461545349E-01  0.88725379138E+00  0.88000000000E+00 0. -1.
        -11    1    4    4    0    0 -0.62199274892E-01  0.24821106520E-02  0.89307063788E-01  0.10886194668E+00  0.51100000000E-03 0.  1.
         11    1    4    4    0    0 -0.17904239783E-01  0.66134939057E-02  0.14802626572E-01  0.24159449048E-01  0.51100000000E-03 0. -1.
</event>
<event>
 7    1  0.1157726E+005  0.1043930E+01  0.7957747E-01            NaN
         13   -1    0    0    0    0  0.00000000000E+00  0.00000000000E+00  0.74505805969E-08  0.10566000000E+00  0.10566000000E+00 0. -1.
     999900   -1    0    0    0    0 -0.00000000000E+00 -0.00000000000E+00 -0.74505805969E-08  0.93827000000E+00  0.93827000000E+00 0. -1.
     999902    2    1    2    0    0  0.80303694376E-02 -0.20829969296E-01 -0.77022240191E-02  0.10203143546E+01  0.10200410205E+01 0.  0.
         14    1    1    2    0    0 -0.80303694376E-02  0.20829969296E-01  0.77022240191E-02  0.23615645428E-01  0.00000000000E+00 0. -1.
     999901    1    3    3    0    0 -0.51329932342E-01 -0.10811476157E+00  0.57911538975E-01  0.88998725270E+00  0.88000000000E+00 0.  1.
        -11    1    3    3    0    0  0.43640501123E-01  0.31322663907E-01 -0.24003620114E-01  0.58839081502E-01  0.51100000000E-03 0. -1.
         11    1    3    3    0    0  0.15719800657E-01  0.55962128372E-01 -0.41610142880E-01  0.71488020368E-01  0.51100000000E-03 0.  1.
</event>
<event>
 8    1  0.1157726E+005  0.1043930E+01  0.7957747E-01            NaN
         13   -1    0    0    0    0  0.00000000000E+00  0.00000000000E+00  0.74505805969E-08  0.10566000000E+00  0.10566000000E+00 0.  1.
     999900   -1    0    0    0    0 -0.00000000000E+00 -0.00000000000E+00 -0.74505805969E-08  0.93827000000E+00  0.93827000000E+00 0.  1.
     999902    2    1    2    0    0 -0.65059833504E-02  0.18959555873E-01 -0.14181518780E-01  0.10193758139E+01  0.10190800469E+01 0.  0.
     999903    2    3    3    0    0 -0.96183553664E-01  0.63483205713E-02 -0.87515349881E-01  0.13169402374E+00  0.19819239471E-01 0.  0.
         14    1    1    2    0    0  0.65059833504E-02 -0.18959555873E-01  0.14181518780E-01  0.24554186062E-01  0.00000000000E+00 0. -1.
     999901    1    3    3    0    0  0.89677570314E-01  0.12611235302E-01  0.73333831102E-01  0.88768179020E+00  0.88000000000E+00 0.  1.
        -11    1    4    4    0    0 -0.21994509370E-01  0.58357480341E-02 -0.11607778752E-01  0.25550265089E-01  0.51100000000E-03 0.  1.
         11    1    4    4    0    0 -0.74189044294E-01  0.51257253726E-03 -0.75907571129E-01  0.10614375865E+00  0.51100000000E-03 0. -1.
</event>
<event>
 8    1  0.1157726E+005  0.1043930E+01  0.7957747E-01            NaN
         13   -1    0    0    0    0  0.00000000000E+00  0.00000000000E+00  0.74505805969E-08  0.10566000000E+00  0.10566000000E+00 0. -1.
     999900   -1    0    0    0    0 -0.00000000000E+00 -0.00000000000E+00 -0.74505805969E-08  0.93827000000E+00  0.93827000000E+00 0. -1.
     999902    2    1    2    0    0 -0.21994218203E-01  0.45637413387E-03 -0.74392780840E-02  0.10207072359E+01  0.10204430238E+01 0.  0.
     999903    2    3    3    0    0  0.24072707264E-01 -0.12623859653E+00 -0.87402696386E-02  0.13044015816E+00  0.20556362952E-01 0.  0.
         14    1    1    2    0    0  0.21994218203E-01 -0.45637413387E-03  0.74392780840E-02  0.23222764050E-01  0.00000000000E+00 0. -1.
     999901    1    3    3    0    0 -0.46066925467E-01  0.12669497067E+00  0.13009915546E-02  0.89026707779E+00  0.88000000000E+00 0. -1.
        -11    1    4    4    0    0  0.73461275561E-02 -0.12506037150E-01  0.32094172959E-02  0.14863648127E-01  0.51100000000E-03 0.  1.
         11    1    4    4    0    0  0.16726579707E-01 -0.11373255938E+00 -0.11949686935E-01  0.11557651003E+00  0.51100000000E-03 0. -1.
</event>
<event>
 8    1  0.1157726E+005  0.1043930E+01  0.7957747E-01            NaN
         13   -1    0    0    0    0  0.00000000000E+00  0.00000000000E+00  0.74505805969E-08  0.10566000000E+00  0.10566000000E+00 0.  1.
     999900   -1    0    0    0    0 -0.00000000000E+00 -0.00000000000E+00 -0.74505805969E-08  0.93827000000E+00  0.93827000000E+00 0.  1.
     999902    2    1    2    0    0 -0.16025359126E-01  0.67759871516E-02  0.12746895274E-01  0.10223612848E+01  0.10221337423E+01 0.  0.
     999903    2    3    3    0    0  0.10278687907E+00  0.40455347129E-01 -0.66021414749E-01  0.13025417580E+00  0.20138159970E-01 0.  0.
         14    1    1    2    0    0  0.16025359126E-01 -0.67759871516E-02 -0.12746895274E-01  0.21568715217E-01  0.00000000000E+00 0.  1.
     999901    1    3    3    0    0 -0.11881223820E+00 -0.33679359978E-01  0.78768310023E-01  0.89210710898E+00  0.88000000000E+00 0. -1.
        -11    1    4    4    0    0  0.38943449868E-01  0.51495453318E-02 -0.24761353789E-01  0.46438086386E-01  0.51100000000E-03 0. -1.
         11    1    4    4    0    0  0.63843429205E-01  0.35305801798E-01 -0.41260060961E-01  0.83816089414E-01  0.51100000000E-03 0.  1.
</event>
<event>
 8    1  0.1157726E+005  0.1043930E+01  0.7957747E-01            NaN
         13   -1    0    0    0    0  0.00000000000E+00  0.00000000000E+00  0.74505805969E-08  0.10566000000E+00  0.10566000000E+00 0. -1.
     999900   -1    0    0    0    0 -0.00000000000E+00 -0.00000000000E+00 -0.74505805969E-08  0.93827000000E+00  0.93827000000E+00 0. -1.
     999902    2    1    2    0    0  0.23044459365E-01  0.11605440086E-02  0.69347609471E-02  0.10198367462E+01  0.10195521095E+01 0.  0.
     999903    2    3    3    0    0 -0.11543387579E+00  0.44283941558E-01  0.10818648062E-01  0.12795617049E+00  0.31139866121E-01 0.  0.
         14    1    1    2    0    0 -0.23044459365E-01 -0.11605440086E-02 -0.69347609471E-02  0.24093253811E-01  0.00000000000E+00 0.  1.
     999901    1    3    3    0    0  0.13847833515E+00 -0.43123397550E-01 -0.38838871146E-02  0.89188057570E+00  0.88000000000E+00 0.  1.
        -11    1    4    4    0    0 -0.58681714411E-01  0.21610886421E-01 -0.10125858573E-01  0.63351149563E-01  0.51100000000E-03 0. -1.
         11    1    4    4    0    0 -0.56752161378E-01  0.22673055138E-01  0.20944506635E-01  0.64605020932E-01  0.51100000000E-03 0.  1.
</event>
<event>
 8    1  0.1157726E+005  0.1043930E+01  0.7957747E-01            NaN
         13   -1    0    0    0    0  0.00000000000E+00  0.00000000000E+00  0.74505805969E-08  0.10566000000E+00  0.10566000000E+00 0. -1.
     999900   -1    0    0    0    0 -0.00000000000E+00 -0.00000000000E+00 -0.74505805969E-08  0.93827000000E+00  0.93827000000E+00 0. -1.
     999902    2    1    2    0    0 -0.13163653024E-01  0.18710125538E-01  0.69399183611E-03  0.10210426196E+01  0.10207860691E+01 0.  0.
     999903    2    3    3    0    0  0.81567178173E-02  0.13174236208E+00 -0.44687972279E-02  0.13354191584E+00  0.19770966746E-01 0.  0.
         14    1    1    2    0    0  0.13163653024E-01 -0.18710125538E-01 -0.69399183611E-03  0.22887380436E-01  0.00000000000E+00 0.  1.
     999901    1    3    3    0    0 -0.21320370841E-01 -0.11303223654E+00  0.51627890640E-02  0.88750070372E+00  0.88000000000E+00 0.  1.
        -11    1    4    4    0    0 -0.17976789989E-02  0.35972650088E-01 -0.90683350605E-02  0.37145107699E-01  0.51100000000E-03 0. -1.
         11    1    4    4    0    0  0.99543968161E-02  0.95769711994E-01  0.45995378327E-02  0.96396808146E-01  0.51100000000E-03 0.  1.
</event>
<event>
 8    1  0.1157726E+005  0.1043930E+01  0.7957747E-01            NaN
         13   -1    0    0    0    0  0.00000000000E+00  0.00000000000E+00  0.74505805969E-08  0.10566000000E+00  0.10566000000E+00 0.  1.
     999900   -1    0    0    0    0 -0.00000000000E+00 -0.00000000000E+00 -0.74505805969E-08  0.93827000000E+00  0.93827000000E+00 0.  1.
     999902    2    1    2    0    0  0.52102261875E-02  0.16679948845E-01  0.16551045436E-01  0.10198612598E+01  0.10195772089E+01 0.  0.
     999903    2    3    3    0    0  0.11056383478E-01 -0.70147533612E-01  0.10809738332E+00  0.13084274410E+00  0.19795436726E-01 0.  0.
         14    1    1    2    0    0 -0.52102261875E-02 -0.16679948845E-01 -0.16551045436E-01  0.24068740212E-01  0.00000000000E+00 0. -1.
     999901    1    3    3    0    0 -0.58461572909E-02  0.86827482457E-01 -0.91546337880E-01  0.88901851569E+00  0.88000000000E+00 0.  1.
        -11    1    4    4    0    0 -0.53184828655E-02 -0.17456230729E-01  0.22100832375E-01  0.28665557102E-01  0.51100000000E-03 0.  1.
         11    1    4    4    0    0  0.16374866344E-01 -0.52691302883E-01  0.85996550940E-01  0.10217718699E+00  0.51100000000E-03 0. -1.
</event>
<event>
 8    1  0.1157726E+005  0.1043930E+01  0.7957747E-01            NaN
         13   -1    0    0    0    0  0.00000000000E+00  0.00000000000E+00  0.74505805969E-08  0.10566000000E+00  0.10566000000E+00 0.  1.
     999900   -1    0    0    0    0 -0.00000000000E+00 -0.00000000000E+00 -0.74505805969E-08  0.93827000000E+00  0.93827000000E+00 0.  1.
     999902    2    1    2    0    0 -0.72000201638E-02 -0.16548733971E-01  0.14519374026E-01  0.10207672474E+01  0.10205044146E+01 0.  0.
     999903    2    3    3    0    0  0.56298522782E-01 -0.38884529945E-01  0.11208805485E+00  0.13281983892E+00  0.19895909987E-01 0.  0.
         14    1    1    2    0    0  0.72000201638E-02  0.16548733971E-01 -0.14519374026E-01  0.23162752611E-01  0.00000000000E+00 0. -1.
     999901    1    3    3    0    0 -0.63498542945E-01  0.22335795973E-01 -0.97568680820E-01  0.88794740847E+00  0.88000000000E+00 0.  1.
        -11    1    4    4    0    0  0.43075811870E-01 -0.25311374615E-01  0.64451884536E-01  0.81550584268E-01  0.51100000000E-03 0.  1.
         11    1    4    4    0    0  0.13222710912E-01 -0.13573155329E-01  0.47636170309E-01  0.51269254648E-01  0.51100000000E-03 0. -1.
</event>
<event>
 8    1  0.1157726E+005  0.1043930E+01  0.7957747E-01            NaN
         13   -1    0    0    0    0  0.00000000000E+00  0.00000000000E+00  0.74505805969E-08  0.10566000000E+00  0.10566000000E+00 0. -1.
     999900   -1    0    0    0    0 -0.00000000000E+00 -0.00000000000E+00 -0.74505805969E-08  0.93827000000E+00  0.93827000000E+00 0.  1.
     999902    2    1    2    0    0 -0.21627923020E-02  0.32169084695E-02  0.24796605488E-01  0.10188322349E+01  0.10185230606E+01 0.  0.
     999903    2    3    3    0    0  0.47801470850E-01  0.14931359566E-01  0.11995567872E+00  0.13221568575E+00  0.24159813506E-01 0.  0.
         14    1    1    2    0    0  0.21627923020E-02 -0.32169084695E-02 -0.24796605488E-01  0.25097765127E-01  0.00000000000E+00 0.  1.
     999901    1    3    3    0    0 -0.49964263152E-01 -0.11714451096E-01 -0.95159073229E-01  0.88661654912E+00  0.88000000000E+00 0.  1.
        -11    1    4    4    0    0  0.46830723055E-01  0.88034502191E-02  0.92389063963E-01  0.10395488261E+00  0.51100000000E-03 0. -1.
         11    1    4    4    0    0  0.97074779518E-03  0.61279093466E-02  0.27566614754E-01  0.28260803142E-01  0.51100000000E-03 0.  1.
</event>
<event>
 8    1  0.1157726E+005  0.1043930E+01  0.7957747E-01            NaN
         13   -1    0    0    0    0  0.00000000000E+00  0.00000000000E+00  0.74505805969E-08  0.10566000000E+00  0.10566000000E+00 0. -1.
     999900   -1    0    0    0    0 -0.00000000000E+00 -0.00000000000E+00 -0.74505805969E-08  0.93827000000E+00  0.93827000000E+00 0.  1.
     999902    2    1    2    0    0 -0.16074530963E-01  0.10266283373E-01 -0.26655435933E-01  0.10111534934E+01  0.10106221291E+01 0.  0.
     999903    2    3    3    0    0 -0.10423905752E+00  0.39628730202E-01 -0.54697588501E-01  0.12581655226E+00  0.20043983263E-01 0.  0.
         14    1    1    2    0    0  0.16074530963E-01 -0.10266283373E-01  0.26655435933E-01  0.32776506597E-01  0.00000000000E+00 0. -1.
     999901    1    3    3    0    0  0.88164526559E-01 -0.29362446829E-01  0.28042152568E-01  0.88533694114E+00  0.88000000000E+00 0. -1.
        -11    1    4    4    0    0 -0.64454185811E-01  0.27252415038E-01 -0.23708041827E-01  0.73887539966E-01  0.51100000000E-03 0. -1.
         11    1    4    4    0    0 -0.39784871711E-01  0.12376315164E-01 -0.30989546673E-01  0.51929012296E-01  0.51100000000E-03 0.  1.
</event>
<event>
 8    1  0.1157726E+005  0.1043930E+01  0.7957747E-01            NaN
         13   -1    0    0    0    0  0.00000000000E+00  0.00000000000E+00  0.74505805969E-08  0.10566000000E+00  0.10566000000E+00 0.  1.
     999900   -1    0    0    0    0 -0.00000000000E+00 -0.00000000000E+00 -0.74505805969E-08  0.93827000000E+00  0.93827000000E+00 0.  1.
     999902    2    1    2    0    0  0.14671148193E-01 -0.14383551396E-01  0.57802780929E-02  0.10225865993E+01  0.10223638356E+01 0.  0.
     999903    2    3    3    0    0  0.70426281783E-01 -0.11317014372E+00  0.10502560200E-01  0.13529311586E+00  0.20653833365E-01 0.  0.
         14    1    1    2    0    0 -0.14671148193E-01  0.14383551396E-01 -0.57802780929E-02  0.21343400734E-01  0.00000000000E+00 0. -1.
     999901    1    3    3    0    0 -0.55755133589E-01  0.98786592326E-01 -0.47222821072E-02  0.88729348341E+00  0.88000000000E+00 0.  1.
        -11    1    4    4    0    0  0.64415632780E-01 -0.95952325965E-01  0.14899638635E-01  0.11652674782E+00  0.51100000000E-03 0.  1.
         11    1    4    4    0    0  0.60106490023E-02 -0.17217817758E-01 -0.43970784347E-02  0.18766368043E-01  0.51100000000E-03 0. -1.
</event>
<event>
 8    1  0.1157726E+005  0.1043930E+01  0.7957747E-01            NaN
         13   -1    0    0    0    0  0.00000000000E+00  0.00000000000E+00  0.74505805969E-08  0.10566000000E+00  0.10566000000E+00 0. -1.
     999900   -1    0    0    0    0 -0.00000000000E+00 -0.00000000000E+00 -0.74505805969E-08  0.93827000000E+00  0.93827000000E+00 0. -1.
     999902    2    1    2    0    0  0.19639894752E-01  0.12212203552E-01 -0.10834696666E-01  0.10183907355E+01  0.10180704475E+01 0.  0.
     999903    2    3    3    0    0  0.84969595155E-01  0.93959407738E-01  0.28723126566E-01  0.13130821589E+00  0.19199665548E-01 0.  0.
         14    1    1    2    0    0 -0.19639894752E-01 -0.12212203552E-01  0.10834696666E-01  0.25539264541E-01  0.00000000000E+00 0. -1.
     999901    1    3    3    0    0 -0.65329700403E-01 -0.81747204186E-01 -0.39557823231E-01  0.88708251957E+00  0.88000000000E+00 0.  1.
        -11    1    4    4    0    0  0.67670828665E-01  0.81129996778E-01  0.17743112965E-01  0.10712841177E+00  0.51100000000E-03 0.  1.
         11    1    4    4    0    0  0.17298766490E-01  0.12829410960E-01  0.10980013600E-01  0.24179804120E-01  0.51100000000E-03 0. -1.
</event>
<event>
 8    1  0.1157726E+005  0.1043930E+01  0.7957747E-01            NaN
         13   -1    0    0    0    0  0.00000000000E+00  0.00000000000E+00  0.74505805969E-08  0.10566000000E+00  0.10566000000E+00 0. -1.
     999900   -1    0    0    0    0 -0.00000000000E+00 -0.00000000000E+00 -0.74505805969E-08  0.93827000000E+00  0.93827000000E+00 0. -1.
     999902    2    1    2    0    0 -0.11394484241E-01 -0.15707267353E-01  0.28058910266E-01  0.10098146814E+01  0.10092382453E+01 0.  0.
     999903    2    3    3    0    0  0.82227150619E-01 -0.77378232625E-01 -0.36930034334E-01  0.12032500669E+00  0.19120267147E-01 0.  0.
         14    1    1    2    0    0  0.11394484241E-01  0.15707267353E-01 -0.28058910266E-01  0.34115318614E-01  0.00000000000E+00 0.  1.
     999901    1    3    3    0    0 -0.93621634860E-01  0.61670965271E-01  0.64988944600E-01  0.88948967470E+00  0.88000000000E+00 0.  1.
        -11    1    4    4    0    0  0.57647090454E-01 -0.50131876096E-01 -0.33648386730E-01  0.83479740592E-01  0.51100000000E-03 0.  1.
         11    1    4    4    0    0  0.24580060165E-01 -0.27246356529E-01 -0.32816476043E-02  0.36845266098E-01  0.51100000000E-03 0. -1.
</event>
<event>
 8    1  0.1157726E+005  0.1043930E+01  0.7957747E-01            NaN
         13   -1    0    0    0    0  0.00000000000E+00  0.00000000000E+00  0.74505805969E-08  0.10566000000E+00  0.10566000000E+00 0. -1.
     999900   -1    0    0    0    0 -0.00000000000E+00 -0.00000000000E+00 -0.74505805969E-08  0.93827000000E+00  0.93827000000E+00 0. -1.
     999902    2    1    2    0    0  0.90134056255E-02  0.18736451799E-01 -0.10281984090E-01  0.10207348431E+01  0.10204712659E+01 0.  0.
     999903    2    3    3    0    0  0.95331171201E-01  0.81530885577E-01  0.38786061365E-01  0.13292767335E+00  0.20738618099E-01 0.  0.
         14    1    1    2    0    0 -0.90134056255E-02 -0.18736451799E-01  0.10281984090E-01  0.23195156904E-01  0.00000000000E+00 0.  1.
     999901    1    3    3    0    0 -0.86317765575E-01 -0.62794433779E-01 -0.49068045454E-01  0.88780716975E+00  0.88000000000E+00 0. -1.
        -11    1    4    4    0    0  0.74479327400E-02  0.61661488467E-02 -0.25211640729E-02  0.10005522624E-01  0.51100000000E-03 0. -1.
         11    1    4    4    0    0  0.87883238461E-01  0.75364736731E-01  0.41307225437E-01  0.12292215073E+00  0.51100000000E-03 0.  1.
</event>
<event>
 8    1  0.1157726E+005  0.1043930E+01  0.7957747E-01            NaN
         13   -1    0    0    0    0  0.00000000000E+00  0.00000000000E+00  0.74505805969E-08  0.10566000000E+00  0.10566000000E+00 0.  1.
     999900   -1    0    0    0    0 -0.00000000000E+00 -0.00000000000E+00 -0.74505805969E-08  0.93827000000E+00  0.93827000000E+00 0.  1.
     999902    2    1    2    0    0 -0.80672785166E-02  0.14516545769E-01  0.17663119683E-01  0.10196854773E+01  0.10193972120E+01 0.  0.
     999903    2    3    3    0    0 -0.21311512569E-01  0.50707852393E-01  0.11935525447E+00  0.13299133010E+00  0.20385049685E-01 0.  0.
         14    1    1    2    0    0  0.80672785166E-02 -0.14516545769E-01 -0.17663119683E-01  0.24244522694E-01  0.00000000000E+00 0. -1.
     999901    1    3    3    0    0  0.13244234052E-01 -0.36191306624E-01 -0.10169213479E+00  0.88669414721E+00  0.88000000000E+00 0.  1.
        -11    1    4    4    0    0 -0.17219030321E-01  0.23295473727E-01  0.43840466588E-01  0.52549231516E-01  0.51100000000E-03 0. -1.
         11    1    4    4    0    0 -0.40924822480E-02  0.27412378666E-01  0.75514787880E-01  0.80442098585E-01  0.51100000000E-03 0.  1.
</event>
<event>
 8    1  0.1157726E+005  0.1043930E+01  0.7957747E-01            NaN
         13   -1    0    0    0    0  0.00000000000E+00  0.00000000000E+00  0.74505805969E-08  0.10566000000E+00  0.10566000000E+00 0.  1.
     999900   -1    0    0    0    0 -0.00000000000E+00 -0.00000000000E+00 -0.74505805969E-08  0.93827000000E+00  0.93827000000E+00 0. -1.
     999902    2    1    2    0    0 -0.17396022227E-01 -0.17152887494E-01  0.16781475733E-02  0.10194420577E+01  0.10191479037E+01 0.  0.
     999903    2    3    3    0    0  0.64211929858E-01  0.33847922300E-01  0.10368846626E+00  0.12833766115E+00  0.21222710796E-01 0.  0.
         14    1    1    2    0    0  0.17396022227E-01  0.17152887494E-01 -0.16781475733E-02  0.24487942298E-01  0.00000000000E+00 0.  1.
     999901    1    3    3    0    0 -0.81607952085E-01 -0.51000809794E-01 -0.10201031868E+00  0.89110439656E+00  0.88000000000E+00 0. -1.
        -11    1    4    4    0    0  0.23511157621E-01  0.23540474784E-01  0.52132720102E-01  0.61846666135E-01  0.51100000000E-03 0.  1.
         11    1    4    4    0    0  0.40700772237E-01  0.10307447516E-01  0.51555746155E-01  0.66490995011E-01  0.51100000000E-03 0. -1.
</event>
<event>
 8    1  0.1157726E+005  0.1043930E+01  0.7957747E-01            NaN
         13   -1    0    0    0    0  0.00000000000E+00  0.00000000000E+00  0.74505805969E-08  0.10566000000E+00  0.10566000000E+00 0. -1.
     999900   -1    0    0    0    0 -0.00000000000E+00 -0.00000000000E+00 -0.74505805969E-08  0.93827000000E+00  0.93827000000E+00 0. -1.
     999902    2    1    2    0    0 -0.20091738264E-01 -0.10985194278E-01 -0.43030229953E-02  0.10206304625E+01  0.10203644803E+01 0.  0.
     999903    2    3    3    0    0 -0.61732790639E-01  0.27066157792E-02  0.11454697434E+00  0.13155973149E+00  0.19201312714E-01 0.  0.
         14    1    1    2    0    0  0.20091738264E-01  0.10985194278E-01  0.43030229953E-02  0.23299537478E-01  0.00000000000E+00 0. -1.
     999901    1    3    3    0    0  0.41641052374E-01 -0.13691810057E-01 -0.11884999734E+00  0.88907073103E+00  0.88000000000E+00 0. -1.
        -11    1    4    4    0    0 -0.44446776517E-01  0.10328307693E-01  0.85266140299E-01  0.96709697989E-01  0.51100000000E-03 0. -1.
         11    1    4    4    0    0 -0.17286014121E-01 -0.76216919138E-02  0.29280834045E-01  0.34850033504E-01  0.51100000000E-03 0.  1.
</event>
<event>
 8    1  0.1157726E+005  0.1043930E+01  0.7957747E-01            NaN
         13   -1    0    0    0    0  0.00000000000E+00  0.00000000000E+00  0.74505805969E-08  0.10566000000E+00  0.10566000000E+00 0. -1.
     999900   -1    0    0    0    0 -0.00000000000E+00 -0.00000000000E+00 -0.74505805969E-08  0.93827000000E+00  0.93827000000E+00 0. -1.
     999902    2    1    2    0    0 -0.69669926352E-02 -0.11865544837E-01  0.18916604454E-01  0.10205383762E+01  0.10202702628E+01 0.  0.
     999903    2    3    3    0    0  0.11963791911E+00 -0.19537138908E-01 -0.40669230620E-01  0.12945020503E+00  0.20209843544E-01 0.  0.
         14    1    1    2    0    0  0.69669926352E-02  0.11865544837E-01 -0.18916604454E-01  0.23391623816E-01  0.00000000000E+00 0.  1.
     999901    1    3    3    0    0 -0.12660491175E+00  0.76715940703E-02  0.59585835074E-01  0.89108817116E+00  0.88000000000E+00 0. -1.
        -11    1    4    4    0    0  0.69615502566E-01 -0.15108997774E-01 -0.14047650338E-01  0.72609900235E-01  0.51100000000E-03 0. -1.
         11    1    4    4    0    0  0.50022416547E-01 -0.44281411341E-02 -0.26621580282E-01  0.56840304792E-01  0.51100000000E-03 0.  1.
</event>
<event>
 8    1  0.1157726E+005  0.1043930E+01  0.7957747E-01            NaN
         13   -1    0    0    0    0  0.00000000000E+00  0.00000000000E+00  0.74505805969E-08  0.10566000000E+00  0.10566000000E+00 0.  1.
     999900   -1    0    0    0    0 -0.00000000000E+00 -0.00000000000E+00 -0.74505805969E-08  0.93827000000E+00  0.93827000000E+00 0.  1.
     999902    2    1    2    0    0 -0.17329839133E-01  0.58637766192E-02 -0.15696656341E-01  0.10198241455E+01  0.10195392075E+01 0.  0.
     999903    2    3    3    0    0  0.63657753108E-01 -0.85466745026E-01 -0.71134810385E-01  0.12967042664E+00  0.19934499271E-01 0.  0.
         14    1    1    2    0    0  0.17329839133E-01 -0.58637766192E-02  0.15696656341E-01  0.24105854495E-01  0.00000000000E+00 0.  1.
     999901    1    3    3    0    0 -0.80987592240E-01  0.91330521645E-01  0.55438154044E-01  0.89015371886E+00  0.88000000000E+00 0. -1.
        -11    1    4    4    0    0  0.10049420457E-01 -0.27696998477E-01 -0.22290809594E-01  0.36949369271E-01  0.51100000000E-03 0.  1.
         11    1    4    4    0    0  0.53608332650E-01 -0.57769746549E-01 -0.48844000791E-01  0.92721057372E-01  0.51100000000E-03 0. -1.
</event>
<event>
 8    1  0.1157726E+005  0.1043930E+01  0.7957747E-01            NaN
         13   -1    0    0    0    0  0.00000000000E+00  0.00000000000E+00  0.74505805969E-08  0.10566000000E+00  0.10566000000E+00 0.  1.
     999900   -1    0    0    0    0 -0.00000000000E+00 -0.00000000000E+00 -0.74505805969E-08  0.93827000000E+00  0.93827000000E+00 0. -1.
     999902    2    1    2    0    0  0.13972519280E-01  0.91887451054E-02 -0.20916036894E-01  0.10171504382E+01  0.10167978506E+01 0.  0.
     999903    2    3    3    0    0 -0.87037462766E-01 -0.25288048282E-01  0.82743646714E-01  0.12466122494E+00  0.21883889531E-01 0.  0.
         14    1    1    2    0    0 -0.13972519280E-01 -0.91887451054E-02  0.20916036894E-01  0.26779561815E-01  0.00000000000E+00 0.  1.
     999901    1    3    3    0    0  0.10100998205E+00  0.34476793388E-01 -0.10365968361E+00  0.89248921325E+00  0.88000000000E+00 0. -1.
        -11    1    4    4    0    0 -0.63151892920E-01 -0.24443504614E-01  0.50276485141E-01  0.84342353395E-01  0.51100000000E-03 0. -1.
         11    1    4    4    0    0 -0.23885569846E-01 -0.84454366830E-03  0.32467161574E-01  0.40318871544E-01  0.51100000000E-03 0.  1.
</event>
<event>
 8    1  0.1157726E+005  0.1043930E+01  0.7957747E-01            NaN
         13   -1    0    0    0    0  0.00000000000E+00  0.00000000000E+00  0.74505805969E-08  0.10566000000E+00  0.10566000000E+00 0.  1.
     999900   -1    0    0    0    0 -0.00000000000E+00 -0.00000000000E+00 -0.74505805969E-08  0.93827000000E+00  0.93827000000E+00 0.  1.
     999902    2    1    2    0    0 -0.13521404964E-01  0.36278667973E-02  0.18543503428E-01  0.10206952990E+01  0.10204308120E+01 0.  0.
     999903    2    3    3    0    0  0.16626727686E-01  0.62474740569E-01  0.11453045528E+00  0.13300990466E+00  0.19871292588E-01 0.  0.
         14    1    1    2    0    0  0.13521404964E-01 -0.36278667973E-02 -0.18543503428E-01  0.23234700969E-01  0.00000000000E+00 0.  1.
     999901    1    3    3    0    0 -0.30148132650E-01 -0.58846873772E-01 -0.95986951848E-01  0.88768539437E+00  0.88000000000E+00 0.  1.
        -11    1    4    4    0    0 -0.11948571686E-03  0.44924535387E-02  0.13123439318E-02  0.47095417218E-02  0.51100000000E-03 0. -1.
         11    1    4    4    0    0  0.16746213403E-01  0.57982287030E-01  0.11321811134E+00  0.12830036294E+00  0.51100000000E-03 0.  1.
</event>
<event>
 8    1  0.1157726E+005  0.1043930E+01  0.7957747E-01            NaN
         13   -1    0    0    0    0  0.00000000000E+00  0.00000000000E+00  0.74505805969E-08  0.10566000000E+00  0.10566000000E+00 0. -1.
     999900   -1    0    0    0    0 -0.00000000000E+00 -0.00000000000E+00 -0.74505805969E-08  0.93827000000E+00  0.93827000000E+00 0.  1.
     999902    2    1    2    0    0 -0.49990573621E-02 -0.17096520337E-01  0.91105867372E-02  0.10239228919E+01  0.10237274072E+01 0.  0.
     999903    2    3    3    0    0  0.62560825464E-01 -0.33618732577E-01  0.11324843040E+00  0.13505731620E+00  0.19266437326E-01 0.  0.
         14    1    1    2    0    0  0.49990573621E-02  0.17096520337E-01 -0.91105867372E-02  0.20007108058E-01  0.00000000000E+00 0.  1.
     999901    1    3    3    0    0 -0.67559882826E-01  0.16522212240E-01 -0.10413784366E+00  0.88886557575E+00  0.88000000000E+00 0.  1.
        -11    1    4    4    0    0  0.26250159386E-01 -0.22850299019E-01  0.43740496710E-01  0.55899008994E-01  0.51100000000E-03 0. -1.
         11    1    4    4    0    0  0.36310666079E-01 -0.10768433558E-01  0.69507933689E-01  0.79158307202E-01  0.51100000000E-03 0.  1.
</event>
<event>
 8    1  0.1157726E+005  0.1043930E+01  0.7957747E-01            NaN
         13   -1    0    0    0    0  0.00000000000E+00  0.00000000000E+00  0.74505805969E-08  0.10566000000E+00  0.10566000000E+00 0. -1.
     999900   -1    0    0    0    0 -0.00000000000E+00 -0.00000000000E+00 -0.74505805969E-08  0.93827000000E+00  0.93827000000E+00 0.  1.
     999902    2    1    2    0    0 -0.84529753882E-02  0.21161446833E-01  0.65529559214E-03  0.10211333108E+01  0.10208788123E+01 0.  0.
     999903    2    3    3    0    0  0.88395367022E-01  0.35924572168E-01  0.87987660540E-01  0.13140048954E+00  0.20492546178E-01 0.  0.
         14    1    1    2    0    0  0.84529753882E-02 -0.21161446833E-01 -0.65529559214E-03  0.22796689174E-01  0.00000000000E+00 0.  1.
     999901    1    3    3    0    0 -0.96848342410E-01 -0.14763125334E-01 -0.87332364948E-01  0.88973282128E+00  0.88000000000E+00 0.  1.
        -11    1    4    4    0    0  0.14306949417E-01 -0.18362163295E-02  0.12792994695E-01  0.19286843347E-01  0.51100000000E-03 0.  1.
         11    1    4    4    0    0  0.74088417605E-01  0.37760788497E-01  0.75194665845E-01  0.11211364620E+00  0.51100000000E-03 0. -1.
</event>
<event>
 8    1  0.1157726E+005  0.1043930E+01  0.7957747E-01            NaN
         13   -1    0    0    0    0  0.00000000000E+00  0.00000000000E+00  0.74505805969E-08  0.10566000000E+00  0.10566000000E+00 0.  1.
     999900   -1    0    0    0    0 -0.00000000000E+00 -0.00000000000E+00 -0.74505805969E-08  0.93827000000E+00  0.93827000000E+00 0.  1.
     999902    2    1    2    0    0  0.10098957702E-01 -0.16146654523E-01  0.13742820048E-01  0.10204445044E+01  0.10201742097E+01 0.  0.
     999903    2    3    3    0    0 -0.88847528197E-01 -0.53259087614E-01  0.79046847634E-01  0.13171937495E+00  0.19265926820E-01 0.  0.
         14    1    1    2    0    0 -0.10098957702E-01  0.16146654523E-01 -0.13742820048E-01  0.23485495563E-01  0.00000000000E+00 0. -1.
     999901    1    3    3    0    0  0.98946485899E-01  0.37112433091E-01 -0.65304027586E-01  0.88872512949E+00  0.88000000000E+00 0.  1.
        -11    1    4    4    0    0 -0.27850825027E-01 -0.16745979765E-01  0.36478211122E-01  0.48857111055E-01  0.51100000000E-03 0.  1.
         11    1    4    4    0    0 -0.60996703170E-01 -0.36513107849E-01  0.42568636513E-01  0.82862263896E-01  0.51100000000E-03 0. -1.
</event>
<event>
 8    1  0.1157726E+005  0.1043930E+01  0.7957747E-01            NaN
         13   -1    0    0    0    0  0.00000000000E+00  0.00000000000E+00  0.74505805969E-08  0.10566000000E+00  0.10566000000E+00 0.  1.
     999900   -1    0    0    0    0 -0.00000000000E+00 -0.00000000000E+00 -0.74505805969E-08  0.93827000000E+00  0.93827000000E+00 0. -1.
     999902    2    1    2    0    0  0.29330227748E-01 -0.63729396234E-02  0.13323846105E-01  0.10110909760E+01  0.10105575493E+01 0.  0.
     999903    2    3    3    0    0 -0.68685797196E-01  0.93433130015E-01 -0.20547553938E-01  0.11939839201E+00  0.19654147688E-01 0.  0.
         14    1    1    2    0    0 -0.29330227748E-01  0.63729396234E-02 -0.13323846105E-01  0.32839023953E-01  0.00000000000E+00 0. -1.
     999901    1    3    3    0    0  0.98016024944E-01 -0.99806069638E-01  0.33871400043E-01  0.89169258404E+00  0.88000000000E+00 0.  1.
        -11    1    4    4    0    0 -0.49669954612E-02  0.17446401849E-01 -0.11558600669E-03  0.18147243938E-01  0.51100000000E-03 0.  1.
         11    1    4    4    0    0 -0.63718801735E-01  0.75986728165E-01 -0.20431967931E-01  0.10125114807E+00  0.51100000000E-03 0. -1.
</event>
<event>
 8    1  0.1157726E+005  0.1043930E+01  0.7957747E-01            NaN
         13   -1    0    0    0    0  0.00000000000E+00  0.00000000000E+00  0.74505805969E-08  0.10566000000E+00  0.10566000000E+00 0.  1.
     999900   -1    0    0    0    0 -0.00000000000E+00 -0.00000000000E+00 -0.74505805969E-08  0.93827000000E+00  0.93827000000E+00 0.  1.
     999902    2    1    2    0    0 -0.20708460984E-02  0.23557461634E-01  0.19777676191E-03  0.10202808664E+01  0.10200067475E+01 0.  0.
     999903    2    3    3    0    0  0.53211990910E-01  0.40508038176E-01 -0.11125512470E+00  0.13136846167E+00  0.20187937419E-01 0.  0.
         14    1    1    2    0    0  0.20708460984E-02 -0.23557461634E-01 -0.19777676191E-03  0.23649133553E-01  0.00000000000E+00 0.  1.
     999901    1    3    3    0    0 -0.55282837008E-01 -0.16950576543E-01  0.11145290146E+00  0.88891240477E+00  0.88000000000E+00 0. -1.
        -11    1    4    4    0    0  0.15962913865E-01  0.24603947645E-01 -0.45253145737E-01  0.53928444988E-01  0.51100000000E-03 0.  1.
         11    1    4    4    0    0  0.37249077045E-01  0.15904090532E-01 -0.66001978963E-01  0.77440016686E-01  0.51100000000E-03 0. -1.
</event>
<event>
 8    1  0.1157726E+005  0.1043930E+01  0.7957747E-01            NaN
         13   -1    0    0    0    0  0.00000000000E+00  0.00000000000E+00  0.74505805969E-08  0.10566000000E+00  0.10566000000E+00 0.  1.
     999900   -1    0    0    0    0 -0.00000000000E+00 -0.00000000000E+00 -0.74505805969E-08  0.93827000000E+00  0.93827000000E+00 0. -1.
     999902    2    1    2    0    0  0.12738003660E-02  0.24318159834E-01  0.17949578745E-02  0.10195124379E+01  0.10192199928E+01 0.  0.
     999903    2    3    3    0    0  0.19451078900E-01  0.60626193200E-01  0.11302573881E+00  0.13158171235E+00  0.22023842083E-01 0.  0.
         14    1    1    2    0    0 -0.12738003660E-02 -0.24318159834E-01 -0.17949578745E-02  0.24417562099E-01  0.00000000000E+00 0. -1.
     999901    1    3    3    0    0 -0.18177278534E-01 -0.36308033365E-01 -0.11123078094E+00  0.88793072555E+00  0.88000000000E+00 0. -1.
        -11    1    4    4    0    0  0.18252787901E-02  0.35471776199E-01  0.48506061620E-01  0.60122189616E-01  0.51100000000E-03 0. -1.
         11    1    4    4    0    0  0.17625800110E-01  0.25154417001E-01  0.64519677190E-01  0.71459522738E-01  0.51100000000E-03 0.  1.
</event>
<event>
 8    1  0.1157726E+005  0.1043930E+01  0.7957747E-01            NaN
         13   -1    0    0    0    0  0.00000000000E+00  0.00000000000E+00  0.74505805969E-08  0.10566000000E+00  0.10566000000E+00 0. -1.
     999900   -1    0    0    0    0 -0.00000000000E+00 -0.00000000000E+00 -0.74505805969E-08  0.93827000000E+00  0.93827000000E+00 0. -1.
     999902    2    1    2    0    0 -0.16685062751E-01  0.67934579567E-02 -0.14570096885E-01  0.10207604054E+01  0.10204974156E+01 0.  0.
     999903    2    3    3    0    0 -0.12610578443E+00  0.14376229917E-01  0.32623087750E-01  0.13269644970E+00  0.20850349070E-01 0.  0.
         14    1    1    2    0    0  0.16685062751E-01 -0.67934579567E-02  0.14570096885E-01  0.23169594585E-01  0.00000000000E+00 0. -1.
     999901    1    3    3    0    0  0.10942072168E+00 -0.75827719604E-02 -0.47193184634E-01  0.88806395571E+00  0.88000000000E+00 0. -1.
        -11    1    4    4    0    0 -0.99146619181E-01  0.53460183872E-02  0.31758839335E-01  0.10424738368E+00  0.51100000000E-03 0.  1.
         11    1    4    4    0    0 -0.26959165246E-01  0.90302115299E-02  0.86424841503E-03  0.28449066019E-01  0.51100000000E-03 0. -1.
</event>
<event>
 8    1  0.1157726E+005  0.1043930E+01  0.7957747E-01            NaN
         13   -1    0    0    0    0  0.00000000000E+00  0.00000000000E+00  0.74505805969E-08  0.10566000000E+00  0.10566000000E+00 0. -1.
     999900   -1    0    0    0    0 -0.00000000000E+00 -0.00000000000E+00 -0.74505805969E-08  0.93827000000E+00  0.93827000000E+00 0. -1.
     999902    2    1    2    0    0 -0.63519133996E-02 -0.22436758576E-01 -0.23167627188E-03  0.10206102956E+01  0.10203438474E+01 0.  0.
     999903    2    3    3    0    0  0.51797661978E-01  0.10746963177E+00  0.43733062090E-01  0.12809142096E+00  0.16189869233E-01 0.  0.
         14    1    1    2    0    0  0.63519133996E-02  0.22436758576E-01  0.23167627188E-03  0.23319704396E-01  0.00000000000E+00 0.  1.
     999901    1    3    3    0    0 -0.58149575378E-01 -0.12990639035E+00 -0.43964738362E-01  0.89251887464E+00  0.88000000000E+00 0.  1.
        -11    1    4    4    0    0  0.30349429995E-01  0.65148020257E-01  0.17907469906E-01  0.74069501442E-01  0.51100000000E-03 0.  1.
         11    1    4    4    0    0  0.21448231983E-01  0.42321611512E-01  0.25825592184E-01  0.54021919522E-01  0.51100000000E-03 0. -1.
</event>
<event>
 8    1  0.1157726E+005  0.1043930E+01  0.7957747E-01            NaN
         13   -1    0    0    0    0  0.00000000000E+00  0.00000000000E+00  0.74505805969E-08  0.10566000000E+00  0.10566000000E+00 0.  1.
     999900   -1    0    0    0    0 -0.00000000000E+00 -0.00000000000E+00 -0.74505805969E-08  0.93827000000E+00  0.93827000000E+00 0.  1.
     999902    2    1    2    0    0 -0.46726895909E-02  0.22869446490E-01  0.92302106411E-03  0.10205698292E+01  0.10203024447E+01 0.  0.
     999903    2    3    3    0    0 -0.86377733986E-03  0.61945905321E-01  0.11503982589E+00  0.13233330521E+00  0.20973812961E-01 0.  0.
         14    1    1    2    0    0  0.46726895909E-02 -0.22869446490E-01 -0.92302106411E-03  0.23360170776E-01  0.00000000000E+00 0. -1.
     999901    1    3    3    0    0 -0.38089122511E-02 -0.39076458831E-01 -0.11411680483E+00  0.88823652401E+00  0.88000000000E+00 0.  1.
        -11    1    4    4    0    0  0.81188320226E-02  0.48462560177E-01  0.84093298045E-01  0.97398557841E-01  0.51100000000E-03 0. -1.
         11    1    4    4    0    0 -0.89826093625E-02  0.13483345143E-01  0.30946527845E-01  0.34934747371E-01  0.51100000000E-03 0.  1.
</event>
<event>
 8    1  0.1157726E+005  0.1043930E+01  0.7957747E-01            NaN
         13   -1    0    0    0    0  0.00000000000E+00  0.00000000000E+00  0.74505805969E-08  0.10566000000E+00  0.10566000000E+00 0.  1.
     999900   -1    0    0    0    0 -0.00000000000E+00 -0.00000000000E+00 -0.74505805969E-08  0.93827000000E+00  0.93827000000E+00 0.  1.
     999902    2    1    2    0    0  0.20048539823E-01  0.10261168651E-01 -0.71058136104E-02  0.10203137319E+01  0.10200403832E+01 0.  0.
     999903    2    3    3    0    0 -0.14554235473E-01 -0.96724621549E-01  0.81182267754E-01  0.12877680241E+00  0.20625858948E-01 0.  0.
         14    1    1    2    0    0 -0.20048539823E-01 -0.10261168651E-01  0.71058136104E-02  0.23616268083E-01  0.00000000000E+00 0. -1.
     999901    1    3    3    0    0  0.34602775296E-01  0.10698579020E+00 -0.88288081364E-01  0.89153692951E+00  0.88000000000E+00 0. -1.
        -11    1    4    4    0    0 -0.19823980223E-01 -0.79170467150E-01  0.65478010487E-01  0.10463548174E+00  0.51100000000E-03 0. -1.
         11    1    4    4    0    0  0.52697447504E-02 -0.17554154398E-01  0.15704257267E-01  0.24141320670E-01  0.51100000000E-03 0.  1.
</event>
<event>
 8    1  0.1157726E+005  0.1043930E+01  0.7957747E-01            NaN
         13   -1    0    0    0    0  0.00000000000E+00  0.00000000000E+00  0.74505805969E-08  0.10566000000E+00  0.10566000000E+00 0.  1.
     999900   -1    0    0    0    0 -0.00000000000E+00 -0.00000000000E+00 -0.74505805969E-08  0.93827000000E+00  0.93827000000E+00 0. -1.
     999902    2    1    2    0    0 -0.22283557609E-01 -0.34517073010E-03 -0.21163882202E-02  0.10215435045E+01  0.10212981819E+01 0.  0.
     999903    2    3    3    0    0 -0.72437586065E-01  0.95653860328E-01 -0.54573973195E-01  0.13335262479E+00  0.20192551074E-01 0.  0.
         14    1    1    2    0    0  0.22283557609E-01  0.34517073010E-03  0.21163882202E-02  0.22386495520E-01  0.00000000000E+00 0.  1.
     999901    1    3    3    0    0  0.50154028455E-01 -0.95999031058E-01  0.52457584975E-01  0.88819087969E+00  0.88000000000E+00 0.  1.
        -11    1    4    4    0    0 -0.45959294371E-01  0.49975570949E-01 -0.39010344842E-01  0.78306337907E-01  0.51100000000E-03 0.  1.
         11    1    4    4    0    0 -0.26478291693E-01  0.45678289379E-01 -0.15563628354E-01  0.55046286888E-01  0.51100000000E-03 0. -1.
</event>
<event>
 8    1  0.1157726E+005  0.1043930E+01  0.7957747E-01            NaN
         13   -1    0    0    0    0  0.00000000000E+00  0.00000000000E+00  0.74505805969E-08  0.10566000000E+00  0.10566000000E+00 0.  1.
     999900   -1    0    0    0    0 -0.00000000000E+00 -0.00000000000E+00 -0.74505805969E-08  0.93827000000E+00  0.93827000000E+00 0.  1.
     999902    2    1    2    0    0 -0.19074474809E-01  0.13557107126E-01  0.16662732521E-02  0.10204692411E+01  0.10201995220E+01 0.  0.
     999903    2    3    3    0    0  0.10174685042E+00  0.20235483529E-01  0.74509746626E-01  0.12920689756E+00  0.19514703971E-01 0.  0.
         14    1    1    2    0    0  0.19074474809E-01 -0.13557107126E-01 -0.16662732521E-02  0.23460758927E-01  0.00000000000E+00 0. -1.
     999901    1    3    3    0    0 -0.12082132523E+00 -0.66783764029E-02 -0.72843473374E-01  0.89126234351E+00  0.88000000000E+00 0. -1.
        -11    1    4    4    0    0  0.84802428480E-01  0.14803557475E-01  0.69705814687E-01  0.11076894381E+00  0.51100000000E-03 0. -1.
         11    1    4    4    0    0  0.16944421944E-01  0.54319260539E-02  0.48039319392E-02  0.18437953757E-01  0.51100000000E-03 0.  1.
</event>
<event>
 8    1  0.1157726E+005  0.1043930E+01  0.7957747E-01            NaN
         13   -1    0    0    0    0  0.00000000000E+00  0.00000000000E+00  0.74505805969E-08  0.10566000000E+00  0.10566000000E+00 0. -1.
     999900   -1    0    0    0    0 -0.00000000000E+00 -0.00000000000E+00 -0.74505805969E-08  0.93827000000E+00  0.93827000000E+00 0. -1.
     999902    2    1    2    0    0 -0.13009833242E-01 -0.17041069019E-01 -0.13357940051E-01  0.10186695891E+01  0.10183563441E+01 0.  0.
     999903    2    3    3    0    0 -0.38534752634E-01 -0.65545066160E-01  0.10279756665E+00  0.12934610413E+00  0.19544617848E-01 0.  0.
         14    1    1    2    0    0  0.13009833242E-01  0.17041069019E-01  0.13357940051E-01  0.25260410858E-01  0.00000000000E+00 0.  1.
     999901    1    3    3    0    0  0.25524919392E-01  0.48503997141E-01 -0.11615550670E+00  0.88932348501E+00  0.88000000000E+00 0. -1.
        -11    1    4    4    0    0 -0.25327561436E-01 -0.24344919228E-01  0.42791950485E-01  0.55367613348E-01  0.51100000000E-03 0.  1.
         11    1    4    4    0    0 -0.13207191198E-01 -0.41200146932E-01  0.60005616166E-01  0.73978490786E-01  0.51100000000E-03 0. -1.
</event>
<event>
 8    1  0.1157726E+005  0.1043930E+01  0.7957747E-01            NaN
         13   -1    0    0    0    0  0.00000000000E+00  0.00000000000E+00  0.74505805969E-08  0.10566000000E+00  0.10566000000E+00 0. -1.
     999900   -1    0    0    0    0 -0.00000000000E+00 -0.00000000000E+00 -0.74505805969E-08  0.93827000000E+00  0.93827000000E+00 0.  1.
     999902    2    1    2    0    0 -0.70713473978E-02 -0.14052575487E-01  0.16326152435E-01  0.10212579448E+01  0.10210062526E+01 0.  0.
     999903    2    3    3    0    0 -0.10845112502E+00  0.19515736496E-01  0.72817085717E-01  0.13300352384E+00  0.15655634510E-01 0.  0.
         14    1    1    2    0    0  0.70713473978E-02  0.14052575487E-01 -0.16326152435E-01  0.22672055160E-01  0.00000000000E+00 0.  1.
     999901    1    3    3    0    0  0.10137977763E+00 -0.33568311983E-01 -0.56490933281E-01  0.88825442100E+00  0.88000000000E+00 0.  1.
        -11    1    4    4    0    0 -0.56261286277E-01  0.18021942775E-01  0.37939549297E-01  0.70212486616E-01  0.51100000000E-03 0.  1.
         11    1    4    4    0    0 -0.52189838747E-01  0.14937937213E-02  0.34877536420E-01  0.62791037225E-01  0.51100000000E-03 0. -1.
</event>
<event>
 8    1  0.1157726E+005  0.1043930E+01  0.7957747E-01            NaN
         13   -1    0    0    0    0  0.00000000000E+00  0.00000000000E+00  0.74505805969E-08  0.10566000000E+00  0.10566000000E+00 0.  1.
     999900   -1    0    0    0    0 -0.00000000000E+00 -0.00000000000E+00 -0.74505805969E-08  0.93827000000E+00  0.93827000000E+00 0.  1.
     999902    2    1    2    0    0 -0.93817362370E-02  0.18866766734E-01  0.95810093299E-02  0.10207833458E+01  0.10205208824E+01 0.  0.
     999903    2    3    3    0    0 -0.66695827723E-01 -0.39572849043E-01  0.10465237808E+00  0.13188590573E+00  0.20674333723E-01 0.  0.
         14    1    1    2    0    0  0.93817362370E-02 -0.18866766734E-01 -0.95810093299E-02  0.23146654220E-01  0.00000000000E+00 0. -1.
     999901    1    3    3    0    0  0.57314091486E-01  0.58439615777E-01 -0.95071368750E-01  0.88889744005E+00  0.88000000000E+00 0. -1.
        -11    1    4    4    0    0 -0.39281987842E-01 -0.11513578445E-01  0.56584868239E-01  0.69840858328E-01  0.51100000000E-03 0. -1.
         11    1    4    4    0    0 -0.27413839881E-01 -0.28059270598E-01  0.48067509841E-01  0.62045047400E-01  0.51100000000E-03 0.  1.
</event>
<event>
 8    1  0.1157726E+005  0.1043930E+01  0.7957747E-01            NaN
         13   -1    0    0    0    0  0.00000000000E+00  0.00000000000E+00  0.74505805969E-08  0.10566000000E+00  0.10566000000E+00 0. -1.
     999900   -1    0    0    0    0 -0.00000000000E+00 -0.00000000000E+00 -0.74505805969E-08  0.93827000000E+00  0.93827000000E+00 0. -1.
     999902    2    1    2    0    0  0.65146121732E-02  0.21770304259E-01 -0.32300570225E-02  0.10209774492E+01  0.10207194189E+01 0.  0.
     999903    2    3    3    0    0  0.16093576025E-01 -0.12526571947E+00 -0.11379129878E-01  0.12868951575E+00  0.21931785231E-01 0.  0.
         14    1    1    2    0    0 -0.65146121732E-02 -0.21770304259E-01  0.32300570225E-02  0.22952550788E-01  0.00000000000E+00 0.  1.
     999901    1    3    3    0    0 -0.95789638517E-02  0.14703602373E+00  0.81490728555E-02  0.89228793347E+00  0.88000000000E+00 0. -1.
        -11    1    4    4    0    0  0.17835095689E-01 -0.62710504392E-01 -0.10912158766E-01  0.66106235177E-01  0.51100000000E-03 0. -1.
         11    1    4    4    0    0 -0.17415196644E-02 -0.62555215074E-01 -0.46697111194E-03  0.62583280569E-01  0.51100000000E-03 0.  1.
</event>
<event>
 8    1  0.1157726E+005  0.1043930E+01  0.7957747E-01            NaN
         13   -1    0    0    0    0  0.00000000000E+00  0.00000000000E+00  0.74505805969E-08  0.10566000000E+00  0.10566000000E+00 0. -1.
     999900   -1    0    0    0    0 -0.00000000000E+00 -0.00000000000E+00 -0.74505805969E-08  0.93827000000E+00  0.93827000000E+00 0. -1.
     999902    2    1    2    0    0  0.45190977020E-02 -0.12716581359E-01  0.18601939614E-01  0.10209481410E+01  0.10206894438E+01 0.  0.
     999903    2    3    3    0    0 -0.34861767675E-01  0.11957974525E+00 -0.27520654213E-01  0.12899496720E+00  0.19174379669E-01 0.  0.
         14    1    1    2    0    0 -0.45190977020E-02  0.12716581359E-01 -0.18601939614E-01  0.22981858996E-01  0.00000000000E+00 0. -1.
     999901    1    3    3    0    0  0.39380865377E-01 -0.13229632661E+00  0.46122593828E-01  0.89195317380E+00  0.88000000000E+00 0. -1.
        -11    1    4    4    0    0 -0.28834279919E-01  0.10101447892E+00 -0.30153328824E-01  0.10929238313E+00  0.51100000000E-03 0.  1.
         11    1    4    4    0    0 -0.60274877555E-02  0.18565266328E-01  0.26326746103E-02  0.19702584071E-01  0.51100000000E-03 0. -1.
</event>
<event>
 8    1  0.1157726E+005  0.1043930E+01  0.7957747E-01            NaN
         13   -1    0    0    0    0  0.00000000000E+00  0.00000000000E+00  0.74505805969E-08  0.10566000000E+00  0.10566000000E+00 0.  1.
     999900   -1    0    0    0    0 -0.00000000000E+00 -0.00000000000E+00 -0.74505805969E-08  0.93827000000E+00  0.93827000000E+00 0. -1.
     999902    2    1    2    0    0  0.32585404313E-03 -0.23563758834E-01 -0.14219811333E-02  0.10203211258E+01  0.10200479502E+01 0.  0.
     999903    2    3    3    0    0 -0.39008635575E-02 -0.83570952721E-01 -0.10094885220E+00  0.13267010961E+00  0.20282168195E-01 0.  0.
         14    1    1    2    0    0 -0.32585404313E-03  0.23563758834E-01  0.14219811333E-02  0.23608874213E-01  0.00000000000E+00 0.  1.
     999901    1    3    3    0    0  0.42267176006E-02  0.60007193887E-01  0.99526871071E-01  0.88765101618E+00  0.88000000000E+00 0.  1.
        -11    1    4    4    0    0  0.80102400883E-02 -0.44856091869E-01 -0.52548040268E-01  0.69554227629E-01  0.51100000000E-03 0. -1.
         11    1    4    4    0    0 -0.11911103646E-01 -0.38714860853E-01 -0.48400811936E-01  0.63115881979E-01  0.51100000000E-03 0.  1.
</event>
<event>
 8    1  0.1157726E+005  0.1043930E+01  0.7957747E-01            NaN
         13   -1    0    0    0    0  0.00000000000E+00  0.00000000000E+00  0.74505805969E-08  0.10566000000E+00  0.10566000000E+00 0.  1.
     999900   -1    0    0    0    0 -0.00000000000E+00 -0.00000000000E+00 -0.74505805969E-08  0.93827000000E+00  0.93827000000E+00 0. -1.
     999902    2    1    2    0    0 -0.54701664882E-02 -0.15932070969E-01  0.65389724506E-02  0.10258603634E+01  0.10257012106E+01 0.  0.
     999903    2    3    3    0    0 -0.52060948553E-01 -0.11535311578E+00 -0.49472659144E-01  0.13727016087E+00  0.19464567277E-01 0.  0.
         14    1    1    2    0    0  0.54701664882E-02  0.15932070969E-01 -0.65389724506E-02  0.18069636617E-01  0.00000000000E+00 0. -1.
     999901    1    3    3    0    0  0.46590782065E-01  0.99421044809E-01  0.56011631594E-01  0.88859020251E+00  0.88000000000E+00 0.  1.
        -11    1    4    4    0    0 -0.13235850887E-02 -0.14414818582E-01 -0.99912901591E-02  0.17596189141E-01  0.51100000000E-03 0.  1.
         11    1    4    4    0    0 -0.50737363464E-01 -0.10093829720E+00 -0.39481368985E-01  0.11967397173E+00  0.51100000000E-03 0. -1.
</event>
<event>
 8    1  0.1157726E+005  0.1043930E+01  0.7957747E-01            NaN
         13   -1    0    0    0    0  0.00000000000E+00  0.00000000000E+00  0.74505805969E-08  0.10566000000E+00  0.10566000000E+00 0. -1.
     999900   -1    0    0    0    0 -0.00000000000E+00 -0.00000000000E+00 -0.74505805969E-08  0.93827000000E+00  0.93827000000E+00 0.  1.
     999902    2    1    2    0    0 -0.10236035392E-01 -0.16610090029E-02  0.21234180029E-01  0.10202989659E+01  0.10200252713E+01 0.  0.
     999903    2    3    3    0    0 -0.96532801524E-01  0.42532426747E-01 -0.73383856080E-01  0.12993231986E+00  0.19225720183E-01 0.  0.
         14    1    1    2    0    0  0.10236035392E-01  0.16610090029E-02 -0.21234180029E-01  0.23631034107E-01  0.00000000000E+00 0.  1.
     999901    1    3    3    0    0  0.86296766131E-01 -0.44193435750E-01  0.94618036109E-01  0.89036664603E+00  0.88000000000E+00 0.  1.
        -11    1    4    4    0    0 -0.72239369230E-01  0.37196716734E-01 -0.47919743728E-01  0.94332842438E-01  0.51100000000E-03 0. -1.
         11    1    4    4    0    0 -0.24293432294E-01  0.53357100124E-02 -0.25464112352E-01  0.35599477424E-01  0.51100000000E-03 0.  1.
</event>
<event>
 8    1  0.1157726E+005  0.1043930E+01  0.7957747E-01            NaN
         13   -1    0    0    0    0  0.00000000000E+00  0.00000000000E+00  0.74505805969E-08  0.10566000000E+00  0.10566000000E+00 0. -1.
     999900   -1    0    0    0    0 -0.00000000000E+00 -0.00000000000E+00 -0.74505805969E-08  0.93827000000E+00  0.93827000000E+00 0.  1.
     999902    2    1    2    0    0  0.80540773557E-03 -0.16806826408E-01  0.96959444483E-02  0.10245101793E+01  0.10243261093E+01 0.  0.
     999903    2    3    3    0    0  0.79274110700E-01 -0.80230874145E-01 -0.71316406850E-01  0.13504801138E+00  0.20749884301E-01 0.  0.
         14    1    1    2    0    0 -0.80540773557E-03  0.16806826408E-01 -0.96959444483E-02  0.19419820655E-01  0.00000000000E+00 0. -1.
     999901    1    3    3    0    0 -0.78468702965E-01  0.63424047737E-01  0.81012351298E-01  0.88946216796E+00  0.88000000000E+00 0.  1.
        -11    1    4    4    0    0  0.26825930316E-01 -0.39004943776E-01 -0.36615552008E-01  0.59849611077E-01  0.51100000000E-03 0.  1.
         11    1    4    4    0    0  0.52448180384E-01 -0.41225930370E-01 -0.34700854843E-01  0.75198400304E-01  0.51100000000E-03 0. -1.
</event>
<event>
 8    1  0.1157726E+005  0.1043930E+01  0.7957747E-01            NaN
         13   -1    0    0    0    0  0.00000000000E+00  0.00000000000E+00  0.74505805969E-08  0.10566000000E+00  0.10566000000E+00 0.  1.
     999900   -1    0    0    0    0 -0.00000000000E+00 -0.00000000000E+00 -0.74505805969E-08  0.93827000000E+00  0.93827000000E+00 0. -1.
     999902    2    1    2    0    0  0.12723850558E-01 -0.11799115184E-01  0.16033522002E-01  0.10203039694E+01  0.10200303921E+01 0.  0.
     999903    2    3    3    0    0  0.23382259705E-01  0.12520603595E+00  0.11383121068E-01  0.12962690150E+00  0.21219722902E-01 0.  0.
         14    1    1    2    0    0 -0.12723850558E-01  0.11799115184E-01 -0.16033522002E-01  0.23626030558E-01  0.00000000000E+00 0. -1.
     999901    1    3    3    0    0 -0.10658409147E-01 -0.13700515114E+00  0.46504009337E-02  0.89067706794E+00  0.88000000000E+00 0. -1.
        -11    1    4    4    0    0  0.10396762506E-01  0.21328436229E-01 -0.31293414086E-02  0.23938436900E-01  0.51100000000E-03 0. -1.
         11    1    4    4    0    0  0.12985497199E-01  0.10387759972E+00  0.14512462477E-01  0.10568846460E+00  0.51100000000E-03 0.  1.
</event>
<event>
 8    1  0.1157726E+005  0.1043930E+01  0.7957747E-01            NaN
         13   -1    0    0    0    0  0.00000000000E+00  0.00000000000E+00  0.74505805969E-08  0.10566000000E+00  0.10566000000E+00 0. -1.
     999900   -1    0    0    0    0 -0.00000000000E+00 -0.00000000000E+00 -0.74505805969E-08  0.93827000000E+00  0.93827000000E+00 0.  1.
     999902    2    1    2    0    0  0.14080467040E-01 -0.10536927499E-01 -0.23842654479E-01  0.10143030095E+01  0.10138702267E+01 0.  0.
     999903    2    3    3    0    0 -0.75657692546E-01  0.81768116952E-01 -0.51868697482E-01  0.12449481804E+00  0.19962127848E-01 0.  0.
         14    1    1    2    0    0 -0.14080467040E-01  0.10536927499E-01  0.23842654479E-01  0.29626990495E-01  0.00000000000E+00 0. -1.
     999901    1    3    3    0    0  0.89738159586E-01 -0.92305044452E-01  0.28026043004E-01  0.88980819147E+00  0.88000000000E+00 0. -1.
        -11    1    4    4    0    0 -0.46854266429E-01  0.35990139653E-01 -0.26599176654E-01  0.64794982480E-01  0.51100000000E-03 0.  1.
         11    1    4    4    0    0 -0.28803426117E-01  0.45777977299E-01 -0.25269520829E-01  0.59699835557E-01  0.51100000000E-03 0. -1.
</event>
<event>
 8    1  0.1157726E+005  0.1043930E+01  0.7957747E-01            NaN
         13   -1    0    0    0    0  0.00000000000E+00  0.00000000000E+00  0.74505805969E-08  0.10566000000E+00  0.10566000000E+00 0.  1.
     999900   -1    0    0    0    0 -0.00000000000E+00 -0.00000000000E+00 -0.74505805969E-08  0.93827000000E+00  0.93827000000E+00 0. -1.
     999902    2    1    2    0    0 -0.18455296289E-01 -0.79551561433E-02  0.91596562314E-02  0.10218442179E+01  0.10216055128E+01 0.  0.
     999903    2    3    3    0    0 -0.82894811627E-01  0.52151684220E-01  0.88964361241E-01  0.13384980665E+00  0.20242658137E-01 0.  0.
         14    1    1    2    0    0  0.18455296289E-01  0.79551561433E-02 -0.91596562314E-02  0.22085782138E-01  0.00000000000E+00 0. -1.
     999901    1    3    3    0    0  0.64439515338E-01 -0.60106840364E-01 -0.79804705010E-01  0.88799441121E+00  0.88000000000E+00 0. -1.
        -11    1    4    4    0    0 -0.37898783496E-01  0.33487890993E-01  0.37329162046E-01  0.62860831157E-01  0.51100000000E-03 0. -1.
         11    1    4    4    0    0 -0.44996028130E-01  0.18663793227E-01  0.51635199195E-01  0.70988975496E-01  0.51100000000E-03 0.  1.
</event>
<event>
 8    1  0.1157726E+005  0.1043930E+01  0.7957747E-01            NaN
         13   -1    0    0    0    0  0.00000000000E+00  0.00000000000E+00  0.74505805969E-08  0.10566000000E+00  0.10566000000E+00 0.  1.
     999900   -1    0    0    0    0 -0.00000000000E+00 -0.00000000000E+00 -0.74505805969E-08  0.93827000000E+00  0.93827000000E+00 0. -1.
     999902    2    1    2    0    0  0.53109002960E-02  0.21565892182E-01  0.61215891727E-02  0.10208916142E+01  0.10206316283E+01 0.  0.
     999903    2    3    3    0    0  0.10638996460E-01 -0.12646934819E+00 -0.14680840782E-02  0.12847891584E+00  0.19924664813E-01 0.  0.
         14    1    1    2    0    0 -0.53109002960E-02 -0.21565892182E-01 -0.61215891727E-02  0.23038385828E-01  0.00000000000E+00 0.  1.
     999901    1    3    3    0    0 -0.53280961639E-02  0.14803524037E+00  0.75896732509E-02  0.89241269833E+00  0.88000000000E+00 0.  1.
        -11    1    4    4    0    0  0.55014109998E-02 -0.74174397825E-02 -0.11026163583E-02  0.93145488216E-02  0.51100000000E-03 0. -1.
         11    1    4    4    0    0  0.51375854601E-02 -0.11905190841E+00 -0.36546771988E-03  0.11916436702E+00  0.51100000000E-03 0.  1.
</event>
<event>
 8    1  0.1157726E+005  0.1043930E+01  0.7957747E-01            NaN
         13   -1    0    0    0    0  0.00000000000E+00  0.00000000000E+00  0.74505805969E-08  0.10566000000E+00  0.10566000000E+00 0.  1.
     999900   -1    0    0    0    0 -0.00000000000E+00 -0.00000000000E+00 -0.74505805969E-08  0.93827000000E+00  0.93827000000E+00 0.  1.
     999902    2    1    2    0    0  0.14255499004E-01  0.17478534852E-01  0.83080761168E-02  0.10198937241E+01  0.10196104481E+01 0.  0.
     999903    2    3    3    0    0 -0.97937077362E-01 -0.57841830568E-01  0.55765187273E-01  0.12831506290E+00  0.20436505785E-01 0.  0.
         14    1    1    2    0    0 -0.14255499004E-01 -0.17478534852E-01 -0.83080761168E-02  0.24036275943E-01  0.00000000000E+00 0.  1.
     999901    1    3    3    0    0  0.11219257637E+00  0.75320365420E-01 -0.47457111156E-01  0.89157866116E+00  0.88000000000E+00 0.  1.
        -11    1    4    4    0    0 -0.19463136324E-01 -0.21488428039E-01  0.11952476919E-01  0.31363817380E-01  0.51100000000E-03 0.  1.
         11    1    4    4    0    0 -0.78473941038E-01 -0.36353402529E-01  0.43812710354E-01  0.96951245516E-01  0.51100000000E-03 0. -1.
</event>
<event>
 8    1  0.1157726E+005  0.1043930E+01  0.7957747E-01            NaN
         13   -1    0    0    0    0  0.00000000000E+00  0.00000000000E+00  0.74505805969E-08  0.10566000000E+00  0.10566000000E+00 0. -1.
     999900   -1    0    0    0    0 -0.00000000000E+00 -0.00000000000E+00 -0.74505805969E-08  0.93827000000E+00  0.93827000000E+00 0. -1.
     999902    2    1    2    0    0 -0.19335950288E-01 -0.28724484149E-02 -0.13251147237E-01  0.10203138437E+01  0.10200404977E+01 0.  0.
     999903    2    3    3    0    0 -0.26761305539E-01 -0.10266713248E+00  0.73212109800E-01  0.13043182364E+00  0.19893215730E-01 0.  0.
         14    1    1    2    0    0  0.19335950288E-01  0.28724484149E-02  0.13251147237E-01  0.23616156261E-01  0.00000000000E+00 0. -1.
     999901    1    3    3    0    0  0.74253552502E-02  0.99794684066E-01 -0.86463257037E-01  0.88988202009E+00  0.88000000000E+00 0. -1.
        -11    1    4    4    0    0  0.15076190160E-02 -0.28511796213E-01  0.20687207330E-01  0.35262119995E-01  0.51100000000E-03 0.  1.
         11    1    4    4    0    0 -0.28268924555E-01 -0.74155336267E-01  0.52524902470E-01  0.95169703650E-01  0.51100000000E-03 0. -1.
</event>
<event>
 8    1  0.1157726E+005  0.1043930E+01  0.7957747E-01            NaN
         13   -1    0    0    0    0  0.00000000000E+00  0.00000000000E+00  0.74505805969E-08  0.10566000000E+00  0.10566000000E+00 0. -1.
     999900   -1    0    0    0    0 -0.00000000000E+00 -0.00000000000E+00 -0.74505805969E-08  0.93827000000E+00  0.93827000000E+00 0. -1.
     999902    2    1    2    0    0  0.77055158860E-02 -0.10272193789E-01  0.20499293415E-01  0.10197408708E+01  0.10194539370E+01 0.  0.
     999903    2    3    3    0    0 -0.40580263652E-01  0.11479031065E+00 -0.33471728730E-01  0.12795333011E+00  0.20691177936E-01 0.  0.
         14    1    1    2    0    0 -0.77055158860E-02  0.10272193789E-01 -0.20499293415E-01  0.24189129187E-01  0.00000000000E+00 0.  1.
     999901    1    3    3    0    0  0.48285779538E-01 -0.12506250444E+00  0.53971022144E-01  0.89178754070E+00  0.88000000000E+00 0. -1.
        -11    1    4    4    0    0 -0.55112067711E-02  0.30868072424E-01 -0.16468204040E-01  0.35421379992E-01  0.51100000000E-03 0.  1.
         11    1    4    4    0    0 -0.35069056881E-01  0.83922238228E-01 -0.17003524690E-01  0.92531950118E-01  0.51100000000E-03 0. -1.
</event>
<event>
 8    1  0.1157726E+005  0.1043930E+01  0.7957747E-01            NaN
         13   -1    0    0    0    0  0.00000000000E+00  0.00000000000E+00  0.74505805969E-08  0.10566000000E+00  0.10566000000E+00 0.  1.
     999900   -1    0    0    0    0 -0.00000000000E+00 -0.00000000000E+00 -0.74505805969E-08  0.93827000000E+00  0.93827000000E+00 0.  1.
     999902    2    1    2    0    0 -0.13935734252E-01  0.13312515483E-01 -0.14125349903E-01  0.10200353716E+01  0.10197554638E+01 0.  0.
     999903    2    3    3    0    0 -0.76129536984E-01  0.48022272023E-01  0.92586445436E-01  0.13073213670E+00  0.20415598842E-01 0.  0.
         14    1    1    2    0    0  0.13935734252E-01 -0.13312515483E-01  0.14125349903E-01  0.23894628424E-01  0.00000000000E+00 0.  1.
     999901    1    3    3    0    0  0.62193802731E-01 -0.34709756540E-01 -0.10671179534E+00  0.88930323488E+00  0.88000000000E+00 0.  1.
        -11    1    4    4    0    0 -0.56441034219E-01  0.42367203842E-01  0.62143211599E-01  0.94035153926E-01  0.51100000000E-03 0.  1.
         11    1    4    4    0    0 -0.19688502765E-01  0.56550681808E-02  0.30443233837E-01  0.36696982774E-01  0.51100000000E-03 0. -1.
</event>
<event>
 8    1  0.1157726E+005  0.1043930E+01  0.7957747E-01            NaN
         13   -1    0    0    0    0  0.00000000000E+00  0.00000000000E+00  0.74505805969E-08  0.10566000000E+00  0.10566000000E+00 0. -1.
     999900   -1    0    0    0    0 -0.00000000000E+00 -0.00000000000E+00 -0.74505805969E-08  0.93827000000E+00  0.93827000000E+00 0. -1.
     999902    2    1    2    0    0  0.74372046448E-02  0.15048868533E-01 -0.21058945533E-01  0.10169993549E+01  0.10166427240E+01 0.  0.
     999903    2    3    3    0    0 -0.57426689223E-01  0.53997626022E-01 -0.10162562843E+00  0.13008598778E+00  0.19519928568E-01 0.  0.
         14    1    1    2    0    0 -0.74372046448E-02 -0.15048868533E-01  0.21058945533E-01  0.26930645072E-01  0.00000000000E+00 0. -1.
     999901    1    3    3    0    0  0.64863893868E-01 -0.38948757489E-01  0.80566682896E-01  0.88691336715E+00  0.88000000000E+00 0. -1.
        -11    1    4    4    0    0 -0.25780008003E-01  0.15714695461E-01 -0.27410774423E-01  0.40782007571E-01  0.51100000000E-03 0. -1.
         11    1    4    4    0    0 -0.31646681221E-01  0.38282930561E-01 -0.74214854005E-01  0.89303980206E-01  0.51100000000E-03 0.  1.
</event>
<event>
 8    1  0.1157726E+005  0.1043930E+01  0.7957747E-01            NaN
         13   -1    0    0    0    0  0.00000000000E+00  0.00000000000E+00  0.74505805969E-08  0.10566000000E+00  0.10566000000E+00 0.  1.
     999900   -1    0    0    0    0 -0.00000000000E+00 -0.00000000000E+00 -0.74505805969E-08  0.93827000000E+00  0.93827000000E+00 0. -1.
     999902    2    1    2    0    0 -0.27003582003E-01 -0.12008450457E-01 -0.56181869103E-02  0.10138474411E+01  0.10134010428E+01 0.  0.
     999903    2    3    3    0    0 -0.86917210944E-01  0.86765636578E-01 -0.20901246147E-01  0.12616532737E+00  0.19948696489E-01 0.  0.
         14    1    1    2    0    0  0.27003582003E-01  0.12008450457E-01  0.56181869103E-02  0.30082558859E-01  0.00000000000E+00 0.  1.
     999901    1    3    3    0    0  0.59913628941E-01 -0.98774087036E-01  0.15283059237E-01  0.88768211377E+00  0.88000000000E+00 0.  1.
        -11    1    4    4    0    0 -0.36271052241E-01  0.25077879143E-01 -0.20178096737E-02  0.44145463299E-01  0.51100000000E-03 0. -1.
         11    1    4    4    0    0 -0.50646158703E-01  0.61687757435E-01 -0.18883436474E-01  0.82019864074E-01  0.51100000000E-03 0.  1.
</event>
<event>
 8    1  0.1157726E+005  0.1043930E+01  0.7957747E-01            NaN
         13   -1    0    0    0    0  0.00000000000E+00  0.00000000000E+00  0.74505805969E-08  0.10566000000E+00  0.10566000000E+00 0.  1.
     999900   -1    0    0    0    0 -0.00000000000E+00 -0.00000000000E+00 -0.74505805969E-08  0.93827000000E+00  0.93827000000E+00 0.  1.
     999902    2    1    2    0    0 -0.19020941918E-03  0.16266131239E-01  0.17349837951E-01  0.10201468109E+01  0.10198695386E+01 0.  0.
     999903    2    3    3    0    0  0.80113820642E-01 -0.50292048647E-01  0.88597630048E-01  0.13112770179E+00  0.19935388408E-01 0.  0.
         14    1    1    2    0    0  0.19020941918E-03 -0.16266131239E-01 -0.17349837951E-01  0.23783189063E-01  0.00000000000E+00 0. -1.
     999901    1    3    3    0    0 -0.80304030061E-01  0.66558179886E-01 -0.71247792097E-01  0.88901910915E+00  0.88000000000E+00 0. -1.
        -11    1    4    4    0    0  0.10403039790E-01 -0.71080485246E-02  0.22536280322E-01  0.25824264606E-01  0.51100000000E-03 0.  1.
         11    1    4    4    0    0  0.69710780852E-01 -0.43184000122E-01  0.66061349726E-01  0.10530343718E+00  0.51100000000E-03 0. -1.
</event>
<event>
 8    1  0.1157726E+005  0.1043930E+01  0.7957747E-01            NaN
         13   -1    0    0    0    0  0.00000000000E+00  0.00000000000E+00  0.74505805969E-08  0.10566000000E+00  0.10566000000E+00 0. -1.
     999900   -1    0    0    0    0 -0.00000000000E+00 -0.00000000000E+00 -0.74505805969E-08  0.93827000000E+00  0.93827000000E+00 0.  1.
     999902    2    1    2    0    0 -0.92791994472E-02 -0.15828311563E-01  0.14858077709E-01  0.10203206488E+01  0.10200474621E+01 0.  0.
     999903    2    3    3    0    0  0.72228386682E-01  0.10405538467E+00 -0.61679301170E-02  0.12821209029E+00  0.18863557816E-01 0.  0.
         14    1    1    2    0    0  0.92791994472E-02  0.15828311563E-01 -0.14858077709E-01  0.23609351166E-01  0.00000000000E+00 0.  1.
     999901    1    3    3    0    0 -0.81507586129E-01 -0.11988369623E+00  0.21026007826E-01  0.89210855854E+00  0.88000000000E+00 0.  1.
        -11    1    4    4    0    0  0.12595706842E-01  0.15744364855E-01  0.57869783853E-02  0.20983019215E-01  0.51100000000E-03 0.  1.
         11    1    4    4    0    0  0.59632679839E-01  0.88311019815E-01 -0.11954908502E-01  0.10722907108E+00  0.51100000000E-03 0. -1.
</event>
<event>
 8    1  0.1157726E+005  0.1043930E+01  0.7957747E-01            NaN
         13   -1    0    0    0    0  0.00000000000E+00  0.00000000000E+00  0.74505805969E-08  0.10566000000E+00  0.10566000000E+00 0. -1.
     999900   -1    0    0    0    0 -0.00000000000E+00 -0.00000000000E+00 -0.74505805969E-08  0.93827000000E+00  0.93827000000E+00 0. -1.
     999902    2    1    2    0    0  0.17761184093E-01 -0.21573555072E-02  0.14615051679E-01  0.10208277581E+01  0.10205663125E+01 0.  0.
     999903    2    3    3    0    0 -0.83897138506E-01 -0.51764231527E-01  0.83689697542E-01  0.13090272568E+00  0.20329599145E-01 0.  0.
         14    1    1    2    0    0 -0.17761184093E-01  0.21573555072E-02 -0.14615051679E-01  0.23102241855E-01  0.00000000000E+00 0. -1.
     999901    1    3    3    0    0  0.10165832260E+00  0.49606876020E-01 -0.69074645863E-01  0.88992503246E+00  0.88000000000E+00 0.  1.
        -11    1    4    4    0    0 -0.34105569845E-01 -0.28873239544E-01  0.27819076011E-01  0.52640440417E-01  0.51100000000E-03 0.  1.
         11    1    4    4    0    0 -0.49791568661E-01 -0.22890991983E-01  0.55870621531E-01  0.78262285265E-01  0.51100000000E-03 0. -1.
</event>
<event>
 7    1  0.1157726E+005  0.1043930E+01  0.7957747E-01            NaN
         13   -1    0    0    0    0  0.00000000000E+00  0.00000000000E+00  0.74505805969E-08  0.10566000000E+00  0.10566000000E+00 0.  1.
     999900   -1    0    0    0    0 -0.00000000000E+00 -0.00000000000E+00 -0.74505805969E-08  0.93827000000E+00  0.93827000000E+00 0.  1.
     999903    2    1    2    0    0 -0.76346866769E-01 -0.12446916095E-01  0.66975678645E-01  0.10429710429E+00  0.20208281645E-01 0.  0.
         14    1    1    2    0    0 -0.41145020445E-01  0.83635028623E-02 -0.28952241775E-01  0.51000913632E-01  0.00000000000E+00 0. -1.
     999901    1    1    2    0    0  0.11749188721E+00  0.40834132323E-02 -0.38023436870E-01  0.88863198208E+00  0.88000000000E+00 0.  1.
        -11    1    3    3    0    0 -0.28689870963E-01 -0.14338790733E-01  0.23567771188E-01  0.39804655197E-01  0.51100000000E-03 0. -1.
         11    1    3    3    0    0 -0.47656995806E-01  0.18918746383E-02  0.43407907457E-01  0.64492449090E-01  0.51100000000E-03 0.  1.
</event>
<event>
 8    1  0.1157726E+005  0.1043930E+01  0.7957747E-01            NaN
         13   -1    0    0    0    0  0.00000000000E+00  0.00000000000E+00  0.74505805969E-08  0.10566000000E+00  0.10566000000E+00 0. -1.
     999900   -1    0    0    0    0 -0.00000000000E+00 -0.00000000000E+00 -0.74505805969E-08  0.93827000000E+00  0.93827000000E+00 0.  1.
     999902    2    1    2    0    0 -0.10486362495E-01 -0.17856922659E-01 -0.13071938283E-01  0.10194410422E+01  0.10191468635E+01 0.  0.
     999903    2    3    3    0    0 -0.77354303771E-01  0.22425212906E-01  0.98638716396E-01  0.12895059169E+00  0.20299759606E-01 0.  0.
         14    1    1    2    0    0  0.10486362495E-01  0.17856922659E-01  0.13071938283E-01  0.24488957832E-01  0.00000000000E+00 0. -1.
     999901    1    3    3    0    0  0.66867941276E-01 -0.40282135565E-01 -0.11171065468E+00  0.89049045047E+00  0.88000000000E+00 0. -1.
        -11    1    4    4    0    0 -0.68360444019E-01  0.14137578167E-01  0.75867222200E-01  0.10309761369E+00  0.51100000000E-03 0.  1.
         11    1    4    4    0    0 -0.89938597519E-02  0.82876347388E-02  0.22771494197E-01  0.25852978006E-01  0.51100000000E-03 0. -1.
</event>
<event>
 8    1  0.1157726E+005  0.1043930E+01  0.7957747E-01            NaN
         13   -1    0    0    0    0  0.00000000000E+00  0.00000000000E+00  0.74505805969E-08  0.10566000000E+00  0.10566000000E+00 0.  1.
     999900   -1    0    0    0    0 -0.00000000000E+00 -0.00000000000E+00 -0.74505805969E-08  0.93827000000E+00  0.93827000000E+00 0.  1.
     999902    2    1    2    0    0 -0.47140143206E-02 -0.22316284650E-01  0.56620379588E-02  0.10204289965E+01  0.10201583405E+01 0.  0.
     999903    2    3    3    0    0  0.12089763076E+00 -0.43638492846E-01  0.16531341184E-01  0.13118714881E+00  0.20401656533E-01 0.  0.
         14    1    1    2    0    0  0.47140143206E-02  0.22316284650E-01 -0.56620379588E-02  0.23501003499E-01  0.00000000000E+00 0. -1.
     999901    1    3    3    0    0 -0.12561164508E+00  0.21322208196E-01 -0.10869303225E-01  0.88924184770E+00  0.88000000000E+00 0. -1.
        -11    1    4    4    0    0  0.76346348541E-01 -0.31692011903E-01  0.15213899517E-02  0.82678439163E-01  0.51100000000E-03 0.  1.
         11    1    4    4    0    0  0.44551282218E-01 -0.11946480944E-01  0.15009951232E-01  0.48508709642E-01  0.51100000000E-03 0. -1.
</event>
<event>
 8    1  0.1157726E+005  0.1043930E+01  0.7957747E-01            NaN
         13   -1    0    0    0    0  0.00000000000E+00  0.00000000000E+00  0.74505805969E-08  0.10566000000E+00  0.10566000000E+00 0. -1.
     999900   -1    0    0    0    0 -0.00000000000E+00 -0.00000000000E+00 -0.74505805969E-08  0.93827000000E+00  0.93827000000E+00 0.  1.
     999902    2    1    2    0    0  0.29374018559E-02 -0.23358441994E-01 -0.28923561419E-02  0.10202105804E+01  0.10199348104E+01 0.  0.
     999903    2    3    3    0    0 -0.10163076389E+00  0.61439142296E-01  0.46196709335E-01  0.12861938039E+00  0.17470795169E-01 0.  0.
         14    1    1    2    0    0 -0.29374018559E-02  0.23358441994E-01  0.28923561419E-02  0.23719419598E-01  0.00000000000E+00 0. -1.
     999901    1    3    3    0    0  0.10456816575E+00 -0.84797584289E-01 -0.49089065477E-01  0.89159120001E+00  0.88000000000E+00 0.  1.
        -11    1    4    4    0    0 -0.41660700798E-01  0.16851111694E-01  0.22223814240E-01  0.50137141887E-01  0.51100000000E-03 0.  1.
         11    1    4    4    0    0 -0.59970063091E-01  0.44588030602E-01  0.23972895095E-01  0.78482238503E-01  0.51100000000E-03 0. -1.
</event>
<event>
 8    1  0.1157726E+005  0.1043930E+01  0.7957747E-01            NaN
         13   -1    0    0    0    0  0.00000000000E+00  0.00000000000E+00  0.74505805969E-08  0.10566000000E+00  0.10566000000E+00 0.  1.
     999900   -1    0    0    0    0 -0.00000000000E+00 -0.00000000000E+00 -0.74505805969E-08  0.93827000000E+00  0.93827000000E+00 0. -1.
     999902    2    1    2    0    0  0.20367806666E-01  0.10512359447E-01 -0.48726018114E-02  0.10204971278E+01  0.10202280571E+01 0.  0.
     999903    2    3    3    0    0 -0.85604721732E-01 -0.73975512916E-01 -0.57231716203E-01  0.12858353661E+00  0.21394196722E-01 0.  0.
         14    1    1    2    0    0 -0.20367806666E-01 -0.10512359447E-01  0.48726018114E-02  0.23432872166E-01  0.00000000000E+00 0.  1.
     999901    1    3    3    0    0  0.10597252840E+00  0.84487872363E-01  0.52359114392E-01  0.89191359122E+00  0.88000000000E+00 0.  1.
        -11    1    4    4    0    0 -0.30080831761E-01 -0.34907715019E-01 -0.32220475481E-01  0.56230109092E-01  0.51100000000E-03 0. -1.
         11    1    4    4    0    0 -0.55523889971E-01 -0.39067797898E-01 -0.25011240722E-01  0.72353427518E-01  0.51100000000E-03 0.  1.
</event>
<event>
 8    1  0.1157726E+005  0.1043930E+01  0.7957747E-01            NaN
         13   -1    0    0    0    0  0.00000000000E+00  0.00000000000E+00  0.74505805969E-08  0.10566000000E+00  0.10566000000E+00 0.  1.
     999900   -1    0    0    0    0 -0.00000000000E+00 -0.00000000000E+00 -0.74505805969E-08  0.93827000000E+00  0.93827000000E+00 0.  1.
     999902    2    1    2    0    0 -0.24115142516E-01  0.52320247588E-02  0.72000460132E-03  0.10192433115E+01  0.10189443044E+01 0.  0.
     999903    2    3    3    0    0 -0.44085994096E-01 -0.10048686782E+00 -0.67115017981E-01  0.13009939209E+00  0.19499761669E-01 0.  0.
         14    1    1    2    0    0  0.24115142516E-01 -0.52320247588E-02 -0.72000460132E-03  0.24686688484E-01  0.00000000000E+00 0. -1.
     999901    1    3    3    0    0  0.19970851579E-01  0.10571889258E+00  0.67835022583E-01  0.88914391942E+00  0.88000000000E+00 0. -1.
        -11    1    4    4    0    0 -0.22369331404E-01 -0.37369760071E-01 -0.35740674469E-01  0.56343081986E-01  0.51100000000E-03 0. -1.
         11    1    4    4    0    0 -0.21716662692E-01 -0.63117107745E-01 -0.31374343513E-01  0.73756310106E-01  0.51100000000E-03 0.  1.
</event>
<event>
 8    1  0.1157726E+005  0.1043930E+01  0.7957747E-01            NaN
         13   -1    0    0    0    0  0.00000000000E+00  0.00000000000E+00  0.74505805969E-08  0.10566000000E+00  0.10566000000E+00 0. -1.
     999900   -1    0    0    0    0 -0.00000000000E+00 -0.00000000000E+00 -0.74505805969E-08  0.93827000000E+00  0.93827000000E+00 0.  1.
     999902    2    1    2    0    0 -0.10693100340E-01 -0.34340086710E-02 -0.14307379501E-01  0.10257411045E+01  0.10255798251E+01 0.  0.
     999903    2    3    3    0    0 -0.49117408018E-01  0.12187298704E+00 -0.28130134594E-01  0.13592688844E+00  0.20476078409E-01 0.  0.
         14    1    1    2    0    0  0.10693100340E-01  0.34340086710E-02  0.14307379501E-01  0.18188895476E-01  0.00000000000E+00 0. -1.
     999901    1    3    3    0    0  0.38424307678E-01 -0.12530699571E+00  0.13822755092E-01  0.88981421609E+00  0.88000000000E+00 0. -1.
        -11    1    4    4    0    0 -0.13502358381E-01  0.40524453700E-01 -0.18670835417E-01  0.46619805295E-01  0.51100000000E-03 0. -1.
         11    1    4    4    0    0 -0.35615049637E-01  0.81348533340E-01 -0.94592991768E-02  0.89307083141E-01  0.51100000000E-03 0.  1.
</event>
<event>
 8    1  0.1157726E+005  0.1043930E+01  0.7957747E-01            NaN
         13   -1    0    0    0    0  0.00000000000E+00  0.00000000000E+00  0.74505805969E-08  0.10566000000E+00  0.10566000000E+00 0. -1.
     999900   -1    0    0    0    0 -0.00000000000E+00 -0.00000000000E+00 -0.74505805969E-08  0.93827000000E+00  0.93827000000E+00 0.  1.
     999902    2    1    2    0    0  0.18931488655E-01 -0.14030876499E-01 -0.52682072248E-02  0.10197841771E+01  0.10194982820E+01 0.  0.
     999903    2    3    3    0    0  0.12595688457E+00  0.33061829957E-01  0.79141872431E-02  0.13195202294E+00  0.19760582624E-01 0.  0.
         14    1    1    2    0    0 -0.18931488655E-01  0.14030876499E-01  0.52682072248E-02  0.24145822939E-01  0.00000000000E+00 0.  1.
     999901    1    3    3    0    0 -0.10702539592E+00 -0.47092706455E-01 -0.13182394468E-01  0.88783215412E+00  0.88000000000E+00 0.  1.
        -11    1    4    4    0    0  0.35337873377E-01  0.12350968404E-01 -0.61427041756E-02  0.37938181966E-01  0.51100000000E-03 0. -1.
         11    1    4    4    0    0  0.90619011198E-01  0.20710861552E-01  0.14056891419E-01  0.94013840971E-01  0.51100000000E-03 0.  1.
</event>
<event>
 8    1  0.1157726E+005  0.1043930E+01  0.7957747E-01            NaN
         13   -1    0    0    0    0  0.00000000000E+00  0.00000000000E+00  0.74505805969E-08  0.10566000000E+00  0.10566000000E+00 0. -1.
     999900   -1    0    0    0    0 -0.00000000000E+00 -0.00000000000E+00 -0.74505805969E-08  0.93827000000E+00  0.93827000000E+00 0. -1.
     999902    2    1    2    0    0  0.23369844780E-01 -0.44254395211E-03  0.41531087449E-02  0.10201898694E+01  0.10199136119E+01 0.  0.
     999903    2    3    3    0    0  0.74811634795E-01  0.10058080481E+00  0.35328086187E-01  0.13237015007E+00  0.23674964803E-01 0.  0.
         14    1    1    2    0    0 -0.23369844780E-01  0.44254395211E-03 -0.41531087449E-02  0.23740130632E-01  0.00000000000E+00 0. -1.
     999901    1    3    3    0    0 -0.51441790015E-01 -0.10102334876E+00 -0.31174977442E-01  0.88781971930E+00  0.88000000000E+00 0. -1.
        -11    1    4    4    0    0  0.67014909207E-02  0.52275071657E-02  0.87566804220E-02  0.12213819417E-01  0.51100000000E-03 0.  1.
         11    1    4    4    0    0  0.68110143874E-01  0.95353297647E-01  0.26571405765E-01  0.12015633065E+00  0.51100000000E-03 0. -1.
</event>
<event>
 8    1  0.1157726E+005  0.1043930E+01  0.7957747E-01            NaN
         13   -1    0    0    0    0  0.00000000000E+00  0.00000000000E+00  0.74505805969E-08  0.10566000000E+00  0.10566000000E+00 0. -1.
     999900   -1    0    0    0    0 -0.00000000000E+00 -0.00000000000E+00 -0.74505805969E-08  0.93827000000E+00  0.93827000000E+00 0.  1.
     999902    2    1    2    0    0 -0.22288710343E-01  0.81873315377E-02 -0.70106110226E-03  0.10201747797E+01  0.10198981668E+01 0.  0.
     999903    2    3    3    0    0  0.11912794059E+00 -0.70402465957E-02 -0.41324550627E-01  0.12782909766E+00  0.19787077161E-01 0.  0.
         14    1    1    2    0    0  0.22288710343E-01 -0.81873315377E-02  0.70106110226E-03  0.23755220334E-01  0.00000000000E+00 0.  1.
     999901    1    3    3    0    0 -0.14141665093E+00  0.15227578133E-01  0.40623489524E-01  0.89234568201E+00  0.88000000000E+00 0. -1.
        -11    1    4    4    0    0  0.17911390524E-01 -0.55597707835E-02 -0.76441350203E-03  0.18776964895E-01  0.51100000000E-03 0. -1.
         11    1    4    4    0    0  0.10121655006E+00 -0.14804758123E-02 -0.40560137125E-01  0.10905213276E+00  0.51100000000E-03 0.  1.
</event>
<event>
 8    1  0.1157726E+005  0.1043930E+01  0.7957747E-01            NaN
         13   -1    0    0    0    0  0.00000000000E+00  0.00000000000E+00  0.74505805969E-08  0.10566000000E+00  0.10566000000E+00 0. -1.
     999900   -1    0    0    0    0 -0.00000000000E+00 -0.00000000000E+00 -0.74505805969E-08  0.93827000000E+00  0.93827000000E+00 0.  1.
     999902    2    1    2    0    0  0.15463384565E-01 -0.58134841731E-02 -0.16853959788E-01  0.10203298131E+01  0.10200568409E+01 0.  0.
     999903    2    3    3    0    0  0.73218376947E-01  0.34531172476E-01  0.99533016208E-01  0.12987528949E+00  0.20185066487E-01 0.  0.
         14    1    1    2    0    0 -0.15463384565E-01  0.58134841731E-02  0.16853959788E-01  0.23600186885E-01  0.00000000000E+00 0.  1.
     999901    1    3    3    0    0 -0.57754992382E-01 -0.40344656649E-01 -0.11638697600E+00  0.89045452363E+00  0.88000000000E+00 0.  1.
        -11    1    4    4    0    0  0.16238965663E-01  0.92084542293E-03  0.12324163775E-01  0.20413184363E-01  0.51100000000E-03 0. -1.
         11    1    4    4    0    0  0.56979411284E-01  0.33610327053E-01  0.87208852433E-01  0.10946210513E+00  0.51100000000E-03 0.  1.
</event>
<event>
 8    1  0.1157726E+005  0.1043930E+01  0.7957747E-01            NaN
         13   -1    0    0    0    0  0.00000000000E+00  0.00000000000E+00  0.74505805969E-08  0.10566000000E+00  0.10566000000E+00 0.  1.
     999900   -1    0    0    0    0 -0.00000000000E+00 -0.00000000000E+00 -0.74505805969E-08  0.93827000000E+00  0.93827000000E+00 0.  1.
     999902    2    1    2    0    0 -0.37494246416E-03 -0.11199075037E-01 -0.21438525057E-01  0.10197397081E+01  0.10194527464E+01 0.  0.
     999903    2    3    3    0    0 -0.10676812719E+00 -0.48305200717E-01  0.51647284006E-01  0.12954989142E+00  0.19568010147E-01 0.  0.
         14    1    1    2    0    0  0.37494246416E-03  0.11199075037E-01  0.21438525057E-01  0.24190291857E-01  0.00000000000E+00 0.  1.
     999901    1    3    3    0    0  0.10639318472E+00  0.37106125680E-01 -0.73085809063E-01  0.89018981673E+00  0.88000000000E+00 0.  1.
        -11    1    4    4    0    0 -0.54749781506E-01 -0.14911730440E-01  0.20556542198E-01  0.60355039788E-01  0.51100000000E-03 0.  1.
         11    1    4    4    0    0 -0.52018345681E-01 -0.33393470277E-01  0.31090741808E-01  0.69194851627E-01  0.51100000000E-03 0. -1.
</event>
<event>
 8    1  0.1157726E+005  0.1043930E+01  0.7957747E-01            NaN
         13   -1    0    0    0    0  0.00000000000E+00  0.00000000000E+00  0.74505805969E-08  0.10566000000E+00  0.10566000000E+00 0. -1.
     999900   -1    0    0    0    0 -0.00000000000E+00 -0.00000000000E+00 -0.74505805969E-08  0.93827000000E+00  0.93827000000E+00 0. -1.
     999902    2    1    2    0    0  0.14085381435E-01  0.16650405907E-01  0.11725557094E-01  0.10191686859E+01  0.10188678460E+01 0.  0.
     999903    2    3    3    0    0 -0.10204966221E+00  0.41284359170E-01 -0.62395691570E-01  0.12810856474E+00  0.20001254053E-01 0.  0.
         14    1    1    2    0    0 -0.14085381435E-01 -0.16650405907E-01 -0.11725557094E-01  0.24761314105E-01  0.00000000000E+00 0.  1.
     999901    1    3    3    0    0  0.11613504364E+00 -0.24633953263E-01  0.74121248664E-01  0.89106012116E+00  0.88000000000E+00 0. -1.
        -11    1    4    4    0    0 -0.60277474203E-01  0.28557460381E-01 -0.27257713331E-01  0.72056550686E-01  0.51100000000E-03 0.  1.
         11    1    4    4    0    0 -0.41772188004E-01  0.12726898790E-01 -0.35137978239E-01  0.56052014051E-01  0.51100000000E-03 0. -1.
</event>
<event>
 8    1  0.1157726E+005  0.1043930E+01  0.7957747E-01            NaN
         13   -1    0    0    0    0  0.00000000000E+00  0.00000000000E+00  0.74505805969E-08  0.10566000000E+00  0.10566000000E+00 0.  1.
     999900   -1    0    0    0    0 -0.00000000000E+00 -0.00000000000E+00 -0.74505805969E-08  0.93827000000E+00  0.93827000000E+00 0. -1.
     999902    2    1    2    0    0  0.11176049052E-01  0.13469395009E-01 -0.15625185208E-01  0.10204677945E+01  0.10201980418E+01 0.  0.
     999903    2    3    3    0    0  0.67262728911E-01  0.12331646706E-02 -0.11328457674E+00  0.13320639122E+00  0.19615094685E-01 0.  0.
         14    1    1    2    0    0 -0.11176049052E-01 -0.13469395009E-01  0.15625185208E-01  0.23462205504E-01  0.00000000000E+00 0.  1.
     999901    1    3    3    0    0 -0.56086679859E-01  0.12236230339E-01  0.97659391529E-01  0.88726140328E+00  0.88000000000E+00 0.  1.
        -11    1    4    4    0    0  0.61737346290E-01  0.15361774146E-02 -0.89227218768E-01  0.10851551713E+00  0.51100000000E-03 0. -1.
         11    1    4    4    0    0  0.55253826212E-02 -0.30301274398E-03 -0.24057357969E-01  0.24690874089E-01  0.51100000000E-03 0.  1.
</event>
<event>
 8    1  0.1157726E+005  0.1043930E+01  0.7957747E-01            NaN
         13   -1    0    0    0    0  0.00000000000E+00  0.00000000000E+00  0.74505805969E-08  0.10566000000E+00  0.10566000000E+00 0. -1.
     999900   -1    0    0    0    0 -0.00000000000E+00 -0.00000000000E+00 -0.74505805969E-08  0.93827000000E+00  0.93827000000E+00 0.  1.
     999902    2    1    2    0    0  0.12483807057E-01 -0.21041937671E-01  0.28576555093E-02  0.10192972012E+01  0.10189995141E+01 0.  0.
     999903    2    3    3    0    0 -0.61038742638E-01 -0.74832219553E-01 -0.85102757132E-01  0.13023252759E+00  0.19810168755E-01 0.  0.
         14    1    1    2    0    0 -0.12483807057E-01  0.21041937671E-01 -0.28576555093E-02  0.24632798757E-01  0.00000000000E+00 0.  1.
     999901    1    3    3    0    0  0.73522549695E-01  0.53790281882E-01  0.87960412641E-01  0.88906467365E+00  0.88000000000E+00 0. -1.
        -11    1    4    4    0    0 -0.18267172666E-01 -0.18256939087E-01 -0.34531221118E-01  0.43123911870E-01  0.51100000000E-03 0.  1.
         11    1    4    4    0    0 -0.42771569973E-01 -0.56575280465E-01 -0.50571536013E-01  0.87108615724E-01  0.51100000000E-03 0. -1.
</event>
<event>
 8    1  0.1157726E+005  0.1043930E+01  0.7957747E-01            NaN
         13   -1    0    0    0    0  0.00000000000E+00  0.00000000000E+00  0.74505805969E-08  0.10566000000E+00  0.10566000000E+00 0.  1.
     999900   -1    0    0    0    0 -0.00000000000E+00 -0.00000000000E+00 -0.74505805969E-08  0.93827000000E+00  0.93827000000E+00 0. -1.
     999902    2    1    2    0    0  0.32205817668E-02  0.23039805023E-01  0.69991349209E-02  0.10196361190E+01  0.10193466646E+01 0.  0.
     999903    2    3    3    0    0 -0.71008006535E-01  0.96923650567E-01 -0.49423342774E-01  0.13163150084E+00  0.21162565338E-01 0.  0.
         14    1    1    2    0    0 -0.32205817668E-02 -0.23039805023E-01 -0.69991349209E-02  0.24293880959E-01  0.00000000000E+00 0. -1.
     999901    1    3    3    0    0  0.74228588302E-01 -0.73883845544E-01  0.56422477695E-01  0.88800461820E+00  0.88000000000E+00 0. -1.
        -11    1    4    4    0    0 -0.31783409061E-01  0.27240627456E-01 -0.13686196143E-01  0.44043273738E-01  0.51100000000E-03 0. -1.
         11    1    4    4    0    0 -0.39224597475E-01  0.69683023110E-01 -0.35737146631E-01  0.87588227103E-01  0.51100000000E-03 0.  1.
</event>
<event>
 8    1  0.1157726E+005  0.1043930E+01  0.7957747E-01            NaN
         13   -1    0    0    0    0  0.00000000000E+00  0.00000000000E+00  0.74505805969E-08  0.10566000000E+00  0.10566000000E+00 0. -1.
     999900   -1    0    0    0    0 -0.00000000000E+00 -0.00000000000E+00 -0.74505805969E-08  0.93827000000E+00  0.93827000000E+00 0. -1.
     999902    2    1    2    0    0 -0.42939582667E-02  0.14294399704E-01 -0.17443400061E-01  0.10209726451E+01  0.10207145055E+01 0.  0.
     999903    2    3    3    0    0 -0.60856747452E-01  0.11038507775E+00  0.34935373922E-01  0.13239158320E+00  0.20460739224E-01 0.  0.
         14    1    1    2    0    0  0.42939582667E-02 -0.14294399704E-01  0.17443400061E-01  0.22957354947E-01  0.00000000000E+00 0. -1.
     999901    1    3    3    0    0  0.56562789185E-01 -0.96090678046E-01 -0.52378773983E-01  0.88858106186E+00  0.88000000000E+00 0. -1.
        -11    1    4    4    0    0 -0.72786124972E-02  0.12677887455E-01  0.11286236156E-01  0.18475585993E-01  0.51100000000E-03 0.  1.
         11    1    4    4    0    0 -0.53578134954E-01  0.97707190295E-01  0.23649137766E-01  0.11391599720E+00  0.51100000000E-03 0. -1.
</event>
<event>
 8    1  0.1157726E+005  0.1043930E+01  0.7957747E-01            NaN
         13   -1    0    0    0    0  0.00000000000E+00  0.00000000000E+00  0.74505805969E-08  0.10566000000E+00  0.10566000000E+00 0.  1.
     999900   -1    0    0    0    0 -0.00000000000E+00 -0.00000000000E+00 -0.74505805969E-08  0.93827000000E+00  0.93827000000E+00 0.  1.
     999902    2    1    2    0    0  0.95567903680E-02 -0.46674134828E-02 -0.23612318013E-01  0.10180329239E+01  0.10177034811E+01 0.  0.
     999903    2    3    3    0    0  0.11138669591E+00  0.61349514507E-01  0.96900418546E-02  0.12908038766E+00  0.19927132501E-01 0.  0.
         14    1    1    2    0    0 -0.95567903680E-02  0.46674134828E-02  0.23612318013E-01  0.25897076142E-01  0.00000000000E+00 0.  1.
     999901    1    3    3    0    0 -0.10182990555E+00 -0.66016927990E-01 -0.33302359868E-01  0.88895253620E+00  0.88000000000E+00 0.  1.
        -11    1    4    4    0    0  0.10265111380E+00  0.49856270526E-01  0.66096179409E-02  0.11431031032E+00  0.51100000000E-03 0. -1.
         11    1    4    4    0    0  0.87355821164E-02  0.11493243981E-01  0.30804239137E-02  0.14770077339E-01  0.51100000000E-03 0.  1.
</event>
<event>
 8    1  0.1157726E+005  0.1043930E+01  0.7957747E-01            NaN
         13   -1    0    0    0    0  0.00000000000E+00  0.00000000000E+00  0.74505805969E-08  0.10566000000E+00  0.10566000000E+00 0. -1.
     999900   -1    0    0    0    0 -0.00000000000E+00 -0.00000000000E+00 -0.74505805969E-08  0.93827000000E+00  0.93827000000E+00 0.  1.
     999902    2    1    2    0    0 -0.88446819311E-03  0.22646239944E-02 -0.23544817033E-01  0.10202599933E+01  0.10199853846E+01 0.  0.
     999903    2    3    3    0    0  0.76762523172E-01  0.82605643140E-01 -0.65904633577E-01  0.13218449617E+00  0.20325920866E-01 0.  0.
         14    1    1    2    0    0  0.88446819311E-03 -0.22646239944E-02  0.23544817033E-01  0.23670006652E-01  0.00000000000E+00 0. -1.
     999901    1    3    3    0    0 -0.77646991365E-01 -0.80341019146E-01  0.42359816544E-01  0.88807549718E+00  0.88000000000E+00 0. -1.
        -11    1    4    4    0    0  0.36863388739E-02  0.63332322625E-02 -0.10752930375E-01  0.13022501980E-01  0.51100000000E-03 0. -1.
         11    1    4    4    0    0  0.73076184298E-01  0.76272410878E-01 -0.55151703202E-01  0.11916199419E+00  0.51100000000E-03 0.  1.
</event>
<event>
 8    1  0.1157726E+005  0.1043930E+01  0.7957747E-01            NaN
         13   -1    0    0    0    0  0.00000000000E+00  0.00000000000E+00  0.74505805969E-08  0.10566000000E+00  0.10566000000E+00 0.  1.
     999900   -1    0    0    0    0 -0.00000000000E+00 -0.00000000000E+00 -0.74505805969E-08  0.93827000000E+00  0.93827000000E+00 0.  1.
     999902    2    1    2    0    0 -0.13956266892E-01 -0.18584180896E-01 -0.41163875261E-02  0.10203271652E+01  0.10200541310E+01 0.  0.
     999903    2    3    3    0    0  0.40267354751E-01 -0.45885477527E-01 -0.11458391885E+00  0.13134536705E+00  0.19879488928E-01 0.  0.
         14    1    1    2    0    0  0.13956266892E-01  0.18584180896E-01  0.41163875261E-02  0.23602834817E-01  0.00000000000E+00 0. -1.
     999901    1    3    3    0    0 -0.54223621643E-01  0.27301296631E-01  0.11046753132E+00  0.88898179814E+00  0.88000000000E+00 0. -1.
        -11    1    4    4    0    0  0.25210845504E-01 -0.13811341650E-01 -0.49817989082E-01  0.57518979880E-01  0.51100000000E-03 0.  1.
         11    1    4    4    0    0  0.15056509247E-01 -0.32074135878E-01 -0.64765929763E-01  0.73826387167E-01  0.51100000000E-03 0. -1.
</event>
<event>
 8    1  0.1157726E+005  0.1043930E+01  0.7957747E-01            NaN
         13   -1    0    0    0    0  0.00000000000E+00  0.00000000000E+00  0.74505805969E-08  0.10566000000E+00  0.10566000000E+00 0.  1.
     999900   -1    0    0    0    0 -0.00000000000E+00 -0.00000000000E+00 -0.74505805969E-08  0.93827000000E+00  0.93827000000E+00 0. -1.
     999902    2    1    2    0    0 -0.74343669142E-02  0.20875989474E-01  0.70635401925E-02  0.10206712307E+01  0.10204061892E+01 0.  0.
     999903    2    3    3    0    0  0.61077510743E-01 -0.10792145652E+00 -0.25146097668E-01  0.12807943139E+00  0.19862311562E-01 0.  0.
         14    1    1    2    0    0  0.74343669142E-02 -0.20875989474E-01 -0.70635401925E-02  0.23258769271E-01  0.00000000000E+00 0. -1.
     999901    1    3    3    0    0 -0.68511877658E-01  0.12879744600E+00  0.32209637860E-01  0.89259179934E+00  0.88000000000E+00 0.  1.
        -11    1    4    4    0    0  0.35284506492E-01 -0.48350799293E-01 -0.19330737227E-01  0.62902581135E-01  0.51100000000E-03 0. -1.
         11    1    4    4    0    0  0.25793004251E-01 -0.59570657230E-01 -0.58153604403E-02  0.65176850255E-01  0.51100000000E-03 0.  1.
</event>
<event>
 8    1  0.1157726E+005  0.1043930E+01  0.7957747E-01            NaN
         13   -1    0    0    0    0  0.00000000000E+00  0.00000000000E+00  0.74505805969E-08  0.10566000000E+00  0.10566000000E+00 0. -1.
     999900   -1    0    0    0    0 -0.00000000000E+00 -0.00000000000E+00 -0.74505805969E-08  0.93827000000E+00  0.93827000000E+00 0. -1.
     999902    2    1    2    0    0 -0.72494668791E-02  0.22736961779E-01  0.20822345959E-02  0.10199746269E+01  0.10196932772E+01 0.  0.
     999903    2    3    3    0    0  0.65818313285E-01 -0.25065907737E-01 -0.10618426120E+00  0.12905058468E+00  0.20459862811E-01 0.  0.
         14    1    1    2    0    0  0.72494668791E-02 -0.22736961779E-01 -0.20822345959E-02  0.23955373132E-01  0.00000000000E+00 0.  1.
     999901    1    3    3    0    0 -0.73067780164E-01  0.47802869516E-01  0.10826649580E+00  0.89092404219E+00  0.88000000000E+00 0.  1.
        -11    1    4    4    0    0  0.58262564564E-01 -0.14229465434E-01 -0.83762139237E-01  0.10302116873E+00  0.51100000000E-03 0.  1.
         11    1    4    4    0    0  0.75557487211E-02 -0.10836442303E-01 -0.22422121963E-01  0.26029415952E-01  0.51100000000E-03 0. -1.
</event>
<event>
 8    1  0.1157726E+005  0.1043930E+01  0.7957747E-01            NaN
         13   -1    0    0    0    0  0.00000000000E+00  0.00000000000E+00  0.74505805969E-08  0.10566000000E+00  0.10566000000E+00 0. -1.
     999900   -1    0    0    0    0 -0.00000000000E+00 -0.00000000000E+00 -0.74505805969E-08  0.93827000000E+00  0.93827000000E+00 0.  1.
     999902    2    1    2    0    0 -0.18980560308E-01  0.87709832868E-02  0.18203325025E-01  0.10162072141E+01  0.10158289960E+01 0.  0.
     999903    2    3    3    0    0  0.23475303490E-01  0.12252597606E+00  0.20177877683E-01  0.12786797842E+00  0.19477383654E-01 0.  0.
         14    1    1    2    0    0  0.18980560308E-01 -0.87709832868E-02 -0.18203325025E-01  0.27722785924E-01  0.00000000000E+00 0.  1.
     999901    1    3    3    0    0 -0.42455863798E-01 -0.11375499277E+00 -0.19745526577E-02  0.88833923566E+00  0.88000000000E+00 0.  1.
        -11    1    4    4    0    0  0.13141642569E-01  0.30556100880E-01  0.60900592910E-03  0.33271760994E-01  0.51100000000E-03 0.  1.
         11    1    4    4    0    0  0.10333660921E-01  0.91969875177E-01  0.19568871754E-01  0.94596217424E-01  0.51100000000E-03 0. -1.
</event>
<event>
 8    1  0.1157726E+005  0.1043930E+01  0.7957747E-01            NaN
         13   -1    0    0    0    0  0.00000000000E+00  0.00000000000E+00  0.74505805969E-08  0.10566000000E+00  0.10566000000E+00 0.  1.
     999900   -1    0    0    0    0 -0.00000000000E+00 -0.00000000000E+00 -0.74505805969E-08  0.93827000000E+00  0.93827000000E+00 0. -1.
     999902    2    1    2    0    0 -0.13709257940E-01 -0.16607839025E-01 -0.72935340341E-02  0.10211932520E+01  0.10209401051E+01 0.  0.
     999903    2    3    3    0    0 -0.11787660741E+00 -0.59264367095E-01  0.95900573662E-02  0.13386272073E+00  0.20496317242E-01 0.  0.
         14    1    1    2    0    0  0.13709257940E-01  0.16607839025E-01  0.72935340341E-02  0.22736747988E-01  0.00000000000E+00 0.  1.
     999901    1    3    3    0    0  0.10416734947E+00  0.42656528070E-01 -0.16883591400E-01  0.88733053128E+00  0.88000000000E+00 0.  1.
        -11    1    4    4    0    0 -0.82692149962E-01 -0.44706344103E-01 -0.20992426732E-02  0.94028276647E-01  0.51100000000E-03 0. -1.
         11    1    4    4    0    0 -0.35184457446E-01 -0.14558022992E-01  0.11689300039E-01  0.39834444086E-01  0.51100000000E-03 0.  1.
</event>
<event>
 8    1  0.1157726E+005  0.1043930E+01  0.7957747E-01            NaN
         13   -1    0    0    0    0  0.00000000000E+00  0.00000000000E+00  0.74505805969E-08  0.10566000000E+00  0.10566000000E+00 0.  1.
     999900   -1    0    0    0    0 -0.00000000000E+00 -0.00000000000E+00 -0.74505805969E-08  0.93827000000E+00  0.93827000000E+00 0. -1.
     999902    2    1    2    0    0  0.82954785641E-02 -0.21713790380E-01  0.58154711795E-02  0.10199691285E+01  0.10196876481E+01 0.  0.
     999903    2    3    3    0    0 -0.87188567505E-01  0.56713588651E-01 -0.70497552808E-01  0.12806569514E+00  0.24751563156E-01 0.  0.
         14    1    1    2    0    0 -0.82954785641E-02  0.21713790380E-01 -0.58154711795E-02  0.23960871485E-01  0.00000000000E+00 0. -1.
     999901    1    3    3    0    0  0.95484046069E-01 -0.78427379031E-01  0.76313023987E-01  0.89190343337E+00  0.88000000000E+00 0.  1.
        -11    1    4    4    0    0 -0.23751212016E-01  0.85039571498E-02 -0.70160533743E-02  0.26190140996E-01  0.51100000000E-03 0. -1.
         11    1    4    4    0    0 -0.63437355489E-01  0.48209631501E-01 -0.63481499433E-01  0.10187555414E+00  0.51100000000E-03 0.  1.
</event>
<event>
 8    1  0.1157726E+005  0.1043930E+01  0.7957747E-01            NaN
         13   -1    0    0    0    0  0.00000000000E+00  0.00000000000E+00  0.74505805969E-08  0.10566000000E+00  0.10566000000E+00 0.  1.
     999900   -1    0    0    0    0 -0.00000000000E+00 -0.00000000000E+00 -0.74505805969E-08  0.93827000000E+00  0.93827000000E+00 0. -1.
     999902    2    1    2    0    0  0.14421414269E-01  0.21299058313E-01 -0.21530690057E-01  0.10103860335E+01  0.10098290642E+01 0.  0.
     999903    2    3    3    0    0 -0.71678374713E-02  0.36981831627E-01  0.11227147418E+00  0.11987210080E+00  0.18585017372E-01 0.  0.
         14    1    1    2    0    0 -0.14421414269E-01 -0.21299058313E-01  0.21530690057E-01  0.33543966505E-01  0.00000000000E+00 0.  1.
     999901    1    3    3    0    0  0.21589251740E-01 -0.15682773314E-01 -0.13380216424E+00  0.89051393270E+00  0.88000000000E+00 0. -1.
        -11    1    4    4    0    0 -0.16077517699E-02  0.29666325266E-01  0.61847844200E-01  0.68615542508E-01  0.51100000000E-03 0.  1.
         11    1    4    4    0    0 -0.55600857014E-02  0.73155063609E-02  0.50423629982E-01  0.51256558292E-01  0.51100000000E-03 0. -1.
</event>
<event>
 8    1  0.1157726E+005  0.1043930E+01  0.7957747E-01            NaN
         13   -1    0    0    0    0  0.00000000000E+00  0.00000000000E+00  0.74505805969E-08  0.10566000000E+00  0.10566000000E+00 0. -1.
     999900   -1    0    0    0    0 -0.00000000000E+00 -0.00000000000E+00 -0.74505805969E-08  0.93827000000E+00  0.93827000000E+00 0.  1.
     999902    2    1    2    0    0  0.11677534570E-01 -0.21980962956E-01  0.20190109757E-02  0.10189579366E+01  0.10186518898E+01 0.  0.
     999903    2    3    3    0    0  0.11432081599E+00 -0.47513257932E-01  0.40721270224E-01  0.13177959702E+00  0.19516190621E-01 0.  0.
         14    1    1    2    0    0 -0.11677534570E-01  0.21980962956E-01 -0.20190109757E-02  0.24972063419E-01  0.00000000000E+00 0.  1.
     999901    1    3    3    0    0 -0.10264328142E+00  0.25532294977E-01 -0.38702259248E-01  0.88717833956E+00  0.88000000000E+00 0.  1.
        -11    1    4    4    0    0  0.88108115739E-01 -0.40685466660E-01  0.24106949600E-01  0.99998766975E-01  0.51100000000E-03 0.  1.
         11    1    4    4    0    0  0.26212700246E-01 -0.68277912719E-02  0.16614320624E-01  0.31780830050E-01  0.51100000000E-03 0. -1.
</event>
<event>
 8    1  0.1157726E+005  0.1043930E+01  0.7957747E-01            NaN
         13   -1    0    0    0    0  0.00000000000E+00  0.00000000000E+00  0.74505805969E-08  0.10566000000E+00  0.10566000000E+00 0.  1.
     999900   -1    0    0    0    0 -0.00000000000E+00 -0.00000000000E+00 -0.74505805969E-08  0.93827000000E+00  0.93827000000E+00 0. -1.
     999902    2    1    2    0    0 -0.44264524343E-02 -0.21419397627E-01  0.80915544469E-02  0.10206092511E+01  0.10203427787E+01 0.  0.
     999903    2    3    3    0    0  0.52441201660E-01 -0.11196364386E+00  0.45747585529E-01  0.13333805959E+00  0.20006483317E-01 0.  0.
         14    1    1    2    0    0  0.44264524343E-02  0.21419397627E-01 -0.80915544469E-02  0.23320748899E-01  0.00000000000E+00 0. -1.
     999901    1    3    3    0    0 -0.56867654094E-01  0.90544246237E-01 -0.37656031082E-01  0.88727119151E+00  0.88000000000E+00 0.  1.
        -11    1    4    4    0    0  0.31481815313E-01 -0.85623007452E-01  0.37781415735E-01  0.98742597679E-01  0.51100000000E-03 0.  1.
         11    1    4    4    0    0  0.20959386347E-01 -0.26340636412E-01  0.79661697933E-02  0.34595461911E-01  0.51100000000E-03 0. -1.
</event>
<event>
 8    1  0.1157726E+005  0.1043930E+01  0.7957747E-01            NaN
         13   -1    0    0    0    0  0.00000000000E+00  0.00000000000E+00  0.74505805969E-08  0.10566000000E+00  0.10566000000E+00 0. -1.
     999900   -1    0    0    0    0 -0.00000000000E+00 -0.00000000000E+00 -0.74505805969E-08  0.93827000000E+00  0.93827000000E+00 0.  1.
     999902    2    1    2    0    0  0.83599299087E-02 -0.21277730753E-01  0.49899567267E-02  0.10205306427E+01  0.10202623500E+01 0.  0.
     999903    2    3    3    0    0  0.47422590843E-01  0.13196911847E-01  0.12028122317E+00  0.13148257393E+00  0.19925711903E-01 0.  0.
         14    1    1    2    0    0 -0.83599299087E-02  0.21277730753E-01 -0.49899567267E-02  0.23399357303E-01  0.00000000000E+00 0.  1.
     999901    1    3    3    0    0 -0.39062660934E-01 -0.34474642599E-01 -0.11529126644E+00  0.88904806877E+00  0.88000000000E+00 0.  1.
        -11    1    4    4    0    0  0.10424646364E-01 -0.39969101708E-02  0.38483963472E-01  0.40073995412E-01  0.51100000000E-03 0.  1.
         11    1    4    4    0    0  0.36997944479E-01  0.17193822018E-01  0.81797259699E-01  0.91408578517E-01  0.51100000000E-03 0. -1.
</event>
<event>
 8    1  0.1157726E+005  0.1043930E+01  0.7957747E-01            NaN
         13   -1    0    0    0    0  0.00000000000E+00  0.00000000000E+00  0.74505805969E-08  0.10566000000E+00  0.10566000000E+00 0.  1.
     999900   -1    0    0    0    0 -0.00000000000E+00 -0.00000000000E+00 -0.74505805969E-08  0.93827000000E+00  0.93827000000E+00 0. -1.
     999902    2    1    2    0    0 -0.87599086307E-02  0.12967862768E-01 -0.16067485874E-01  0.10215008768E+01  0.10212546087E+01 0.  0.
     999903    2    3    3    0    0  0.53301488181E-01 -0.11674258058E+00 -0.75943867082E-02  0.12979004393E+00  0.17829807399E-01 0.  0.
         14    1    1    2    0    0  0.87599086307E-02 -0.12967862768E-01  0.16067485874E-01  0.22429123173E-01  0.00000000000E+00 0. -1.
     999901    1    3    3    0    0 -0.62061396812E-01  0.12971044335E+00 -0.84730991657E-02  0.89171083289E+00  0.88000000000E+00 0. -1.
        -11    1    4    4    0    0  0.43479775969E-01 -0.75253232395E-01 -0.41373197978E-02  0.87011024821E-01  0.51100000000E-03 0. -1.
         11    1    4    4    0    0  0.98217122119E-02 -0.41489348187E-01 -0.34570669104E-02  0.42779019114E-01  0.51100000000E-03 0.  1.
</event>
<event>
 8    1  0.1157726E+005  0.1043930E+01  0.7957747E-01            NaN
         13   -1    0    0    0    0  0.00000000000E+00  0.00000000000E+00  0.74505805969E-08  0.10566000000E+00  0.10566000000E+00 0. -1.
     999900   -1    0    0    0    0 -0.00000000000E+00 -0.00000000000E+00 -0.74505805969E-08  0.93827000000E+00  0.93827000000E+00 0. -1.
     999902    2    1    2    0    0  0.42489166444E-02  0.14282566883E-01 -0.16924667693E-01  0.10213802908E+01  0.10211313378E+01 0.  0.
     999903    2    3    3    0    0 -0.11482916577E+00  0.27795506860E-01 -0.56114880026E-01  0.13239319188E+00  0.20512191078E-01 0.  0.
         14    1    1    2    0    0 -0.42489166444E-02 -0.14282566883E-01  0.16924667693E-01  0.22549709221E-01  0.00000000000E+00 0. -1.
     999901    1    3    3    0    0  0.11907808242E+00 -0.13512939977E-01  0.39190212334E-01  0.88898709890E+00  0.88000000000E+00 0. -1.
        -11    1    4    4    0    0 -0.57554619470E-01  0.47149006065E-02 -0.21652517602E-01  0.61675417709E-01  0.51100000000E-03 0.  1.
         11    1    4    4    0    0 -0.57274546304E-01  0.23080606254E-01 -0.34462362425E-01  0.70717774175E-01  0.51100000000E-03 0. -1.
</event>
<event>
 8    1  0.1157726E+005  0.1043930E+01  0.7957747E-01            NaN
         13   -1    0    0    0    0  0.00000000000E+00  0.00000000000E+00  0.74505805969E-08  0.10566000000E+00  0.10566000000E+00 0. -1.
     999900   -1    0    0    0    0 -0.00000000000E+00 -0.00000000000E+00 -0.74505805969E-08  0.93827000000E+00  0.93827000000E+00 0. -1.
     999902    2    1    2    0    0 -0.12431577126E-01  0.12364325481E-01  0.15791111928E-01  0.10203338166E+01  0.10200609381E+01 0.  0.
     999903    2    3    3    0    0 -0.25889215371E-01  0.12686787528E+00 -0.18543142606E-01  0.13214970733E+00  0.18814562487E-01 0.  0.
         14    1    1    2    0    0  0.12431577126E-01 -0.12364325481E-01 -0.15791111928E-01  0.23596183385E-01  0.00000000000E+00 0.  1.
     999901    1    3    3    0    0  0.13457638245E-01 -0.11450354979E+00  0.34334254533E-01  0.88818410928E+00  0.88000000000E+00 0. -1.
        -11    1    4    4    0    0 -0.10794793537E-01  0.93992262410E-01 -0.15075950773E-01  0.95805106196E-01  0.51100000000E-03 0.  1.
         11    1    4    4    0    0 -0.15094421833E-01  0.32875612865E-01 -0.34671918331E-02  0.36344601139E-01  0.51100000000E-03 0. -1.
</event>
<event>
 8    1  0.1157726E+005  0.1043930E+01  0.7957747E-01            NaN
         13   -1    0    0    0    0  0.00000000000E+00  0.00000000000E+00  0.74505805969E-08  0.10566000000E+00  0.10566000000E+00 0.  1.
     999900   -1    0    0    0    0 -0.00000000000E+00 -0.00000000000E+00 -0.74505805969E-08  0.93827000000E+00  0.93827000000E+00 0.  1.
     999902    2    1    2    0    0  0.14146771358E-01  0.51702613749E-03  0.19505090155E-01  0.10198292324E+01  0.10195444161E+01 0.  0.
     999903    2    3    3    0    0  0.95162979601E-01 -0.85469074975E-01 -0.20917384936E-01  0.13101473430E+00  0.19140745730E-01 0.  0.
         14    1    1    2    0    0 -0.14146771358E-01 -0.51702613749E-03 -0.19505090155E-01  0.24100767578E-01  0.00000000000E+00 0. -1.
     999901    1    3    3    0    0 -0.81016208243E-01  0.85986101113E-01  0.40422475091E-01  0.88881449812E+00  0.88000000000E+00 0. -1.
        -11    1    4    4    0    0  0.52593439631E-01 -0.56156209174E-01 -0.19190405356E-01  0.79297682814E-01  0.51100000000E-03 0. -1.
         11    1    4    4    0    0  0.42569539970E-01 -0.29312865801E-01 -0.17269795801E-02  0.51717051484E-01  0.51100000000E-03 0.  1.
</event>
<event>
 8    1  0.1157726E+005  0.1043930E+01  0.7957747E-01            NaN
         13   -1    0    0    0    0  0.00000000000E+00  0.00000000000E+00  0.74505805969E-08  0.10566000000E+00  0.10566000000E+00 0. -1.
     999900   -1    0    0    0    0 -0.00000000000E+00 -0.00000000000E+00 -0.74505805969E-08  0.93827000000E+00  0.93827000000E+00 0. -1.
     999902    2    1    2    0    0  0.17170537139E-01 -0.14885337079E-01  0.15198848446E-02  0.10211547798E+01  0.10209007658E+01 0.  0.
     999903    2    3    3    0    0 -0.55740087380E-02 -0.53333071525E-01 -0.11879207149E+00  0.13184577304E+00  0.19906419259E-01 0.  0.
         14    1    1    2    0    0 -0.17170537139E-01  0.14885337079E-01 -0.15198848446E-02  0.22775220208E-01  0.00000000000E+00 0.  1.
     999901    1    3    3    0    0  0.22744545877E-01  0.38447734446E-01  0.12031195634E+00  0.88930900675E+00  0.88000000000E+00 0.  1.
        -11    1    4    4    0    0 -0.12153938285E-01 -0.24007136489E-01 -0.50288657176E-01  0.57037452431E-01  0.51100000000E-03 0.  1.
         11    1    4    4    0    0  0.65799295468E-02 -0.29325935036E-01 -0.68503414316E-01  0.74808320610E-01  0.51100000000E-03 0. -1.
</event>
<event>
 8    1  0.1157726E+005  0.1043930E+01  0.7957747E-01            NaN
         13   -1    0    0    0    0  0.00000000000E+00  0.00000000000E+00  0.74505805969E-08  0.10566000000E+00  0.10566000000E+00 0. -1.
     999900   -1    0    0    0    0 -0.00000000000E+00 -0.00000000000E+00 -0.74505805969E-08  0.93827000000E+00  0.93827000000E+00 0. -1.
     999902    2    1    2    0    0  0.20485478951E-02  0.22250029710E-01  0.82898247184E-02  0.10200976362E+01  0.10198192025E+01 0.  0.
     999903    2    3    3    0    0 -0.20447620927E-01  0.18484273297E-01 -0.12538512270E+00  0.12971050124E+00  0.18536762848E-01 0.  0.
         14    1    1    2    0    0 -0.20485478951E-02 -0.22250029710E-01 -0.82898247184E-02  0.23832363803E-01  0.00000000000E+00 0.  1.
     999901    1    3    3    0    0  0.22496168822E-01  0.37657564124E-02  0.13367494742E+00  0.89038713496E+00  0.88000000000E+00 0.  1.
        -11    1    4    4    0    0 -0.22434773563E-01  0.19032356408E-01 -0.10006739023E+00  0.10430385115E+00  0.51100000000E-03 0. -1.
         11    1    4    4    0    0  0.19871526360E-02 -0.54808311067E-03 -0.25317732466E-01  0.25406650093E-01  0.51100000000E-03 0.  1.
</event>
<event>
 8    1  0.1157726E+005  0.1043930E+01  0.7957747E-01            NaN
         13   -1    0    0    0    0  0.00000000000E+00  0.00000000000E+00  0.74505805969E-08  0.10566000000E+00  0.10566000000E+00 0. -1.
     999900   -1    0    0    0    0 -0.00000000000E+00 -0.00000000000E+00 -0.74505805969E-08  0.93827000000E+00  0.93827000000E+00 0. -1.
     999902    2    1    2    0    0  0.55296135035E-02 -0.29953869263E-02  0.18281452116E-01  0.10245971146E+01  0.10244147044E+01 0.  0.
     999903    2    3    3    0    0 -0.90774656240E-01 -0.71112337523E-01  0.68226138440E-01  0.13532274574E+00  0.18985172767E-01 0.  0.
         14    1    1    2    0    0 -0.55296135035E-02  0.29953869263E-02 -0.18281452116E-01  0.19332885450E-01  0.00000000000E+00 0.  1.
     999901    1    3    3    0    0  0.96304269743E-01  0.68116950597E-01 -0.49944686323E-01  0.88927436881E+00  0.88000000000E+00 0.  1.
        -11    1    4    4    0    0 -0.58024511963E-01 -0.46290863496E-01  0.54153628846E-01  0.91883429790E-01  0.51100000000E-03 0.  1.
         11    1    4    4    0    0 -0.32750144277E-01 -0.24821474027E-01  0.14072509594E-01  0.43439315951E-01  0.51100000000E-03 0. -1.
</event>
<event>
 7    1  0.1157726E+005  0.1043930E+01  0.7957747E-01            NaN
         13   -1    0    0    0    0  0.00000000000E+00  0.00000000000E+00  0.74505805969E-08  0.10566000000E+00  0.10566000000E+00 0. -1.
     999900   -1    0    0    0    0 -0.00000000000E+00 -0.00000000000E+00 -0.74505805969E-08  0.93827000000E+00  0.93827000000E+00 0.  1.
     999902    2    1    2    0    0 -0.17155912789E-01  0.13744886392E-01 -0.66655688745E-02  0.10209587777E+01  0.10207003227E+01 0.  0.
         14    1    1    2    0    0  0.17155912789E-01 -0.13744886392E-01  0.66655688745E-02  0.22971222300E-01  0.00000000000E+00 0. -1.
     999901    1    3    3    0    0 -0.68819851796E-01  0.30728174306E-01  0.10599643134E+00  0.88955923701E+00  0.88000000000E+00 0. -1.
        -11    1    3    3    0    0  0.20442473472E-01 -0.98051506249E-02 -0.11786794319E-01  0.25558273450E-01  0.51100000000E-03 0. -1.
         11    1    3    3    0    0  0.31221465535E-01 -0.71781372888E-02 -0.10087520589E+00  0.10584126724E+00  0.51100000000E-03 0.  1.
</event>
<event>
 8    1  0.1157726E+005  0.1043930E+01  0.7957747E-01            NaN
         13   -1    0    0    0    0  0.00000000000E+00  0.00000000000E+00  0.74505805969E-08  0.10566000000E+00  0.10566000000E+00 0.  1.
     999900   -1    0    0    0    0 -0.00000000000E+00 -0.00000000000E+00 -0.74505805969E-08  0.93827000000E+00  0.93827000000E+00 0. -1.
     999902    2    1    2    0    0  0.16270031255E-02 -0.53646962667E-02  0.23008912569E-01  0.10202479992E+01  0.10199731088E+01 0.  0.
     999903    2    3    3    0    0 -0.30385174432E-01  0.11022170516E+00 -0.55715518751E-01  0.12863006991E+00  0.19219592688E-01 0.  0.
         14    1    1    2    0    0 -0.16270031255E-02  0.53646962667E-02 -0.23008912569E-01  0.23682000820E-01  0.00000000000E+00 0. -1.
     999901    1    3    3    0    0  0.32012177557E-01 -0.11558640142E+00  0.78724431321E-01  0.89161792927E+00  0.88000000000E+00 0.  1.
        -11    1    4    4    0    0 -0.62352523173E-02  0.10427871776E-01 -0.11840936935E-01  0.16973149081E-01  0.51100000000E-03 0.  1.
         11    1    4    4    0    0 -0.24149922114E-01  0.99793833380E-01 -0.43874581816E-01  0.11165692083E+00  0.51100000000E-03 0. -1.
</event>
<event>
 8    1  0.1239189E+005  0.1043930E+01  0.7957747E-01            NaN
         13   -1    0    0    0    0  0.00000000000E+00  0.00000000000E+00  0.74505805969E-08  0.10566000000E+00  0.10566000000E+00 0.  1.
     999900   -1    0    0    0    0 -0.00000000000E+00 -0.00000000000E+00 -0.74505805969E-08  0.93827000000E+00  0.93827000000E+00 0. -1.
     999902    2    1    2    0    0 -0.84284419170E-02 -0.14798026882E-01  0.15803841719E-01  0.10206967986E+01  0.10204323462E+01 0.  0.
     999903    2    3    3    0    0 -0.28909069139E-01 -0.12809478099E+00  0.33521168480E-02  0.13310981358E+00  0.21516937248E-01 0.  0.
         14    1    1    2    0    0  0.84284419170E-02  0.14798026882E-01 -0.15803841719E-01  0.23233201368E-01  0.00000000000E+00 0. -1.
     999901    1    3    3    0    0  0.20480627222E-01  0.11329675411E+00  0.12451724871E-01  0.88758698505E+00  0.88000000000E+00 0.  1.
        -11    1    4    4    0    0 -0.26286055098E-01 -0.68423640314E-01  0.33829173774E-02  0.73378855929E-01  0.51100000000E-03 0. -1.
         11    1    4    4    0    0 -0.26230140408E-02 -0.59671140675E-01 -0.30800529393E-04  0.59730957650E-01  0.51100000000E-03 0.  1.
</event>
<event>
 8    1  0.1157726E+005  0.1043930E+01  0.7957747E-01            NaN
         13   -1    0    0    0    0  0.00000000000E+00  0.00000000000E+00  0.74505805969E-08  0.10566000000E+00  0.10566000000E+00 0.  1.
     999900   -1    0    0    0    0 -0.00000000000E+00 -0.00000000000E+00 -0.74505805969E-08  0.93827000000E+00  0.93827000000E+00 0. -1.
     999902    2    1    2    0    0  0.12254686969E-01  0.15005326585E-01  0.13223381071E-01  0.10204737645E+01  0.10202041506E+01 0.  0.
     999903    2    3    3    0    0 -0.81027667038E-01 -0.73708859896E-01  0.65395979419E-01  0.12957882988E+00  0.22705950218E-01 0.  0.
         14    1    1    2    0    0 -0.12254686969E-01 -0.15005326585E-01 -0.13223381071E-01  0.23456235537E-01  0.00000000000E+00 0. -1.
     999901    1    3    3    0    0  0.93282354007E-01  0.88714186481E-01 -0.52172598348E-01  0.89089493459E+00  0.88000000000E+00 0.  1.
        -11    1    4    4    0    0 -0.37224337987E-01 -0.33477934853E-01  0.43090967119E-01  0.66056915072E-01  0.51100000000E-03 0.  1.
         11    1    4    4    0    0 -0.43803329051E-01 -0.40230925043E-01  0.22305012300E-01  0.63521914805E-01  0.51100000000E-03 0. -1.
</event>
<event>
 8    1  0.1157726E+005  0.1043930E+01  0.7957747E-01            NaN
         13   -1    0    0    0    0  0.00000000000E+00  0.00000000000E+00  0.74505805969E-08  0.10566000000E+00  0.10566000000E+00 0. -1.
     999900   -1    0    0    0    0 -0.00000000000E+00 -0.00000000000E+00 -0.74505805969E-08  0.93827000000E+00  0.93827000000E+00 0.  1.
     999902    2    1    2    0    0 -0.91946967022E-02 -0.20021855266E-01  0.66608486852E-02  0.10209129619E+01  0.10206534631E+01 0.  0.
     999903    2    3    3    0    0 -0.10893980852E+00  0.50413734342E-01  0.49726654156E-01  0.13143844111E+00  0.19846842995E-01 0.  0.
         14    1    1    2    0    0  0.91946967022E-02  0.20021855266E-01 -0.66608486852E-02  0.23017038058E-01  0.00000000000E+00 0.  1.
     999901    1    3    3    0    0  0.99745111816E-01 -0.70435589608E-01 -0.43065805471E-01  0.88947452084E+00  0.88000000000E+00 0. -1.
        -11    1    4    4    0    0 -0.43115945642E-01  0.22584504653E-01  0.10070133310E-01  0.49706270479E-01  0.51100000000E-03 0.  1.
         11    1    4    4    0    0 -0.65823862876E-01  0.27829229688E-01  0.39656520846E-01  0.81732170628E-01  0.51100000000E-03 0. -1.
</event>
<event>
 8    1  0.1157726E+005  0.1043930E+01  0.7957747E-01            NaN
         13   -1    0    0    0    0  0.00000000000E+00  0.00000000000E+00  0.74505805969E-08  0.10566000000E+00  0.10566000000E+00 0.  1.
     999900   -1    0    0    0    0 -0.00000000000E+00 -0.00000000000E+00 -0.74505805969E-08  0.93827000000E+00  0.93827000000E+00 0.  1.
     999902    2    1    2    0    0  0.17130191335E-01 -0.15527785687E-01  0.68827034105E-03  0.10207992996E+01  0.10205372021E+01 0.  0.
     999903    2    3    3    0    0 -0.12684554008E+00  0.48772644436E-02 -0.80054526300E-02  0.12882342657E+00  0.20440381932E-01 0.  0.
         14    1    1    2    0    0 -0.17130191335E-01  0.15527785687E-01 -0.68827034105E-03  0.23130700370E-01  0.00000000000E+00 0. -1.
     999901    1    3    3    0    0  0.14397573142E+00 -0.20405050131E-01  0.86937229710E-02  0.89197587306E+00  0.88000000000E+00 0.  1.
        -11    1    4    4    0    0 -0.29637005371E-01  0.46981023074E-02 -0.98782805224E-02  0.31595344589E-01  0.51100000000E-03 0. -1.
         11    1    4    4    0    0 -0.97208534711E-01  0.17916213628E-03  0.18728278924E-02  0.97228081977E-01  0.51100000000E-03 0.  1.
</event>
<event>
 8    1  0.1157726E+005  0.1043930E+01  0.7957747E-01            NaN
         13   -1    0    0    0    0  0.00000000000E+00  0.00000000000E+00  0.74505805969E-08  0.10566000000E+00  0.10566000000E+00 0.  1.
     999900   -1    0    0    0    0 -0.00000000000E+00 -0.00000000000E+00 -0.74505805969E-08  0.93827000000E+00  0.93827000000E+00 0.  1.
     999902    2    1    2    0    0 -0.47900492233E-02  0.10754384017E-01 -0.19320814525E-01  0.10213048984E+01  0.10210542593E+01 0.  0.
     999903    2    3    3    0    0 -0.62841828931E-02 -0.10925595868E+00 -0.70303957059E-01  0.13169599806E+00  0.20611503255E-01 0.  0.
         14    1    1    2    0    0  0.47900492233E-02 -0.10754384017E-01  0.19320814525E-01  0.22625101571E-01  0.00000000000E+00 0. -1.
     999901    1    3    3    0    0  0.14941336698E-02  0.12001034269E+00  0.50983142534E-01  0.88960890037E+00  0.88000000000E+00 0. -1.
        -11    1    4    4    0    0 -0.83704729490E-02 -0.15871724785E-01 -0.11159325712E-01  0.21136890415E-01  0.51100000000E-03 0.  1.
         11    1    4    4    0    0  0.20862900558E-02 -0.93384233892E-01 -0.59144631347E-01  0.11055910765E+00  0.51100000000E-03 0. -1.
</event>
<event>
 8    1  0.1157726E+005  0.1043930E+01  0.7957747E-01            NaN
         13   -1    0    0    0    0  0.00000000000E+00  0.00000000000E+00  0.74505805969E-08  0.10566000000E+00  0.10566000000E+00 0.  1.
     999900   -1    0    0    0    0 -0.00000000000E+00 -0.00000000000E+00 -0.74505805969E-08  0.93827000000E+00  0.93827000000E+00 0. -1.
     999902    2    1    2    0    0  0.38186871043E-02  0.25895975321E-01  0.14637010891E-02  0.10177130908E+01  0.10173753529E+01 0.  0.
     999903    2    3    3    0    0 -0.14162318164E-01 -0.94043776092E-01 -0.79070371293E-01  0.12575199445E+00  0.22729659368E-01 0.  0.
         14    1    1    2    0    0 -0.38186871043E-02 -0.25895975321E-01 -0.14637010891E-02  0.26216909236E-01  0.00000000000E+00 0.  1.
     999901    1    3    3    0    0  0.17981005268E-01  0.11993975141E+00  0.80534072382E-01  0.89196109631E+00  0.88000000000E+00 0.  1.
        -11    1    4    4    0    0 -0.17846217603E-01 -0.46040553576E-01 -0.44566369893E-01  0.66517986311E-01  0.51100000000E-03 0. -1.
         11    1    4    4    0    0  0.36838994395E-02 -0.48003222515E-01 -0.34504001400E-01  0.59234008142E-01  0.51100000000E-03 0.  1.
</event>
<event>
 8    1  0.1157726E+005  0.1043930E+01  0.7957747E-01            NaN
         13   -1    0    0    0    0  0.00000000000E+00  0.00000000000E+00  0.74505805969E-08  0.10566000000E+00  0.10566000000E+00 0. -1.
     999900   -1    0    0    0    0 -0.00000000000E+00 -0.00000000000E+00 -0.74505805969E-08  0.93827000000E+00  0.93827000000E+00 0. -1.
     999902    2    1    2    0    0 -0.14796719654E-01  0.17485767274E-01 -0.42797591513E-02  0.10206273970E+01  0.10203613439E+01 0.  0.
     999903    2    3    3    0    0  0.12257941923E+00  0.55813551619E-02 -0.32577617547E-01  0.12944016223E+00  0.25230713218E-01 0.  0.
         14    1    1    2    0    0  0.14796719654E-01 -0.17485767274E-01  0.42797591513E-02  0.23302603032E-01  0.00000000000E+00 0. -1.
     999901    1    3    3    0    0 -0.13737613889E+00  0.11904412112E-01  0.28297858395E-01  0.89118723473E+00  0.88000000000E+00 0. -1.
        -11    1    4    4    0    0  0.81967692711E-01  0.65357349025E-02 -0.33530074077E-01  0.88802846056E-01  0.51100000000E-03 0.  1.
         11    1    4    4    0    0  0.40611726521E-01 -0.95437974059E-03  0.95245653008E-03  0.40637316178E-01  0.51100000000E-03 0. -1.
</event>
<event>
 8    1  0.1157726E+005  0.1043930E+01  0.7957747E-01            NaN
         13   -1    0    0    0    0  0.00000000000E+00  0.00000000000E+00  0.74505805969E-08  0.10566000000E+00  0.10566000000E+00 0. -1.
     999900   -1    0    0    0    0 -0.00000000000E+00 -0.00000000000E+00 -0.74505805969E-08  0.93827000000E+00  0.93827000000E+00 0. -1.
     999902    2    1    2    0    0 -0.13464594217E-01  0.10921773479E-01  0.15086890387E-01  0.10209475133E+01  0.10206888018E+01 0.  0.
     999903    2    3    3    0    0  0.73738420200E-01 -0.39024642323E-01  0.99371132979E-01  0.13122685842E+00  0.19636419704E-01 0.  0.
         14    1    1    2    0    0  0.13464594217E-01 -0.10921773479E-01 -0.15086890387E-01  0.22982486700E-01  0.00000000000E+00 0.  1.
     999901    1    3    3    0    0 -0.87203014416E-01  0.49946415803E-01 -0.84284242592E-01  0.88972065488E+00  0.88000000000E+00 0. -1.
        -11    1    4    4    0    0  0.52190491498E-01 -0.35007715153E-01  0.81648756649E-01  0.10303479076E+00  0.51100000000E-03 0.  1.
         11    1    4    4    0    0  0.21547928702E-01 -0.40169271704E-02  0.17722376329E-01  0.28192067661E-01  0.51100000000E-03 0. -1.
</event>
<event>
 8    1  0.1157726E+005  0.1043930E+01  0.7957747E-01            NaN
         13   -1    0    0    0    0  0.00000000000E+00  0.00000000000E+00  0.74505805969E-08  0.10566000000E+00  0.10566000000E+00 0.  1.
     999900   -1    0    0    0    0 -0.00000000000E+00 -0.00000000000E+00 -0.74505805969E-08  0.93827000000E+00  0.93827000000E+00 0. -1.
     999902    2    1    2    0    0 -0.17076938830E-01  0.11621749547E-01 -0.87901522845E-02  0.10214810873E+01  0.10212343796E+01 0.  0.
     999903    2    3    3    0    0 -0.11144584821E+00 -0.60024211068E-01  0.33878533979E-01  0.13251581720E+00  0.19738382557E-01 0.  0.
         14    1    1    2    0    0  0.17076938830E-01 -0.11621749547E-01  0.87901522845E-02  0.22448912658E-01  0.00000000000E+00 0.  1.
     999901    1    3    3    0    0  0.94368909380E-01  0.71645960615E-01 -0.42668686263E-01  0.88896527014E+00  0.88000000000E+00 0. -1.
        -11    1    4    4    0    0 -0.36446470532E-01 -0.29868072844E-01  0.93844348976E-02  0.48049721425E-01  0.51100000000E-03 0.  1.
         11    1    4    4    0    0 -0.74999377678E-01 -0.30156138224E-01  0.24494099081E-01  0.84466095776E-01  0.51100000000E-03 0. -1.
</event>
<event>
 8    1  0.1277639E+005  0.1043930E+01  0.7957747E-01            NaN
         13   -1    0    0    0    0  0.00000000000E+00  0.00000000000E+00  0.74505805969E-08  0.10566000000E+00  0.10566000000E+00 0. -1.
     999900   -1    0    0    0    0 -0.00000000000E+00 -0.00000000000E+00 -0.74505805969E-08  0.93827000000E+00  0.93827000000E+00 0. -1.
     999902    2    1    2    0    0 -0.69171238561E-02  0.22051619743E-01 -0.55880305172E-02  0.10201529812E+01  0.10198758545E+01 0.  0.
     999903    2    3    3    0    0 -0.13955321399E-01  0.57448523886E-01 -0.11683635335E+00  0.13241503209E+00  0.19695770239E-01 0.  0.
         14    1    1    2    0    0  0.69171238561E-02 -0.22051619743E-01  0.55880305172E-02  0.23777018753E-01  0.00000000000E+00 0. -1.
     999901    1    3    3    0    0  0.70381975424E-02 -0.35396904143E-01  0.11124832284E+00  0.88773794916E+00  0.88000000000E+00 0.  1.
        -11    1    4    4    0    0 -0.65513825510E-02  0.39497094645E-01 -0.58185733936E-01  0.70631309299E-01  0.51100000000E-03 0.  1.
         11    1    4    4    0    0 -0.74039388475E-02  0.17951429241E-01 -0.58650619417E-01  0.61783722786E-01  0.51100000000E-03 0. -1.
</event>
<event>
 8    1  0.1157726E+005  0.1043930E+01  0.7957747E-01            NaN
         13   -1    0    0    0    0  0.00000000000E+00  0.00000000000E+00  0.74505805969E-08  0.10566000000E+00  0.10566000000E+00 0.  1.
     999900   -1    0    0    0    0 -0.00000000000E+00 -0.00000000000E+00 -0.74505805969E-08  0.93827000000E+00  0.93827000000E+00 0. -1.
     999902    2    1    2    0    0  0.10561539300E-01  0.14584798704E-01 -0.12671772706E-01  0.10219110016E+01  0.10216737537E+01 0.  0.
     999903    2    3    3    0    0  0.10207313468E+00  0.84767152226E-01 -0.71484647701E-02  0.13436920444E+00  0.19989688162E-01 0.  0.
         14    1    1    2    0    0 -0.10561539300E-01 -0.14584798704E-01  0.12671772706E-01  0.22018998368E-01  0.00000000000E+00 0.  1.
     999901    1    3    3    0    0 -0.91511595380E-01 -0.70182353522E-01 -0.55233079361E-02  0.88754179719E+00  0.88000000000E+00 0.  1.
        -11    1    4    4    0    0  0.65960776618E-01  0.50744924581E-01  0.47029037345E-02  0.83356162623E-01  0.51100000000E-03 0. -1.
         11    1    4    4    0    0  0.36112358062E-01  0.34022227645E-01 -0.11851368505E-01  0.51013041815E-01  0.51100000000E-03 0.  1.
</event>
<event>
 7    1  0.1157726E+005  0.1043930E+01  0.7957747E-01            NaN
         13   -1    0    0    0    0  0.00000000000E+00  0.00000000000E+00  0.74505805969E-08  0.10566000000E+00  0.10566000000E+00 0. -1.
     999900   -1    0    0    0    0 -0.00000000000E+00 -0.00000000000E+00 -0.74505805969E-08  0.93827000000E+00  0.93827000000E+00 0. -1.
     999903    2    1    2    0    0 -0.20846314327E-01  0.99013220166E-01 -0.56021963710E-01  0.11724994857E+00  0.19258853390E-01 0.  0.
         14    1    1    2    0    0  0.29017835151E-01 -0.12975118534E-01  0.27427620370E-01  0.41984078136E-01  0.00000000000E+00 0. -1.
     999901    1    1    2    0    0 -0.81715208237E-02 -0.86038101632E-01  0.28594343340E-01  0.88469597329E+00  0.88000000000E+00 0.  1.
        -11    1    3    3    0    0 -0.11989348681E-01  0.53849772648E-01 -0.41332793074E-01  0.68936227053E-01  0.51100000000E-03 0.  1.
         11    1    3    3    0    0 -0.88569656463E-02  0.45163447518E-01 -0.14689170636E-01  0.48313721520E-01  0.51100000000E-03 0. -1.
</event>
<event>
 8    1  0.1157726E+005  0.1043930E+01  0.7957747E-01            NaN
         13   -1    0    0    0    0  0.00000000000E+00  0.00000000000E+00  0.74505805969E-08  0.10566000000E+00  0.10566000000E+00 0. -1.
     999900   -1    0    0    0    0 -0.00000000000E+00 -0.00000000000E+00 -0.74505805969E-08  0.93827000000E+00  0.93827000000E+00 0.  1.
     999902    2    1    2    0    0 -0.58369196126E-03 -0.23360695593E-01  0.54427662925E-02  0.10199365321E+01  0.10196542763E+01 0.  0.
     999903    2    3    3    0    0 -0.55355371991E-03  0.70230874891E-01 -0.10517624940E+00  0.12808679726E+00  0.20285511702E-01 0.  0.
         14    1    1    2    0    0  0.58369196126E-03  0.23360695593E-01 -0.54427662925E-02  0.23993467857E-01  0.00000000000E+00 0.  1.
     999901    1    3    3    0    0 -0.30138241347E-04 -0.93591570485E-01  0.11061901569E+00  0.89184973488E+00  0.88000000000E+00 0.  1.
        -11    1    4    4    0    0  0.53759350543E-02  0.18018194510E-01 -0.16562347753E-01  0.25062491799E-01  0.51100000000E-03 0. -1.
         11    1    4    4    0    0 -0.59294887742E-02  0.52212680382E-01 -0.88613901648E-01  0.10302430546E+00  0.51100000000E-03 0.  1.
</event>
<event>
 8    1  0.1157726E+005  0.1043930E+01  0.7957747E-01            NaN
         13   -1    0    0    0    0  0.00000000000E+00  0.00000000000E+00  0.74505805969E-08  0.10566000000E+00  0.10566000000E+00 0. -1.
     999900   -1    0    0    0    0 -0.00000000000E+00 -0.00000000000E+00 -0.74505805969E-08  0.93827000000E+00  0.93827000000E+00 0.  1.
     999902    2    1    2    0    0  0.12888823167E-01 -0.17953624210E-01 -0.99698971567E-02  0.10196843151E+01  0.10193960218E+01 0.  0.
     999903    2    3    3    0    0 -0.18911654216E-01  0.10998096887E+00 -0.60331442092E-01  0.12844090525E+00  0.20092761348E-01 0.  0.
         14    1    1    2    0    0 -0.12888823167E-01  0.17953624210E-01  0.99698971567E-02  0.24245684858E-01  0.00000000000E+00 0. -1.
     999901    1    3    3    0    0  0.31800477384E-01 -0.12793459308E+00  0.50361544935E-01  0.89124340989E+00  0.88000000000E+00 0. -1.
        -11    1    4    4    0    0 -0.20225257396E-01  0.79103211448E-01 -0.50502191958E-01  0.96005789469E-01  0.51100000000E-03 0. -1.
         11    1    4    4    0    0  0.13136031798E-02  0.30877757419E-01 -0.98292501342E-02  0.32435115781E-01  0.51100000000E-03 0.  1.
</event>
<event>
 8    1  0.1157726E+005  0.1043930E+01  0.7957747E-01            NaN
         13   -1    0    0    0    0  0.00000000000E+00  0.00000000000E+00  0.74505805969E-08  0.10566000000E+00  0.10566000000E+00 0.  1.
     999900   -1    0    0    0    0 -0.00000000000E+00 -0.00000000000E+00 -0.74505805969E-08  0.93827000000E+00  0.93827000000E+00 0. -1.
     999902    2    1    2    0    0 -0.32150469148E-02  0.22871500583E-01 -0.36789852910E-02  0.10205424606E+01  0.10202744420E+01 0.  0.
     999903    2    3    3    0    0  0.24189073635E-02  0.48846165777E-01  0.11987970156E+00  0.13151311703E+00  0.23081552799E-01 0.  0.
         14    1    1    2    0    0  0.32150469148E-02 -0.22871500583E-01  0.36789852910E-02  0.23387539382E-01  0.00000000000E+00 0.  1.
     999901    1    3    3    0    0 -0.56339542783E-02 -0.25974665194E-01 -0.12355868685E+00  0.88902934359E+00  0.88000000000E+00 0. -1.
        -11    1    4    4    0    0  0.84718832881E-02  0.41403860477E-01  0.79836843058E-01  0.90334019613E-01  0.51100000000E-03 0. -1.
         11    1    4    4    0    0 -0.60529759247E-02  0.74423053000E-02  0.40042858502E-01  0.41179097413E-01  0.51100000000E-03 0.  1.
</event>
<event>
 8    1  0.1157726E+005  0.1043930E+01  0.7957747E-01            NaN
         13   -1    0    0    0    0  0.00000000000E+00  0.00000000000E+00  0.74505805969E-08  0.10566000000E+00  0.10566000000E+00 0. -1.
     999900   -1    0    0    0    0 -0.00000000000E+00 -0.00000000000E+00 -0.74505805969E-08  0.93827000000E+00  0.93827000000E+00 0. -1.
     999902    2    1    2    0    0 -0.16258795673E-01 -0.96314826619E-02 -0.15032359944E-01  0.10197828316E+01  0.10194969043E+01 0.  0.
     999903    2    3    3    0    0  0.11430488744E+00  0.84197696295E-02  0.52297567981E-01  0.12742301504E+00  0.19107310974E-01 0.  0.
         14    1    1    2    0    0  0.16258795673E-01  0.96314826619E-02  0.15032359944E-01  0.24147168374E-01  0.00000000000E+00 0.  1.
     999901    1    3    3    0    0 -0.13056368311E+00 -0.18051252291E-01 -0.67329927924E-01  0.89235981658E+00  0.88000000000E+00 0. -1.
        -11    1    4    4    0    0  0.59892933964E-01 -0.29945669374E-02  0.20518080097E-01  0.63382834442E-01  0.51100000000E-03 0.  1.
         11    1    4    4    0    0  0.54411953476E-01  0.11414336567E-01  0.31779487883E-01  0.64040180602E-01  0.51100000000E-03 0. -1.
</event>
<event>
 8    1  0.1157726E+005  0.1043930E+01  0.7957747E-01            NaN
         13   -1    0    0    0    0  0.00000000000E+00  0.00000000000E+00  0.74505805969E-08  0.10566000000E+00  0.10566000000E+00 0.  1.
     999900   -1    0    0    0    0 -0.00000000000E+00 -0.00000000000E+00 -0.74505805969E-08  0.93827000000E+00  0.93827000000E+00 0.  1.
     999902    2    1    2    0    0  0.66400749258E-02  0.23227599215E-01  0.44972387204E-03  0.10197677523E+01  0.10194814635E+01 0.  0.
     999903    2    3    3    0    0  0.41065681147E-01 -0.38788669401E-01 -0.11464014353E+00  0.12944375653E+00  0.20551704416E-01 0.  0.
         14    1    1    2    0    0 -0.66400749258E-02 -0.23227599215E-01 -0.44972387204E-03  0.24162247658E-01  0.00000000000E+00 0. -1.
     999901    1    3    3    0    0 -0.34425606222E-01  0.62016268616E-01  0.11508986740E+00  0.89032399581E+00  0.88000000000E+00 0. -1.
        -11    1    4    4    0    0  0.10149850356E-01 -0.22740133972E-01 -0.40872730463E-01  0.47864124058E-01  0.51100000000E-03 0.  1.
         11    1    4    4    0    0  0.30915830791E-01 -0.16048535429E-01 -0.73767413067E-01  0.81579632474E-01  0.51100000000E-03 0. -1.
</event>
<event>
 8    1  0.1157726E+005  0.1043930E+01  0.7957747E-01            NaN
         13   -1    0    0    0    0  0.00000000000E+00  0.00000000000E+00  0.74505805969E-08  0.10566000000E+00  0.10566000000E+00 0. -1.
     999900   -1    0    0    0    0 -0.00000000000E+00 -0.00000000000E+00 -0.74505805969E-08  0.93827000000E+00  0.93827000000E+00 0. -1.
     999902    2    1    2    0    0 -0.16948709947E-01  0.55165753968E-02  0.11481100192E-01  0.10227284191E+01  0.10225086367E+01 0.  0.
     999903    2    3    3    0    0 -0.48970179102E-01 -0.69198859167E-01 -0.99338172215E-01  0.13206087065E+00  0.19632639809E-01 0.  0.
         14    1    1    2    0    0  0.16948709947E-01 -0.55165753968E-02 -0.11481100192E-01  0.21201580946E-01  0.00000000000E+00 0.  1.
     999901    1    3    3    0    0  0.32021469155E-01  0.74715434563E-01  0.11081927241E+00  0.89066754841E+00  0.88000000000E+00 0.  1.
        -11    1    4    4    0    0 -0.49027205927E-01 -0.58631017578E-01 -0.86703681557E-01  0.11558136813E+00  0.51100000000E-03 0.  1.
         11    1    4    4    0    0  0.57026824638E-04 -0.10567841588E-01 -0.12634490658E-01  0.16479502513E-01  0.51100000000E-03 0. -1.
</event>
<event>
 8    1  0.1157726E+005  0.1043930E+01  0.7957747E-01            NaN
         13   -1    0    0    0    0  0.00000000000E+00  0.00000000000E+00  0.74505805969E-08  0.10566000000E+00  0.10566000000E+00 0. -1.
     999900   -1    0    0    0    0 -0.00000000000E+00 -0.00000000000E+00 -0.74505805969E-08  0.93827000000E+00  0.93827000000E+00 0. -1.
     999902    2    1    2    0    0 -0.15675731466E-01  0.19055224992E-01 -0.64803991189E-03  0.10192470076E+01  0.10189480911E+01 0.  0.
     999903    2    3    3    0    0 -0.73547893248E-01  0.73104148133E-01 -0.80250607244E-01  0.13211283406E+00  0.16128604521E-01 0.  0.
         14    1    1    2    0    0  0.15675731466E-01 -0.19055224992E-01  0.64803991189E-03  0.24682992367E-01  0.00000000000E+00 0.  1.
     999901    1    3    3    0    0  0.57872161782E-01 -0.54048923141E-01  0.79602567332E-01  0.88713417358E+00  0.88000000000E+00 0. -1.
        -11    1    4    4    0    0 -0.69250766961E-01  0.62155349804E-01 -0.69186844111E-01  0.11595704702E+00  0.51100000000E-03 0.  1.
         11    1    4    4    0    0 -0.42971262871E-02  0.10948798329E-01 -0.11063763133E-01  0.16155787039E-01  0.51100000000E-03 0. -1.
</event>
<event>
 8    1  0.1157726E+005  0.1043930E+01  0.7957747E-01            NaN
         13   -1    0    0    0    0  0.00000000000E+00  0.00000000000E+00  0.74505805969E-08  0.10566000000E+00  0.10566000000E+00 0. -1.
     999900   -1    0    0    0    0 -0.00000000000E+00 -0.00000000000E+00 -0.74505805969E-08  0.93827000000E+00  0.93827000000E+00 0. -1.
     999902    2    1    2    0    0  0.22965928777E-02 -0.79462680722E-02 -0.21934799404E-01  0.10204874545E+01  0.10202181589E+01 0.  0.
     999903    2    3    3    0    0 -0.30638497059E-01 -0.10180749426E+00 -0.77632459032E-01  0.13313359091E+00  0.19856257023E-01 0.  0.
         14    1    1    2    0    0 -0.22965928777E-02  0.79462680722E-02  0.21934799404E-01  0.23442545510E-01  0.00000000000E+00 0. -1.
     999901    1    3    3    0    0  0.32935089937E-01  0.93861226185E-01  0.55697659628E-01  0.88735386358E+00  0.88000000000E+00 0.  1.
        -11    1    4    4    0    0 -0.10569595171E-01 -0.38916888684E-01 -0.17973904070E-01  0.44153855046E-01  0.51100000000E-03 0.  1.
         11    1    4    4    0    0 -0.20068901889E-01 -0.62890605574E-01 -0.59658554962E-01  0.88979735859E-01  0.51100000000E-03 0. -1.
</event>
<event>
 8    1  0.1157726E+005  0.1043930E+01  0.7957747E-01            NaN
         13   -1    0    0    0    0  0.00000000000E+00  0.00000000000E+00  0.74505805969E-08  0.10566000000E+00  0.10566000000E+00 0. -1.
     999900   -1    0    0    0    0 -0.00000000000E+00 -0.00000000000E+00 -0.74505805969E-08  0.93827000000E+00  0.93827000000E+00 0. -1.
     999902    2    1    2    0    0 -0.83513886784E-02 -0.16451973735E-01  0.14522420727E-01  0.10204499268E+01  0.10201797583E+01 0.  0.
     999903    2    3    3    0    0  0.24599557759E-01  0.71176537876E-02 -0.12455538062E+00  0.12860693221E+00  0.19232808808E-01 0.  0.
         14    1    1    2    0    0  0.83513886784E-02  0.16451973735E-01 -0.14522420727E-01  0.23480073177E-01  0.00000000000E+00 0.  1.
     999901    1    3    3    0    0 -0.32950946438E-01 -0.23569627522E-01  0.13907780134E+00  0.89184299461E+00  0.88000000000E+00 0.  1.
        -11    1    4    4    0    0  0.12934463574E-01  0.80686485352E-02 -0.33599729080E-01  0.36899950574E-01  0.51100000000E-03 0.  1.
         11    1    4    4    0    0  0.11665094185E-01 -0.95099474759E-03 -0.90955651537E-01  0.91706981637E-01  0.51100000000E-03 0. -1.
</event>
<event>
 8    1  0.1426459E+005  0.1043930E+01  0.7957747E-01            NaN
         13   -1    0    0    0    0  0.00000000000E+00  0.00000000000E+00  0.74505805969E-08  0.10566000000E+00  0.10566000000E+00 0.  1.
     999900   -1    0    0    0    0 -0.00000000000E+00 -0.00000000000E+00 -0.74505805969E-08  0.93827000000E+00  0.93827000000E+00 0. -1.
     999902    2    1    2    0    0 -0.23574151838E-01  0.16383932146E-02  0.97634489051E-02  0.10183614666E+01  0.10180404347E+01 0.  0.
     999903    2    3    3    0    0 -0.31144465212E-01 -0.33823454283E-01 -0.11818896609E+00  0.12836895381E+00  0.19898563354E-01 0.  0.
         14    1    1    2    0    0  0.23574151838E-01 -0.16383932146E-02 -0.97634489051E-02  0.25568533429E-01  0.00000000000E+00 0. -1.
     999901    1    3    3    0    0  0.75703133739E-02  0.35461847497E-01  0.12795241499E+00  0.88999251276E+00  0.88000000000E+00 0.  1.
        -11    1    4    4    0    0 -0.29878634388E-02 -0.13084697643E-01 -0.49488089843E-01  0.51278346284E-01  0.51100000000E-03 0.  1.
         11    1    4    4    0    0 -0.28156601773E-01 -0.20738756639E-01 -0.68700876246E-01  0.77090607523E-01  0.51100000000E-03 0. -1.
</event>
<event>
 8    1  0.1157726E+005  0.1043930E+01  0.7957747E-01            NaN
         13   -1    0    0    0    0  0.00000000000E+00  0.00000000000E+00  0.74505805969E-08  0.10566000000E+00  0.10566000000E+00 0.  1.
     999900   -1    0    0    0    0 -0.00000000000E+00 -0.00000000000E+00 -0.74505805969E-08  0.93827000000E+00  0.93827000000E+00 0.  1.
     999902    2    1    2    0    0  0.38944742113E-02  0.18687081950E-01 -0.13134278823E-01  0.10207592589E+01  0.10204962427E+01 0.  0.
     999903    2    3    3    0    0  0.12149270600E+00 -0.40548454760E-01 -0.17932908680E-01  0.13094960526E+00  0.20531807233E-01 0.  0.
         14    1    1    2    0    0 -0.38944742113E-02 -0.18687081950E-01  0.13134278823E-01  0.23170741062E-01  0.00000000000E+00 0. -1.
     999901    1    3    3    0    0 -0.11759823179E+00  0.59235536710E-01  0.47986298564E-02  0.88980965368E+00  0.88000000000E+00 0.  1.
        -11    1    4    4    0    0  0.78550718878E-01 -0.15913691669E-01 -0.12997121816E-01  0.81195118790E-01  0.51100000000E-03 0. -1.
         11    1    4    4    0    0  0.42941987126E-01 -0.24634763091E-01 -0.49357868633E-02  0.49754486470E-01  0.51100000000E-03 0.  1.
</event>
<event>
 8    1  0.1157726E+005  0.1043930E+01  0.7957747E-01            NaN
         13   -1    0    0    0    0  0.00000000000E+00  0.00000000000E+00  0.74505805969E-08  0.10566000000E+00  0.10566000000E+00 0.  1.
     999900   -1    0    0    0    0 -0.00000000000E+00 -0.00000000000E+00 -0.74505805969E-08  0.93827000000E+00  0.93827000000E+00 0.  1.
     999902    2    1    2    0    0  0.21118974432E-01  0.88072177904E-02 -0.31521795131E-02  0.10208320693E+01  0.10205707224E+01 0.  0.
     999903    2    3    3    0    0 -0.77211421483E-01  0.98059377417E-01  0.31272077213E-01  0.13020316556E+00  0.19941825411E-01 0.  0.
         14    1    1    2    0    0 -0.21118974432E-01 -0.88072177904E-02  0.31521795131E-02  0.23097930686E-01  0.00000000000E+00 0.  1.
     999901    1    3    3    0    0  0.98330395915E-01 -0.89252159627E-01 -0.34424256726E-01  0.89062890376E+00  0.88000000000E+00 0.  1.
        -11    1    4    4    0    0 -0.46041039718E-01  0.42540304670E-01  0.14055733504E-01  0.64243907299E-01  0.51100000000E-03 0.  1.
         11    1    4    4    0    0 -0.31170381765E-01  0.55519072747E-01  0.17216343708E-01  0.65959258257E-01  0.51100000000E-03 0. -1.
</event>
<event>
 8    1  0.1157726E+005  0.1043930E+01  0.7957747E-01            NaN
         13   -1    0    0    0    0  0.00000000000E+00  0.00000000000E+00  0.74505805969E-08  0.10566000000E+00  0.10566000000E+00 0.  1.
     999900   -1    0    0    0    0 -0.00000000000E+00 -0.00000000000E+00 -0.74505805969E-08  0.93827000000E+00  0.93827000000E+00 0.  1.
     999902    2    1    2    0    0 -0.39335100901E-04 -0.23237419059E-01  0.64114344552E-02  0.10198242811E+01  0.10195393463E+01 0.  0.
     999903    2    3    3    0    0  0.63921860178E-01  0.92281181555E-02  0.11187164847E+00  0.13062975663E+00  0.19434639548E-01 0.  0.
         14    1    1    2    0    0  0.39335100901E-04  0.23237419059E-01 -0.64114344552E-02  0.24105718897E-01  0.00000000000E+00 0. -1.
     999901    1    3    3    0    0 -0.63961195279E-01 -0.32465537214E-01 -0.10546021401E+00  0.88919452447E+00  0.88000000000E+00 0.  1.
        -11    1    4    4    0    0  0.57593849787E-01  0.13308218611E-01  0.91800953204E-01  0.10918716200E+00  0.51100000000E-03 0.  1.
         11    1    4    4    0    0  0.63280103907E-02 -0.40801004553E-02  0.20070695262E-01  0.21442594632E-01  0.51100000000E-03 0. -1.
</event>
<event>
 8    1  0.1157726E+005  0.1043930E+01  0.7957747E-01            NaN
         13   -1    0    0    0    0  0.00000000000E+00  0.00000000000E+00  0.74505805969E-08  0.10566000000E+00  0.10566000000E+00 0.  1.
     999900   -1    0    0    0    0 -0.00000000000E+00 -0.00000000000E+00 -0.74505805969E-08  0.93827000000E+00  0.93827000000E+00 0.  1.
     999902    2    1    2    0    0 -0.19661043518E-01 -0.75266195224E-02  0.10347198361E-01  0.10204721410E+01  0.10202024894E+01 0.  0.
     999903    2    3    3    0    0 -0.30136680008E-01 -0.63012036944E-01  0.11139853464E+00  0.13289130354E+00  0.19280268568E-01 0.  0.
         14    1    1    2    0    0  0.19661043518E-01  0.75266195224E-02 -0.10347198361E-01  0.23457858972E-01  0.00000000000E+00 0. -1.
     999901    1    3    3    0    0  0.10475636490E-01  0.55485417422E-01 -0.10105133628E+00  0.88758083748E+00  0.88000000000E+00 0.  1.
        -11    1    4    4    0    0 -0.22688585149E-01 -0.37154437315E-01  0.52999165915E-01  0.68588605591E-01  0.51100000000E-03 0. -1.
         11    1    4    4    0    0 -0.74480948588E-02 -0.25857599629E-01  0.58399368723E-01  0.64302697952E-01  0.51100000000E-03 0.  1.
</event>
<event>
 8    1  0.1157726E+005  0.1043930E+01  0.7957747E-01            NaN
         13   -1    0    0    0    0  0.00000000000E+00  0.00000000000E+00  0.74505805969E-08  0.10566000000E+00  0.10566000000E+00 0.  1.
     999900   -1    0    0    0    0 -0.00000000000E+00 -0.00000000000E+00 -0.74505805969E-08  0.93827000000E+00  0.93827000000E+00 0.  1.
     999902    2    1    2    0    0  0.21161595968E-01 -0.11136356106E-01  0.16013896841E-02  0.10199634395E+01  0.10196818239E+01 0.  0.
     999903    2    3    3    0    0  0.12240686357E+00 -0.37844869181E-01  0.30743425383E-01  0.13327679415E+00  0.20046727445E-01 0.  0.
         14    1    1    2    0    0 -0.21161595968E-01  0.11136356106E-01 -0.16013896841E-02  0.23966560457E-01  0.00000000000E+00 0.  1.
     999901    1    3    3    0    0 -0.10124526760E+00  0.26708513075E-01 -0.29142035699E-01  0.88668664540E+00  0.88000000000E+00 0.  1.
        -11    1    4    4    0    0  0.24975290791E-01 -0.10279201108E-01 -0.13748069659E-02  0.27047704907E-01  0.51100000000E-03 0.  1.
         11    1    4    4    0    0  0.97431572778E-01 -0.27565668073E-01  0.32118232349E-01  0.10622908924E+00  0.51100000000E-03 0. -1.
</event>
<event>
 8    1  0.1157726E+005  0.1043930E+01  0.7957747E-01            NaN
         13   -1    0    0    0    0  0.00000000000E+00  0.00000000000E+00  0.74505805969E-08  0.10566000000E+00  0.10566000000E+00 0.  1.
     999900   -1    0    0    0    0 -0.00000000000E+00 -0.00000000000E+00 -0.74505805969E-08  0.93827000000E+00  0.93827000000E+00 0.  1.
     999902    2    1    2    0    0  0.82581331856E-02 -0.10470626535E-01  0.17293552139E-01  0.10220920118E+01  0.10218586902E+01 0.  0.
     999903    2    3    3    0    0 -0.10992094176E+00  0.45602842639E-01  0.52838478626E-01  0.13171345774E+00  0.19856924017E-01 0.  0.
         14    1    1    2    0    0 -0.82581331856E-02  0.10470626535E-01 -0.17293552139E-01  0.21837988217E-01  0.00000000000E+00 0.  1.
     999901    1    3    3    0    0  0.11817907495E+00 -0.56073469174E-01 -0.35544926487E-01  0.89037855404E+00  0.88000000000E+00 0.  1.
        -11    1    4    4    0    0 -0.92814306476E-01  0.30262691036E-01  0.41381249204E-01  0.10603298950E+00  0.51100000000E-03 0. -1.
         11    1    4    4    0    0 -0.17106635287E-01  0.15340151603E-01  0.11457229422E-01  0.25680468241E-01  0.51100000000E-03 0.  1.
</event>
<event>
 8    1  0.1157726E+005  0.1043930E+01  0.7957747E-01            NaN
         13   -1    0    0    0    0  0.00000000000E+00  0.00000000000E+00  0.74505805969E-08  0.10566000000E+00  0.10566000000E+00 0. -1.
     999900   -1    0    0    0    0 -0.00000000000E+00 -0.00000000000E+00 -0.74505805969E-08  0.93827000000E+00  0.93827000000E+00 0. -1.
     999902    2    1    2    0    0  0.14993146968E-01  0.16750823188E-02  0.18266158666E-01  0.10202392231E+01  0.10199641266E+01 0.  0.
     999903    2    3    3    0    0 -0.10015616429E+00 -0.51090753503E-01 -0.57695176236E-01  0.12793113635E+00  0.19902762346E-01 0.  0.
         14    1    1    2    0    0 -0.14993146968E-01 -0.16750823188E-02 -0.18266158666E-01  0.23690776880E-01  0.00000000000E+00 0.  1.
     999901    1    3    3    0    0  0.11514931126E+00  0.52765835822E-01  0.75961334902E-01  0.89230808677E+00  0.88000000000E+00 0.  1.
        -11    1    4    4    0    0 -0.21946706370E-01 -0.18503297186E-01 -0.84366389404E-02  0.29924370083E-01  0.51100000000E-03 0. -1.
         11    1    4    4    0    0 -0.78209457917E-01 -0.32587456317E-01 -0.49258537296E-01  0.98006766269E-01  0.51100000000E-03 0.  1.
</event>
<event>
 8    1  0.1157726E+005  0.1043930E+01  0.7957747E-01            NaN
         13   -1    0    0    0    0  0.00000000000E+00  0.00000000000E+00  0.74505805969E-08  0.10566000000E+00  0.10566000000E+00 0. -1.
     999900   -1    0    0    0    0 -0.00000000000E+00 -0.00000000000E+00 -0.74505805969E-08  0.93827000000E+00  0.93827000000E+00 0. -1.
     999902    2    1    2    0    0  0.35712902185E-02  0.18604650447E-02  0.23337007175E-01  0.10202481220E+01  0.10199732345E+01 0.  0.
     999903    2    3    3    0    0 -0.11511876483E+00 -0.61714742645E-02 -0.54707167544E-01  0.12882076405E+00  0.17649304767E-01 0.  0.
         14    1    1    2    0    0 -0.35712902185E-02 -0.18604650447E-02 -0.23337007175E-01  0.23681878049E-01  0.00000000000E+00 0.  1.
     999901    1    3    3    0    0  0.11869005505E+00  0.80319393093E-02  0.78044174719E-01  0.89142735791E+00  0.88000000000E+00 0.  1.
        -11    1    4    4    0    0 -0.62213232075E-01 -0.55443220165E-03 -0.20241461016E-01  0.65427605071E-01  0.51100000000E-03 0.  1.
         11    1    4    4    0    0 -0.52905532752E-01 -0.56170420629E-02 -0.34465706528E-01  0.63393158974E-01  0.51100000000E-03 0. -1.
</event>
<event>
 8    1  0.1157726E+005  0.1043930E+01  0.7957747E-01            NaN
         13   -1    0    0    0    0  0.00000000000E+00  0.00000000000E+00  0.74505805969E-08  0.10566000000E+00  0.10566000000E+00 0. -1.
     999900   -1    0    0    0    0 -0.00000000000E+00 -0.00000000000E+00 -0.74505805969E-08  0.93827000000E+00  0.93827000000E+00 0.  1.
     999902    2    1    2    0    0  0.74422488453E-02  0.62985122487E-02 -0.21126629515E-01  0.10206621510E+01  0.10203969000E+01 0.  0.
     999903    2    3    3    0    0  0.48960642111E-01  0.11532923391E+00  0.33922416871E-01  0.13125680312E+00  0.19484386826E-01 0.  0.
         14    1    1    2    0    0 -0.74422488453E-02 -0.62985122487E-02  0.21126629515E-01  0.23267849043E-01  0.00000000000E+00 0. -1.
     999901    1    3    3    0    0 -0.41518393265E-01 -0.10903072166E+00 -0.55049046385E-01  0.88940534783E+00  0.88000000000E+00 0. -1.
        -11    1    4    4    0    0  0.21532437747E-01  0.29871062378E-01  0.64000841869E-02  0.37378448891E-01  0.51100000000E-03 0. -1.
         11    1    4    4    0    0  0.27428204364E-01  0.85458171532E-01  0.27522332684E-01  0.93878354233E-01  0.51100000000E-03 0.  1.
</event>
<event>
 8    1  0.1157726E+005  0.1043930E+01  0.7957747E-01            NaN
         13   -1    0    0    0    0  0.00000000000E+00  0.00000000000E+00  0.74505805969E-08  0.10566000000E+00  0.10566000000E+00 0.  1.
     999900   -1    0    0    0    0 -0.00000000000E+00 -0.00000000000E+00 -0.74505805969E-08  0.93827000000E+00  0.93827000000E+00 0. -1.
     999902    2    1    2    0    0 -0.25275353680E-02 -0.23285109847E-01 -0.53037074768E-02  0.10199151278E+01  0.10196323621E+01 0.  0.
     999903    2    3    3    0    0  0.57486115061E-01  0.92987562153E-01 -0.64136030058E-01  0.12829737633E+00  0.19885831160E-01 0.  0.
         14    1    1    2    0    0  0.25275353680E-02  0.23285109847E-01  0.53037074768E-02  0.24014872239E-01  0.00000000000E+00 0.  1.
     999901    1    3    3    0    0 -0.60013650429E-01 -0.11627267200E+00  0.58832322582E-01  0.89161775143E+00  0.88000000000E+00 0.  1.
        -11    1    4    4    0    0  0.24046901946E-01  0.42629958685E-01 -0.39975189934E-01  0.63196865444E-01  0.51100000000E-03 0.  1.
         11    1    4    4    0    0  0.33439213115E-01  0.50357603468E-01 -0.24160840124E-01  0.65100510884E-01  0.51100000000E-03 0. -1.
</event>
<event>
 8    1  0.1157726E+005  0.1043930E+01  0.7957747E-01            NaN
         13   -1    0    0    0    0  0.00000000000E+00  0.00000000000E+00  0.74505805969E-08  0.10566000000E+00  0.10566000000E+00 0.  1.
     999900   -1    0    0    0    0 -0.00000000000E+00 -0.00000000000E+00 -0.74505805969E-08  0.93827000000E+00  0.93827000000E+00 0.  1.
     999902    2    1    2    0    0  0.21958299105E-01 -0.82547691429E-02 -0.36441907565E-02  0.10201899865E+01  0.10199137318E+01 0.  0.
     999903    2    3    3    0    0 -0.29209265279E-01 -0.51985499744E-01 -0.11450692048E+00  0.13068392062E+00  0.20267681405E-01 0.  0.
         14    1    1    2    0    0 -0.21958299105E-01  0.82547691429E-02  0.36441907565E-02  0.23740013468E-01  0.00000000000E+00 0. -1.
     999901    1    3    3    0    0  0.51167564384E-01  0.43730730601E-01  0.11086272973E+00  0.88950606591E+00  0.88000000000E+00 0. -1.
        -11    1    4    4    0    0 -0.44178242042E-02 -0.14935230469E-01 -0.14924584424E-01  0.21577363627E-01  0.51100000000E-03 0.  1.
         11    1    4    4    0    0 -0.24791441075E-01 -0.37050269275E-01 -0.99582336059E-01  0.10910655700E+00  0.51100000000E-03 0. -1.
</event>
<event>
 8    1  0.1157726E+005  0.1043930E+01  0.7957747E-01            NaN
         13   -1    0    0    0    0  0.00000000000E+00  0.00000000000E+00  0.74505805969E-08  0.10566000000E+00  0.10566000000E+00 0. -1.
     999900   -1    0    0    0    0 -0.00000000000E+00 -0.00000000000E+00 -0.74505805969E-08  0.93827000000E+00  0.93827000000E+00 0. -1.
     999902    2    1    2    0    0 -0.15668543419E-01 -0.22231904695E-01  0.10857075439E-01  0.10146445612E+01  0.10142218439E+01 0.  0.
     999903    2    3    3    0    0 -0.57718177151E-01  0.10053045837E+00 -0.38365492564E-01  0.12376767257E+00  0.20217930621E-01 0.  0.
         14    1    1    2    0    0  0.15668543419E-01  0.22231904695E-01 -0.10857075439E-01  0.29285438811E-01  0.00000000000E+00 0. -1.
     999901    1    3    3    0    0  0.42049633731E-01 -0.12276236307E+00  0.49222568003E-01  0.89087688862E+00  0.88000000000E+00 0. -1.
        -11    1    4    4    0    0 -0.47660912480E-01  0.83188074583E-01 -0.39472611439E-01  0.10368300973E+00  0.51100000000E-03 0.  1.
         11    1    4    4    0    0 -0.10057264671E-01  0.17342383788E-01  0.11071188753E-02  0.20084662838E-01  0.51100000000E-03 0. -1.
</event>
<event>
 8    1  0.1157726E+005  0.1043930E+01  0.7957747E-01            NaN
         13   -1    0    0    0    0  0.00000000000E+00  0.00000000000E+00  0.74505805969E-08  0.10566000000E+00  0.10566000000E+00 0. -1.
     999900   -1    0    0    0    0 -0.00000000000E+00 -0.00000000000E+00 -0.74505805969E-08  0.93827000000E+00  0.93827000000E+00 0.  1.
     999902    2    1    2    0    0  0.33900990223E-02 -0.23172901977E-01 -0.45748650618E-02  0.10200677799E+01  0.10197886399E+01 0.  0.
     999903    2    3    3    0    0 -0.11937763878E+00 -0.23012439188E-01  0.42473296511E-01  0.13030069089E+00  0.19841777429E-01 0.  0.
         14    1    1    2    0    0 -0.33900990223E-02  0.23172901977E-01  0.45748650618E-02  0.23862220093E-01  0.00000000000E+00 0. -1.
     999901    1    3    3    0    0  0.12276773780E+00 -0.16046278842E-03 -0.47048161572E-01  0.88976708902E+00  0.88000000000E+00 0. -1.
        -11    1    4    4    0    0 -0.35333519881E-01 -0.15034046191E-01  0.17930357418E-01  0.42382060004E-01  0.51100000000E-03 0. -1.
         11    1    4    4    0    0 -0.84044118899E-01 -0.79783929977E-02  0.24542939092E-01  0.87918630885E-01  0.51100000000E-03 0.  1.
</event>
<event>
 8    1  0.1157726E+005  0.1043930E+01  0.7957747E-01            NaN
         13   -1    0    0    0    0  0.00000000000E+00  0.00000000000E+00  0.74505805969E-08  0.10566000000E+00  0.10566000000E+00 0.  1.
     999900   -1    0    0    0    0 -0.00000000000E+00 -0.00000000000E+00 -0.74505805969E-08  0.93827000000E+00  0.93827000000E+00 0. -1.
     999902    2    1    2    0    0 -0.17850816696E-01  0.11755632285E-01  0.14086171687E-01  0.10183318208E+01  0.10180100345E+01 0.  0.
     999903    2    3    3    0    0  0.61529710415E-01 -0.66184452580E-01  0.88671403290E-01  0.12819762769E+00  0.20142665098E-01 0.  0.
         14    1    1    2    0    0  0.17850816696E-01 -0.11755632285E-01 -0.14086171687E-01  0.25598179231E-01  0.00000000000E+00 0.  1.
     999901    1    3    3    0    0 -0.79380527110E-01  0.77940084865E-01 -0.74585231603E-01  0.89013419308E+00  0.88000000000E+00 0. -1.
        -11    1    4    4    0    0  0.21518045505E-01 -0.36127158766E-01  0.33994930386E-01  0.54075080173E-01  0.51100000000E-03 0.  1.
         11    1    4    4    0    0  0.40011664910E-01 -0.30057293814E-01  0.54676472904E-01  0.74122547518E-01  0.51100000000E-03 0. -1.
</event>
<event>
 8    1  0.1157726E+005  0.1043930E+01  0.7957747E-01            NaN
         13   -1    0    0    0    0  0.00000000000E+00  0.00000000000E+00  0.74505805969E-08  0.10566000000E+00  0.10566000000E+00 0.  1.
     999900   -1    0    0    0    0 -0.00000000000E+00 -0.00000000000E+00 -0.74505805969E-08  0.93827000000E+00  0.93827000000E+00 0.  1.
     999902    2    1    2    0    0 -0.85233188329E-02 -0.55912226727E-02 -0.20149913418E-01  0.10213484202E+01  0.10210987551E+01 0.  0.
     999903    2    3    3    0    0  0.52840902772E-01 -0.53128253618E-01 -0.10869530026E+00  0.13350517812E+00  0.19854267748E-01 0.  0.
         14    1    1    2    0    0  0.85233188329E-02  0.55912226727E-02  0.20149913418E-01  0.22581579787E-01  0.00000000000E+00 0.  1.
     999901    1    3    3    0    0 -0.61364221604E-01  0.47537030945E-01  0.88545386840E-01  0.88784324210E+00  0.88000000000E+00 0. -1.
        -11    1    4    4    0    0  0.51545571349E-01 -0.42600663522E-01 -0.92607434380E-01  0.11422854495E+00  0.51100000000E-03 0.  1.
         11    1    4    4    0    0  0.12953314225E-02 -0.10527590096E-01 -0.16087865879E-01  0.19276633167E-01  0.51100000000E-03 0. -1.
</event>
<event>
 8    1  0.1157726E+005  0.1043930E+01  0.7957747E-01            NaN
         13   -1    0    0    0    0  0.00000000000E+00  0.00000000000E+00  0.74505805969E-08  0.10566000000E+00  0.10566000000E+00 0.  1.
     999900   -1    0    0    0    0 -0.00000000000E+00 -0.00000000000E+00 -0.74505805969E-08  0.93827000000E+00  0.93827000000E+00 0.  1.
     999902    2    1    2    0    0 -0.10291273909E-01  0.67625667468E-02 -0.19574743346E-01  0.10208039713E+01  0.10205419808E+01 0.  0.
     999903    2    3    3    0    0 -0.12420587254E+00 -0.19478656307E-01  0.34556829650E-01  0.13142476938E+00  0.16485712136E-01 0.  0.
         14    1    1    2    0    0  0.10291273909E-01 -0.67625667468E-02  0.19574743346E-01  0.23126028728E-01  0.00000000000E+00 0.  1.
     999901    1    3    3    0    0  0.11391459863E+00  0.26241223054E-01 -0.54131572996E-01  0.88937920190E+00  0.88000000000E+00 0.  1.
        -11    1    4    4    0    0 -0.48736234854E-01 -0.26647736625E-02  0.68556472815E-02  0.49290796576E-01  0.51100000000E-03 0. -1.
         11    1    4    4    0    0 -0.75469637688E-01 -0.16813882645E-01  0.27701182369E-01  0.82133972801E-01  0.51100000000E-03 0.  1.
</event>
<event>
 8    1  0.1157726E+005  0.1043930E+01  0.7957747E-01            NaN
         13   -1    0    0    0    0  0.00000000000E+00  0.00000000000E+00  0.74505805969E-08  0.10566000000E+00  0.10566000000E+00 0. -1.
     999900   -1    0    0    0    0 -0.00000000000E+00 -0.00000000000E+00 -0.74505805969E-08  0.93827000000E+00  0.93827000000E+00 0.  1.
     999902    2    1    2    0    0  0.66476915826E-03 -0.53138174182E-02 -0.28206673277E-01  0.10152194620E+01  0.10148134120E+01 0.  0.
     999903    2    3    3    0    0  0.96555199541E-01 -0.71711108348E-01  0.30086495026E-01  0.12561186968E+00  0.20192944382E-01 0.  0.
         14    1    1    2    0    0 -0.66476915826E-03  0.53138174182E-02  0.28206673277E-01  0.28710537977E-01  0.00000000000E+00 0. -1.
     999901    1    3    3    0    0 -0.95890430383E-01  0.66397290930E-01 -0.58293168303E-01  0.88960759234E+00  0.88000000000E+00 0.  1.
        -11    1    4    4    0    0  0.62779853712E-01 -0.58061021618E-01  0.21775688722E-01  0.88243039406E-01  0.51100000000E-03 0. -1.
         11    1    4    4    0    0  0.33775345830E-01 -0.13650086730E-01  0.83108063047E-02  0.37368830275E-01  0.51100000000E-03 0.  1.
</event>
<event>
 8    1  0.1157726E+005  0.1043930E+01  0.7957747E-01            NaN
         13   -1    0    0    0    0  0.00000000000E+00  0.00000000000E+00  0.74505805969E-08  0.10566000000E+00  0.10566000000E+00 0.  1.
     999900   -1    0    0    0    0 -0.00000000000E+00 -0.00000000000E+00 -0.74505805969E-08  0.93827000000E+00  0.93827000000E+00 0.  1.
     999902    2    1    2    0    0  0.11980576899E-02 -0.17779162197E-01  0.15592788347E-01  0.10202515499E+01  0.10199767429E+01 0.  0.
     999903    2    3    3    0    0 -0.50326684774E-02 -0.17795598780E-01  0.13003857385E+00  0.13281892708E+00  0.19718661567E-01 0.  0.
         14    1    1    2    0    0 -0.11980576899E-02  0.17779162197E-01 -0.15592788347E-01  0.23678450099E-01  0.00000000000E+00 0. -1.
     999901    1    3    3    0    0  0.62307261673E-02  0.16436583112E-04 -0.11444578551E+00  0.88743262282E+00  0.88000000000E+00 0.  1.
        -11    1    4    4    0    0  0.27485809908E-02  0.16014726310E-02  0.44033142849E-02  0.54561625472E-02  0.51100000000E-03 0.  1.
         11    1    4    4    0    0 -0.77812494682E-02 -0.19397071411E-01  0.12563525957E+00  0.12736276454E+00  0.51100000000E-03 0. -1.
</event>
<event>
 8    1  0.1157726E+005  0.1043930E+01  0.7957747E-01            NaN
         13   -1    0    0    0    0  0.00000000000E+00  0.00000000000E+00  0.74505805969E-08  0.10566000000E+00  0.10566000000E+00 0.  1.
     999900   -1    0    0    0    0 -0.00000000000E+00 -0.00000000000E+00 -0.74505805969E-08  0.93827000000E+00  0.93827000000E+00 0. -1.
     999902    2    1    2    0    0 -0.10853009956E-01  0.15831526964E-01  0.12801337703E-01  0.10208583872E+01  0.10205976422E+01 0.  0.
     999903    2    3    3    0    0  0.81808881651E-02 -0.66273559397E-02 -0.12731504582E+00  0.12928713841E+00  0.19879499211E-01 0.  0.
         14    1    1    2    0    0  0.10853009956E-01 -0.15831526964E-01 -0.12801337703E-01  0.23071612820E-01  0.00000000000E+00 0. -1.
     999901    1    3    3    0    0 -0.19033898121E-01  0.22458882904E-01  0.14011638352E+00  0.89157124877E+00  0.88000000000E+00 0.  1.
        -11    1    4    4    0    0  0.24750940816E-02 -0.98973206367E-02 -0.11370462375E+00  0.11416254040E+00  0.51100000000E-03 0. -1.
         11    1    4    4    0    0  0.57057940835E-02  0.32699646970E-02 -0.13610422068E-01  0.15124598015E-01  0.51100000000E-03 0.  1.
</event>
<event>
 8    1  0.1162219E+005  0.1043930E+01  0.7957747E-01            NaN
         13   -1    0    0    0    0  0.00000000000E+00  0.00000000000E+00  0.74505805969E-08  0.10566000000E+00  0.10566000000E+00 0. -1.
     999900   -1    0    0    0    0 -0.00000000000E+00 -0.00000000000E+00 -0.74505805969E-08  0.93827000000E+00  0.93827000000E+00 0. -1.
     999902    2    1    2    0    0  0.12485754095E-01 -0.14788689205E-01 -0.14088404646E-01  0.10199908578E+01  0.10197098938E+01 0.  0.
     999903    2    3    3    0    0  0.33425959576E-01  0.38352194009E-01 -0.11989270975E+00  0.13181463843E+00  0.20313825229E-01 0.  0.
         14    1    1    2    0    0 -0.12485754095E-01  0.14788689205E-01  0.14088404646E-01  0.23939142199E-01  0.00000000000E+00 0. -1.
     999901    1    3    3    0    0 -0.20940205480E-01 -0.53140883214E-01  0.10580430510E+00  0.88817621937E+00  0.88000000000E+00 0. -1.
        -11    1    4    4    0    0  0.61439408973E-02  0.22267457218E-01 -0.50573303760E-01  0.55601329435E-01  0.51100000000E-03 0.  1.
         11    1    4    4    0    0  0.27282018679E-01  0.16084736791E-01 -0.69319405988E-01  0.76213308997E-01  0.51100000000E-03 0. -1.
</event>
<event>
 8    1  0.1157726E+005  0.1043930E+01  0.7957747E-01            NaN
         13   -1    0    0    0    0  0.00000000000E+00  0.00000000000E+00  0.74505805969E-08  0.10566000000E+00  0.10566000000E+00 0. -1.
     999900   -1    0    0    0    0 -0.00000000000E+00 -0.00000000000E+00 -0.74505805969E-08  0.93827000000E+00  0.93827000000E+00 0. -1.
     999902    2    1    2    0    0  0.22575368517E-02  0.20371641974E-01  0.11480519406E-01  0.10204373928E+01  0.10201669324E+01 0.  0.
     999903    2    3    3    0    0 -0.11508415187E+00 -0.54740138709E-01 -0.79728783825E-02  0.12926440944E+00  0.20121529765E-01 0.  0.
         14    1    1    2    0    0 -0.22575368517E-02 -0.20371641974E-01 -0.11480519406E-01  0.23492607246E-01  0.00000000000E+00 0.  1.
     999901    1    3    3    0    0  0.11734168872E+00  0.75111780683E-01  0.19453397789E-01  0.89117298332E+00  0.88000000000E+00 0.  1.
        -11    1    4    4    0    0 -0.49034760265E-01 -0.21483681746E-01  0.64361593952E-02  0.53922551538E-01  0.51100000000E-03 0. -1.
         11    1    4    4    0    0 -0.66049391604E-01 -0.33256456962E-01 -0.14409037778E-01  0.75341857899E-01  0.51100000000E-03 0.  1.
</event>
<event>
 8    1  0.1157726E+005  0.1043930E+01  0.7957747E-01            NaN
         13   -1    0    0    0    0  0.00000000000E+00  0.00000000000E+00  0.74505805969E-08  0.10566000000E+00  0.10566000000E+00 0. -1.
     999900   -1    0    0    0    0 -0.00000000000E+00 -0.00000000000E+00 -0.74505805969E-08  0.93827000000E+00  0.93827000000E+00 0.  1.
     999902    2    1    2    0    0  0.25170403349E-02  0.33614477667E-02 -0.26314395144E-01  0.10172826321E+01  0.10169335629E+01 0.  0.
     999903    2    3    3    0    0 -0.42498375177E-01 -0.95238585321E-01  0.67472146273E-01  0.12568615977E+00  0.19183852792E-01 0.  0.
         14    1    1    2    0    0 -0.25170403349E-02 -0.33614477667E-02  0.26314395144E-01  0.26647367880E-01  0.00000000000E+00 0. -1.
     999901    1    3    3    0    0  0.45015415512E-01  0.98600033087E-01 -0.93786541418E-01  0.89159647235E+00  0.88000000000E+00 0.  1.
        -11    1    4    4    0    0 -0.25367590781E-01 -0.76529516660E-01  0.49799538655E-01  0.94765693969E-01  0.51100000000E-03 0.  1.
         11    1    4    4    0    0 -0.17130784396E-01 -0.18709068661E-01  0.17672607619E-01  0.30920465799E-01  0.51100000000E-03 0. -1.
</event>
<event>
 8    1  0.1157726E+005  0.1043930E+01  0.7957747E-01            NaN
         13   -1    0    0    0    0  0.00000000000E+00  0.00000000000E+00  0.74505805969E-08  0.10566000000E+00  0.10566000000E+00 0. -1.
     999900   -1    0    0    0    0 -0.00000000000E+00 -0.00000000000E+00 -0.74505805969E-08  0.93827000000E+00  0.93827000000E+00 0. -1.
     999902    2    1    2    0    0 -0.12021281397E-01 -0.19569082841E-01 -0.71256096890E-02  0.10198834925E+01  0.10195999724E+01 0.  0.
     999903    2    3    3    0    0 -0.99864195503E-01 -0.84665293391E-01  0.57544090270E-02  0.13302398329E+00  0.22829749429E-01 0.  0.
         14    1    1    2    0    0  0.12021281397E-01  0.19569082841E-01  0.71256096890E-02  0.24046507504E-01  0.00000000000E+00 0. -1.
     999901    1    3    3    0    0  0.87842914105E-01  0.65096210549E-01 -0.12880018716E-01  0.88685950921E+00  0.88000000000E+00 0. -1.
        -11    1    4    4    0    0 -0.91433699432E-01 -0.70320041174E-01 -0.18651254013E-03  0.11534871256E+00  0.51100000000E-03 0. -1.
         11    1    4    4    0    0 -0.84304960709E-02 -0.14345252217E-01  0.59409215671E-02  0.17675270726E-01  0.51100000000E-03 0.  1.
</event>
<event>
 7    1  0.1157726E+005  0.1043930E+01  0.7957747E-01            NaN
         13   -1    0    0    0    0  0.00000000000E+00  0.00000000000E+00  0.74505805969E-08  0.10566000000E+00  0.10566000000E+00 0.  1.
     999900   -1    0    0    0    0 -0.00000000000E+00 -0.00000000000E+00 -0.74505805969E-08  0.93827000000E+00  0.93827000000E+00 0.  1.
     999903    2    1    2    0    0 -0.76604326071E-01  0.63768881242E-02 -0.69932106975E-01  0.10556746015E+00  0.18576909912E-01 0.  0.
         14    1    1    2    0    0  0.13220247954E-02  0.17263771391E-01 -0.44219398290E-01  0.47488322116E-01  0.00000000000E+00 0. -1.
     999901    1    1    2    0    0  0.75282301275E-01 -0.23640659515E-01  0.11415150527E+00  0.89087421773E+00  0.88000000000E+00 0. -1.
        -11    1    3    3    0    0 -0.20212248953E-01 -0.64889497297E-02 -0.19269036069E-01  0.28674001262E-01  0.51100000000E-03 0.  1.
         11    1    3    3    0    0 -0.56392077117E-01  0.12865837854E-01 -0.50663070906E-01  0.76893458889E-01  0.51100000000E-03 0. -1.
</event>
<event>
 8    1  0.1157726E+005  0.1043930E+01  0.7957747E-01            NaN
         13   -1    0    0    0    0  0.00000000000E+00  0.00000000000E+00  0.74505805969E-08  0.10566000000E+00  0.10566000000E+00 0. -1.
     999900   -1    0    0    0    0 -0.00000000000E+00 -0.00000000000E+00 -0.74505805969E-08  0.93827000000E+00  0.93827000000E+00 0. -1.
     999902    2    1    2    0    0 -0.16380129044E-01 -0.18451579398E-01  0.13070479483E-02  0.10192221514E+01  0.10189226252E+01 0.  0.
     999903    2    3    3    0    0  0.40488668465E-01 -0.73761899132E-01  0.97493032899E-01  0.13043363023E+00  0.20685511695E-01 0.  0.
         14    1    1    2    0    0  0.16380129044E-01  0.18451579398E-01 -0.13070479483E-02  0.24707848633E-01  0.00000000000E+00 0. -1.
     999901    1    3    3    0    0 -0.56868797509E-01  0.55310319735E-01 -0.96185984950E-01  0.88878852113E+00  0.88000000000E+00 0. -1.
        -11    1    4    4    0    0  0.34313220945E-01 -0.62477519041E-01  0.92133006977E-01  0.11648858147E+00  0.51100000000E-03 0. -1.
         11    1    4    4    0    0  0.61754475206E-02 -0.11284380091E-01  0.53600259221E-02  0.13945048763E-01  0.51100000000E-03 0.  1.
</event>
<event>
 8    1  0.1157726E+005  0.1043930E+01  0.7957747E-01            NaN
         13   -1    0    0    0    0  0.00000000000E+00  0.00000000000E+00  0.74505805969E-08  0.10566000000E+00  0.10566000000E+00 0.  1.
     999900   -1    0    0    0    0 -0.00000000000E+00 -0.00000000000E+00 -0.74505805969E-08  0.93827000000E+00  0.93827000000E+00 0.  1.
     999902    2    1    2    0    0  0.17038524660E-01 -0.12178974945E-01 -0.12879085888E-01  0.10193432229E+01  0.10190466606E+01 0.  0.
     999903    2    3    3    0    0  0.11738679068E+00 -0.16692271287E-01 -0.56337828280E-01  0.13256320138E+00  0.18459710665E-01 0.  0.
         14    1    1    2    0    0 -0.17038524660E-01  0.12178974945E-01  0.12879085888E-01  0.24586777069E-01  0.00000000000E+00 0.  1.
     999901    1    3    3    0    0 -0.10034826602E+00  0.45132963412E-02  0.43458742392E-01  0.88678002155E+00  0.88000000000E+00 0. -1.
        -11    1    4    4    0    0  0.21612908172E-01  0.40300266587E-02 -0.11093679461E-01  0.24631073048E-01  0.51100000000E-03 0.  1.
         11    1    4    4    0    0  0.95773882506E-01 -0.20722297945E-01 -0.45244148819E-01  0.10793212833E+00  0.51100000000E-03 0. -1.
</event>
<event>
 8    1  0.1157726E+005  0.1043930E+01  0.7957747E-01            NaN
         13   -1    0    0    0    0  0.00000000000E+00  0.00000000000E+00  0.74505805969E-08  0.10566000000E+00  0.10566000000E+00 0. -1.
     999900   -1    0    0    0    0 -0.00000000000E+00 -0.00000000000E+00 -0.74505805969E-08  0.93827000000E+00  0.93827000000E+00 0. -1.
     999902    2    1    2    0    0  0.21112393553E-01 -0.97628026892E-02 -0.24246531673E-02  0.10205435847E+01  0.10202755921E+01 0.  0.
     999903    2    3    3    0    0 -0.35541788049E-01 -0.91810038232E-01 -0.83909211560E-01  0.13117235826E+00  0.21751550950E-01 0.  0.
         14    1    1    2    0    0 -0.21112393553E-01  0.97628026892E-02  0.24246531673E-02  0.23386415306E-01  0.00000000000E+00 0. -1.
     999901    1    3    3    0    0  0.56654181602E-01  0.82047235543E-01  0.81484558393E-01  0.88937122643E+00  0.88000000000E+00 0.  1.
        -11    1    4    4    0    0 -0.12170661135E-02 -0.21377760494E-01 -0.10709682737E-01  0.23946780973E-01  0.51100000000E-03 0.  1.
         11    1    4    4    0    0 -0.34324721935E-01 -0.70432277739E-01 -0.73199528823E-01  0.10722557729E+00  0.51100000000E-03 0. -1.
</event>
<event>
 8    1  0.1157726E+005  0.1043930E+01  0.7957747E-01            NaN
         13   -1    0    0    0    0  0.00000000000E+00  0.00000000000E+00  0.74505805969E-08  0.10566000000E+00  0.10566000000E+00 0.  1.
     999900   -1    0    0    0    0 -0.00000000000E+00 -0.00000000000E+00 -0.74505805969E-08  0.93827000000E+00  0.93827000000E+00 0.  1.
     999902    2    1    2    0    0  0.19088249835E-01  0.11262764516E-01  0.63329998580E-02  0.10208796630E+01  0.10206194043E+01 0.  0.
     999903    2    3    3    0    0  0.65915905240E-01 -0.10715148484E+00  0.31673588909E-01  0.13135343566E+00  0.20595182889E-01 0.  0.
         14    1    1    2    0    0 -0.19088249835E-01 -0.11262764516E-01 -0.63329998580E-02  0.23050336950E-01  0.00000000000E+00 0. -1.
     999901    1    3    3    0    0 -0.46827655404E-01  0.11841424936E+00 -0.25340589051E-01  0.88952622739E+00  0.88000000000E+00 0. -1.
        -11    1    4    4    0    0  0.50165967154E-01 -0.66369094569E-01  0.26563808275E-01  0.87334861341E-01  0.51100000000E-03 0. -1.
         11    1    4    4    0    0  0.15749938086E-01 -0.40782390271E-01  0.51097806341E-02  0.44018574319E-01  0.51100000000E-03 0.  1.
</event>
<event>
 8    1  0.1157726E+005  0.1043930E+01  0.7957747E-01            NaN
         13   -1    0    0    0    0  0.00000000000E+00  0.00000000000E+00  0.74505805969E-08  0.10566000000E+00  0.10566000000E+00 0. -1.
     999900   -1    0    0    0    0 -0.00000000000E+00 -0.00000000000E+00 -0.74505805969E-08  0.93827000000E+00  0.93827000000E+00 0.  1.
     999902    2    1    2    0    0  0.76883015215E-02 -0.21434390780E-01 -0.79507768357E-02  0.10198103412E+01  0.10195250728E+01 0.  0.
     999903    2    3    3    0    0 -0.28091123823E-01 -0.39938849932E-01 -0.12048871765E+00  0.13172961829E+00  0.21235307417E-01 0.  0.
         14    1    1    2    0    0 -0.76883015215E-02  0.21434390780E-01  0.79507768357E-02  0.24119658801E-01  0.00000000000E+00 0.  1.
     999901    1    3    3    0    0  0.35779425345E-01  0.18504459152E-01  0.11253794081E+00  0.88808072291E+00  0.88000000000E+00 0. -1.
        -11    1    4    4    0    0 -0.30075993900E-01 -0.27891149514E-01 -0.93522133514E-01  0.10212312279E+00  0.51100000000E-03 0. -1.
         11    1    4    4    0    0  0.19848700763E-02 -0.12047700418E-01 -0.26966584136E-01  0.29606495496E-01  0.51100000000E-03 0.  1.
</event>
<event>
 8    1  0.1157726E+005  0.1043930E+01  0.7957747E-01            NaN
         13   -1    0    0    0    0  0.00000000000E+00  0.00000000000E+00  0.74505805969E-08  0.10566000000E+00  0.10566000000E+00 0. -1.
     999900   -1    0    0    0    0 -0.00000000000E+00 -0.00000000000E+00 -0.74505805969E-08  0.93827000000E+00  0.93827000000E+00 0.  1.
     999902    2    1    2    0    0 -0.87702730049E-02  0.14018970234E-01  0.18319122877E-01  0.10192512748E+01  0.10189524629E+01 0.  0.
     999903    2    3    3    0    0  0.10023568776E+00 -0.40761924532E-01  0.67765458728E-01  0.12946018355E+00  0.21425548704E-01 0.  0.
         14    1    1    2    0    0  0.87702730049E-02 -0.14018970234E-01 -0.18319122877E-01  0.24678725210E-01  0.00000000000E+00 0.  1.
     999901    1    3    3    0    0 -0.10900596076E+00  0.54780894767E-01 -0.49446335851E-01  0.88979109124E+00  0.88000000000E+00 0.  1.
        -11    1    4    4    0    0  0.14805572413E-01 -0.11168011293E-01  0.44382907237E-02  0.19075874719E-01  0.51100000000E-03 0.  1.
         11    1    4    4    0    0  0.85430115345E-01 -0.29593913239E-01  0.63327168004E-01  0.11038430884E+00  0.51100000000E-03 0. -1.
</event>
<event>
 8    1  0.1157726E+005  0.1043930E+01  0.7957747E-01            NaN
         13   -1    0    0    0    0  0.00000000000E+00  0.00000000000E+00  0.74505805969E-08  0.10566000000E+00  0.10566000000E+00 0. -1.
     999900   -1    0    0    0    0 -0.00000000000E+00 -0.00000000000E+00 -0.74505805969E-08  0.93827000000E+00  0.93827000000E+00 0.  1.
     999902    2    1    2    0    0 -0.21235165156E-01 -0.25935386707E-02  0.90774683047E-02  0.10206908281E+01  0.10204262381E+01 0.  0.
     999903    2    3    3    0    0 -0.77506972275E-01 -0.96480324453E-01  0.45090656418E-01  0.13317846502E+00  0.19686352890E-01 0.  0.
         14    1    1    2    0    0  0.21235165156E-01  0.25935386707E-02 -0.90774683047E-02  0.23239171949E-01  0.00000000000E+00 0.  1.
     999901    1    3    3    0    0  0.56271807119E-01  0.93886785782E-01 -0.36013188113E-01  0.88751236303E+00  0.88000000000E+00 0. -1.
        -11    1    4    4    0    0 -0.31265138644E-01 -0.29292884264E-01  0.23214730444E-01  0.48731579017E-01  0.51100000000E-03 0.  1.
         11    1    4    4    0    0 -0.46241833632E-01 -0.67187440189E-01  0.21875925974E-01  0.84446885999E-01  0.51100000000E-03 0. -1.
</event>
<event>
 8    1  0.1157726E+005  0.1043930E+01  0.7957747E-01            NaN
         13   -1    0    0    0    0  0.00000000000E+00  0.00000000000E+00  0.74505805969E-08  0.10566000000E+00  0.10566000000E+00 0. -1.
     999900   -1    0    0    0    0 -0.00000000000E+00 -0.00000000000E+00 -0.74505805969E-08  0.93827000000E+00  0.93827000000E+00 0. -1.
     999902    2    1    2    0    0 -0.13472206531E-01 -0.11200011003E-01  0.18012329741E-01  0.10188026321E+01  0.10184927189E+01 0.  0.
     999903    2    3    3    0    0 -0.86677627353E-01 -0.41125029295E-01 -0.84452447608E-01  0.12933449272E+00  0.19771595346E-01 0.  0.
         14    1    1    2    0    0  0.13472206531E-01  0.11200011003E-01 -0.18012329741E-01  0.25127367908E-01  0.00000000000E+00 0.  1.
     999901    1    3    3    0    0  0.73205420823E-01  0.29925018292E-01  0.10246477735E+00  0.88946813937E+00  0.88000000000E+00 0.  1.
        -11    1    4    4    0    0 -0.68912243332E-01 -0.36810216946E-01 -0.58583157629E-01  0.97653145528E-01  0.51100000000E-03 0.  1.
         11    1    4    4    0    0 -0.17765384022E-01 -0.43148123489E-02 -0.25869289979E-01  0.31681347194E-01  0.51100000000E-03 0. -1.
</event>
<event>
 8    1  0.1157726E+005  0.1043930E+01  0.7957747E-01            NaN
         13   -1    0    0    0    0  0.00000000000E+00  0.00000000000E+00  0.74505805969E-08  0.10566000000E+00  0.10566000000E+00 0.  1.
     999900   -1    0    0    0    0 -0.00000000000E+00 -0.00000000000E+00 -0.74505805969E-08  0.93827000000E+00  0.93827000000E+00 0. -1.
     999902    2    1    2    0    0 -0.10838543038E-01  0.41205242213E-02 -0.21313868854E-01  0.10196661639E+01  0.10193774336E+01 0.  0.
     999903    2    3    3    0    0  0.64683714445E-01 -0.51043849646E-01  0.94722212353E-01  0.12713544084E+00  0.20041589372E-01 0.  0.
         14    1    1    2    0    0  0.10838543038E-01 -0.41205242213E-02  0.21313868854E-01  0.24263836065E-01  0.00000000000E+00 0. -1.
     999901    1    3    3    0    0 -0.75522257483E-01  0.55164373868E-01 -0.11603608121E+00  0.89253072309E+00  0.88000000000E+00 0. -1.
        -11    1    4    4    0    0  0.53062270521E-01 -0.49264390736E-01  0.86363764343E-01  0.11270113424E+00  0.51100000000E-03 0. -1.
         11    1    4    4    0    0  0.11621443924E-01 -0.17794589100E-02  0.83584480102E-02  0.14434306601E-01  0.51100000000E-03 0.  1.
</event>
<event>
 8    1  0.1157726E+005  0.1043930E+01  0.7957747E-01            NaN
         13   -1    0    0    0    0  0.00000000000E+00  0.00000000000E+00  0.74505805969E-08  0.10566000000E+00  0.10566000000E+00 0. -1.
     999900   -1    0    0    0    0 -0.00000000000E+00 -0.00000000000E+00 -0.74505805969E-08  0.93827000000E+00  0.93827000000E+00 0. -1.
     999902    2    1    2    0    0 -0.33094997953E-02  0.13069444011E-02  0.17478548857E-01  0.10260929441E+01  0.10259378974E+01 0.  0.
     999903    2    3    3    0    0 -0.12960959545E+00  0.34734637660E-01 -0.11030247104E-01  0.13599077229E+00  0.19148929774E-01 0.  0.
         14    1    1    2    0    0  0.33094997953E-02 -0.13069444011E-02 -0.17478548857E-01  0.17837055887E-01  0.00000000000E+00 0.  1.
     999901    1    3    3    0    0  0.12630009565E+00 -0.33427693259E-01  0.28508795961E-01  0.89010217182E+00  0.88000000000E+00 0.  1.
        -11    1    4    4    0    0 -0.69798978946E-01  0.27552798482E-01 -0.19464011452E-02  0.75067328210E-01  0.51100000000E-03 0. -1.
         11    1    4    4    0    0 -0.59810616500E-01  0.71818391783E-02 -0.90838459586E-02  0.60923444080E-01  0.51100000000E-03 0.  1.
</event>
<event>
 8    1  0.1157726E+005  0.1043930E+01  0.7957747E-01            NaN
         13   -1    0    0    0    0  0.00000000000E+00  0.00000000000E+00  0.74505805969E-08  0.10566000000E+00  0.10566000000E+00 0. -1.
     999900   -1    0    0    0    0 -0.00000000000E+00 -0.00000000000E+00 -0.74505805969E-08  0.93827000000E+00  0.93827000000E+00 0.  1.
     999902    2    1    2    0    0  0.68358556164E-03  0.22681641033E-01  0.69427406923E-02  0.10201997287E+01  0.10199237033E+01 0.  0.
     999903    2    3    3    0    0  0.63139791585E-01 -0.32507956326E-01  0.10800745335E+00  0.13050273223E+00  0.17943038608E-01 0.  0.
         14    1    1    2    0    0 -0.68358556164E-03 -0.22681641033E-01 -0.69427406923E-02  0.23730271332E-01  0.00000000000E+00 0. -1.
     999901    1    3    3    0    0 -0.62456206023E-01  0.55189597359E-01 -0.10106471266E+00  0.88969699644E+00  0.88000000000E+00 0.  1.
        -11    1    4    4    0    0  0.14384386136E-01 -0.16572041053E-01  0.32841492344E-01  0.39501491739E-01  0.51100000000E-03 0.  1.
         11    1    4    4    0    0  0.48755405449E-01 -0.15935915273E-01  0.75165961005E-01  0.91001240491E-01  0.51100000000E-03 0. -1.
</event>
<event>
 8    1  0.1157726E+005  0.1043930E+01  0.7957747E-01            NaN
         13   -1    0    0    0    0  0.00000000000E+00  0.00000000000E+00  0.74505805969E-08  0.10566000000E+00  0.10566000000E+00 0.  1.
     999900   -1    0    0    0    0 -0.00000000000E+00 -0.00000000000E+00 -0.74505805969E-08  0.93827000000E+00  0.93827000000E+00 0. -1.
     999902    2    1    2    0    0 -0.69397583237E-02 -0.19454769763E-01  0.10659792994E-01  0.10206860868E+01  0.10204213877E+01 0.  0.
     999903    2    3    3    0    0 -0.66198886328E-01 -0.19606516477E-01 -0.10900623488E+00  0.13061214300E+00  0.20259926420E-01 0.  0.
         14    1    1    2    0    0  0.69397583237E-02  0.19454769763E-01 -0.10659792994E-01  0.23243913156E-01  0.00000000000E+00 0. -1.
     999901    1    3    3    0    0  0.59259128004E-01  0.15174671381E-03  0.11966602787E+00  0.89007394384E+00  0.88000000000E+00 0.  1.
        -11    1    4    4    0    0 -0.51196604955E-01 -0.77861653428E-02 -0.68951989449E-01  0.86234301178E-01  0.51100000000E-03 0.  1.
         11    1    4    4    0    0 -0.15002281373E-01 -0.11820351134E-01 -0.40054245426E-01  0.44377841824E-01  0.51100000000E-03 0. -1.
</event>
<event>
 8    1  0.1157726E+005  0.1043930E+01  0.7957747E-01            NaN
         13   -1    0    0    0    0  0.00000000000E+00  0.00000000000E+00  0.74505805969E-08  0.10566000000E+00  0.10566000000E+00 0.  1.
     999900   -1    0    0    0    0 -0.00000000000E+00 -0.00000000000E+00 -0.74505805969E-08  0.93827000000E+00  0.93827000000E+00 0. -1.
     999902    2    1    2    0    0  0.10515126345E-01 -0.14116467405E-01  0.16354255710E-01  0.10199028442E+01  0.10196197857E+01 0.  0.
     999903    2    3    3    0    0  0.40017862809E-01  0.95453304847E-01 -0.72997168061E-01  0.12812954156E+00  0.19386338605E-01 0.  0.
         14    1    1    2    0    0 -0.10515126345E-01  0.14116467405E-01 -0.16354255710E-01  0.24027155759E-01  0.00000000000E+00 0. -1.
     999901    1    3    3    0    0 -0.29502736464E-01 -0.10956977225E+00  0.89351423771E-01  0.89177330268E+00  0.88000000000E+00 0.  1.
        -11    1    4    4    0    0  0.24610649032E-01  0.61693813550E-01 -0.35264444090E-01  0.75204074451E-01  0.51100000000E-03 0. -1.
         11    1    4    4    0    0  0.15407213777E-01  0.33759491297E-01 -0.37732723972E-01  0.52925467105E-01  0.51100000000E-03 0.  1.
</event>
<event>
 8    1  0.1157726E+005  0.1043930E+01  0.7957747E-01            NaN
         13   -1    0    0    0    0  0.00000000000E+00  0.00000000000E+00  0.74505805969E-08  0.10566000000E+00  0.10566000000E+00 0. -1.
     999900   -1    0    0    0    0 -0.00000000000E+00 -0.00000000000E+00 -0.74505805969E-08  0.93827000000E+00  0.93827000000E+00 0. -1.
     999902    2    1    2    0    0  0.14743960129E-01  0.15811511852E-01 -0.11543240429E-01  0.10194221509E+01  0.10191275127E+01 0.  0.
     999903    2    3    3    0    0  0.15139826314E-01 -0.43211760729E-01  0.11728951954E+00  0.12808507468E+00  0.23504985783E-01 0.  0.
         14    1    1    2    0    0 -0.14743960129E-01 -0.15811511852E-01  0.11543240429E-01  0.24507849088E-01  0.00000000000E+00 0. -1.
     999901    1    3    3    0    0 -0.39586618462E-03  0.59023272581E-01 -0.12883275997E+00  0.89133707623E+00  0.88000000000E+00 0. -1.
        -11    1    4    4    0    0 -0.37024862208E-02 -0.23370871983E-01  0.46195820834E-01  0.51905886420E-01  0.51100000000E-03 0.  1.
         11    1    4    4    0    0  0.18842312534E-01 -0.19840888746E-01  0.71093698706E-01  0.76179188265E-01  0.51100000000E-03 0. -1.
</event>
<event>
 8    1  0.1157726E+005  0.1043930E+01  0.7957747E-01            NaN
         13   -1    0    0    0    0  0.00000000000E+00  0.00000000000E+00  0.74505805969E-08  0.10566000000E+00  0.10566000000E+00 0.  1.
     999900   -1    0    0    0    0 -0.00000000000E+00 -0.00000000000E+00 -0.74505805969E-08  0.93827000000E+00  0.93827000000E+00 0. -1.
     999902    2    1    2    0    0 -0.12937172759E-01 -0.19765814395E-01 -0.10610935847E-02  0.10202829330E+01  0.10200088625E+01 0.  0.
     999903    2    3    3    0    0 -0.45522876880E-01  0.11828414869E+00  0.11640874579E-01  0.12883413447E+00  0.19981293551E-01 0.  0.
         14    1    1    2    0    0  0.12937172759E-01  0.19765814395E-01  0.10610935847E-02  0.23647066991E-01  0.00000000000E+00 0.  1.
     999901    1    3    3    0    0  0.32585704122E-01 -0.13804996309E+00 -0.12701968164E-01  0.89144879854E+00  0.88000000000E+00 0. -1.
        -11    1    4    4    0    0 -0.82540344895E-03  0.20807094828E-01 -0.10021619546E-02  0.20853823046E-01  0.51100000000E-03 0.  1.
         11    1    4    4    0    0 -0.44697473431E-01  0.97477053865E-01  0.12643036533E-01  0.10798031142E+00  0.51100000000E-03 0. -1.
</event>
<event>
 8    1  0.1157726E+005  0.1043930E+01  0.7957747E-01            NaN
         13   -1    0    0    0    0  0.00000000000E+00  0.00000000000E+00  0.74505805969E-08  0.10566000000E+00  0.10566000000E+00 0. -1.
     999900   -1    0    0    0    0 -0.00000000000E+00 -0.00000000000E+00 -0.74505805969E-08  0.93827000000E+00  0.93827000000E+00 0. -1.
     999902    2    1    2    0    0 -0.22884758444E-02  0.21730199416E-01  0.99136326325E-02  0.10199358590E+01  0.10196535871E+01 0.  0.
     999903    2    3    3    0    0  0.11547290464E+00 -0.44945215376E-01 -0.29408772975E-01  0.12872342351E+00  0.18729114731E-01 0.  0.
         14    1    1    2    0    0  0.22884758444E-02 -0.21730199416E-01 -0.99136326325E-02  0.23994140958E-01  0.00000000000E+00 0. -1.
     999901    1    3    3    0    0 -0.11776138049E+00  0.66675414792E-01  0.39322405608E-01  0.89121243554E+00  0.88000000000E+00 0.  1.
        -11    1    4    4    0    0  0.70800278325E-02 -0.22607652612E-02  0.26333734795E-02  0.79014954634E-02  0.51100000000E-03 0. -1.
         11    1    4    4    0    0  0.10839287681E+00 -0.42684450115E-01 -0.32042146455E-01  0.12082192804E+00  0.51100000000E-03 0.  1.
</event>
<event>
 8    1  0.1157726E+005  0.1043930E+01  0.7957747E-01            NaN
         13   -1    0    0    0    0  0.00000000000E+00  0.00000000000E+00  0.74505805969E-08  0.10566000000E+00  0.10566000000E+00 0.  1.
     999900   -1    0    0    0    0 -0.00000000000E+00 -0.00000000000E+00 -0.74505805969E-08  0.93827000000E+00  0.93827000000E+00 0.  1.
     999902    2    1    2    0    0 -0.14021187475E-01 -0.16529615072E-01  0.92739967965E-02  0.10203539764E+01  0.10200815694E+01 0.  0.
     999903    2    3    3    0    0 -0.45089260716E-01  0.11743757986E+00 -0.22124865363E-01  0.12911981915E+00  0.18915375589E-01 0.  0.
         14    1    1    2    0    0  0.14021187475E-01  0.16529615072E-01 -0.92739967965E-02  0.23576023609E-01  0.00000000000E+00 0. -1.
     999901    1    3    3    0    0  0.31068073241E-01 -0.13396719493E+00  0.31398862159E-01  0.89123415724E+00  0.88000000000E+00 0. -1.
        -11    1    4    4    0    0 -0.84198222321E-02  0.91516113414E-02  0.96701642853E-03  0.12483654847E-01  0.51100000000E-03 0.  1.
         11    1    4    4    0    0 -0.36669438484E-01  0.10828596852E+00 -0.23091881791E-01  0.11663616430E+00  0.51100000000E-03 0. -1.
</event>
<event>
 8    1  0.1157726E+005  0.1043930E+01  0.7957747E-01            NaN
         13   -1    0    0    0    0  0.00000000000E+00  0.00000000000E+00  0.74505805969E-08  0.10566000000E+00  0.10566000000E+00 0. -1.
     999900   -1    0    0    0    0 -0.00000000000E+00 -0.00000000000E+00 -0.74505805969E-08  0.93827000000E+00  0.93827000000E+00 0.  1.
     999902    2    1    2    0    0 -0.18684166011E-01 -0.43871289117E-02 -0.14229871220E-01  0.10200378633E+01  0.10197580146E+01 0.  0.
     999903    2    3    3    0    0 -0.66687281616E-02 -0.75074792420E-01 -0.10676815307E+00  0.13228539213E+00  0.20476573674E-01 0.  0.
         14    1    1    2    0    0  0.18684166011E-01  0.43871289117E-02  0.14229871220E-01  0.23892136668E-01  0.00000000000E+00 0. -1.
     999901    1    3    3    0    0 -0.12015437850E-01  0.70687663509E-01  0.92538281847E-01  0.88775247120E+00  0.88000000000E+00 0. -1.
        -11    1    4    4    0    0  0.30499710565E-02 -0.47968268738E-01 -0.54996639924E-01  0.73042101921E-01  0.51100000000E-03 0. -1.
         11    1    4    4    0    0 -0.97186992181E-02 -0.27106523682E-01 -0.51771513143E-01  0.59243290208E-01  0.51100000000E-03 0.  1.
</event>
<event>
 8    1  0.1157726E+005  0.1043930E+01  0.7957747E-01            NaN
         13   -1    0    0    0    0  0.00000000000E+00  0.00000000000E+00  0.74505805969E-08  0.10566000000E+00  0.10566000000E+00 0.  1.
     999900   -1    0    0    0    0 -0.00000000000E+00 -0.00000000000E+00 -0.74505805969E-08  0.93827000000E+00  0.93827000000E+00 0.  1.
     999902    2    1    2    0    0  0.12080186805E-01  0.18422504341E-01 -0.13717473021E-01  0.10179783402E+01  0.10176474893E+01 0.  0.
     999903    2    3    3    0    0  0.34487886615E-02  0.11859785659E+00 -0.53424633660E-01  0.13136328235E+00  0.18021507577E-01 0.  0.
         14    1    1    2    0    0 -0.12080186805E-01 -0.18422504341E-01  0.13717473021E-01  0.25951659784E-01  0.00000000000E+00 0.  1.
     999901    1    3    3    0    0  0.86313981434E-02 -0.10017535225E+00  0.39707160640E-01  0.88661505787E+00  0.88000000000E+00 0.  1.
        -11    1    4    4    0    0  0.78347151965E-02  0.55036785526E-01 -0.17844892135E-01  0.58387771147E-01  0.51100000000E-03 0.  1.
         11    1    4    4    0    0 -0.43859265350E-02  0.63561071069E-01 -0.35579741525E-01  0.72975511201E-01  0.51100000000E-03 0. -1.
</event>
<event>
 8    1  0.1157726E+005  0.1043930E+01  0.7957747E-01            NaN
         13   -1    0    0    0    0  0.00000000000E+00  0.00000000000E+00  0.74505805969E-08  0.10566000000E+00  0.10566000000E+00 0. -1.
     999900   -1    0    0    0    0 -0.00000000000E+00 -0.00000000000E+00 -0.74505805969E-08  0.93827000000E+00  0.93827000000E+00 0. -1.
     999902    2    1    2    0    0 -0.33025248151E-02  0.17630500978E-01 -0.15434144247E-01  0.10202666519E+01  0.10199921994E+01 0.  0.
     999903    2    3    3    0    0  0.62381728420E-01  0.97643757382E-01 -0.61958487556E-01  0.13297805350E+00  0.20457886885E-01 0.  0.
         14    1    1    2    0    0  0.33025248151E-02 -0.17630500978E-01  0.15434144247E-01  0.23663348105E-01  0.00000000000E+00 0. -1.
     999901    1    3    3    0    0 -0.65684253235E-01 -0.80013256403E-01  0.46524343310E-01  0.88728859840E+00  0.88000000000E+00 0. -1.
        -11    1    4    4    0    0  0.31052967105E-01  0.38355546216E-01 -0.16809013957E-01  0.52136731416E-01  0.51100000000E-03 0.  1.
         11    1    4    4    0    0  0.31328761315E-01  0.59288211166E-01 -0.45149473600E-01  0.80841322083E-01  0.51100000000E-03 0. -1.
</event>
<event>
 8    1  0.1157726E+005  0.1043930E+01  0.7957747E-01            NaN
         13   -1    0    0    0    0  0.00000000000E+00  0.00000000000E+00  0.74505805969E-08  0.10566000000E+00  0.10566000000E+00 0. -1.
     999900   -1    0    0    0    0 -0.00000000000E+00 -0.00000000000E+00 -0.74505805969E-08  0.93827000000E+00  0.93827000000E+00 0.  1.
     999902    2    1    2    0    0 -0.11412142623E-01  0.20485719308E-01 -0.10095256591E-02  0.10204582971E+01  0.10201883234E+01 0.  0.
     999903    2    3    3    0    0 -0.11853553317E+00 -0.49497777202E-01 -0.16058607694E-01  0.13107672238E+00  0.20555429840E-01 0.  0.
         14    1    1    2    0    0  0.11412142623E-01 -0.20485719308E-01  0.10095256591E-02  0.23471702897E-01  0.00000000000E+00 0. -1.
     999901    1    3    3    0    0  0.10712339055E+00  0.69983496510E-01  0.15049082034E-01  0.88938157472E+00  0.88000000000E+00 0.  1.
        -11    1    4    4    0    0 -0.16166149945E-01 -0.14344355548E-02  0.26346099628E-02  0.16450054713E-01  0.51100000000E-03 0.  1.
         11    1    4    4    0    0 -0.10236938323E+00 -0.48063341647E-01 -0.18693217656E-01  0.11462666767E+00  0.51100000000E-03 0. -1.
</event>
<event>
 7    1  0.1157726E+005  0.1043930E+01  0.7957747E-01            NaN
         13   -1    0    0    0    0  0.00000000000E+00  0.00000000000E+00  0.74505805969E-08  0.10566000000E+00  0.10566000000E+00 0.  1.
     999900   -1    0    0    0    0 -0.00000000000E+00 -0.00000000000E+00 -0.74505805969E-08  0.93827000000E+00  0.93827000000E+00 0.  1.
     999902    2    1    2    0    0  0.15672768416E-01  0.11105650789E-01  0.12909395538E-01  0.10207864557E+01  0.10205240637E+01 0.  0.
         14    1    1    2    0    0 -0.15672768416E-01 -0.11105650789E-01 -0.12909395538E-01  0.23143544293E-01  0.00000000000E+00 0. -1.
     999901    1    3    3    0    0 -0.96619333957E-01  0.19431759445E-01 -0.26186762036E-01  0.88588861347E+00  0.88000000000E+00 0.  1.
        -11    1    3    3    0    0  0.40976579149E-01 -0.23286623876E-01  0.40306877479E-01  0.62018161723E-01  0.51100000000E-03 0. -1.
         11    1    3    3    0    0  0.71315523223E-01  0.14960515220E-01 -0.12107199051E-02  0.72879680515E-01  0.51100000000E-03 0.  1.
</event>
<event>
 8    1  0.1157726E+005  0.1043930E+01  0.7957747E-01            NaN
         13   -1    0    0    0    0  0.00000000000E+00  0.00000000000E+00  0.74505805969E-08  0.10566000000E+00  0.10566000000E+00 0. -1.
     999900   -1    0    0    0    0 -0.00000000000E+00 -0.00000000000E+00 -0.74505805969E-08  0.93827000000E+00  0.93827000000E+00 0. -1.
     999902    2    1    2    0    0 -0.79576415405E-02  0.21910654746E-02  0.22167994076E-01  0.10202753009E+01  0.10200010514E+01 0.  0.
     999903    2    3    3    0    0 -0.10398240076E+00 -0.71816457783E-01  0.33863753000E-01  0.13188650166E+00  0.16653896747E-01 0.  0.
         14    1    1    2    0    0  0.79576415405E-02 -0.21910654746E-02 -0.22167994076E-01  0.23654699071E-01  0.00000000000E+00 0.  1.
     999901    1    3    3    0    0  0.96024759223E-01  0.74007523257E-01 -0.11695758923E-01  0.88838879926E+00  0.88000000000E+00 0.  1.
        -11    1    4    4    0    0 -0.85474806804E-01 -0.55041119802E-01  0.33003558108E-01  0.10688762059E+00  0.51100000000E-03 0. -1.
         11    1    4    4    0    0 -0.18507593960E-01 -0.16775337981E-01  0.86019489170E-03  0.24998881071E-01  0.51100000000E-03 0.  1.
</event>
<event>
 8    1  0.1157726E+005  0.1043930E+01  0.7957747E-01            NaN
         13   -1    0    0    0    0  0.00000000000E+00  0.00000000000E+00  0.74505805969E-08  0.10566000000E+00  0.10566000000E+00 0.  1.
     999900   -1    0    0    0    0 -0.00000000000E+00 -0.00000000000E+00 -0.74505805969E-08  0.93827000000E+00  0.93827000000E+00 0.  1.
     999902    2    1    2    0    0 -0.70030767024E-02 -0.17274894160E-01 -0.13981295795E-01  0.10206288909E+01  0.10203628724E+01 0.  0.
     999903    2    3    3    0    0  0.67927039713E-01 -0.81340491918E-01 -0.77514062303E-01  0.13284776049E+00  0.20242017233E-01 0.  0.
         14    1    1    2    0    0  0.70030767024E-02  0.17274894160E-01  0.13981295795E-01  0.23301109065E-01  0.00000000000E+00 0.  1.
     999901    1    3    3    0    0 -0.74930116415E-01  0.64065597758E-01  0.63532766508E-01  0.88778113045E+00  0.88000000000E+00 0.  1.
        -11    1    4    4    0    0  0.56644643471E-01 -0.68484269951E-01 -0.54813618350E-01  0.10441984841E+00  0.51100000000E-03 0.  1.
         11    1    4    4    0    0  0.11282396242E-01 -0.12856221968E-01 -0.22700443953E-01  0.28427912074E-01  0.51100000000E-03 0. -1.
</event>
<event>
 8    1  0.1157726E+005  0.1043930E+01  0.7957747E-01            NaN
         13   -1    0    0    0    0  0.00000000000E+00  0.00000000000E+00  0.74505805969E-08  0.10566000000E+00  0.10566000000E+00 0.  1.
     999900   -1    0    0    0    0 -0.00000000000E+00 -0.00000000000E+00 -0.74505805969E-08  0.93827000000E+00  0.93827000000E+00 0. -1.
     999902    2    1    2    0    0  0.18687937675E-01  0.12672233522E-01  0.63904970914E-02  0.10204637909E+01  0.10201939451E+01 0.  0.
     999903    2    3    3    0    0 -0.79452428130E-01  0.10122386252E+00  0.33085152167E-02  0.13058603467E+00  0.21972881004E-01 0.  0.
         14    1    1    2    0    0 -0.18687937675E-01 -0.12672233522E-01 -0.63904970914E-02  0.23466209111E-01  0.00000000000E+00 0. -1.
     999901    1    3    3    0    0  0.98140365805E-01 -0.88551628995E-01  0.30819818747E-02  0.88987775622E+00  0.88000000000E+00 0. -1.
        -11    1    4    4    0    0 -0.42273752031E-01  0.60820252407E-01  0.11864641925E-01  0.75014692312E-01  0.51100000000E-03 0. -1.
         11    1    4    4    0    0 -0.37178676099E-01  0.40403610110E-01 -0.85561267081E-02  0.55571342359E-01  0.51100000000E-03 0.  1.
</event>
<event>
 8    1  0.1157726E+005  0.1043930E+01  0.7957747E-01            NaN
         13   -1    0    0    0    0  0.00000000000E+00  0.00000000000E+00  0.74505805969E-08  0.10566000000E+00  0.10566000000E+00 0.  1.
     999900   -1    0    0    0    0 -0.00000000000E+00 -0.00000000000E+00 -0.74505805969E-08  0.93827000000E+00  0.93827000000E+00 0. -1.
     999902    2    1    2    0    0 -0.52223188169E-02  0.22836527391E-01 -0.21445655089E-02  0.10204059961E+01  0.10201348039E+01 0.  0.
     999903    2    3    3    0    0 -0.84680823111E-01 -0.66991901040E-01 -0.68868709031E-01  0.12976863345E+00  0.20934243162E-01 0.  0.
         14    1    1    2    0    0  0.52223188169E-02 -0.22836527391E-01  0.21445655089E-02  0.23524003875E-01  0.00000000000E+00 0. -1.
     999901    1    3    3    0    0  0.79458504295E-01  0.89828428431E-01  0.66724143522E-01  0.89063736267E+00  0.88000000000E+00 0. -1.
        -11    1    4    4    0    0 -0.96125308989E-02 -0.90770917839E-02 -0.17484418673E-01  0.21926248263E-01  0.51100000000E-03 0. -1.
         11    1    4    4    0    0 -0.75068292212E-01 -0.57914809256E-01 -0.51384290358E-01  0.10784238519E+00  0.51100000000E-03 0.  1.
</event>
<event>
 8    1  0.1157726E+005  0.1043930E+01  0.7957747E-01            NaN
         13   -1    0    0    0    0  0.00000000000E+00  0.00000000000E+00  0.74505805969E-08  0.10566000000E+00  0.10566000000E+00 0.  1.
     999900   -1    0    0    0    0 -0.00000000000E+00 -0.00000000000E+00 -0.74505805969E-08  0.93827000000E+00  0.93827000000E+00 0.  1.
     999902    2    1    2    0    0 -0.23543259892E-01  0.18037852391E-01 -0.68348756302E-02  0.10134937596E+01  0.10130366410E+01 0.  0.
     999903    2    3    3    0    0 -0.89752259339E-01 -0.12519870434E-01  0.84862268751E-01  0.12572927938E+00  0.19850234886E-01 0.  0.
         14    1    1    2    0    0  0.23543259892E-01 -0.18037852391E-01  0.68348756302E-02  0.30436240407E-01  0.00000000000E+00 0.  1.
     999901    1    3    3    0    0  0.66208999446E-01  0.30557722825E-01 -0.91697144381E-01  0.88776448021E+00  0.88000000000E+00 0.  1.
        -11    1    4    4    0    0 -0.30384072323E-01  0.47058166745E-02  0.32143800253E-01  0.44483947410E-01  0.51100000000E-03 0.  1.
         11    1    4    4    0    0 -0.59368187016E-01 -0.17225687109E-01  0.52718468497E-01  0.81245331974E-01  0.51100000000E-03 0. -1.
</event>
<event>
 8    1  0.1157726E+005  0.1043930E+01  0.7957747E-01            NaN
         13   -1    0    0    0    0  0.00000000000E+00  0.00000000000E+00  0.74505805969E-08  0.10566000000E+00  0.10566000000E+00 0.  1.
     999900   -1    0    0    0    0 -0.00000000000E+00 -0.00000000000E+00 -0.74505805969E-08  0.93827000000E+00  0.93827000000E+00 0.  1.
     999902    2    1    2    0    0 -0.55784649056E-02  0.15541235131E-01  0.19585663510E-01  0.10183126724E+01  0.10179903984E+01 0.  0.
     999903    2    3    3    0    0  0.11930326720E+00 -0.17925563572E-01  0.39688190442E-01  0.12863880784E+00  0.20449817320E-01 0.  0.
         14    1    1    2    0    0  0.55784649056E-02 -0.15541235131E-01 -0.19585663510E-01  0.25617327636E-01  0.00000000000E+00 0. -1.
     999901    1    3    3    0    0 -0.12488173210E+00  0.33466798703E-01 -0.20102526933E-01  0.88967386452E+00  0.88000000000E+00 0. -1.
        -11    1    4    4    0    0  0.45684871716E-01 -0.12683896790E-01  0.24161409266E-01  0.53216760144E-01  0.51100000000E-03 0.  1.
         11    1    4    4    0    0  0.73618395481E-01 -0.52416667824E-02  0.15526781176E-01  0.75422047695E-01  0.51100000000E-03 0. -1.
</event>
<event>
 8    1  0.1157726E+005  0.1043930E+01  0.7957747E-01            NaN
         13   -1    0    0    0    0  0.00000000000E+00  0.00000000000E+00  0.74505805969E-08  0.10566000000E+00  0.10566000000E+00 0. -1.
     999900   -1    0    0    0    0 -0.00000000000E+00 -0.00000000000E+00 -0.74505805969E-08  0.93827000000E+00  0.93827000000E+00 0. -1.
     999902    2    1    2    0    0 -0.15504024288E-01 -0.12422122900E-01 -0.11967418413E-01  0.10207372639E+01  0.10204737423E+01 0.  0.
     999903    2    3    3    0    0 -0.86971525039E-01 -0.30061158372E-01  0.91885881075E-01  0.13157797157E+00  0.20050637198E-01 0.  0.
         14    1    1    2    0    0  0.15504024288E-01  0.12422122900E-01  0.11967418413E-01  0.23192736146E-01  0.00000000000E+00 0. -1.
     999901    1    3    3    0    0  0.71467500751E-01  0.17639035472E-01 -0.10385329949E+00  0.88915929228E+00  0.88000000000E+00 0. -1.
        -11    1    4    4    0    0 -0.32270540022E-01 -0.12659740832E-02  0.29309700187E-01  0.43615479933E-01  0.51100000000E-03 0.  1.
         11    1    4    4    0    0 -0.54700985017E-01 -0.28795184289E-01  0.62576180888E-01  0.87962491640E-01  0.51100000000E-03 0. -1.
</event>
<event>
 8    1  0.1157726E+005  0.1043930E+01  0.7957747E-01            NaN
         13   -1    0    0    0    0  0.00000000000E+00  0.00000000000E+00  0.74505805969E-08  0.10566000000E+00  0.10566000000E+00 0. -1.
     999900   -1    0    0    0    0 -0.00000000000E+00 -0.00000000000E+00 -0.74505805969E-08  0.93827000000E+00  0.93827000000E+00 0.  1.
     999902    2    1    2    0    0 -0.89678385460E-02 -0.43221789293E-02 -0.21826992768E-01  0.10199399818E+01  0.10196578081E+01 0.  0.
     999903    2    3    3    0    0 -0.93363329996E-01  0.73501528916E-01  0.48013261196E-01  0.12973956082E+00  0.20196392006E-01 0.  0.
         14    1    1    2    0    0  0.89678385460E-02  0.43221789293E-02  0.21826992768E-01  0.23990018178E-01  0.00000000000E+00 0.  1.
     999901    1    3    3    0    0  0.84395491450E-01 -0.77823707845E-01 -0.69840253964E-01  0.89020042100E+00  0.88000000000E+00 0. -1.
        -11    1    4    4    0    0 -0.37766854021E-02  0.95561924221E-02  0.61037046717E-02  0.11962462036E-01  0.51100000000E-03 0. -1.
         11    1    4    4    0    0 -0.89586644594E-01  0.63945336494E-01  0.41909556524E-01  0.11777709878E+00  0.51100000000E-03 0.  1.
</event>
<event>
 8    1  0.1157726E+005  0.1043930E+01  0.7957747E-01            NaN
         13   -1    0    0    0    0  0.00000000000E+00  0.00000000000E+00  0.74505805969E-08  0.10566000000E+00  0.10566000000E+00 0.  1.
     999900   -1    0    0    0    0 -0.00000000000E+00 -0.00000000000E+00 -0.74505805969E-08  0.93827000000E+00  0.93827000000E+00 0. -1.
     999902    2    1    2    0    0 -0.22890458411E-01  0.42205781769E-02  0.40892874975E-02  0.10202972126E+01  0.10200234769E+01 0.  0.
     999903    2    3    3    0    0  0.10327969782E+00  0.27915070382E-01  0.68937031585E-01  0.12862150522E+00  0.18580369863E-01 0.  0.
         14    1    1    2    0    0  0.22890458411E-01 -0.42205781769E-02 -0.40892874975E-02  0.23632787365E-01  0.00000000000E+00 0.  1.
     999901    1    3    3    0    0 -0.12617015623E+00 -0.23694492205E-01 -0.64847744088E-01  0.89167570742E+00  0.88000000000E+00 0. -1.
        -11    1    4    4    0    0  0.89048906189E-01  0.22212144706E-01  0.50916539816E-01  0.10495638243E+00  0.51100000000E-03 0.  1.
         11    1    4    4    0    0  0.14230791632E-01  0.57029256764E-02  0.18020491769E-01  0.23665122783E-01  0.51100000000E-03 0. -1.
</event>
<event>
 8    1  0.1157726E+005  0.1043930E+01  0.7957747E-01            NaN
         13   -1    0    0    0    0  0.00000000000E+00  0.00000000000E+00  0.74505805969E-08  0.10566000000E+00  0.10566000000E+00 0.  1.
     999900   -1    0    0    0    0 -0.00000000000E+00 -0.00000000000E+00 -0.74505805969E-08  0.93827000000E+00  0.93827000000E+00 0. -1.
     999902    2    1    2    0    0  0.12655227301E-01  0.13211707802E-01 -0.15295125588E-01  0.10200837242E+01  0.10198049615E+01 0.  0.
     999903    2    3    3    0    0  0.10700451911E+00  0.63831939916E-01  0.38399171611E-01  0.13196927535E+00  0.20418364098E-01 0.  0.
         14    1    1    2    0    0 -0.12655227301E-01 -0.13211707802E-01  0.15295125588E-01  0.23846275765E-01  0.00000000000E+00 0.  1.
     999901    1    3    3    0    0 -0.94349291811E-01 -0.50620232115E-01 -0.53694297200E-01  0.88811444888E+00  0.88000000000E+00 0. -1.
        -11    1    4    4    0    0  0.90026859985E-01  0.44191742691E-01  0.30898210432E-01  0.10494144162E+00  0.51100000000E-03 0. -1.
         11    1    4    4    0    0  0.16977659127E-01  0.19640197225E-01  0.75009611798E-02  0.27027833729E-01  0.51100000000E-03 0.  1.
</event>
<event>
 7    1  0.1157726E+005  0.1043930E+01  0.7957747E-01            NaN
         13   -1    0    0    0    0  0.00000000000E+00  0.00000000000E+00  0.74505805969E-08  0.10566000000E+00  0.10566000000E+00 0. -1.
     999900   -1    0    0    0    0 -0.00000000000E+00 -0.00000000000E+00 -0.74505805969E-08  0.93827000000E+00  0.93827000000E+00 0.  1.
     999903    2    1    2    0    0  0.61932186073E-01  0.73420128898E-01 -0.33465771264E-01  0.10373390997E+00  0.20363085048E-01 0.  0.
         14    1    1    2    0    0  0.39665574474E-01 -0.28891387586E-01 -0.16643909098E-01  0.51817851992E-01  0.00000000000E+00 0.  1.
     999901    1    1    2    0    0 -0.10159776055E+00 -0.44528741312E-01  0.50109680362E-01  0.88837823804E+00  0.88000000000E+00 0. -1.
        -11    1    3    3    0    0  0.42558938547E-01  0.41452968773E-01 -0.11953918456E-01  0.60603375795E-01  0.51100000000E-03 0.  1.
         11    1    3    3    0    0  0.19373247526E-01  0.31967160125E-01 -0.21511852808E-01  0.43130534177E-01  0.51100000000E-03 0. -1.
</event>
<event>
 8    1  0.1157726E+005  0.1043930E+01  0.7957747E-01            NaN
         13   -1    0    0    0    0  0.00000000000E+00  0.00000000000E+00  0.74505805969E-08  0.10566000000E+00  0.10566000000E+00 0.  1.
     999900   -1    0    0    0    0 -0.00000000000E+00 -0.00000000000E+00 -0.74505805969E-08  0.93827000000E+00  0.93827000000E+00 0.  1.
     999902    2    1    2    0    0  0.10140655536E-01 -0.20063808860E-01 -0.13816702293E-02  0.10214067158E+01  0.10211583524E+01 0.  0.
     999903    2    3    3    0    0 -0.56245049393E-01 -0.70166129284E-01  0.94811943473E-01  0.13226639182E+00  0.20452444825E-01 0.  0.
         14    1    1    2    0    0 -0.10140655536E-01  0.20063808860E-01  0.13816702293E-02  0.22523284247E-01  0.00000000000E+00 0. -1.
     999901    1    3    3    0    0  0.66385704929E-01  0.50102320425E-01 -0.96193613702E-01  0.88914032394E+00  0.88000000000E+00 0.  1.
        -11    1    4    4    0    0 -0.15593842147E-01 -0.31950813535E-01  0.28257312433E-01  0.45417609199E-01  0.51100000000E-03 0. -1.
         11    1    4    4    0    0 -0.40651207246E-01 -0.38215315750E-01  0.66554631040E-01  0.86848782619E-01  0.51100000000E-03 0.  1.
</event>
<event>
 8    1  0.1157726E+005  0.1043930E+01  0.7957747E-01            NaN
         13   -1    0    0    0    0  0.00000000000E+00  0.00000000000E+00  0.74505805969E-08  0.10566000000E+00  0.10566000000E+00 0.  1.
     999900   -1    0    0    0    0 -0.00000000000E+00 -0.00000000000E+00 -0.74505805969E-08  0.93827000000E+00  0.93827000000E+00 0.  1.
     999902    2    1    2    0    0  0.13832620963E-01 -0.11611120977E-02 -0.19707674324E-01  0.10198243573E+01  0.10195394243E+01 0.  0.
     999903    2    3    3    0    0 -0.10331218249E+00  0.63219180922E-01 -0.41395059675E-01  0.12946596326E+00  0.19437407013E-01 0.  0.
         14    1    1    2    0    0 -0.13832620963E-01  0.11611120977E-02  0.19707674324E-01  0.24105642727E-01  0.00000000000E+00 0.  1.
     999901    1    3    3    0    0  0.11714480345E+00 -0.64380293020E-01  0.21687385351E-01  0.89035839401E+00  0.88000000000E+00 0. -1.
        -11    1    4    4    0    0 -0.70687407654E-01  0.52393555392E-01 -0.33811178296E-01  0.94261610140E-01  0.51100000000E-03 0. -1.
         11    1    4    4    0    0 -0.32624774831E-01  0.10825625530E-01 -0.75838813788E-02  0.35204353121E-01  0.51100000000E-03 0.  1.
</event>
<event>
 8    1  0.1157726E+005  0.1043930E+01  0.7957747E-01            NaN
         13   -1    0    0    0    0  0.00000000000E+00  0.00000000000E+00  0.74505805969E-08  0.10566000000E+00  0.10566000000E+00 0.  1.
     999900   -1    0    0    0    0 -0.00000000000E+00 -0.00000000000E+00 -0.74505805969E-08  0.93827000000E+00  0.93827000000E+00 0. -1.
     999902    2    1    2    0    0  0.93780958371E-02 -0.36205661853E-02 -0.21311363169E-01  0.10203666517E+01  0.10200945410E+01 0.  0.
     999903    2    3    3    0    0  0.11852253462E-01  0.68093297783E-01 -0.11187650012E+00  0.13281324841E+00  0.18596627576E-01 0.  0.
         14    1    1    2    0    0 -0.93780958371E-02  0.36205661853E-02  0.21311363169E-01  0.23563348259E-01  0.00000000000E+00 0.  1.
     999901    1    3    3    0    0 -0.24741576248E-02 -0.71713863968E-01  0.90565136954E-01  0.88755340334E+00  0.88000000000E+00 0. -1.
        -11    1    4    4    0    0  0.38366682623E-02  0.28249397582E-01 -0.63638814192E-01  0.69734555852E-01  0.51100000000E-03 0. -1.
         11    1    4    4    0    0  0.80155851996E-02  0.39843900201E-01 -0.48237685932E-01  0.63078692554E-01  0.51100000000E-03 0.  1.
</event>
<event>
 8    1  0.1157726E+005  0.1043930E+01  0.7957747E-01            NaN
         13   -1    0    0    0    0  0.00000000000E+00  0.00000000000E+00  0.74505805969E-08  0.10566000000E+00  0.10566000000E+00 0. -1.
     999900   -1    0    0    0    0 -0.00000000000E+00 -0.00000000000E+00 -0.74505805969E-08  0.93827000000E+00  0.93827000000E+00 0. -1.
     999902    2    1    2    0    0  0.24747545582E-01 -0.49514418904E-02  0.57347653787E-02  0.10180486298E+01  0.10177195917E+01 0.  0.
     999903    2    3    3    0    0  0.82214851409E-01 -0.78135424002E-01 -0.61607119204E-01  0.13058408635E+00  0.19807579226E-01 0.  0.
         14    1    1    2    0    0 -0.24747545582E-01  0.49514418904E-02 -0.57347653787E-02  0.25881370194E-01  0.00000000000E+00 0.  1.
     999901    1    3    3    0    0 -0.57467305826E-01  0.73183982111E-01  0.67341884582E-01  0.88746454346E+00  0.88000000000E+00 0. -1.
        -11    1    4    4    0    0  0.20698150124E-01 -0.25855257513E-01 -0.27053864543E-01  0.42767750319E-01  0.51100000000E-03 0.  1.
         11    1    4    4    0    0  0.61516701284E-01 -0.52280166489E-01 -0.34553254661E-01  0.87816336030E-01  0.51100000000E-03 0. -1.
</event>
<event>
 8    1  0.1157726E+005  0.1043930E+01  0.7957747E-01            NaN
         13   -1    0    0    0    0  0.00000000000E+00  0.00000000000E+00  0.74505805969E-08  0.10566000000E+00  0.10566000000E+00 0.  1.
     999900   -1    0    0    0    0 -0.00000000000E+00 -0.00000000000E+00 -0.74505805969E-08  0.93827000000E+00  0.93827000000E+00 0.  1.
     999902    2    1    2    0    0  0.56814951465E-02  0.21747867292E-01  0.69385368622E-02  0.10204057059E+01  0.10201345069E+01 0.  0.
     999903    2    3    3    0    0  0.21910944908E-01 -0.12321557920E+00  0.16232235087E-01  0.12834955931E+00  0.23408448340E-01 0.  0.
         14    1    1    2    0    0 -0.56814951465E-02 -0.21747867292E-01 -0.69385368622E-02  0.23524294095E-01  0.00000000000E+00 0. -1.
     999901    1    3    3    0    0 -0.16229449761E-01  0.14496344649E+00 -0.92936982247E-02  0.89205614660E+00  0.88000000000E+00 0.  1.
        -11    1    4    4    0    0  0.10652330707E-01 -0.87222908594E-01  0.15775525674E-02  0.87886618585E-01  0.51100000000E-03 0. -1.
         11    1    4    4    0    0  0.11258614200E-01 -0.35992670606E-01  0.14654682520E-01  0.40462940721E-01  0.51100000000E-03 0.  1.
</event>
<event>
 8    1  0.1157726E+005  0.1043930E+01  0.7957747E-01            NaN
         13   -1    0    0    0    0  0.00000000000E+00  0.00000000000E+00  0.74505805969E-08  0.10566000000E+00  0.10566000000E+00 0.  1.
     999900   -1    0    0    0    0 -0.00000000000E+00 -0.00000000000E+00 -0.74505805969E-08  0.93827000000E+00  0.93827000000E+00 0. -1.
     999902    2    1    2    0    0  0.22476778081E-01  0.17226659967E-02 -0.80436858799E-02  0.10199952133E+01  0.10197143527E+01 0.  0.
     999903    2    3    3    0    0  0.12439353251E+00 -0.12450202680E-01 -0.41511874497E-01  0.13336788761E+00  0.20856635489E-01 0.  0.
         14    1    1    2    0    0 -0.22476778081E-01 -0.17226659967E-02  0.80436858799E-02  0.23934786683E-01  0.00000000000E+00 0.  1.
     999901    1    3    3    0    0 -0.10191675443E+00  0.14172868677E-01  0.33468188617E-01  0.88662732571E+00  0.88000000000E+00 0. -1.
        -11    1    4    4    0    0  0.62712287106E-01 -0.14342103768E-01 -0.28165628380E-01  0.70228844769E-01  0.51100000000E-03 0. -1.
         11    1    4    4    0    0  0.61681245405E-01  0.18919010883E-02 -0.13346246118E-01  0.63139042841E-01  0.51100000000E-03 0.  1.
</event>
<event>
 8    1  0.1157726E+005  0.1043930E+01  0.7957747E-01            NaN
         13   -1    0    0    0    0  0.00000000000E+00  0.00000000000E+00  0.74505805969E-08  0.10566000000E+00  0.10566000000E+00 0. -1.
     999900   -1    0    0    0    0 -0.00000000000E+00 -0.00000000000E+00 -0.74505805969E-08  0.93827000000E+00  0.93827000000E+00 0. -1.
     999902    2    1    2    0    0  0.23563989723E-01 -0.46229377838E-02 -0.13490529324E-02  0.10198789479E+01  0.10195953193E+01 0.  0.
     999903    2    3    3    0    0  0.70266813540E-01  0.28470002581E-01 -0.10603400388E+00  0.13182757805E+00  0.19680808548E-01 0.  0.
         14    1    1    2    0    0 -0.23563989723E-01  0.46229377838E-02  0.13490529324E-02  0.24051052143E-01  0.00000000000E+00 0. -1.
     999901    1    3    3    0    0 -0.46702823817E-01 -0.33092940365E-01  0.10468495095E+00  0.88805136980E+00  0.88000000000E+00 0.  1.
        -11    1    4    4    0    0  0.25161569569E-01  0.24695611718E-02 -0.25372808927E-01  0.35822393407E-01  0.51100000000E-03 0. -1.
         11    1    4    4    0    0  0.45105243971E-01  0.26000441409E-01 -0.80661194951E-01  0.96005184647E-01  0.51100000000E-03 0.  1.
</event>
<event>
 8    1  0.1157726E+005  0.1043930E+01  0.7957747E-01            NaN
         13   -1    0    0    0    0  0.00000000000E+00  0.00000000000E+00  0.74505805969E-08  0.10566000000E+00  0.10566000000E+00 0. -1.
     999900   -1    0    0    0    0 -0.00000000000E+00 -0.00000000000E+00 -0.74505805969E-08  0.93827000000E+00  0.93827000000E+00 0.  1.
     999902    2    1    2    0    0 -0.21439427960E-01 -0.74106295592E-02  0.49325945855E-02  0.10207158450E+01  0.10204518310E+01 0.  0.
     999903    2    3    3    0    0 -0.12461396586E-01 -0.81169887547E-01  0.10177657241E+00  0.13229038995E+00  0.19960950176E-01 0.  0.
         14    1    1    2    0    0  0.21439427960E-01  0.74106295592E-02 -0.49325945855E-02  0.23214154972E-01  0.00000000000E+00 0.  1.
     999901    1    3    3    0    0 -0.89780313743E-02  0.73759257988E-01 -0.96843977828E-01  0.88842545508E+00  0.88000000000E+00 0.  1.
        -11    1    4    4    0    0 -0.14447009343E-01 -0.51707556036E-01  0.54187859979E-01  0.76282191370E-01  0.51100000000E-03 0. -1.
         11    1    4    4    0    0  0.19856127570E-02 -0.29462331512E-01  0.47588712435E-01  0.56008198581E-01  0.51100000000E-03 0.  1.
</event>
<event>
 8    1  0.1157726E+005  0.1043930E+01  0.7957747E-01            NaN
         13   -1    0    0    0    0  0.00000000000E+00  0.00000000000E+00  0.74505805969E-08  0.10566000000E+00  0.10566000000E+00 0.  1.
     999900   -1    0    0    0    0 -0.00000000000E+00 -0.00000000000E+00 -0.74505805969E-08  0.93827000000E+00  0.93827000000E+00 0. -1.
     999902    2    1    2    0    0  0.21412537132E-01  0.61761847175E-03 -0.16337470238E-01  0.10169894890E+01  0.10166325932E+01 0.  0.
     999903    2    3    3    0    0 -0.11703610575E+00  0.18860747960E-01 -0.37203761825E-01  0.12573405950E+00  0.19280974075E-01 0.  0.
         14    1    1    2    0    0 -0.21412537132E-01 -0.61761847175E-03  0.16337470238E-01  0.26940510997E-01  0.00000000000E+00 0.  1.
     999901    1    3    3    0    0  0.13844864289E+00 -0.18243129489E-01  0.20866291587E-01  0.89125542950E+00  0.88000000000E+00 0.  1.
        -11    1    4    4    0    0 -0.10503167592E-01 -0.37704967734E-02 -0.27787998331E-02  0.11511560489E-01  0.51100000000E-03 0.  1.
         11    1    4    4    0    0 -0.10653293816E+00  0.22631244734E-01 -0.34424961992E-01  0.11422249901E+00  0.51100000000E-03 0. -1.
</event>
<event>
 8    1  0.1157726E+005  0.1043930E+01  0.7957747E-01            NaN
         13   -1    0    0    0    0  0.00000000000E+00  0.00000000000E+00  0.74505805969E-08  0.10566000000E+00  0.10566000000E+00 0.  1.
     999900   -1    0    0    0    0 -0.00000000000E+00 -0.00000000000E+00 -0.74505805969E-08  0.93827000000E+00  0.93827000000E+00 0.  1.
     999902    2    1    2    0    0 -0.19915985484E-01 -0.13412384193E-01 -0.50482458351E-02  0.10193938366E+01  0.10190985089E+01 0.  0.
     999903    2    3    3    0    0 -0.59113666554E-01 -0.10862578467E+00  0.42165802023E-01  0.13213332462E+00  0.19679277082E-01 0.  0.
         14    1    1    2    0    0  0.19915985484E-01  0.13412384193E-01  0.50482458351E-02  0.24536163383E-01  0.00000000000E+00 0.  1.
     999901    1    3    3    0    0  0.39197681070E-01  0.95213400478E-01 -0.47214047858E-01  0.88726051200E+00  0.88000000000E+00 0.  1.
        -11    1    4    4    0    0 -0.39675768689E-01 -0.65306433122E-01  0.16573256978E-01  0.78192268135E-01  0.51100000000E-03 0. -1.
         11    1    4    4    0    0 -0.19437897865E-01 -0.43319351549E-01  0.25592545045E-01  0.53941056487E-01  0.51100000000E-03 0.  1.
</event>
<event>
 8    1  0.1157726E+005  0.1043930E+01  0.7957747E-01            NaN
         13   -1    0    0    0    0  0.00000000000E+00  0.00000000000E+00  0.74505805969E-08  0.10566000000E+00  0.10566000000E+00 0.  1.
     999900   -1    0    0    0    0 -0.00000000000E+00 -0.00000000000E+00 -0.74505805969E-08  0.93827000000E+00  0.93827000000E+00 0.  1.
     999902    2    1    2    0    0 -0.13903474838E-01 -0.67264502801E-03 -0.17142914375E-01  0.10218474599E+01  0.10216088257E+01 0.  0.
     999903    2    3    3    0    0 -0.56407023977E-01 -0.97936929220E-01 -0.69031788171E-01  0.13395143677E+00  0.20104854537E-01 0.  0.
         14    1    1    2    0    0  0.13903474838E-01  0.67264502801E-03  0.17142914375E-01  0.22082540098E-01  0.00000000000E+00 0.  1.
     999901    1    3    3    0    0  0.42503549139E-01  0.97264284192E-01  0.51888873796E-01  0.88789602313E+00  0.88000000000E+00 0.  1.
        -11    1    4    4    0    0 -0.19425653591E-01 -0.34860208672E-01 -0.13490756863E-01  0.42128990111E-01  0.51100000000E-03 0. -1.
         11    1    4    4    0    0 -0.36981370386E-01 -0.63076720548E-01 -0.55541031309E-01  0.91822446660E-01  0.51100000000E-03 0.  1.
</event>
<event>
 8    1  0.1157726E+005  0.1043930E+01  0.7957747E-01            NaN
         13   -1    0    0    0    0  0.00000000000E+00  0.00000000000E+00  0.74505805969E-08  0.10566000000E+00  0.10566000000E+00 0. -1.
     999900   -1    0    0    0    0 -0.00000000000E+00 -0.00000000000E+00 -0.74505805969E-08  0.93827000000E+00  0.93827000000E+00 0. -1.
     999902    2    1    2    0    0 -0.19241470523E-01  0.63040257375E-02  0.94109637281E-02  0.10216019646E+01  0.10213579357E+01 0.  0.
     999903    2    3    3    0    0 -0.54718016526E-01  0.82413103489E-01 -0.85785015051E-01  0.13249373076E+00  0.20237068075E-01 0.  0.
         14    1    1    2    0    0  0.19241470523E-01 -0.63040257375E-02 -0.94109637281E-02  0.22328035441E-01  0.00000000000E+00 0. -1.
     999901    1    3    3    0    0  0.35476546003E-01 -0.76109077751E-01  0.95195978779E-01  0.88910823380E+00  0.88000000000E+00 0. -1.
        -11    1    4    4    0    0 -0.99432960740E-02  0.11214283143E-01 -0.23323110530E-01  0.27728286803E-01  0.51100000000E-03 0. -1.
         11    1    4    4    0    0 -0.44774720452E-01  0.71198820346E-01 -0.62461904521E-01  0.10476544396E+00  0.51100000000E-03 0.  1.
</event>
<event>
 8    1  0.1157726E+005  0.1043930E+01  0.7957747E-01            NaN
         13   -1    0    0    0    0  0.00000000000E+00  0.00000000000E+00  0.74505805969E-08  0.10566000000E+00  0.10566000000E+00 0. -1.
     999900   -1    0    0    0    0 -0.00000000000E+00 -0.00000000000E+00 -0.74505805969E-08  0.93827000000E+00  0.93827000000E+00 0. -1.
     999902    2    1    2    0    0 -0.93089330793E-02  0.21747515997E-01  0.21324153136E-02  0.10201779920E+01  0.10199014548E+01 0.  0.
     999903    2    3    3    0    0  0.74761038898E-01  0.97239414685E-01 -0.41360736150E-01  0.13188837644E+00  0.25280756312E-01 0.  0.
         14    1    1    2    0    0  0.93089330793E-02 -0.21747515997E-01 -0.21324153136E-02  0.23752007961E-01  0.00000000000E+00 0. -1.
     999901    1    3    3    0    0 -0.84069971977E-01 -0.75491898688E-01  0.43493151464E-01  0.88828961560E+00  0.88000000000E+00 0.  1.
        -11    1    4    4    0    0  0.33353293641E-01  0.33421027219E-01 -0.27237512850E-01  0.54511929743E-01  0.51100000000E-03 0. -1.
         11    1    4    4    0    0  0.41407745256E-01  0.63818387466E-01 -0.14123223300E-01  0.77376446697E-01  0.51100000000E-03 0.  1.
</event>
<event>
 8    1  0.1157726E+005  0.1043930E+01  0.7957747E-01            NaN
         13   -1    0    0    0    0  0.00000000000E+00  0.00000000000E+00  0.74505805969E-08  0.10566000000E+00  0.10566000000E+00 0.  1.
     999900   -1    0    0    0    0 -0.00000000000E+00 -0.00000000000E+00 -0.74505805969E-08  0.93827000000E+00  0.93827000000E+00 0. -1.
     999902    2    1    2    0    0 -0.81716288530E-02 -0.20541563563E-01  0.76225270214E-02  0.10205455122E+01  0.10202775643E+01 0.  0.
     999903    2    3    3    0    0  0.97628907872E-01  0.63907262418E-01  0.51619396634E-01  0.12910786305E+00  0.19716397988E-01 0.  0.
         14    1    1    2    0    0  0.81716288530E-02  0.20541563563E-01 -0.76225270214E-02  0.23384487806E-01  0.00000000000E+00 0. -1.
     999901    1    3    3    0    0 -0.10580053673E+00 -0.84448825982E-01 -0.43996869612E-01  0.89143764915E+00  0.88000000000E+00 0.  1.
        -11    1    4    4    0    0  0.20404850648E-01  0.23381476161E-01  0.11362390355E-01  0.33051722997E-01  0.51100000000E-03 0.  1.
         11    1    4    4    0    0  0.77224057224E-01  0.40525786257E-01  0.40257006279E-01  0.96056140051E-01  0.51100000000E-03 0. -1.
</event>
<event>
 8    1  0.1157726E+005  0.1043930E+01  0.7957747E-01            NaN
         13   -1    0    0    0    0  0.00000000000E+00  0.00000000000E+00  0.74505805969E-08  0.10566000000E+00  0.10566000000E+00 0.  1.
     999900   -1    0    0    0    0 -0.00000000000E+00 -0.00000000000E+00 -0.74505805969E-08  0.93827000000E+00  0.93827000000E+00 0. -1.
     999902    2    1    2    0    0 -0.10297772636E-01 -0.20091818460E-01  0.90011617771E-02  0.10196247289E+01  0.10193349997E+01 0.  0.
     999903    2    3    3    0    0 -0.10474950802E-01 -0.81267282745E-01  0.10013792062E+00  0.13280548145E+00  0.29926525333E-01 0.  0.
         14    1    1    2    0    0  0.10297772636E-01  0.20091818460E-01 -0.90011617771E-02  0.24305271108E-01  0.00000000000E+00 0.  1.
     999901    1    3    3    0    0  0.17717816562E-03  0.61175464286E-01 -0.91136758839E-01  0.88681924744E+00  0.88000000000E+00 0. -1.
        -11    1    4    4    0    0 -0.12958994598E-01 -0.42990554307E-01  0.73399114124E-01  0.86045420424E-01  0.51100000000E-03 0.  1.
         11    1    4    4    0    0  0.24840437965E-02 -0.38276728438E-01  0.26738806492E-01  0.46760061026E-01  0.51100000000E-03 0. -1.
</event>
<event>
 8    1  0.1157726E+005  0.1043930E+01  0.7957747E-01            NaN
         13   -1    0    0    0    0  0.00000000000E+00  0.00000000000E+00  0.74505805969E-08  0.10566000000E+00  0.10566000000E+00 0. -1.
     999900   -1    0    0    0    0 -0.00000000000E+00 -0.00000000000E+00 -0.74505805969E-08  0.93827000000E+00  0.93827000000E+00 0. -1.
     999902    2    1    2    0    0  0.96454912805E-02  0.71005691486E-02  0.22238328602E-01  0.10186714006E+01  0.10183582010E+01 0.  0.
     999903    2    3    3    0    0 -0.11955876200E+00 -0.35789668351E-01  0.21473571822E-01  0.12820304272E+00  0.19992697313E-01 0.  0.
         14    1    1    2    0    0 -0.96454912805E-02 -0.71005691486E-02 -0.22238328602E-01  0.25258599393E-01  0.00000000000E+00 0.  1.
     999901    1    3    3    0    0  0.12920425328E+00  0.42890237499E-01  0.76475677966E-03  0.89046835788E+00  0.88000000000E+00 0.  1.
        -11    1    4    4    0    0 -0.56465091049E-01 -0.67685331041E-02  0.11795713234E-01  0.58082006846E-01  0.51100000000E-03 0.  1.
         11    1    4    4    0    0 -0.63093670949E-01 -0.29021135247E-01  0.96778585881E-02  0.70121035878E-01  0.51100000000E-03 0. -1.
</event>
<event>
 8    1  0.1157726E+005  0.1043930E+01  0.7957747E-01            NaN
         13   -1    0    0    0    0  0.00000000000E+00  0.00000000000E+00  0.74505805969E-08  0.10566000000E+00  0.10566000000E+00 0. -1.
     999900   -1    0    0    0    0 -0.00000000000E+00 -0.00000000000E+00 -0.74505805969E-08  0.93827000000E+00  0.93827000000E+00 0. -1.
     999902    2    1    2    0    0 -0.18921165078E-01  0.12497392852E-01 -0.79265741879E-02  0.10199086367E+01  0.10196257163E+01 0.  0.
     999903    2    3    3    0    0 -0.56032099647E-01 -0.11286208400E+00 -0.25970698037E-01  0.13006718437E+00  0.19119338325E-01 0.  0.
         14    1    1    2    0    0  0.18921165078E-01 -0.12497392852E-01  0.79265741879E-02  0.24021363291E-01  0.00000000000E+00 0.  1.
     999901    1    3    3    0    0  0.37110934570E-01  0.12535947685E+00  0.18044123850E-01  0.88984145234E+00  0.88000000000E+00 0. -1.
        -11    1    4    4    0    0 -0.30682666527E-01 -0.52963422832E-01 -0.21471713181E-01  0.64867910180E-01  0.51100000000E-03 0.  1.
         11    1    4    4    0    0 -0.25349433121E-01 -0.59898661164E-01 -0.44989848561E-02  0.65199274187E-01  0.51100000000E-03 0. -1.
</event>
<event>
 8    1  0.1157726E+005  0.1043930E+01  0.7957747E-01            NaN
         13   -1    0    0    0    0  0.00000000000E+00  0.00000000000E+00  0.74505805969E-08  0.10566000000E+00  0.10566000000E+00 0.  1.
     999900   -1    0    0    0    0 -0.00000000000E+00 -0.00000000000E+00 -0.74505805969E-08  0.93827000000E+00  0.93827000000E+00 0.  1.
     999902    2    1    2    0    0 -0.24069856836E-01  0.87801571611E-03  0.14306591894E-02  0.10198016825E+01  0.10195162068E+01 0.  0.
     999903    2    3    3    0    0 -0.11167590960E+00 -0.16183488147E-01  0.66962401404E-01  0.13286294469E+00  0.20861083256E-01 0.  0.
         14    1    1    2    0    0  0.24069856836E-01 -0.87801571611E-03 -0.14306591894E-02  0.24128317500E-01  0.00000000000E+00 0. -1.
     999901    1    3    3    0    0  0.87606052768E-01  0.17061503863E-01 -0.65531742214E-01  0.88693873781E+00  0.88000000000E+00 0.  1.
        -11    1    4    4    0    0 -0.37413952792E-01 -0.23167559510E-02  0.33347946781E-01  0.50174873166E-01  0.51100000000E-03 0. -1.
         11    1    4    4    0    0 -0.74261956811E-01 -0.13866732196E-01  0.33614454622E-01  0.82688071521E-01  0.51100000000E-03 0.  1.
</event>
<event>
 8    1  0.1157726E+005  0.1043930E+01  0.7957747E-01            NaN
         13   -1    0    0    0    0  0.00000000000E+00  0.00000000000E+00  0.74505805969E-08  0.10566000000E+00  0.10566000000E+00 0.  1.
     999900   -1    0    0    0    0 -0.00000000000E+00 -0.00000000000E+00 -0.74505805969E-08  0.93827000000E+00  0.93827000000E+00 0. -1.
     999902    2    1    2    0    0  0.20572968305E-01  0.11768362716E-01  0.13526301432E-02  0.10201903497E+01  0.10199141036E+01 0.  0.
     999903    2    3    3    0    0 -0.66210427977E-01 -0.46354687968E-02  0.10901050152E+00  0.12924104657E+00  0.20362964732E-01 0.  0.
         14    1    1    2    0    0 -0.20572968305E-01 -0.11768362716E-01 -0.13526301432E-02  0.23739650255E-01  0.00000000000E+00 0. -1.
     999901    1    3    3    0    0  0.86783396282E-01  0.16403831513E-01 -0.10765787138E+00  0.89094930318E+00  0.88000000000E+00 0.  1.
        -11    1    4    4    0    0 -0.38138432732E-01 -0.18051666192E-02  0.43324565863E-01  0.57750132519E-01  0.51100000000E-03 0.  1.
         11    1    4    4    0    0 -0.28071995244E-01 -0.28303021776E-02  0.65685935659E-01  0.71490914051E-01  0.51100000000E-03 0. -1.
</event>
<event>
 8    1  0.1157726E+005  0.1043930E+01  0.7957747E-01            NaN
         13   -1    0    0    0    0  0.00000000000E+00  0.00000000000E+00  0.74505805969E-08  0.10566000000E+00  0.10566000000E+00 0. -1.
     999900   -1    0    0    0    0 -0.00000000000E+00 -0.00000000000E+00 -0.74505805969E-08  0.93827000000E+00  0.93827000000E+00 0. -1.
     999902    2    1    2    0    0 -0.37325668331E-03 -0.12297664804E-01 -0.20288628165E-01  0.10202023724E+01  0.10199264092E+01 0.  0.
     999903    2    3    3    0    0  0.72889152966E-02 -0.11114150309E+00 -0.70494909529E-01  0.13321337360E+00  0.19253795484E-01 0.  0.
         14    1    1    2    0    0  0.37325668331E-03  0.12297664804E-01  0.20288628165E-01  0.23727627631E-01  0.00000000000E+00 0. -1.
     999901    1    3    3    0    0 -0.76621719799E-02  0.98843838291E-01  0.50206281364E-01  0.88698899877E+00  0.88000000000E+00 0.  1.
        -11    1    4    4    0    0  0.75552533403E-02 -0.95179411319E-01 -0.51807373133E-01  0.10862995546E+00  0.51100000000E-03 0. -1.
         11    1    4    4    0    0 -0.26633804367E-03 -0.15962091775E-01 -0.18687536395E-01  0.24583418137E-01  0.51100000000E-03 0.  1.
</event>
